
  ___ ___ ___ _ _ _  
 |   |   |_  | | | | 
 | | | | | . | | | | 
 |__ |  _|___|_____|  22.8.0
 |___|_|             

User:   vazumah@c14.hercules
Date:   Wed Mar  8 10:02:11 2023
Arch:   x86_64
Pid:    5547
CWD:    /home/vazumah/Python_projects/LiNRR/Li_adsorb_studies/proton_donors/on_pure_surface/Li_BCC100/adsorbates/methanol_y/bridge/0.0_1.617
Python: 3.10.8
gpaw:   /home/vazumah/.conda/envs/GPAW/lib/python3.10/site-packages/gpaw
_gpaw:  /home/vazumah/.conda/envs/GPAW/lib/python3.10/site-packages/
        _gpaw.cpython-310-x86_64-linux-gnu.so
ase:    /home/vazumah/.conda/envs/GPAW/lib/python3.10/site-packages/ase (version 3.22.1)
numpy:  /home/vazumah/.conda/envs/GPAW/lib/python3.10/site-packages/numpy (version 1.24.1)
scipy:  /home/vazumah/.conda/envs/GPAW/lib/python3.10/site-packages/scipy (version 1.10.0)
libxc:  5.2.3
units:  Angstrom and eV
cores: 24
OpenMP: True
OMP_NUM_THREADS: 1

Input parameters:
  h: 0.16
  kpts: {size: [4, 4, 1]}
  occupations: {name: fermi-dirac,
                width: 0.05}
  poissonsolver: {dipolelayer: xy}
  xc: BEEF-vdW

System changes: positions, numbers, cell, pbc, initial_charges, initial_magmoms 

Initialize ...

species:
  Li:
    name: Lithium
    id: 830b4218f175192f93f959cfc0aad614
    Z: 3.0
    valence: 1
    core: 2
    charge: 0.0
    file: /home/vazumah/.conda/envs/GPAW/share/gpaw/Li.PBE.gz
    compensation charges: {type: gauss,
                           rc: 0.33,
                           lmax: 2}
    cutoffs: {filter: 1.91,
              core: 2.55}
    valence states:
      #              energy  rcut
      - 2s(1.00)    -2.874   1.058
      - 2p(0.00)    -1.090   1.058
      -  s          24.337   1.058
  
    # Using partial waves for Li as LCAO basis

  O:
    name: Oxygen
    id: 32ecd46bf208036f09c70b0ec9a88b78
    Z: 8.0
    valence: 6
    core: 2
    charge: 0.0
    file: /home/vazumah/.conda/envs/GPAW/share/gpaw/O.PBE.gz
    compensation charges: {type: gauss,
                           rc: 0.21,
                           lmax: 2}
    cutoffs: {filter: 1.17,
              core: 0.83}
    valence states:
      #              energy  rcut
      - 2s(2.00)   -23.961   0.688
      - 2p(4.00)    -9.029   0.598
      -  s           3.251   0.688
      -  p          18.182   0.598
      -  d           0.000   0.619
  
    # Using partial waves for O as LCAO basis

  C:
    name: Carbon
    id: 4aa54d4b901d75f77cc0ea3eec22967b
    Z: 6.0
    valence: 4
    core: 2
    charge: 0.0
    file: /home/vazumah/.conda/envs/GPAW/share/gpaw/C.PBE.gz
    compensation charges: {type: gauss,
                           rc: 0.20,
                           lmax: 2}
    cutoffs: {filter: 1.14,
              core: 1.14}
    valence states:
      #              energy  rcut
      - 2s(2.00)   -13.751   0.635
      - 2p(2.00)    -5.284   0.635
      -  s          13.461   0.635
      -  p          21.927   0.635
      -  d           0.000   0.635
  
    # Using partial waves for C as LCAO basis

  H:
    name: Hydrogen
    id: d65de229564ff8ea4db303e23b6d1ecf
    Z: 1.0
    valence: 1
    core: 0
    charge: 0.0
    file: /home/vazumah/.conda/envs/GPAW/share/gpaw/H.PBE.gz
    compensation charges: {type: gauss,
                           rc: 0.15,
                           lmax: 2}
    cutoffs: {filter: 0.85,
              core: 0.53}
    valence states:
      #              energy  rcut
      - 1s(1.00)    -6.494   0.476
      -  s          20.717   0.476
      -  p           0.000   0.476
  
    # Using partial waves for H as LCAO basis

Reference energy: -10418.802594  # eV

Spin-paired calculation

Convergence criteria:
 Maximum [total energy] change in last 3 cyles: 0.0005 eV / electron
 Maximum integral of absolute [dens]ity change: 0.0001 electrons / valence electron
 Maximum integral of absolute [eigenst]ate change: 4e-08 eV^2 / valence electron
 Maximum number of scf [iter]ations: 333
 (Square brackets indicate name in SCF output, whereas a 'c' in
 the SCF output indicates the quantity has converged.)

Symmetries present (total): 1

  ( 1  0  0)
  ( 0  1  0)
  ( 0  0  1)

16 k-points: 4 x 4 x 1 Monkhorst-Pack grid
8 k-points in the irreducible part of the Brillouin zone
       k-points in crystal coordinates                weights
   0:     0.12500000   -0.37500000    0.00000000          2/16
   1:     0.12500000   -0.12500000    0.00000000          2/16
   2:     0.12500000    0.12500000    0.00000000          2/16
   3:     0.12500000    0.37500000    0.00000000          2/16
   4:     0.37500000   -0.37500000    0.00000000          2/16
   5:     0.37500000   -0.12500000    0.00000000          2/16
   6:     0.37500000    0.12500000    0.00000000          2/16
   7:     0.37500000    0.37500000    0.00000000          2/16

Wave functions: Uniform real-space grid
  Kinetic energy operator: 6*3+1=19 point O(h^6) finite-difference Laplacian
  ScaLapack parameters: grid=1x1, blocksize=None
  Wavefunction extrapolation:
    Improved wavefunction reuse through dual PAW basis 

Occupation numbers: Fermi-Dirac:
  width: 0.0500  # eV
 

Eigensolver
   Davidson(niter=2) 

Densities:
  Coarse grid: 60*60*156 grid
  Fine grid: 120*120*312 grid
  Total Charge: 0.000000 

Density mixing:
  Method: separate
  Backend: pulay
  Linear mixing parameter: 0.05
  old densities: 5
  Damping of long wavelength oscillations: 50 

Hamiltonian:
  XC and Coulomb potentials evaluated on a 120*120*312 grid
  Using the BEEF-vdW Exchange-Correlation functional
  Interpolation: tri-quintic (5. degree polynomial)
  Poisson solver: FastPoissonSolver using
    Stencil: 6*3+1=19 point O(h^6) finite-difference Laplacian
    FFT axes: [0, 1]
    FST axes: [2]

Dipole correction along z-axis 

XC parameters: BEEF-vdW with 2 nearest neighbor stencil

Memory estimate:
  Process memory now: 218.37 MiB
  Calculator: 353.93 MiB
    Density: 116.65 MiB
      Arrays: 36.75 MiB
      Localized functions: 65.89 MiB
      Mixer: 14.01 MiB
    Hamiltonian: 29.24 MiB
      Arrays: 24.03 MiB
      XC: 0.00 MiB
      Poisson: 0.00 MiB
      vbar: 5.20 MiB
    Wavefunctions: 208.04 MiB
      Arrays psit_nG: 95.25 MiB
      Eigensolver: 109.44 MiB
      Projections: 0.04 MiB
      Projectors: 3.32 MiB

Total number of cores used: 24
Parallelization over k-points: 8
Domain decomposition: 1 x 1 x 3

Number of atoms: 42
Number of atomic orbitals: 156
Number of bands in calculation: 34
Number of valence electrons: 50
Bands to converge: occupied

... initialized

Initializing position-dependent things.

Density initialized from atomic densities
Creating initial wave functions:
  34 bands from LCAO basis set

       .-----------------------.  
      /|                       |  
     / |                       |  
    /  |                       |  
   /   |                       |  
  /    |                       |  
 *     |                       |  
 |     |                       |  
 |     |                      H|  
 |     |                       |  
 |     | H                   H |  
 |     |                       |  
 |     |                       |  
 |     |                       |  
 |O  Li|     Li      Li H      |  
 |     |  Li      Li     CLi   |  
 | Li  |   Li      Li          |  
 |     |Li      Li      Li     |  
 Li    | Li      Li            |  
 |   LLi     LLi     LLi       |  
 |     |  Li      Li      Li   |  
 | Li  |   Li      Li          |  
 |     |Li      Li      Li     |  
 Li    | Li      Li            |  
 |    Li      Li      Li       |  
 |     |                       |  
 |     |                       |  
 |     |                       |  
 |     |                       |  
 |     |                       |  
 |     |                       |  
 |     .-----------------------.  
 |    /                       /   
 |   /                       /    
 |  /                       /     
 | /                       /      
 |/                       /       
 *-----------------------*        

Positions:
   0 Li     1.617037    1.617037   10.000000    ( 0.0000,  0.0000,  0.0000)
   1 Li     4.851111    1.617037   10.000000    ( 0.0000,  0.0000,  0.0000)
   2 Li     8.085185    1.617037   10.000000    ( 0.0000,  0.0000,  0.0000)
   3 Li     1.617037    4.851111   10.000000    ( 0.0000,  0.0000,  0.0000)
   4 Li     4.851111    4.851111   10.000000    ( 0.0000,  0.0000,  0.0000)
   5 Li     8.085185    4.851111   10.000000    ( 0.0000,  0.0000,  0.0000)
   6 Li     1.617037    8.085185   10.000000    ( 0.0000,  0.0000,  0.0000)
   7 Li     4.851111    8.085185   10.000000    ( 0.0000,  0.0000,  0.0000)
   8 Li     8.085185    8.085185   10.000000    ( 0.0000,  0.0000,  0.0000)
   9 Li     0.000000    0.000000   11.617037    ( 0.0000,  0.0000,  0.0000)
  10 Li     3.234074    0.000000   11.617037    ( 0.0000,  0.0000,  0.0000)
  11 Li     6.468148    0.000000   11.617037    ( 0.0000,  0.0000,  0.0000)
  12 Li     0.000000    3.234074   11.617037    ( 0.0000,  0.0000,  0.0000)
  13 Li     3.234074    3.234074   11.617037    ( 0.0000,  0.0000,  0.0000)
  14 Li     6.468148    3.234074   11.617037    ( 0.0000,  0.0000,  0.0000)
  15 Li     0.000000    6.468148   11.617037    ( 0.0000,  0.0000,  0.0000)
  16 Li     3.234074    6.468148   11.617037    ( 0.0000,  0.0000,  0.0000)
  17 Li     6.468148    6.468148   11.617037    ( 0.0000,  0.0000,  0.0000)
  18 Li     1.617038    1.617038   13.469728    ( 0.0000,  0.0000,  0.0000)
  19 Li     4.851111    1.617038   13.469729    ( 0.0000,  0.0000,  0.0000)
  20 Li     8.085184    1.617038   13.469728    ( 0.0000,  0.0000,  0.0000)
  21 Li     1.617038    4.851111   13.469729    ( 0.0000,  0.0000,  0.0000)
  22 Li     4.851111    4.851111   13.469730    ( 0.0000,  0.0000,  0.0000)
  23 Li     8.085184    4.851111   13.469729    ( 0.0000,  0.0000,  0.0000)
  24 Li     1.617038    8.085184   13.469728    ( 0.0000,  0.0000,  0.0000)
  25 Li     4.851111    8.085184   13.469729    ( 0.0000,  0.0000,  0.0000)
  26 Li     8.085184    8.085184   13.469728    ( 0.0000,  0.0000,  0.0000)
  27 Li    -0.000000   -0.000000   15.445939    ( 0.0000,  0.0000,  0.0000)
  28 Li     3.234074    0.000000   15.445939    ( 0.0000,  0.0000,  0.0000)
  29 Li     6.468148    0.000000   15.445939    ( 0.0000,  0.0000,  0.0000)
  30 Li     0.000000    3.234074   15.445939    ( 0.0000,  0.0000,  0.0000)
  31 Li     3.234076    3.234076   15.445938    ( 0.0000,  0.0000,  0.0000)
  32 Li     6.468146    3.234076   15.445938    ( 0.0000,  0.0000,  0.0000)
  33 Li     0.000000    6.468148   15.445939    ( 0.0000,  0.0000,  0.0000)
  34 Li     3.234076    6.468146   15.445938    ( 0.0000,  0.0000,  0.0000)
  35 Li     6.468146    6.468146   15.445938    ( 0.0000,  0.0000,  0.0000)
  36 O      0.000000    1.617037   17.445939    ( 0.0000,  0.0000,  0.0000)
  37 C     -0.015074    0.187074   17.451439    ( 0.0000,  0.0000,  0.0000)
  38 H     -0.765027   -0.217197   16.764289    ( 0.0000,  0.0000,  0.0000)
  39 H     -0.193483   -0.216438   18.453228    ( 0.0000,  0.0000,  0.0000)
  40 H      0.970641   -0.132369   17.118510    ( 0.0000,  0.0000,  0.0000)
  41 H     -0.863129    1.928692   17.736944    ( 0.0000,  0.0000,  0.0000)

Unit cell:
           periodic     x           y           z      points  spacing
  1. axis:    yes    9.702222    0.000000    0.000000    60     0.1617
  2. axis:    yes    0.000000    9.702222    0.000000    60     0.1617
  3. axis:    no     0.000000    0.000000   24.851111   156     0.1593

  Lengths:   9.702222   9.702222  24.851111
  Angles:   90.000000  90.000000  90.000000

Effective grid spacing dv^(1/3) = 0.1609

     iter     time        total  log10-change:
                         energy  eigst   dens
iter:   1 10:05:21  -307.104635
iter:   2 10:07:39  -234.384945  +2.04  -0.21
iter:   3 10:10:01  -223.581390  +2.79  -0.39
iter:   4 10:12:40  -232.029472  +2.36  -0.48
Writing to output.gpw (mode='')

iter:   5 10:15:10  -238.226389  +2.23  -0.61
iter:   6 10:17:35  -244.831895  +1.89  -0.80
iter:   7 10:19:57  -247.905973  +1.44  -0.83
iter:   8 10:22:28  -248.737940  +0.89  -0.86
iter:   9 10:24:49  -252.838005  +1.26  -0.84
Writing to output.gpw (mode='')

iter:  10 10:27:14  -256.093487  +1.33  -0.80
iter:  11 10:29:37  -269.095025  +1.95  -0.73
iter:  12 10:32:00  -247.215931  +1.12  -0.58
iter:  13 10:34:34  -250.317829  +1.58  -0.85
iter:  14 10:36:59  -247.001149  +0.81  -0.81
Writing to output.gpw (mode='')

iter:  15 10:39:27  -247.799457  +0.87  -1.03
iter:  16 10:41:51  -246.689790  +0.26  -0.97
iter:  17 10:44:18  -247.626628  +0.88  -1.12
iter:  18 10:46:34  -246.655065  +0.22  -1.18
iter:  19 10:49:01  -248.008087  +0.53  -1.22
Writing to output.gpw (mode='')

iter:  20 10:51:23  -248.996471  +0.52  -1.13
iter:  21 10:53:42  -247.183816  -0.19  -1.05
iter:  22 10:56:00  -246.953045  -0.30  -1.15
iter:  23 10:58:32  -246.816838  +0.69  -1.17
iter:  24 11:00:48  -246.644570  -0.33  -1.27
Writing to output.gpw (mode='')

iter:  25 11:03:18  -246.687918  +0.16  -1.32
iter:  26 11:05:36  -246.543763  -0.79  -1.47
iter:  27 11:08:14  -246.499092  -0.53  -1.63
iter:  28 11:10:37  -246.507238  -0.78  -1.76
iter:  29 11:13:06  -246.503805c -1.15  -1.83
Writing to output.gpw (mode='')

iter:  30 11:15:35  -246.508757c -1.29  -1.95
iter:  31 11:17:51  -246.509055c -1.22  -2.01
iter:  32 11:20:14  -246.512779c -1.45  -2.14
iter:  33 11:22:38  -246.515733c -1.65  -2.15
iter:  34 11:25:02  -246.517320c -1.47  -2.20
Writing to output.gpw (mode='')

iter:  35 11:27:33  -246.516515c -1.85  -2.31
iter:  36 11:29:58  -246.518204c -1.88  -2.54
iter:  37 11:32:21  -246.519173c -2.05  -2.63
iter:  38 11:34:47  -246.520179c -2.04  -2.67
iter:  39 11:37:08  -246.521045c -2.02  -2.80
Writing to output.gpw (mode='')

iter:  40 11:39:27  -246.521977c -2.12  -2.97
iter:  41 11:41:46  -246.522981c -2.03  -2.96
iter:  42 11:44:01  -246.524179c -1.91  -3.00
iter:  43 11:46:16  -246.524802c -2.30  -3.02
iter:  44 11:48:44  -246.525471c -2.23  -3.04
Writing to output.gpw (mode='')

iter:  45 11:51:08  -246.525834c -2.56  -3.18
iter:  46 11:53:31  -246.526150c -2.56  -3.28
iter:  47 11:55:51  -246.526402c -2.73  -3.33
iter:  48 11:58:10  -246.526662c -2.68  -3.28
iter:  49 12:00:37  -246.526899c -2.71  -3.23
Writing to output.gpw (mode='')

iter:  50 12:03:07  -246.527089c -2.77  -3.13
iter:  51 12:05:30  -246.527254c -2.93  -3.11
iter:  52 12:07:52  -246.527448c -2.76  -3.04
iter:  53 12:10:13  -246.527606c -2.78  -3.12
iter:  54 12:12:33  -246.527717c -3.04  -3.23
Writing to output.gpw (mode='')

iter:  55 12:15:00  -246.527827c -3.00  -3.17
iter:  56 12:17:18  -246.527909c -2.94  -3.11
iter:  57 12:19:42  -246.528020c -2.95  -3.15
iter:  58 12:22:06  -246.528081c -3.33  -3.23
iter:  59 12:24:33  -246.528116c -3.28  -3.06
Writing to output.gpw (mode='')

iter:  60 12:27:00  -246.528169c -3.22  -3.28
iter:  61 12:29:22  -246.528185c -3.57  -3.62
iter:  62 12:31:47  -246.528210c -3.55  -3.60
iter:  63 12:34:06  -246.528223c -3.70  -3.83
iter:  64 12:36:31  -246.528240c -3.58  -3.81
Writing to output.gpw (mode='')

iter:  65 12:39:04  -246.528247c -3.79  -3.97
iter:  66 12:41:36  -246.528255c -3.81  -3.99
iter:  67 12:43:57  -246.528262c -3.80  -4.04c
iter:  68 12:46:15  -246.528261c -3.91  -4.12c
iter:  69 12:48:38  -246.528264c -4.01  -4.14c
Writing to output.gpw (mode='')

iter:  70 12:51:04  -246.528264c -4.01  -4.24c
iter:  71 12:53:28  -246.528263c -4.06  -4.23c
iter:  72 12:55:49  -246.528261c -4.13  -4.19c
iter:  73 12:58:05  -246.528259c -4.25  -4.07c
iter:  74 13:00:24  -246.528256c -4.07  -4.01c
Writing to output.gpw (mode='')

iter:  75 13:02:52  -246.528252c -4.04  -3.95
iter:  76 13:05:11  -246.528250c -4.36  -3.89
iter:  77 13:07:40  -246.528247c -4.41  -4.09c
iter:  78 13:10:06  -246.528244c -4.48  -4.13c
iter:  79 13:12:22  -246.528241c -4.41  -4.11c
Writing to output.gpw (mode='')

iter:  80 13:14:47  -246.528237c -4.38  -4.10c
iter:  81 13:17:12  -246.528230c -4.36  -4.15c
iter:  82 13:19:36  -246.528227c -4.70  -4.14c
iter:  83 13:22:00  -246.528224c -4.56  -4.23c
iter:  84 13:24:21  -246.528217c -4.26  -4.37c
Writing to output.gpw (mode='')

iter:  85 13:26:56  -246.528214c -4.83  -4.34c
iter:  86 13:29:22  -246.528211c -4.97  -4.60c
iter:  87 13:31:39  -246.528208c -5.03  -4.66c
iter:  88 13:33:57  -246.528205c -4.84  -4.75c
iter:  89 13:36:13  -246.528202c -4.94  -4.83c
Writing to output.gpw (mode='')

iter:  90 13:38:36  -246.528200c -4.91  -4.89c
iter:  91 13:40:58  -246.528197c -5.01  -4.92c
iter:  92 13:43:21  -246.528195c -5.17  -5.01c
iter:  93 13:45:37  -246.528193c -5.14  -5.10c
iter:  94 13:47:45  -246.528190c -4.95  -5.24c
Writing to output.gpw (mode='')

iter:  95 13:50:11  -246.528188c -5.16  -5.30c
iter:  96 13:52:29  -246.528187c -5.30  -5.44c
iter:  97 13:54:40  -246.528185c -5.37  -5.42c
iter:  98 13:57:05  -246.528183c -5.05  -5.35c
iter:  99 13:59:30  -246.528182c -5.44  -5.31c
Writing to output.gpw (mode='')

iter: 100 14:01:51  -246.528181c -5.48  -5.26c
iter: 101 14:04:13  -246.528180c -5.33  -5.28c
iter: 102 14:06:41  -246.528179c -5.45  -5.37c
iter: 103 14:09:12  -246.528178c -5.48  -5.37c
iter: 104 14:11:44  -246.528177c -5.51  -5.41c
Writing to output.gpw (mode='')

iter: 105 14:14:04  -246.528176c -5.69  -5.61c
iter: 106 14:16:21  -246.528175c -5.60  -5.58c
iter: 107 14:18:54  -246.528175c -5.74  -5.65c
iter: 108 14:21:19  -246.528174c -5.66  -5.79c
iter: 109 14:23:39  -246.528173c -5.84  -6.05c
Writing to output.gpw (mode='')

iter: 110 14:25:57  -246.528173c -5.67  -6.07c
iter: 111 14:28:23  -246.528172c -5.67  -6.21c
iter: 112 14:30:42  -246.528172c -5.79  -6.24c
iter: 113 14:33:07  -246.528171c -5.90  -6.23c
iter: 114 14:35:26  -246.528171c -5.83  -6.10c
Writing to output.gpw (mode='')

iter: 115 14:37:56  -246.528170c -5.93  -6.16c
iter: 116 14:40:19  -246.528170c -5.99  -6.10c
iter: 117 14:42:47  -246.528170c -5.98  -6.03c
iter: 118 14:45:11  -246.528170c -6.05  -6.06c
iter: 119 14:47:31  -246.528169c -6.07  -5.86c
Writing to output.gpw (mode='')

iter: 120 14:49:51  -246.528169c -6.00  -5.92c
iter: 121 14:52:14  -246.528169c -6.12  -5.85c
iter: 122 14:54:40  -246.528169c -6.15  -5.83c
iter: 123 14:57:01  -246.528168c -6.06  -5.89c
iter: 124 14:59:17  -246.528168c -6.28  -5.99c
Writing to output.gpw (mode='')

iter: 125 15:01:45  -246.528168c -6.37  -5.73c
iter: 126 15:04:09  -246.528168c -6.44  -6.10c
iter: 127 15:06:30  -246.528168c -6.44  -6.02c
iter: 128 15:09:03  -246.528168c -6.43  -6.02c
iter: 129 15:11:30  -246.528168c -6.48  -6.03c
Writing to output.gpw (mode='')

iter: 130 15:13:56  -246.528167c -6.47  -6.08c
iter: 131 15:16:18  -246.528167c -6.57  -6.07c
iter: 132 15:18:51  -246.528167c -6.50  -6.17c
iter: 133 15:21:11  -246.528167c -6.59  -6.17c
iter: 134 15:23:32  -246.528167c -6.62  -6.17c
Writing to output.gpw (mode='')

iter: 135 15:25:56  -246.528167c -6.62  -6.22c
iter: 136 15:28:21  -246.528167c -6.68  -6.29c
iter: 137 15:30:56  -246.528167c -6.73  -6.37c
iter: 138 15:33:19  -246.528167c -6.70  -6.40c
iter: 139 15:35:48  -246.528167c -6.69  -6.45c
Writing to output.gpw (mode='')

iter: 140 15:38:14  -246.528167c -6.77  -6.51c
iter: 141 15:40:32  -246.528167c -6.82  -6.60c
iter: 142 15:42:58  -246.528167c -6.88  -6.67c
iter: 143 15:45:13  -246.528167c -6.89  -6.74c
iter: 144 15:47:32  -246.528167c -6.95  -6.86c
Writing to output.gpw (mode='')

iter: 145 15:49:56  -246.528167c -6.90  -6.88c
iter: 146 15:52:20  -246.528167c -6.92  -7.00c
iter: 147 15:54:44  -246.528167c -6.99  -7.24c
iter: 148 15:57:12  -246.528167c -7.05  -7.29c
iter: 149 15:59:39  -246.528166c -7.08  -7.25c
Writing to output.gpw (mode='')

iter: 150 16:02:01  -246.528166c -7.07  -7.15c
iter: 151 16:04:24  -246.528166c -7.10  -7.10c
iter: 152 16:06:48  -246.528166c -7.16  -7.03c
iter: 153 16:09:15  -246.528166c -7.19  -6.98c
iter: 154 16:11:42  -246.528166c -7.16  -6.94c
Writing to output.gpw (mode='')

iter: 155 16:14:07  -246.528166c -7.25  -6.85c
iter: 156 16:16:25  -246.528166c -7.27  -6.84c
iter: 157 16:18:41  -246.528166c -7.21  -6.82c
iter: 158 16:21:07  -246.528166c -7.33  -6.80c
iter: 159 16:23:24  -246.528166c -7.35  -6.77c
Writing to output.gpw (mode='')

iter: 160 16:25:42  -246.528166c -7.36  -6.61c
iter: 161 16:28:04  -246.528166c -7.42c -6.74c

Converged after 161 iterations.

Dipole moment: (-4.405499, -6.150383, 0.216930) |e|*Ang

Energy contributions relative to reference atoms: (reference = -10418.802594)

Kinetic:       +114.160126
Potential:     -103.210344
External:        +0.000000
XC:            -257.601796
Entropy (-ST):   -0.147026
Local:           +0.197361
--------------------------
Free energy:   -246.601679
Extrapolated:  -246.528166

Dipole-layer corrected work functions: 3.379206, 2.962192 eV

Showing only first 2 kpts
 Kpt  Band  Eigenvalues  Occupancy
  0    23     -3.42468    1.98763
  0    24     -3.34353    1.93886
  0    25     -2.98887    0.05133
  0    26     -2.91906    0.01296

  1    23     -3.20484    1.32874
  1    24     -3.16569    0.94999
  1    25     -3.12646    0.58438
  1    26     -3.10652    0.43389


Fermi level: -3.17070

No gap
Writing to output.gpw (mode='')


Forces in eV/Ang:
  0 Li    0.00483    0.00127   -0.27044
  1 Li    0.00526    0.00024   -0.26965
  2 Li   -0.00966    0.00417   -0.27275
  3 Li   -0.00075    0.00767   -0.27212
  4 Li   -0.00037    0.00107   -0.27978
  5 Li    0.00166   -0.00073   -0.27296
  6 Li    0.00357   -0.00935   -0.26968
  7 Li   -0.00275    0.00112   -0.27266
  8 Li   -0.00021   -0.00365   -0.26918
  9 Li   -0.00119    0.00559    0.30108
 10 Li    0.01383   -0.00659    0.25594
 11 Li   -0.01241    0.00112    0.25464
 12 Li    0.00025    0.00296    0.27852
 13 Li    0.00713    0.00139    0.26258
 14 Li   -0.00759    0.00040    0.25399
 15 Li    0.00177   -0.00478    0.24222
 16 Li   -0.01057    0.00516    0.25473
 17 Li    0.00783   -0.00172    0.26719
 18 Li    0.02692   -0.00472   -0.05053
 19 Li   -0.00559   -0.00082    0.05326
 20 Li   -0.02447   -0.00071   -0.00873
 21 Li   -0.00493   -0.00665    0.04264
 22 Li   -0.00457    0.00650    0.02075
 23 Li    0.00849   -0.01005    0.04940
 24 Li   -0.00880    0.01154    0.04567
 25 Li   -0.00001   -0.00846    0.03746
 26 Li    0.00847    0.01229    0.03925
 27 Li    0.51872    0.12428   -1.72540
 28 Li    0.12913   -0.02848   -0.11688
 29 Li   -0.11006   -0.00341   -0.09948
 30 Li    0.03501   -0.13908    0.15270
 31 Li    0.03936    0.01864   -0.03420
 32 Li   -0.03518    0.00808   -0.04234
 33 Li    0.00153   -0.07271   -0.07780
 34 Li   -0.00699    0.00468   -0.02653
 35 Li    0.00515   -0.00534   -0.02113
 36 O     0.37672    0.09802   -0.22801
 37 C     0.17493    0.37697    1.16678
 38 H    -0.93716   -0.31036    0.90378
 39 H    -0.05970   -0.07467   -0.18031
 40 H     0.33713   -0.12091    0.07418
 41 H    -0.49134    0.14001    0.11396

System changes: positions 

Initializing position-dependent things.

Density initialized from wave functions
       .-----------------------.  
      /|                       |  
     / |                       |  
    /  |                       |  
   /   |                       |  
  /    |                       |  
 *     |                       |  
 |     |                       |  
 |     |                      H|  
 |     |                       |  
 |     | H                   H |  
 |     |                       |  
 |     |       Li      Li      |  
 |     |                       |  
 |O  Li|     Li      Li H      |  
 |     |  Li      Li     CLi   |  
 | Li  |   Li      Li          |  
 |     |Li      Li      Li     |  
 Li    |                       |  
 |   LLi     LLi     LLi       |  
 |     |  Li      Li      Li   |  
 | Li  |   Li      Li          |  
 |     |Li      Li      Li     |  
 Li    | Li      Li            |  
 |    Li      Li      Li       |  
 |     |                       |  
 |     |                       |  
 |     |                       |  
 |     |                       |  
 |     |                       |  
 |     |                       |  
 |     .-----------------------.  
 |    /                       /   
 |   /                       /    
 |  /                       /     
 | /                       /      
 |/                       /       
 *-----------------------*        

Positions:
   0 Li     1.617037    1.617037   10.000000    ( 0.0000,  0.0000,  0.0000)
   1 Li     4.851111    1.617037   10.000000    ( 0.0000,  0.0000,  0.0000)
   2 Li     8.085185    1.617037   10.000000    ( 0.0000,  0.0000,  0.0000)
   3 Li     1.617037    4.851111   10.000000    ( 0.0000,  0.0000,  0.0000)
   4 Li     4.851111    4.851111   10.000000    ( 0.0000,  0.0000,  0.0000)
   5 Li     8.085185    4.851111   10.000000    ( 0.0000,  0.0000,  0.0000)
   6 Li     1.617037    8.085185   10.000000    ( 0.0000,  0.0000,  0.0000)
   7 Li     4.851111    8.085185   10.000000    ( 0.0000,  0.0000,  0.0000)
   8 Li     8.085185    8.085185   10.000000    ( 0.0000,  0.0000,  0.0000)
   9 Li     0.000000    0.000000   11.617037    ( 0.0000,  0.0000,  0.0000)
  10 Li     3.234074    0.000000   11.617037    ( 0.0000,  0.0000,  0.0000)
  11 Li     6.468148    0.000000   11.617037    ( 0.0000,  0.0000,  0.0000)
  12 Li     0.000000    3.234074   11.617037    ( 0.0000,  0.0000,  0.0000)
  13 Li     3.234074    3.234074   11.617037    ( 0.0000,  0.0000,  0.0000)
  14 Li     6.468148    3.234074   11.617037    ( 0.0000,  0.0000,  0.0000)
  15 Li     0.000000    6.468148   11.617037    ( 0.0000,  0.0000,  0.0000)
  16 Li     3.234074    6.468148   11.617037    ( 0.0000,  0.0000,  0.0000)
  17 Li     6.468148    6.468148   11.617037    ( 0.0000,  0.0000,  0.0000)
  18 Li     1.617423    1.616971   13.469006    ( 0.0000,  0.0000,  0.0000)
  19 Li     4.851031    1.617027   13.470490    ( 0.0000,  0.0000,  0.0000)
  20 Li     8.084834    1.617028   13.469603    ( 0.0000,  0.0000,  0.0000)
  21 Li     1.616968    4.851016   13.470339    ( 0.0000,  0.0000,  0.0000)
  22 Li     4.851046    4.851204   13.470027    ( 0.0000,  0.0000,  0.0000)
  23 Li     8.085305    4.850967   13.470435    ( 0.0000,  0.0000,  0.0000)
  24 Li     1.616912    8.085349   13.470380    ( 0.0000,  0.0000,  0.0000)
  25 Li     4.851111    8.085063   13.470265    ( 0.0000,  0.0000,  0.0000)
  26 Li     8.085305    8.085359   13.470289    ( 0.0000,  0.0000,  0.0000)
  27 Li     0.007410    0.001775   15.421291    ( 0.0000,  0.0000,  0.0000)
  28 Li     3.235918   -0.000407   15.444269    ( 0.0000,  0.0000,  0.0000)
  29 Li     6.466576   -0.000049   15.444518    ( 0.0000,  0.0000,  0.0000)
  30 Li     0.000500    3.232087   15.448120    ( 0.0000,  0.0000,  0.0000)
  31 Li     3.234639    3.234343   15.445449    ( 0.0000,  0.0000,  0.0000)
  32 Li     6.467643    3.234192   15.445333    ( 0.0000,  0.0000,  0.0000)
  33 Li     0.000022    6.467109   15.444827    ( 0.0000,  0.0000,  0.0000)
  34 Li     3.233977    6.468212   15.445559    ( 0.0000,  0.0000,  0.0000)
  35 Li     6.468219    6.468069   15.445636    ( 0.0000,  0.0000,  0.0000)
  36 O      0.005382    1.618437   17.442682    ( 0.0000,  0.0000,  0.0000)
  37 C     -0.012575    0.192460   17.468107    ( 0.0000,  0.0000,  0.0000)
  38 H     -0.778415   -0.221631   16.777200    ( 0.0000,  0.0000,  0.0000)
  39 H     -0.194336   -0.217504   18.450652    ( 0.0000,  0.0000,  0.0000)
  40 H      0.975457   -0.134097   17.119570    ( 0.0000,  0.0000,  0.0000)
  41 H     -0.870148    1.930692   17.738572    ( 0.0000,  0.0000,  0.0000)

Unit cell:
           periodic     x           y           z      points  spacing
  1. axis:    yes    9.702222    0.000000    0.000000    60     0.1617
  2. axis:    yes    0.000000    9.702222    0.000000    60     0.1617
  3. axis:    no     0.000000    0.000000   24.851111   156     0.1593

  Lengths:   9.702222   9.702222  24.851111
  Angles:   90.000000  90.000000  90.000000

Effective grid spacing dv^(1/3) = 0.1609

     iter     time        total  log10-change:
                         energy  eigst   dens
iter:   1 16:30:57  -246.658436  -0.99
iter:   2 16:33:27  -246.628567  -1.41  -1.69
iter:   3 16:35:52  -246.621578  -2.40  -1.91
iter:   4 16:38:10  -246.613352c -1.50  -2.13
Writing to output.gpw (mode='')

iter:   5 16:40:32  -246.612371c -2.36  -2.25
iter:   6 16:42:49  -246.611459c -2.06  -2.44
iter:   7 16:45:13  -246.611075c -2.18  -2.54
iter:   8 16:47:38  -246.610790c -2.98  -2.68
iter:   9 16:50:00  -246.610688c -2.85  -2.84
Writing to output.gpw (mode='')

iter:  10 16:52:22  -246.610622c -3.44  -2.93
iter:  11 16:54:48  -246.610613c -3.76  -3.06
iter:  12 16:57:08  -246.610642c -3.63  -3.15
iter:  13 16:59:25  -246.610636c -3.72  -3.21
iter:  14 17:01:54  -246.610641c -4.07  -3.31
Writing to output.gpw (mode='')

iter:  15 17:04:14  -246.610645c -4.09  -3.36
iter:  16 17:06:25  -246.610648c -4.29  -3.47
iter:  17 17:08:49  -246.610646c -4.66  -3.60
iter:  18 17:11:12  -246.610636c -4.77  -3.67
iter:  19 17:13:35  -246.610644c -4.74  -3.86
Writing to output.gpw (mode='')

iter:  20 17:16:09  -246.610642c -5.32  -4.04c
iter:  21 17:18:34  -246.610643c -5.29  -4.08c
iter:  22 17:20:49  -246.610644c -5.16  -4.14c
iter:  23 17:23:09  -246.610645c -5.21  -4.27c
iter:  24 17:25:40  -246.610645c -5.80  -4.33c
Writing to output.gpw (mode='')

iter:  25 17:27:55  -246.610644c -5.81  -4.35c
iter:  26 17:30:09  -246.610645c -6.01  -4.43c
iter:  27 17:32:38  -246.610645c -6.07  -4.52c
iter:  28 17:34:55  -246.610645c -6.21  -4.66c
iter:  29 17:37:16  -246.610645c -6.50  -4.68c
Writing to output.gpw (mode='')

iter:  30 17:39:38  -246.610645c -6.48  -4.71c
iter:  31 17:41:49  -246.610644c -6.68  -4.86c
iter:  32 17:44:06  -246.610645c -7.03  -5.21c
iter:  33 17:46:29  -246.610645c -6.99  -5.26c
iter:  34 17:48:47  -246.610645c -6.94  -5.33c
Writing to output.gpw (mode='')

iter:  35 17:51:16  -246.610645c -6.95  -5.45c
iter:  36 17:53:37  -246.610645c -7.25  -5.43c
iter:  37 17:55:54  -246.610645c -7.37  -5.46c
iter:  38 17:58:24  -246.610645c -7.41c -5.47c

Converged after 38 iterations.

Dipole moment: (-5.195831, -6.139601, 0.214792) |e|*Ang

Energy contributions relative to reference atoms: (reference = -10418.802594)

Kinetic:       +113.049928
Potential:     -102.459843
External:        +0.000000
XC:            -257.323899
Entropy (-ST):   -0.146838
Local:           +0.196588
--------------------------
Free energy:   -246.684064
Extrapolated:  -246.610645

Dipole-layer corrected work functions: 3.378846, 2.965942 eV

Showing only first 2 kpts
 Kpt  Band  Eigenvalues  Occupancy
  0    23     -3.42697    1.98778
  0    24     -3.34514    1.93876
  0    25     -2.99019    0.05096
  0    26     -2.92141    0.01313

  1    23     -3.20550    1.31943
  1    24     -3.16773    0.95341
  1    25     -3.12793    0.58254
  1    26     -3.10814    0.43339


Fermi level: -3.17239

No gap
Writing to output.gpw (mode='')


Forces in eV/Ang:
  0 Li    0.00481    0.00115   -0.27092
  1 Li    0.00532   -0.00003   -0.26940
  2 Li   -0.00968    0.00421   -0.27334
  3 Li   -0.00090    0.00773   -0.27181
  4 Li   -0.00050    0.00127   -0.28006
  5 Li    0.00177   -0.00090   -0.27273
  6 Li    0.00386   -0.00932   -0.27028
  7 Li   -0.00291    0.00129   -0.27247
  8 Li   -0.00035   -0.00354   -0.26981
  9 Li   -0.00134    0.00546    0.30413
 10 Li    0.01403   -0.00689    0.25642
 11 Li   -0.01272    0.00109    0.25575
 12 Li    0.00023    0.00281    0.27896
 13 Li    0.00741    0.00202    0.26265
 14 Li   -0.00787    0.00095    0.25436
 15 Li    0.00188   -0.00425    0.24369
 16 Li   -0.01042    0.00479    0.25478
 17 Li    0.00768   -0.00225    0.26762
 18 Li    0.03106   -0.00025   -0.05566
 19 Li   -0.00526    0.00004    0.05063
 20 Li   -0.02693    0.00303   -0.01338
 21 Li   -0.00496   -0.00688    0.04223
 22 Li   -0.00467    0.00629    0.01993
 23 Li    0.00890   -0.01025    0.04910
 24 Li   -0.00351    0.00709    0.03739
 25 Li    0.00047   -0.00918    0.03582
 26 Li    0.00470    0.00866    0.03180
 27 Li    0.40949    0.10244   -1.37749
 28 Li    0.12610   -0.02778   -0.11341
 29 Li   -0.10226   -0.00241   -0.09478
 30 Li    0.03483   -0.13999    0.15283
 31 Li    0.03859    0.01796   -0.03366
 32 Li   -0.03415    0.00796   -0.04065
 33 Li    0.00205   -0.07129   -0.07569
 34 Li   -0.00648    0.00472   -0.02638
 35 Li    0.00344   -0.00624   -0.02113
 36 O    -0.17954    0.31791    0.04321
 37 C     0.19347    0.12975    0.06446
 38 H    -0.51910   -0.12649    0.94938
 39 H    -0.08269   -0.14040    0.31730
 40 H     0.08404   -0.06330    0.18354
 41 H     0.04652    0.00865   -0.07028

System changes: positions 

Initializing position-dependent things.

Density initialized from wave functions
       .-----------------------.  
      /|                       |  
     / |                       |  
    /  |                       |  
   /   |                       |  
  /    |                       |  
 *     |                       |  
 |     |                       |  
 |     |                      H|  
 |     |                       |  
 |     | H                   H |  
 |     |                       |  
 |     |       Li      Li      |  
 |     |                       |  
 |O  Li|     Li      Li H      |  
 |     |  Li      Li     CLi   |  
 | Li  |   Li      Li          |  
 |     |Li      Li      Li     |  
 Li    |                       |  
 |   LLi     LLi     LLi       |  
 |     |  Li      Li      Li   |  
 | Li  |   Li      Li          |  
 |     |Li      Li      Li     |  
 Li    | Li      Li            |  
 |    Li      Li      Li       |  
 |     |                       |  
 |     |                       |  
 |     |                       |  
 |     |                       |  
 |     |                       |  
 |     |                       |  
 |     .-----------------------.  
 |    /                       /   
 |   /                       /    
 |  /                       /     
 | /                       /      
 |/                       /       
 *-----------------------*        

Positions:
   0 Li     1.617037    1.617037   10.000000    ( 0.0000,  0.0000,  0.0000)
   1 Li     4.851111    1.617037   10.000000    ( 0.0000,  0.0000,  0.0000)
   2 Li     8.085185    1.617037   10.000000    ( 0.0000,  0.0000,  0.0000)
   3 Li     1.617037    4.851111   10.000000    ( 0.0000,  0.0000,  0.0000)
   4 Li     4.851111    4.851111   10.000000    ( 0.0000,  0.0000,  0.0000)
   5 Li     8.085185    4.851111   10.000000    ( 0.0000,  0.0000,  0.0000)
   6 Li     1.617037    8.085185   10.000000    ( 0.0000,  0.0000,  0.0000)
   7 Li     4.851111    8.085185   10.000000    ( 0.0000,  0.0000,  0.0000)
   8 Li     8.085185    8.085185   10.000000    ( 0.0000,  0.0000,  0.0000)
   9 Li     0.000000    0.000000   11.617037    ( 0.0000,  0.0000,  0.0000)
  10 Li     3.234074    0.000000   11.617037    ( 0.0000,  0.0000,  0.0000)
  11 Li     6.468148    0.000000   11.617037    ( 0.0000,  0.0000,  0.0000)
  12 Li     0.000000    3.234074   11.617037    ( 0.0000,  0.0000,  0.0000)
  13 Li     3.234074    3.234074   11.617037    ( 0.0000,  0.0000,  0.0000)
  14 Li     6.468148    3.234074   11.617037    ( 0.0000,  0.0000,  0.0000)
  15 Li     0.000000    6.468148   11.617037    ( 0.0000,  0.0000,  0.0000)
  16 Li     3.234074    6.468148   11.617037    ( 0.0000,  0.0000,  0.0000)
  17 Li     6.468148    6.468148   11.617037    ( 0.0000,  0.0000,  0.0000)
  18 Li     1.618192    1.616930   13.467610    ( 0.0000,  0.0000,  0.0000)
  19 Li     4.850893    1.617021   13.471817    ( 0.0000,  0.0000,  0.0000)
  20 Li     8.084159    1.617077   13.469294    ( 0.0000,  0.0000,  0.0000)
  21 Li     1.616840    4.850840   13.471431    ( 0.0000,  0.0000,  0.0000)
  22 Li     4.850926    4.851368   13.470547    ( 0.0000,  0.0000,  0.0000)
  23 Li     8.085531    4.850705   13.471704    ( 0.0000,  0.0000,  0.0000)
  24 Li     1.616781    8.085566   13.471409    ( 0.0000,  0.0000,  0.0000)
  25 Li     4.851119    8.084831   13.471201    ( 0.0000,  0.0000,  0.0000)
  26 Li     8.085455    8.085611   13.471167    ( 0.0000,  0.0000,  0.0000)
  27 Li     0.018821    0.004588   15.383056    ( 0.0000,  0.0000,  0.0000)
  28 Li     3.239195   -0.001129   15.441317    ( 0.0000,  0.0000,  0.0000)
  29 Li     6.463878   -0.000119   15.442036    ( 0.0000,  0.0000,  0.0000)
  30 Li     0.001400    3.228483   15.452062    ( 0.0000,  0.0000,  0.0000)
  31 Li     3.235640    3.234811   15.444577    ( 0.0000,  0.0000,  0.0000)
  32 Li     6.466754    3.234398   15.444272    ( 0.0000,  0.0000,  0.0000)
  33 Li     0.000071    6.465259   15.442859    ( 0.0000,  0.0000,  0.0000)
  34 Li     3.233805    6.468334   15.444877    ( 0.0000,  0.0000,  0.0000)
  35 Li     6.468321    6.467915   15.445091    ( 0.0000,  0.0000,  0.0000)
  36 O      0.005069    1.624931   17.441691    ( 0.0000,  0.0000,  0.0000)
  37 C     -0.007728    0.197726   17.478328    ( 0.0000,  0.0000,  0.0000)
  38 H     -0.795051   -0.226321   16.801336    ( 0.0000,  0.0000,  0.0000)
  39 H     -0.196290   -0.220616   18.454973    ( 0.0000,  0.0000,  0.0000)
  40 H      0.979590   -0.136177   17.123456    ( 0.0000,  0.0000,  0.0000)
  41 H     -0.873124    1.931935   17.738190    ( 0.0000,  0.0000,  0.0000)

Unit cell:
           periodic     x           y           z      points  spacing
  1. axis:    yes    9.702222    0.000000    0.000000    60     0.1617
  2. axis:    yes    0.000000    9.702222    0.000000    60     0.1617
  3. axis:    no     0.000000    0.000000   24.851111   156     0.1593

  Lengths:   9.702222   9.702222  24.851111
  Angles:   90.000000  90.000000  90.000000

Effective grid spacing dv^(1/3) = 0.1609

     iter     time        total  log10-change:
                         energy  eigst   dens
iter:   1 18:01:21  -246.738005  -0.95
iter:   2 18:03:39  -246.711382  -1.49  -1.72
iter:   3 18:06:00  -246.705133  -2.49  -1.93
iter:   4 18:08:19  -246.696481c -1.43  -2.13
Writing to output.gpw (mode='')

iter:   5 18:10:39  -246.695359c -2.52  -2.26
iter:   6 18:13:05  -246.694870c -2.27  -2.52
iter:   7 18:15:21  -246.694267c -2.17  -2.62
iter:   8 18:17:42  -246.693895c -3.12  -2.66
iter:   9 18:20:00  -246.693683c -2.85  -2.81
Writing to output.gpw (mode='')

iter:  10 18:22:22  -246.693728c -3.16  -3.07
iter:  11 18:24:37  -246.693615c -3.13  -2.98
iter:  12 18:26:56  -246.693575c -3.98  -3.11
iter:  13 18:29:07  -246.693582c -3.93  -3.38
iter:  14 18:31:21  -246.693576c -4.52  -3.48
Writing to output.gpw (mode='')

iter:  15 18:33:36  -246.693584c -4.47  -3.58
iter:  16 18:35:59  -246.693584c -4.72  -3.64
iter:  17 18:38:23  -246.693590c -4.64  -3.69
iter:  18 18:40:45  -246.693581c -4.70  -3.73
iter:  19 18:43:03  -246.693581c -5.20  -3.79
Writing to output.gpw (mode='')

iter:  20 18:45:25  -246.693581c -5.25  -4.07c
iter:  21 18:47:40  -246.693581c -5.61  -4.11c
iter:  22 18:49:58  -246.693581c -5.40  -4.31c
iter:  23 18:52:27  -246.693582c -5.75  -4.42c
iter:  24 18:54:46  -246.693582c -5.95  -4.44c
Writing to output.gpw (mode='')

iter:  25 18:57:06  -246.693582c -6.03  -4.48c
iter:  26 18:59:25  -246.693582c -5.95  -4.57c
iter:  27 19:01:50  -246.693582c -6.50  -4.62c
iter:  28 19:04:09  -246.693581c -6.26  -4.76c
iter:  29 19:06:32  -246.693582c -6.72  -4.96c
Writing to output.gpw (mode='')

iter:  30 19:08:44  -246.693582c -6.74  -4.98c
iter:  31 19:10:59  -246.693582c -6.82  -5.04c
iter:  32 19:13:21  -246.693582c -6.97  -5.18c
iter:  33 19:15:44  -246.693582c -7.01  -5.30c
iter:  34 19:18:08  -246.693582c -7.22  -5.32c
Writing to output.gpw (mode='')

iter:  35 19:20:33  -246.693582c -7.30  -5.39c
iter:  36 19:22:53  -246.693582c -7.29  -5.58c
iter:  37 19:25:16  -246.693582c -7.52c -5.71c

Converged after 37 iterations.

Dipole moment: (-5.725944, -6.116161, 0.210977) |e|*Ang

Energy contributions relative to reference atoms: (reference = -10418.802594)

Kinetic:       +112.127286
Potential:     -101.842982
External:        +0.000000
XC:            -257.100442
Entropy (-ST):   -0.146584
Local:           +0.195848
--------------------------
Free energy:   -246.766874
Extrapolated:  -246.693582

Dipole-layer corrected work functions: 3.378654, 2.973084 eV

Showing only first 2 kpts
 Kpt  Band  Eigenvalues  Occupancy
  0    23     -3.43145    1.98802
  0    24     -3.34907    1.93929
  0    25     -2.99275    0.05006
  0    26     -2.92592    0.01340

  1    23     -3.20769    1.30790
  1    24     -3.17086    0.94997
  1    25     -3.13191    0.58669
  1    26     -3.11140    0.43193


Fermi level: -3.17587

No gap
Writing to output.gpw (mode='')


Forces in eV/Ang:
  0 Li    0.00500    0.00100   -0.27172
  1 Li    0.00522   -0.00037   -0.26902
  2 Li   -0.00976    0.00423   -0.27419
  3 Li   -0.00127    0.00773   -0.27128
  4 Li   -0.00056    0.00138   -0.28057
  5 Li    0.00196   -0.00090   -0.27241
  6 Li    0.00402   -0.00918   -0.27121
  7 Li   -0.00298    0.00168   -0.27221
  8 Li   -0.00047   -0.00360   -0.27087
  9 Li   -0.00154    0.00525    0.30859
 10 Li    0.01442   -0.00734    0.25739
 11 Li   -0.01330    0.00093    0.25733
 12 Li    0.00017    0.00276    0.27961
 13 Li    0.00833    0.00312    0.26243
 14 Li   -0.00868    0.00183    0.25462
 15 Li    0.00198   -0.00362    0.24563
 16 Li   -0.01018    0.00407    0.25521
 17 Li    0.00750   -0.00304    0.26829
 18 Li    0.03769    0.00751   -0.06336
 19 Li   -0.00452    0.00143    0.04663
 20 Li   -0.03060    0.00875   -0.02075
 21 Li   -0.00496   -0.00766    0.04117
 22 Li   -0.00467    0.00604    0.01857
 23 Li    0.00937   -0.01109    0.04848
 24 Li    0.00463   -0.00042    0.02486
 25 Li    0.00111   -0.01045    0.03267
 26 Li   -0.00082    0.00319    0.02174
 27 Li    0.26512    0.06329   -0.98428
 28 Li    0.12289   -0.02610   -0.10977
 29 Li   -0.09464   -0.00186   -0.09098
 30 Li    0.03536   -0.14179    0.15522
 31 Li    0.03736    0.01636   -0.03286
 32 Li   -0.03410    0.00857   -0.04016
 33 Li    0.00240   -0.06868   -0.07236
 34 Li   -0.00602    0.00507   -0.02570
 35 Li    0.00177   -0.00685   -0.02049
 36 O    -0.22351    0.26217    0.10740
 37 C     0.02250   -0.03148   -0.29651
 38 H    -0.15136    0.01887    0.75970
 39 H    -0.00808   -0.05816    0.43029
 40 H    -0.05101   -0.00859    0.20267
 41 H     0.09465    0.01352   -0.08342

System changes: positions 

Initializing position-dependent things.

Density initialized from wave functions
       .-----------------------.  
      /|                       |  
     / |                       |  
    /  |                       |  
   /   |                       |  
  /    |                       |  
 *     |                       |  
 |     |                       |  
 |     |                      H|  
 |     |                       |  
 |     | H                   H |  
 |     |                       |  
 |     |       Li      Li      |  
 |     |                       |  
 |O  Li|     Li      Li H      |  
 |     |  Li      Li     CLi   |  
 | Li  |   Li      Li          |  
 |     |Li      Li      Li     |  
 Li    |                       |  
 |   LLi     LLi     LLi       |  
 |     |  Li      Li      Li   |  
 | Li  |   Li      Li          |  
 |     |Li      Li      Li     |  
 Li    | Li      Li            |  
 |    Li      Li      Li       |  
 |     |                       |  
 |     |                       |  
 |     |                       |  
 |     |                       |  
 |     |                       |  
 |     |                       |  
 |     .-----------------------.  
 |    /                       /   
 |   /                       /    
 |  /                       /     
 | /                       /      
 |/                       /       
 *-----------------------*        

Positions:
   0 Li     1.617037    1.617037   10.000000    ( 0.0000,  0.0000,  0.0000)
   1 Li     4.851111    1.617037   10.000000    ( 0.0000,  0.0000,  0.0000)
   2 Li     8.085185    1.617037   10.000000    ( 0.0000,  0.0000,  0.0000)
   3 Li     1.617037    4.851111   10.000000    ( 0.0000,  0.0000,  0.0000)
   4 Li     4.851111    4.851111   10.000000    ( 0.0000,  0.0000,  0.0000)
   5 Li     8.085185    4.851111   10.000000    ( 0.0000,  0.0000,  0.0000)
   6 Li     1.617037    8.085185   10.000000    ( 0.0000,  0.0000,  0.0000)
   7 Li     4.851111    8.085185   10.000000    ( 0.0000,  0.0000,  0.0000)
   8 Li     8.085185    8.085185   10.000000    ( 0.0000,  0.0000,  0.0000)
   9 Li     0.000000    0.000000   11.617037    ( 0.0000,  0.0000,  0.0000)
  10 Li     3.234074    0.000000   11.617037    ( 0.0000,  0.0000,  0.0000)
  11 Li     6.468148    0.000000   11.617037    ( 0.0000,  0.0000,  0.0000)
  12 Li     0.000000    3.234074   11.617037    ( 0.0000,  0.0000,  0.0000)
  13 Li     3.234074    3.234074   11.617037    ( 0.0000,  0.0000,  0.0000)
  14 Li     6.468148    3.234074   11.617037    ( 0.0000,  0.0000,  0.0000)
  15 Li     0.000000    6.468148   11.617037    ( 0.0000,  0.0000,  0.0000)
  16 Li     3.234074    6.468148   11.617037    ( 0.0000,  0.0000,  0.0000)
  17 Li     6.468148    6.468148   11.617037    ( 0.0000,  0.0000,  0.0000)
  18 Li     1.619236    1.617026   13.465796    ( 0.0000,  0.0000,  0.0000)
  19 Li     4.850742    1.617040   13.473328    ( 0.0000,  0.0000,  0.0000)
  20 Li     8.083282    1.617243   13.468786    ( 0.0000,  0.0000,  0.0000)
  21 Li     1.616688    4.850616   13.472718    ( 0.0000,  0.0000,  0.0000)
  22 Li     4.850783    4.851559   13.471144    ( 0.0000,  0.0000,  0.0000)
  23 Li     8.085811    4.850374   13.473210    ( 0.0000,  0.0000,  0.0000)
  24 Li     1.616776    8.085686   13.472404    ( 0.0000,  0.0000,  0.0000)
  25 Li     4.851141    8.084531   13.472263    ( 0.0000,  0.0000,  0.0000)
  26 Li     8.085532    8.085810   13.472028    ( 0.0000,  0.0000,  0.0000)
  27 Li     0.029767    0.007216   15.344673    ( 0.0000,  0.0000,  0.0000)
  28 Li     3.243054   -0.001961   15.437853    ( 0.0000,  0.0000,  0.0000)
  29 Li     6.460792   -0.000192   15.439139    ( 0.0000,  0.0000,  0.0000)
  30 Li     0.002487    3.224138   15.456821    ( 0.0000,  0.0000,  0.0000)
  31 Li     3.236815    3.235342   15.443548    ( 0.0000,  0.0000,  0.0000)
  32 Li     6.465692    3.234657   15.443010    ( 0.0000,  0.0000,  0.0000)
  33 Li     0.000135    6.463095   15.440566    ( 0.0000,  0.0000,  0.0000)
  34 Li     3.233609    6.468486   15.444075    ( 0.0000,  0.0000,  0.0000)
  35 Li     6.468412    6.467720   15.444451    ( 0.0000,  0.0000,  0.0000)
  36 O      0.003996    1.631592   17.441655    ( 0.0000,  0.0000,  0.0000)
  37 C     -0.005168    0.201035   17.483990    ( 0.0000,  0.0000,  0.0000)
  38 H     -0.808097   -0.229227   16.826610    ( 0.0000,  0.0000,  0.0000)
  39 H     -0.197212   -0.222767   18.462162    ( 0.0000,  0.0000,  0.0000)
  40 H      0.982040   -0.137644   17.128439    ( 0.0000,  0.0000,  0.0000)
  41 H     -0.875901    1.933545   17.737527    ( 0.0000,  0.0000,  0.0000)

Unit cell:
           periodic     x           y           z      points  spacing
  1. axis:    yes    9.702222    0.000000    0.000000    60     0.1617
  2. axis:    yes    0.000000    9.702222    0.000000    60     0.1617
  3. axis:    no     0.000000    0.000000   24.851111   156     0.1593

  Lengths:   9.702222   9.702222  24.851111
  Angles:   90.000000  90.000000  90.000000

Effective grid spacing dv^(1/3) = 0.1609

     iter     time        total  log10-change:
                         energy  eigst   dens
iter:   1 19:28:15  -246.784735  -1.07
iter:   2 19:30:34  -246.764544  -1.61  -1.78
iter:   3 19:32:50  -246.759889c -2.59  -1.99
iter:   4 19:35:08  -246.753141c -1.55  -2.17
Writing to output.gpw (mode='')

iter:   5 19:37:42  -246.752715c -2.68  -2.36
iter:   6 19:40:03  -246.752245c -2.61  -2.59
iter:   7 19:42:28  -246.751743c -2.29  -2.69
iter:   8 19:44:49  -246.751535c -3.24  -2.75
iter:   9 19:47:09  -246.751385c -3.17  -2.89
Writing to output.gpw (mode='')

iter:  10 19:49:33  -246.751368c -3.38  -3.17
iter:  11 19:51:57  -246.751295c -3.61  -3.09
iter:  12 19:54:22  -246.751294c -4.26  -3.42
iter:  13 19:56:40  -246.751298c -4.56  -3.54
iter:  14 19:59:02  -246.751300c -4.71  -3.58
Writing to output.gpw (mode='')

iter:  15 20:01:25  -246.751304c -4.45  -3.62
iter:  16 20:03:46  -246.751306c -4.98  -3.76
iter:  17 20:06:10  -246.751307c -4.69  -3.81
iter:  18 20:08:32  -246.751308c -5.19  -3.77
iter:  19 20:10:57  -246.751306c -5.06  -3.92
Writing to output.gpw (mode='')

iter:  20 20:13:30  -246.751303c -5.49  -4.08c
iter:  21 20:15:53  -246.751303c -5.61  -4.34c
iter:  22 20:18:17  -246.751303c -5.78  -4.40c
iter:  23 20:20:37  -246.751303c -5.93  -4.46c
iter:  24 20:22:56  -246.751303c -5.94  -4.56c
Writing to output.gpw (mode='')

iter:  25 20:25:15  -246.751304c -6.16  -4.62c
iter:  26 20:27:35  -246.751304c -6.35  -4.68c
iter:  27 20:29:57  -246.751304c -6.70  -4.85c
iter:  28 20:32:14  -246.751304c -6.55  -4.93c
iter:  29 20:34:31  -246.751304c -6.71  -5.04c
Writing to output.gpw (mode='')

iter:  30 20:37:01  -246.751304c -6.67  -5.17c
iter:  31 20:39:22  -246.751304c -6.95  -5.39c
iter:  32 20:41:44  -246.751304c -7.17  -5.40c
iter:  33 20:44:11  -246.751304c -7.23  -5.42c
iter:  34 20:46:34  -246.751304c -7.14  -5.36c
Writing to output.gpw (mode='')

iter:  35 20:48:58  -246.751304c -7.16  -5.42c
iter:  36 20:51:25  -246.751304c -7.20  -5.48c
iter:  37 20:53:47  -246.751304c -7.30  -5.52c
iter:  38 20:56:15  -246.751304c -7.47c -5.56c

Converged after 38 iterations.

Dipole moment: (-6.001892, -6.095955, 0.206599) |e|*Ang

Energy contributions relative to reference atoms: (reference = -10418.802594)

Kinetic:       +111.437499
Potential:     -101.380065
External:        +0.000000
XC:            -256.930566
Entropy (-ST):   -0.146342
Local:           +0.194999
--------------------------
Free energy:   -246.824475
Extrapolated:  -246.751304

Dipole-layer corrected work functions: 3.378556, 2.981401 eV

Showing only first 2 kpts
 Kpt  Band  Eigenvalues  Occupancy
  0    23     -3.43662    1.98827
  0    24     -3.35380    1.94002
  0    25     -2.99578    0.04902
  0    26     -2.93112    0.01369

  1    23     -3.21068    1.29768
  1    24     -3.17444    0.94470
  1    25     -3.13696    0.59455
  1    26     -3.11493    0.42801


Fermi level: -3.17998

No gap
Writing to output.gpw (mode='')


Forces in eV/Ang:
  0 Li    0.00519    0.00087   -0.27259
  1 Li    0.00506   -0.00070   -0.26865
  2 Li   -0.00981    0.00424   -0.27504
  3 Li   -0.00170    0.00769   -0.27074
  4 Li   -0.00060    0.00149   -0.28116
  5 Li    0.00214   -0.00084   -0.27209
  6 Li    0.00411   -0.00903   -0.27217
  7 Li   -0.00300    0.00208   -0.27196
  8 Li   -0.00055   -0.00368   -0.27198
  9 Li   -0.00177    0.00505    0.31279
 10 Li    0.01485   -0.00788    0.25856
 11 Li   -0.01394    0.00073    0.25897
 12 Li    0.00009    0.00281    0.28022
 13 Li    0.00954    0.00436    0.26211
 14 Li   -0.00970    0.00281    0.25484
 15 Li    0.00208   -0.00307    0.24754
 16 Li   -0.00993    0.00329    0.25576
 17 Li    0.00733   -0.00390    0.26903
 18 Li    0.04448    0.01590   -0.07090
 19 Li   -0.00375    0.00292    0.04204
 20 Li   -0.03418    0.01452   -0.02778
 21 Li   -0.00494   -0.00871    0.03979
 22 Li   -0.00464    0.00580    0.01696
 23 Li    0.00984   -0.01224    0.04747
 24 Li    0.01297   -0.00864    0.01189
 25 Li    0.00171   -0.01184    0.02893
 26 Li   -0.00631   -0.00244    0.01211
 27 Li    0.15888    0.03137   -0.68865
 28 Li    0.11892   -0.02412   -0.10582
 29 Li   -0.08804   -0.00137   -0.08802
 30 Li    0.03593   -0.14433    0.15849
 31 Li    0.03600    0.01459   -0.03182
 32 Li   -0.03404    0.00913   -0.03965
 33 Li    0.00260   -0.06583   -0.06893
 34 Li   -0.00542    0.00531   -0.02482
 35 Li    0.00029   -0.00710   -0.01959
 36 O    -0.22834    0.15817    0.12554
 37 C    -0.08426   -0.11661   -0.26763
 38 H     0.05074    0.09422    0.50752
 39 H     0.07758    0.05587    0.37460
 40 H    -0.13951    0.02625    0.18582
 41 H     0.09836    0.02388   -0.08028

System changes: positions 

Initializing position-dependent things.

Density initialized from wave functions
       .-----------------------.  
      /|                       |  
     / |                       |  
    /  |                       |  
   /   |                       |  
  /    |                       |  
 *     |                       |  
 |     |                       |  
 |     |                      H|  
 |     |                       |  
 |     | H                   H |  
 |     |                       |  
 |     |       Li      Li      |  
 |     |                       |  
 |O  Li|     Li      Li H      |  
 |     |  Li      Li     CLi   |  
 | Li  |   Li      Li          |  
 |     |Li      Li      Li     |  
 Li    |                       |  
 |   LLi     LLi     LLi       |  
 |     |  Li      Li      Li   |  
 | Li  |   Li      Li          |  
 |     |Li      Li      Li     |  
 Li    | Li      Li            |  
 |    Li      Li      Li       |  
 |     |                       |  
 |     |                       |  
 |     |                       |  
 |     |                       |  
 |     |                       |  
 |     |                       |  
 |     .-----------------------.  
 |    /                       /   
 |   /                       /    
 |  /                       /     
 | /                       /      
 |/                       /       
 *-----------------------*        

Positions:
   0 Li     1.617037    1.617037   10.000000    ( 0.0000,  0.0000,  0.0000)
   1 Li     4.851111    1.617037   10.000000    ( 0.0000,  0.0000,  0.0000)
   2 Li     8.085185    1.617037   10.000000    ( 0.0000,  0.0000,  0.0000)
   3 Li     1.617037    4.851111   10.000000    ( 0.0000,  0.0000,  0.0000)
   4 Li     4.851111    4.851111   10.000000    ( 0.0000,  0.0000,  0.0000)
   5 Li     8.085185    4.851111   10.000000    ( 0.0000,  0.0000,  0.0000)
   6 Li     1.617037    8.085185   10.000000    ( 0.0000,  0.0000,  0.0000)
   7 Li     4.851111    8.085185   10.000000    ( 0.0000,  0.0000,  0.0000)
   8 Li     8.085185    8.085185   10.000000    ( 0.0000,  0.0000,  0.0000)
   9 Li     0.000000    0.000000   11.617037    ( 0.0000,  0.0000,  0.0000)
  10 Li     3.234074    0.000000   11.617037    ( 0.0000,  0.0000,  0.0000)
  11 Li     6.468148    0.000000   11.617037    ( 0.0000,  0.0000,  0.0000)
  12 Li     0.000000    3.234074   11.617037    ( 0.0000,  0.0000,  0.0000)
  13 Li     3.234074    3.234074   11.617037    ( 0.0000,  0.0000,  0.0000)
  14 Li     6.468148    3.234074   11.617037    ( 0.0000,  0.0000,  0.0000)
  15 Li     0.000000    6.468148   11.617037    ( 0.0000,  0.0000,  0.0000)
  16 Li     3.234074    6.468148   11.617037    ( 0.0000,  0.0000,  0.0000)
  17 Li     6.468148    6.468148   11.617037    ( 0.0000,  0.0000,  0.0000)
  18 Li     1.620638    1.617332   13.463458    ( 0.0000,  0.0000,  0.0000)
  19 Li     4.850579    1.617097   13.475027    ( 0.0000,  0.0000,  0.0000)
  20 Li     8.082153    1.617574   13.468018    ( 0.0000,  0.0000,  0.0000)
  21 Li     1.616506    4.850324   13.474222    ( 0.0000,  0.0000,  0.0000)
  22 Li     4.850613    4.851782   13.471820    ( 0.0000,  0.0000,  0.0000)
  23 Li     8.086155    4.849955   13.474984    ( 0.0000,  0.0000,  0.0000)
  24 Li     1.616963    8.085640   13.473293    ( 0.0000,  0.0000,  0.0000)
  25 Li     4.851181    8.084141   13.473444    ( 0.0000,  0.0000,  0.0000)
  26 Li     8.085496    8.085917   13.472831    ( 0.0000,  0.0000,  0.0000)
  27 Li     0.040234    0.009597   15.306140    ( 0.0000,  0.0000,  0.0000)
  28 Li     3.247565   -0.002909   15.433814    ( 0.0000,  0.0000,  0.0000)
  29 Li     6.457272   -0.000267   15.435757    ( 0.0000,  0.0000,  0.0000)
  30 Li     0.003794    3.218900   15.462568    ( 0.0000,  0.0000,  0.0000)
  31 Li     3.238185    3.235935   15.442345    ( 0.0000,  0.0000,  0.0000)
  32 Li     6.464427    3.234977   15.441520    ( 0.0000,  0.0000,  0.0000)
  33 Li     0.000218    6.460580   15.437911    ( 0.0000,  0.0000,  0.0000)
  34 Li     3.233389    6.468672   15.443137    ( 0.0000,  0.0000,  0.0000)
  35 Li     6.468485    6.467479   15.443707    ( 0.0000,  0.0000,  0.0000)
  36 O      0.001784    1.637618   17.442473    ( 0.0000,  0.0000,  0.0000)
  37 C     -0.004597    0.202601   17.489101    ( 0.0000,  0.0000,  0.0000)
  38 H     -0.818259   -0.230625   16.851334    ( 0.0000,  0.0000,  0.0000)
  39 H     -0.196460   -0.222951   18.470511    ( 0.0000,  0.0000,  0.0000)
  40 H      0.982560   -0.138501   17.134228    ( 0.0000,  0.0000,  0.0000)
  41 H     -0.878320    1.935509   17.736527    ( 0.0000,  0.0000,  0.0000)

Unit cell:
           periodic     x           y           z      points  spacing
  1. axis:    yes    9.702222    0.000000    0.000000    60     0.1617
  2. axis:    yes    0.000000    9.702222    0.000000    60     0.1617
  3. axis:    no     0.000000    0.000000   24.851111   156     0.1593

  Lengths:   9.702222   9.702222  24.851111
  Angles:   90.000000  90.000000  90.000000

Effective grid spacing dv^(1/3) = 0.1609

     iter     time        total  log10-change:
                         energy  eigst   dens
iter:   1 20:59:24  -246.812943  -1.19
iter:   2 21:01:37  -246.800793  -1.72  -1.87
iter:   3 21:03:58  -246.797838c -2.60  -2.06
iter:   4 21:06:22  -246.791985c -1.79  -2.22
Writing to output.gpw (mode='')

iter:   5 21:08:43  -246.792221c -3.09  -2.51
iter:   6 21:11:05  -246.791591c -2.92  -2.63
iter:   7 21:13:31  -246.791460c -2.29  -2.76
iter:   8 21:15:57  -246.791221c -3.34  -2.76
iter:   9 21:18:18  -246.791105c -3.31  -2.97
Writing to output.gpw (mode='')

iter:  10 21:20:53  -246.791135c -3.52  -3.20
iter:  11 21:23:13  -246.791067c -3.63  -3.12
iter:  12 21:25:37  -246.791062c -3.85  -3.29
iter:  13 21:27:54  -246.791055c -4.41  -3.41
iter:  14 21:30:11  -246.791059c -4.42  -3.64
Writing to output.gpw (mode='')

iter:  15 21:32:34  -246.791056c -4.78  -3.66
iter:  16 21:34:49  -246.791060c -4.81  -3.77
iter:  17 21:37:08  -246.791060c -5.25  -3.86
iter:  18 21:39:24  -246.791060c -5.38  -3.96
iter:  19 21:41:47  -246.791062c -5.14  -4.08c
Writing to output.gpw (mode='')

iter:  20 21:44:13  -246.791061c -5.74  -4.22c
iter:  21 21:46:34  -246.791059c -5.82  -4.25c
iter:  22 21:48:55  -246.791058c -5.83  -4.34c
iter:  23 21:51:08  -246.791059c -6.03  -4.46c
iter:  24 21:53:29  -246.791058c -6.10  -4.53c
Writing to output.gpw (mode='')

iter:  25 21:55:48  -246.791059c -6.34  -4.56c
iter:  26 21:58:09  -246.791059c -6.46  -4.73c
iter:  27 22:00:31  -246.791058c -6.66  -4.80c
iter:  28 22:02:48  -246.791058c -6.69  -5.00c
iter:  29 22:05:13  -246.791059c -6.70  -5.04c
Writing to output.gpw (mode='')

iter:  30 22:07:38  -246.791059c -6.74  -5.05c
iter:  31 22:10:03  -246.791059c -7.04  -5.12c
iter:  32 22:12:21  -246.791059c -7.13  -5.29c
iter:  33 22:14:46  -246.791059c -7.18  -5.31c
iter:  34 22:17:09  -246.791059c -7.29  -5.44c
Writing to output.gpw (mode='')

iter:  35 22:19:45  -246.791059c -7.57c -5.66c

Converged after 35 iterations.

Dipole moment: (-6.022239, -6.082591, 0.202636) |e|*Ang

Energy contributions relative to reference atoms: (reference = -10418.802594)

Kinetic:       +111.055489
Potential:     -101.130865
External:        +0.000000
XC:            -256.836807
Entropy (-ST):   -0.146119
Local:           +0.194184
--------------------------
Free energy:   -246.864118
Extrapolated:  -246.791059

Dipole-layer corrected work functions: 3.378532, 2.988997 eV

Showing only first 2 kpts
 Kpt  Band  Eigenvalues  Occupancy
  0    23     -3.44153    1.98853
  0    24     -3.35820    1.94073
  0    25     -2.99847    0.04798
  0    26     -2.93608    0.01401

  1    23     -3.21335    1.28751
  1    24     -3.17765    0.93896
  1    25     -3.14204    0.60541
  1    26     -3.11777    0.42169


Fermi level: -3.18376

No gap

Forces in eV/Ang:
  0 Li    0.00541    0.00074   -0.27349
  1 Li    0.00488   -0.00105   -0.26828
  2 Li   -0.00986    0.00424   -0.27590
  3 Li   -0.00217    0.00761   -0.27021
  4 Li   -0.00065    0.00163   -0.28179
  5 Li    0.00233   -0.00075   -0.27179
  6 Li    0.00418   -0.00884   -0.27318
  7 Li   -0.00300    0.00250   -0.27173
  8 Li   -0.00064   -0.00377   -0.27313
  9 Li   -0.00200    0.00484    0.31666
 10 Li    0.01535   -0.00852    0.25983
 11 Li   -0.01471    0.00048    0.26064
 12 Li   -0.00002    0.00291    0.28076
 13 Li    0.01102    0.00580    0.26167
 14 Li   -0.01091    0.00395    0.25503
 15 Li    0.00216   -0.00257    0.24952
 16 Li   -0.00965    0.00236    0.25639
 17 Li    0.00719   -0.00492    0.26987
 18 Li    0.05129    0.02473   -0.07785
 19 Li   -0.00293    0.00455    0.03675
 20 Li   -0.03755    0.02023   -0.03423
 21 Li   -0.00493   -0.01005    0.03820
 22 Li   -0.00456    0.00558    0.01504
 23 Li    0.01035   -0.01367    0.04619
 24 Li    0.02152   -0.01747   -0.00141
 25 Li    0.00231   -0.01338    0.02458
 26 Li   -0.01182   -0.00817    0.00276
 27 Li    0.08317    0.00746   -0.46234
 28 Li    0.11355   -0.02184   -0.10116
 29 Li   -0.08125   -0.00091   -0.08525
 30 Li    0.03650   -0.14723    0.16174
 31 Li    0.03451    0.01268   -0.03054
 32 Li   -0.03383    0.00966   -0.03901
 33 Li    0.00274   -0.06272   -0.06533
 34 Li   -0.00466    0.00546   -0.02372
 35 Li   -0.00120   -0.00721   -0.01851
 36 O    -0.17621    0.01967    0.11433
 37 C    -0.12713   -0.10995   -0.16448
 38 H     0.14945    0.12049    0.27317
 39 H     0.14370    0.14150    0.32505
 40 H    -0.19691    0.04567    0.15318
 41 H     0.04669    0.04422   -0.05683

System changes: positions 

Initializing position-dependent things.

Density initialized from wave functions
       .-----------------------.  
      /|                       |  
     / |                       |  
    /  |                       |  
   /   |                       |  
  /    |                       |  
 *     |                       |  
 |     |                       |  
 |     |                      H|  
 |     |                       |  
 |     | H                   H |  
 |     |                       |  
 |     |       Li      Li      |  
 |     |                       |  
 |   Li|     Li      Li H O    |  
 |     |  Li      Li     CLi   |  
 | Li  |   Li      Li          |  
 |     |Li      Li      Li     |  
 Li    |                       |  
 |   LLi     LLi     LLi       |  
 |     |  Li      Li      Li   |  
 | Li  |   Li      Li          |  
 |     |Li      Li      Li     |  
 Li    | Li      Li            |  
 |    Li      Li      Li       |  
 |     |                       |  
 |     |                       |  
 |     |                       |  
 |     |                       |  
 |     |                       |  
 |     |                       |  
 |     .-----------------------.  
 |    /                       /   
 |   /                       /    
 |  /                       /     
 | /                       /      
 |/                       /       
 *-----------------------*        

Positions:
   0 Li     1.617037    1.617037   10.000000    ( 0.0000,  0.0000,  0.0000)
   1 Li     4.851111    1.617037   10.000000    ( 0.0000,  0.0000,  0.0000)
   2 Li     8.085185    1.617037   10.000000    ( 0.0000,  0.0000,  0.0000)
   3 Li     1.617037    4.851111   10.000000    ( 0.0000,  0.0000,  0.0000)
   4 Li     4.851111    4.851111   10.000000    ( 0.0000,  0.0000,  0.0000)
   5 Li     8.085185    4.851111   10.000000    ( 0.0000,  0.0000,  0.0000)
   6 Li     1.617037    8.085185   10.000000    ( 0.0000,  0.0000,  0.0000)
   7 Li     4.851111    8.085185   10.000000    ( 0.0000,  0.0000,  0.0000)
   8 Li     8.085185    8.085185   10.000000    ( 0.0000,  0.0000,  0.0000)
   9 Li     0.000000    0.000000   11.617037    ( 0.0000,  0.0000,  0.0000)
  10 Li     3.234074    0.000000   11.617037    ( 0.0000,  0.0000,  0.0000)
  11 Li     6.468148    0.000000   11.617037    ( 0.0000,  0.0000,  0.0000)
  12 Li     0.000000    3.234074   11.617037    ( 0.0000,  0.0000,  0.0000)
  13 Li     3.234074    3.234074   11.617037    ( 0.0000,  0.0000,  0.0000)
  14 Li     6.468148    3.234074   11.617037    ( 0.0000,  0.0000,  0.0000)
  15 Li     0.000000    6.468148   11.617037    ( 0.0000,  0.0000,  0.0000)
  16 Li     3.234074    6.468148   11.617037    ( 0.0000,  0.0000,  0.0000)
  17 Li     6.468148    6.468148   11.617037    ( 0.0000,  0.0000,  0.0000)
  18 Li     1.622478    1.617925   13.460500    ( 0.0000,  0.0000,  0.0000)
  19 Li     4.850407    1.617207   13.476902    ( 0.0000,  0.0000,  0.0000)
  20 Li     8.080725    1.618119   13.466931    ( 0.0000,  0.0000,  0.0000)
  21 Li     1.616291    4.849947   13.475963    ( 0.0000,  0.0000,  0.0000)
  22 Li     4.850413    4.852039   13.472572    ( 0.0000,  0.0000,  0.0000)
  23 Li     8.086577    4.849424   13.477054    ( 0.0000,  0.0000,  0.0000)
  24 Li     1.617410    8.085358   13.473994    ( 0.0000,  0.0000,  0.0000)
  25 Li     4.851245    8.083640   13.474734    ( 0.0000,  0.0000,  0.0000)
  26 Li     8.085306    8.085891   13.473527    ( 0.0000,  0.0000,  0.0000)
  27 Li     0.050265    0.011712   15.267476    ( 0.0000,  0.0000,  0.0000)
  28 Li     3.252772   -0.003974   15.429154    ( 0.0000,  0.0000,  0.0000)
  29 Li     6.453293   -0.000343   15.431836    ( 0.0000,  0.0000,  0.0000)
  30 Li     0.005357    3.212628   15.469453    ( 0.0000,  0.0000,  0.0000)
  31 Li     3.239769    3.236587   15.440952    ( 0.0000,  0.0000,  0.0000)
  32 Li     6.462937    3.235370   15.439775    ( 0.0000,  0.0000,  0.0000)
  33 Li     0.000321    6.457682   15.434862    ( 0.0000,  0.0000,  0.0000)
  34 Li     3.233148    6.468898   15.442054    ( 0.0000,  0.0000,  0.0000)
  35 Li     6.468529    6.467188   15.442853    ( 0.0000,  0.0000,  0.0000)
  36 O     -0.000904    1.641901   17.443900    ( 0.0000,  0.0000,  0.0000)
  37 C     -0.005419    0.203561   17.494559    ( 0.0000,  0.0000,  0.0000)
  38 H     -0.826151   -0.230887   16.874760    ( 0.0000,  0.0000,  0.0000)
  39 H     -0.193857   -0.221038   18.480379    ( 0.0000,  0.0000,  0.0000)
  40 H      0.980993   -0.138798   17.140605    ( 0.0000,  0.0000,  0.0000)
  41 H     -0.881133    1.938046   17.735464    ( 0.0000,  0.0000,  0.0000)

Unit cell:
           periodic     x           y           z      points  spacing
  1. axis:    yes    9.702222    0.000000    0.000000    60     0.1617
  2. axis:    yes    0.000000    9.702222    0.000000    60     0.1617
  3. axis:    no     0.000000    0.000000   24.851111   156     0.1593

  Lengths:   9.702222   9.702222  24.851111
  Angles:   90.000000  90.000000  90.000000

Effective grid spacing dv^(1/3) = 0.1609

     iter     time        total  log10-change:
                         energy  eigst   dens
iter:   1 22:22:39  -246.835234  -1.26
iter:   2 22:25:09  -246.826714  -1.80  -1.94
iter:   3 22:27:34  -246.824554c -2.60  -2.10
iter:   4 22:30:01  -246.819560c -1.97  -2.24
Writing to output.gpw (mode='')

iter:   5 22:32:31  -246.819920c -3.32  -2.58
iter:   6 22:34:52  -246.819317c -3.02  -2.64
iter:   7 22:37:25  -246.819294c -2.29  -2.78
iter:   8 22:39:44  -246.819054c -3.42  -2.78
iter:   9 22:42:15  -246.818973c -3.46  -3.03
Writing to output.gpw (mode='')

iter:  10 22:44:43  -246.819040c -3.48  -3.21
iter:  11 22:47:12  -246.818954c -3.66  -3.09
iter:  12 22:49:38  -246.818949c -4.35  -3.30
iter:  13 22:52:07  -246.818946c -4.29  -3.37
iter:  14 22:54:29  -246.818944c -4.46  -3.72
Writing to output.gpw (mode='')

iter:  15 22:56:59  -246.818942c -4.97  -3.74
iter:  16 22:59:29  -246.818943c -5.33  -3.84
iter:  17 23:01:55  -246.818946c -5.29  -3.87
iter:  18 23:04:24  -246.818945c -5.41  -3.96
iter:  19 23:07:02  -246.818946c -5.48  -4.10c
Writing to output.gpw (mode='')

iter:  20 23:09:33  -246.818947c -5.65  -4.15c
iter:  21 23:12:05  -246.818947c -5.86  -4.27c
iter:  22 23:14:46  -246.818946c -5.88  -4.36c
iter:  23 23:17:02  -246.818946c -6.19  -4.47c
iter:  24 23:19:35  -246.818946c -6.12  -4.53c
Writing to output.gpw (mode='')

iter:  25 23:21:55  -246.818945c -6.28  -4.72c
iter:  26 23:24:20  -246.818945c -6.63  -4.78c
iter:  27 23:26:39  -246.818945c -6.57  -4.92c
iter:  28 23:29:02  -246.818945c -6.78  -5.01c
iter:  29 23:31:28  -246.818945c -6.79  -5.11c
Writing to output.gpw (mode='')

iter:  30 23:33:58  -246.818946c -6.76  -5.16c
iter:  31 23:36:23  -246.818946c -6.96  -5.26c
iter:  32 23:38:46  -246.818946c -7.16  -5.35c
iter:  33 23:41:09  -246.818946c -7.24  -5.37c
iter:  34 23:43:33  -246.818946c -7.08  -5.38c
Writing to output.gpw (mode='')

iter:  35 23:45:54  -246.818946c -7.28  -5.43c
iter:  36 23:48:18  -246.818946c -7.47c -5.61c

Converged after 36 iterations.

Dipole moment: (-5.893328, -6.073636, 0.198950) |e|*Ang

Energy contributions relative to reference atoms: (reference = -10418.802594)

Kinetic:       +110.907823
Potential:     -101.044714
External:        +0.000000
XC:            -256.802685
Entropy (-ST):   -0.145907
Local:           +0.193584
--------------------------
Free energy:   -246.891899
Extrapolated:  -246.818946

Dipole-layer corrected work functions: 3.378560, 2.996110 eV

Showing only first 2 kpts
 Kpt  Band  Eigenvalues  Occupancy
  0    23     -3.44627    1.98879
  0    24     -3.36234    1.94138
  0    25     -3.00101    0.04702
  0    26     -2.94090    0.01437

  1    23     -3.21575    1.27675
  1    24     -3.18073    0.93404
  1    25     -3.14706    0.61766
  1    26     -3.12012    0.41361


Fermi level: -3.18733

No gap
Writing to output.gpw (mode='')


Forces in eV/Ang:
  0 Li    0.00563    0.00061   -0.27441
  1 Li    0.00468   -0.00142   -0.26793
  2 Li   -0.00990    0.00425   -0.27678
  3 Li   -0.00267    0.00752   -0.26965
  4 Li   -0.00069    0.00181   -0.28246
  5 Li    0.00250   -0.00068   -0.27149
  6 Li    0.00428   -0.00863   -0.27424
  7 Li   -0.00301    0.00291   -0.27152
  8 Li   -0.00075   -0.00384   -0.27433
  9 Li   -0.00224    0.00463    0.32019
 10 Li    0.01596   -0.00926    0.26116
 11 Li   -0.01560    0.00020    0.26235
 12 Li   -0.00016    0.00308    0.28114
 13 Li    0.01280    0.00753    0.26106
 14 Li   -0.01233    0.00528    0.25518
 15 Li    0.00222   -0.00213    0.25162
 16 Li   -0.00935    0.00125    0.25702
 17 Li    0.00710   -0.00613    0.27079
 18 Li    0.05793    0.03385   -0.08397
 19 Li   -0.00209    0.00633    0.03063
 20 Li   -0.04059    0.02586   -0.03985
 21 Li   -0.00498   -0.01167    0.03641
 22 Li   -0.00444    0.00538    0.01276
 23 Li    0.01092   -0.01536    0.04463
 24 Li    0.03023   -0.02682   -0.01498
 25 Li    0.00293   -0.01506    0.01959
 26 Li   -0.01730   -0.01398   -0.00644
 27 Li    0.02848   -0.01042   -0.28895
 28 Li    0.10651   -0.01929   -0.09564
 29 Li   -0.07350   -0.00035   -0.08204
 30 Li    0.03698   -0.14992    0.16406
 31 Li    0.03285    0.01069   -0.02904
 32 Li   -0.03323    0.01004   -0.03796
 33 Li    0.00288   -0.05929   -0.06142
 34 Li   -0.00373    0.00550   -0.02239
 35 Li   -0.00281   -0.00726   -0.01728
 36 O    -0.13476   -0.07167    0.09893
 37 C    -0.13167   -0.07669   -0.02410
 38 H     0.17259    0.11431    0.07192
 39 H     0.18787    0.20565    0.27576
 40 H    -0.21974    0.05083    0.10861
 41 H     0.01091    0.05190   -0.03794

System changes: positions 

Initializing position-dependent things.

Density initialized from wave functions
       .-----------------------.  
      /|                       |  
     / |                       |  
    /  |                       |  
   /   |                       |  
  /    |                       |  
 *     |                       |  
 |     |                       |  
 |     |                      H|  
 |     |                       |  
 |     | H                   H |  
 |     |                       |  
 |     |       Li      Li      |  
 |     |                       |  
 |   Li|     Li      Li H O    |  
 |     |  Li      Li     CLi   |  
 | Li  |   Li      Li          |  
 |     |Li      Li      Li     |  
 Li    |                       |  
 |   LLi     LLi     LLi       |  
 |     |  Li      Li      Li   |  
 | Li  |   Li      Li          |  
 |     |Li      Li      Li     |  
 Li    | Li      Li            |  
 |    Li      Li      Li       |  
 |     |                       |  
 |     |                       |  
 |     |                       |  
 |     |                       |  
 |     |                       |  
 |     |                       |  
 |     .-----------------------.  
 |    /                       /   
 |   /                       /    
 |  /                       /     
 | /                       /      
 |/                       /       
 *-----------------------*        

Positions:
   0 Li     1.617037    1.617037   10.000000    ( 0.0000,  0.0000,  0.0000)
   1 Li     4.851111    1.617037   10.000000    ( 0.0000,  0.0000,  0.0000)
   2 Li     8.085185    1.617037   10.000000    ( 0.0000,  0.0000,  0.0000)
   3 Li     1.617037    4.851111   10.000000    ( 0.0000,  0.0000,  0.0000)
   4 Li     4.851111    4.851111   10.000000    ( 0.0000,  0.0000,  0.0000)
   5 Li     8.085185    4.851111   10.000000    ( 0.0000,  0.0000,  0.0000)
   6 Li     1.617037    8.085185   10.000000    ( 0.0000,  0.0000,  0.0000)
   7 Li     4.851111    8.085185   10.000000    ( 0.0000,  0.0000,  0.0000)
   8 Li     8.085185    8.085185   10.000000    ( 0.0000,  0.0000,  0.0000)
   9 Li     0.000000    0.000000   11.617037    ( 0.0000,  0.0000,  0.0000)
  10 Li     3.234074    0.000000   11.617037    ( 0.0000,  0.0000,  0.0000)
  11 Li     6.468148    0.000000   11.617037    ( 0.0000,  0.0000,  0.0000)
  12 Li     0.000000    3.234074   11.617037    ( 0.0000,  0.0000,  0.0000)
  13 Li     3.234074    3.234074   11.617037    ( 0.0000,  0.0000,  0.0000)
  14 Li     6.468148    3.234074   11.617037    ( 0.0000,  0.0000,  0.0000)
  15 Li     0.000000    6.468148   11.617037    ( 0.0000,  0.0000,  0.0000)
  16 Li     3.234074    6.468148   11.617037    ( 0.0000,  0.0000,  0.0000)
  17 Li     6.468148    6.468148   11.617037    ( 0.0000,  0.0000,  0.0000)
  18 Li     1.624837    1.618885   13.456833    ( 0.0000,  0.0000,  0.0000)
  19 Li     4.850229    1.617387   13.478934    ( 0.0000,  0.0000,  0.0000)
  20 Li     8.078953    1.618928   13.465475    ( 0.0000,  0.0000,  0.0000)
  21 Li     1.616037    4.849461   13.477958    ( 0.0000,  0.0000,  0.0000)
  22 Li     4.850181    4.852335   13.473392    ( 0.0000,  0.0000,  0.0000)
  23 Li     8.087088    4.848756   13.479441    ( 0.0000,  0.0000,  0.0000)
  24 Li     1.618192    8.084758   13.474414    ( 0.0000,  0.0000,  0.0000)
  25 Li     4.851339    8.083004   13.476109    ( 0.0000,  0.0000,  0.0000)
  26 Li     8.084918    8.085689   13.474062    ( 0.0000,  0.0000,  0.0000)
  27 Li     0.059871    0.013540   15.228690    ( 0.0000,  0.0000,  0.0000)
  28 Li     3.258697   -0.005154   15.423839    ( 0.0000,  0.0000,  0.0000)
  29 Li     6.448854   -0.000414   15.427334    ( 0.0000,  0.0000,  0.0000)
  30 Li     0.007205    3.205187   15.477607    ( 0.0000,  0.0000,  0.0000)
  31 Li     3.241580    3.237296   15.439358    ( 0.0000,  0.0000,  0.0000)
  32 Li     6.461203    3.235843   15.437755    ( 0.0000,  0.0000,  0.0000)
  33 Li     0.000448    6.454377   15.431397    ( 0.0000,  0.0000,  0.0000)
  34 Li     3.232890    6.469165   15.440817    ( 0.0000,  0.0000,  0.0000)
  35 Li     6.468533    6.466842   15.441883    ( 0.0000,  0.0000,  0.0000)
  36 O     -0.004232    1.644627   17.445934    ( 0.0000,  0.0000,  0.0000)
  37 C     -0.007200    0.204368   17.501380    ( 0.0000,  0.0000,  0.0000)
  38 H     -0.832517   -0.230384   16.896357    ( 0.0000,  0.0000,  0.0000)
  39 H     -0.189340   -0.216848   18.491849    ( 0.0000,  0.0000,  0.0000)
  40 H      0.977486   -0.138661   17.147268    ( 0.0000,  0.0000,  0.0000)
  41 H     -0.884174    1.941026   17.734302    ( 0.0000,  0.0000,  0.0000)

Unit cell:
           periodic     x           y           z      points  spacing
  1. axis:    yes    9.702222    0.000000    0.000000    60     0.1617
  2. axis:    yes    0.000000    9.702222    0.000000    60     0.1617
  3. axis:    no     0.000000    0.000000   24.851111   156     0.1593

  Lengths:   9.702222   9.702222  24.851111
  Angles:   90.000000  90.000000  90.000000

Effective grid spacing dv^(1/3) = 0.1609

     iter     time        total  log10-change:
                         energy  eigst   dens
iter:   1 23:51:23  -246.852558  -1.29
iter:   2 23:53:43  -246.846288  -1.84  -1.98
iter:   3 23:56:07  -246.844590c -2.59  -2.13
iter:   4 23:58:39  -246.840022c -2.10  -2.26
Writing to output.gpw (mode='')

iter:   5 00:01:10  -246.840430c -3.44  -2.61
iter:   6 00:03:34  -246.839795c -3.00  -2.63
iter:   7 00:05:57  -246.839832c -2.28  -2.77
iter:   8 00:08:23  -246.839583c -3.47  -2.78
iter:   9 00:10:46  -246.839569c -3.42  -3.07
Writing to output.gpw (mode='')

iter:  10 00:13:19  -246.839610c -3.52  -3.13
iter:  11 00:15:42  -246.839514c -3.59  -3.08
iter:  12 00:18:03  -246.839518c -4.46  -3.31
iter:  13 00:20:25  -246.839524c -4.06  -3.42
iter:  14 00:22:54  -246.839506c -4.31  -3.49
Writing to output.gpw (mode='')

iter:  15 00:25:30  -246.839507c -4.94  -3.72
iter:  16 00:28:06  -246.839509c -5.30  -3.81
iter:  17 00:30:33  -246.839512c -5.12  -3.92
iter:  18 00:33:00  -246.839511c -5.36  -3.99
iter:  19 00:35:28  -246.839512c -5.72  -4.28c
Writing to output.gpw (mode='')

iter:  20 00:37:58  -246.839512c -5.78  -4.33c
iter:  21 00:40:18  -246.839511c -6.02  -4.39c
iter:  22 00:42:39  -246.839510c -5.96  -4.46c
iter:  23 00:45:05  -246.839511c -5.97  -4.53c
iter:  24 00:47:36  -246.839510c -6.30  -4.61c
Writing to output.gpw (mode='')

iter:  25 00:50:05  -246.839510c -6.43  -4.78c
iter:  26 00:52:26  -246.839510c -6.42  -4.82c
iter:  27 00:54:46  -246.839510c -6.55  -4.95c
iter:  28 00:57:12  -246.839510c -6.85  -5.11c
iter:  29 00:59:38  -246.839510c -6.79  -5.13c
Writing to output.gpw (mode='')

iter:  30 01:02:09  -246.839510c -6.75  -5.15c
iter:  31 01:04:34  -246.839511c -6.96  -5.34c
iter:  32 01:07:02  -246.839511c -7.00  -5.44c
iter:  33 01:09:25  -246.839511c -7.14  -5.44c
iter:  34 01:11:52  -246.839511c -7.24  -5.47c
Writing to output.gpw (mode='')

iter:  35 01:14:39  -246.839511c -7.20  -5.47c
iter:  36 01:17:01  -246.839511c -7.22  -5.53c
iter:  37 01:19:24  -246.839511c -7.46c -5.67c

Converged after 37 iterations.

Dipole moment: (-5.637383, -6.067322, 0.195755) |e|*Ang

Energy contributions relative to reference atoms: (reference = -10418.802594)

Kinetic:       +110.956334
Potential:     -101.095776
External:        +0.000000
XC:            -256.820503
Entropy (-ST):   -0.145709
Local:           +0.193289
--------------------------
Free energy:   -246.912365
Extrapolated:  -246.839511

Dipole-layer corrected work functions: 3.378645, 3.002337 eV

Showing only first 2 kpts
 Kpt  Band  Eigenvalues  Occupancy
  0    23     -3.45065    1.98906
  0    24     -3.36598    1.94193
  0    25     -3.00323    0.04617
  0    26     -2.94541    0.01476

  1    23     -3.21768    1.26535
  1    24     -3.18347    0.92994
  1    25     -3.15168    0.63027
  1    26     -3.12186    0.40441


Fermi level: -3.19049

No gap
Writing to output.gpw (mode='')


Forces in eV/Ang:
  0 Li    0.00584    0.00046   -0.27535
  1 Li    0.00447   -0.00184   -0.26758
  2 Li   -0.00992    0.00424   -0.27766
  3 Li   -0.00319    0.00742   -0.26907
  4 Li   -0.00073    0.00203   -0.28318
  5 Li    0.00268   -0.00065   -0.27120
  6 Li    0.00439   -0.00839   -0.27535
  7 Li   -0.00304    0.00334   -0.27134
  8 Li   -0.00087   -0.00387   -0.27558
  9 Li   -0.00246    0.00442    0.32331
 10 Li    0.01672   -0.01013    0.26250
 11 Li   -0.01663   -0.00012    0.26408
 12 Li   -0.00035    0.00330    0.28133
 13 Li    0.01490    0.00960    0.26023
 14 Li   -0.01395    0.00685    0.25527
 15 Li    0.00224   -0.00177    0.25386
 16 Li   -0.00900   -0.00011    0.25762
 17 Li    0.00706   -0.00757    0.27182
 18 Li    0.06422    0.04304   -0.08896
 19 Li   -0.00125    0.00825    0.02368
 20 Li   -0.04318    0.03133   -0.04450
[...]
iter:   4 22:06:30  -247.355733c -2.49  -2.22
Writing to output.gpw (mode='')

iter:   5 22:09:02  -247.348794c -2.54  -2.15
iter:   6 22:11:20  -247.347176c -2.17  -2.50
iter:   7 22:13:44  -247.347389c -2.41  -2.80
iter:   8 22:16:09  -247.347213c -3.01  -2.78
iter:   9 22:18:23  -247.347253c -3.05  -3.07
Writing to output.gpw (mode='')

iter:  10 22:20:54  -247.347254c -3.67  -3.08
iter:  11 22:23:18  -247.347240c -4.06  -3.12
iter:  12 22:25:46  -247.347252c -3.97  -3.35
iter:  13 22:28:05  -247.347236c -4.74  -3.36
iter:  14 22:30:15  -247.347228c -4.87  -3.44
Writing to output.gpw (mode='')

iter:  15 22:32:52  -247.347238c -4.36  -3.56
iter:  16 22:35:21  -247.347234c -4.76  -3.72
iter:  17 22:37:45  -247.347237c -5.05  -3.87
iter:  18 22:40:16  -247.347240c -5.06  -3.96
iter:  19 22:42:39  -247.347242c -5.23  -4.07c
Writing to output.gpw (mode='')

iter:  20 22:45:15  -247.347238c -5.24  -4.12c
iter:  21 22:47:31  -247.347240c -5.73  -4.20c
iter:  22 22:50:01  -247.347237c -5.67  -4.24c
iter:  23 22:52:34  -247.347236c -5.62  -4.18c
iter:  24 22:54:51  -247.347236c -5.74  -4.44c
Writing to output.gpw (mode='')

iter:  25 22:57:35  -247.347236c -6.21  -4.39c
iter:  26 22:59:49  -247.347237c -6.35  -4.71c
iter:  27 23:02:14  -247.347237c -6.46  -4.77c
iter:  28 23:04:36  -247.347237c -6.34  -4.83c
iter:  29 23:06:53  -247.347238c -6.50  -4.96c
Writing to output.gpw (mode='')

iter:  30 23:09:35  -247.347238c -6.78  -5.04c
iter:  31 23:12:03  -247.347238c -6.91  -5.05c
iter:  32 23:14:29  -247.347237c -6.92  -5.12c
iter:  33 23:16:42  -247.347237c -7.05  -5.25c
iter:  34 23:19:03  -247.347237c -7.15  -5.28c
Writing to output.gpw (mode='')

iter:  35 23:21:38  -247.347237c -7.19  -5.31c
iter:  36 23:23:58  -247.347237c -7.28  -5.41c
iter:  37 23:26:14  -247.347237c -7.20  -5.55c
iter:  38 23:28:34  -247.347237c -7.51c -5.71c

Converged after 38 iterations.

Dipole moment: (2.879699, -2.930258, 0.285754) |e|*Ang

Energy contributions relative to reference atoms: (reference = -10418.802594)

Kinetic:       +109.173825
Potential:     -100.451351
External:        +0.000000
XC:            -256.192785
Entropy (-ST):   -0.153649
Local:           +0.199899
--------------------------
Free energy:   -247.424062
Extrapolated:  -247.347237

Dipole-layer corrected work functions: 3.370921, 2.821604 eV

Showing only first 2 kpts
 Kpt  Band  Eigenvalues  Occupancy
  0    23     -3.33115    1.98193
  0    24     -3.24588    1.90445
  0    25     -2.94247    0.08823
  0    26     -2.82707    0.00914

  1    23     -3.13879    1.40138
  1    24     -3.10133    1.05059
  1    25     -3.05615    0.61912
  1    26     -3.02949    0.41653


Fermi level: -3.09626

No gap
Writing to output.gpw (mode='')


Forces in eV/Ang:
  0 Li    0.00658    0.00122   -0.27019
  1 Li   -0.00074    0.00441   -0.27899
  2 Li   -0.00502    0.00037   -0.27551
  3 Li    0.00333    0.00279   -0.26591
  4 Li    0.00044   -0.00037   -0.28827
  5 Li   -0.00022    0.00469   -0.27253
  6 Li   -0.00117    0.00121   -0.28211
  7 Li    0.00000   -0.00036   -0.25696
  8 Li    0.00336    0.00030   -0.28085
  9 Li    0.00204   -0.00094    0.32959
 10 Li   -0.02101    0.00086    0.27433
 11 Li    0.01093    0.00056    0.28870
 12 Li   -0.00519   -0.01972    0.24859
 13 Li   -0.00573    0.00673    0.27494
 14 Li   -0.00690    0.01285    0.29700
 15 Li    0.00730   -0.03344    0.30335
 16 Li   -0.05108   -0.03757    0.26889
 17 Li    0.03170   -0.03823    0.29406
 18 Li   -0.02679   -0.01368   -0.01547
 19 Li    0.00067   -0.00737   -0.00107
 20 Li    0.02386    0.00390   -0.01716
 21 Li    0.00327    0.01571   -0.01201
 22 Li   -0.00219    0.00093    0.00635
 23 Li    0.00421    0.00370   -0.01725
 24 Li   -0.02383    0.00278    0.00877
 25 Li    0.00952    0.00061    0.00809
 26 Li   -0.00199   -0.00790   -0.00596
 27 Li    0.00370    0.00705    0.00259
 28 Li    0.01200   -0.00692   -0.01253
 29 Li   -0.01803   -0.01164   -0.01851
 30 Li    0.00644    0.02285    0.00918
 31 Li    0.01498    0.01490    0.00040
 32 Li    0.00625   -0.00183    0.01305
 33 Li    0.00005   -0.00924    0.00879
 34 Li   -0.00985    0.00074   -0.00767
 35 Li    0.01187    0.01733   -0.00981
 36 O    -0.06596   -0.01416    0.08001
 37 C    -0.01527   -0.00957   -0.01933
 38 H     0.07086    0.08039    0.03445
 39 H    -0.05273    0.00933   -0.06292
 40 H    -0.03209    0.00891   -0.04619
 41 H     0.07350   -0.01444   -0.02119

System changes: positions 

Initializing position-dependent things.

Density initialized from wave functions
       .-----------------------.  
      /|                       |  
     / |                       |  
    /  |                       |  
   /   |                       |  
  /    |                       |  
 *     |                       |  
 |     |                       |  
 |     |                       |  
 |     |                       |  
 |     |                       |  
 |     |                  H    |  
 |     |       Li              Li 
 |  H  |                  C    |  
 |   Li|     Li      LiHHO     |  
 | Li  |  Li      Li      Li   |  
 |     |   Li      Li          |  
 |     |Li      Li      Li     |  
 |     |         Li            |  
 |   LLi     LLi     LLi       |  
 |     |  Li      Li      Li   |  
 | Li  |   Li      Li          |  
 |     |Li      Li      Li     |  
 Li    | Li      Li            |  
 |    Li      Li      Li       |  
 |     |                       |  
 |     |                       |  
 |     |                       |  
 |     |                       |  
 |     |                       |  
 |     |                       |  
 |     .-----------------------.  
 |    /                       /   
 |   /                       /    
 |  /                       /     
 | /                       /      
 |/                       /       
 *-----------------------*        

Positions:
   0 Li     1.617037    1.617037   10.000000    ( 0.0000,  0.0000,  0.0000)
   1 Li     4.851111    1.617037   10.000000    ( 0.0000,  0.0000,  0.0000)
   2 Li     8.085185    1.617037   10.000000    ( 0.0000,  0.0000,  0.0000)
   3 Li     1.617037    4.851111   10.000000    ( 0.0000,  0.0000,  0.0000)
   4 Li     4.851111    4.851111   10.000000    ( 0.0000,  0.0000,  0.0000)
   5 Li     8.085185    4.851111   10.000000    ( 0.0000,  0.0000,  0.0000)
   6 Li     1.617037    8.085185   10.000000    ( 0.0000,  0.0000,  0.0000)
   7 Li     4.851111    8.085185   10.000000    ( 0.0000,  0.0000,  0.0000)
   8 Li     8.085185    8.085185   10.000000    ( 0.0000,  0.0000,  0.0000)
   9 Li     0.000000    0.000000   11.617037    ( 0.0000,  0.0000,  0.0000)
  10 Li     3.234074    0.000000   11.617037    ( 0.0000,  0.0000,  0.0000)
  11 Li     6.468148    0.000000   11.617037    ( 0.0000,  0.0000,  0.0000)
  12 Li     0.000000    3.234074   11.617037    ( 0.0000,  0.0000,  0.0000)
  13 Li     3.234074    3.234074   11.617037    ( 0.0000,  0.0000,  0.0000)
  14 Li     6.468148    3.234074   11.617037    ( 0.0000,  0.0000,  0.0000)
  15 Li     0.000000    6.468148   11.617037    ( 0.0000,  0.0000,  0.0000)
  16 Li     3.234074    6.468148   11.617037    ( 0.0000,  0.0000,  0.0000)
  17 Li     6.468148    6.468148   11.617037    ( 0.0000,  0.0000,  0.0000)
  18 Li     1.611674    1.635510   13.517303    ( 0.0000,  0.0000,  0.0000)
  19 Li     4.832018    1.606190   13.462364    ( 0.0000,  0.0000,  0.0000)
  20 Li     8.079618    1.632220   13.516309    ( 0.0000,  0.0000,  0.0000)
  21 Li     1.568033    4.762838   13.577133    ( 0.0000,  0.0000,  0.0000)
  22 Li     4.825961    4.880117   13.457459    ( 0.0000,  0.0000,  0.0000)
  23 Li     8.123371    4.788372   13.564574    ( 0.0000,  0.0000,  0.0000)
  24 Li     1.653613    8.037623   13.470569    ( 0.0000,  0.0000,  0.0000)
  25 Li     4.835825    8.080979   13.469747    ( 0.0000,  0.0000,  0.0000)
  26 Li     8.061807    8.048293   13.479042    ( 0.0000,  0.0000,  0.0000)
  27 Li    -0.010678   -0.157083   15.325794    ( 0.0000,  0.0000,  0.0000)
  28 Li     3.212473   -0.007317   15.426982    ( 0.0000,  0.0000,  0.0000)
  29 Li     6.435583    0.003649   15.417340    ( 0.0000,  0.0000,  0.0000)
  30 Li     0.037777    2.989496   15.904408    ( 0.0000,  0.0000,  0.0000)
  31 Li     3.267302    3.203562   15.434182    ( 0.0000,  0.0000,  0.0000)
  32 Li     6.332229    3.255745   15.344668    ( 0.0000,  0.0000,  0.0000)
  33 Li     0.004246    6.444865   15.454553    ( 0.0000,  0.0000,  0.0000)
  34 Li     3.247834    6.454869   15.453846    ( 0.0000,  0.0000,  0.0000)
  35 Li     6.447623    6.461951   15.449995    ( 0.0000,  0.0000,  0.0000)
  36 O     -0.509050    2.262799   17.638810    ( 0.0000,  0.0000,  0.0000)
  37 C     -0.001012    1.353568   18.651328    ( 0.0000,  0.0000,  0.0000)
  38 H     -0.486778    0.374967   18.561026    ( 0.0000,  0.0000,  0.0000)
  39 H     -0.157030    1.762421   19.653380    ( 0.0000,  0.0000,  0.0000)
  40 H      1.066875    1.245564   18.469534    ( 0.0000,  0.0000,  0.0000)
  41 H     -1.482941    2.240752   17.656164    ( 0.0000,  0.0000,  0.0000)

Unit cell:
           periodic     x           y           z      points  spacing
  1. axis:    yes    9.702222    0.000000    0.000000    60     0.1617
  2. axis:    yes    0.000000    9.702222    0.000000    60     0.1617
  3. axis:    no     0.000000    0.000000   24.851111   156     0.1593

  Lengths:   9.702222   9.702222  24.851111
  Angles:   90.000000  90.000000  90.000000

Effective grid spacing dv^(1/3) = 0.1609

     iter     time        total  log10-change:
                         energy  eigst   dens
iter:   1 23:31:39  -247.351372  -1.08
iter:   2 23:33:58  -247.352245  -1.97  -2.31
iter:   3 23:36:18  -247.352608c -2.47  -2.33
iter:   4 23:38:38  -247.356041c -2.20  -2.32
Writing to output.gpw (mode='')

iter:   5 23:41:14  -247.348969c -2.29  -2.18
iter:   6 23:43:36  -247.348853c -2.09  -2.75
iter:   7 23:45:58  -247.348836c -2.72  -2.77
iter:   8 23:48:19  -247.348533c -3.51  -2.81
iter:   9 23:50:43  -247.348552c -3.30  -3.12
Writing to output.gpw (mode='')

iter:  10 23:53:24  -247.348576c -3.99  -3.06
iter:  11 23:55:43  -247.348575c -4.06  -3.14
iter:  12 23:57:58  -247.348571c -4.03  -3.31
iter:  13 00:00:10  -247.348571c -4.67  -3.43
iter:  14 00:02:34  -247.348556c -4.80  -3.47
Writing to output.gpw (mode='')

iter:  15 00:05:05  -247.348539c -4.75  -3.59
iter:  16 00:07:26  -247.348531c -4.60  -3.67
iter:  17 00:09:41  -247.348535c -5.53  -3.85
iter:  18 00:12:00  -247.348540c -5.64  -3.98
iter:  19 00:14:29  -247.348538c -5.69  -4.13c
Writing to output.gpw (mode='')

iter:  20 00:16:57  -247.348538c -5.64  -4.23c
iter:  21 00:19:17  -247.348539c -6.04  -4.29c
iter:  22 00:21:40  -247.348540c -6.22  -4.32c
iter:  23 00:24:01  -247.348539c -6.36  -4.49c
iter:  24 00:26:19  -247.348539c -6.50  -4.63c
Writing to output.gpw (mode='')

iter:  25 00:28:55  -247.348539c -6.56  -4.70c
iter:  26 00:31:19  -247.348539c -6.88  -4.79c
iter:  27 00:33:43  -247.348539c -6.90  -4.88c
iter:  28 00:36:01  -247.348539c -6.83  -5.10c
iter:  29 00:38:21  -247.348539c -7.20  -5.23c
Writing to output.gpw (mode='')

iter:  30 00:40:52  -247.348539c -7.18  -5.27c
iter:  31 00:43:13  -247.348539c -7.32  -5.33c
iter:  32 00:45:32  -247.348539c -7.43c -5.41c

Converged after 32 iterations.

Dipole moment: (2.840205, -2.816538, 0.284603) |e|*Ang

Energy contributions relative to reference atoms: (reference = -10418.802594)

Kinetic:       +109.120024
Potential:     -100.410501
External:        +0.000000
XC:            -256.181259
Entropy (-ST):   -0.153593
Local:           +0.199993
--------------------------
Free energy:   -247.425335
Extrapolated:  -247.348539

Dipole-layer corrected work functions: 3.370905, 2.823800 eV

Showing only first 2 kpts
 Kpt  Band  Eigenvalues  Occupancy
  0    23     -3.33269    1.98209
  0    24     -3.24735    1.90514
  0    25     -2.94301    0.08730
  0    26     -2.82867    0.00923

  1    23     -3.13959    1.39892
  1    24     -3.10169    1.04331
  1    25     -3.05707    0.61768
  1    26     -3.03114    0.42026


Fermi level: -3.09735

No gap
Writing to output.gpw (mode='')


Forces in eV/Ang:
  0 Li    0.00636    0.00140   -0.27034
  1 Li   -0.00073    0.00436   -0.27898
  2 Li   -0.00515    0.00014   -0.27565
  3 Li    0.00347    0.00283   -0.26644
  4 Li    0.00046   -0.00076   -0.28875
  5 Li   -0.00033    0.00479   -0.27236
  6 Li   -0.00108    0.00122   -0.28183
  7 Li   -0.00007   -0.00056   -0.25658
  8 Li    0.00346    0.00037   -0.28145
  9 Li    0.00149   -0.00128    0.33009
 10 Li   -0.01995    0.00306    0.27252
 11 Li    0.01151    0.00204    0.28959
 12 Li   -0.00609   -0.01710    0.24903
 13 Li   -0.00470    0.01020    0.27628
 14 Li   -0.00560    0.01487    0.29747
 15 Li    0.00772   -0.03627    0.30408
 16 Li   -0.05029   -0.04149    0.26867
 17 Li    0.03003   -0.03907    0.29385
 18 Li   -0.02859   -0.01368   -0.01082
 19 Li   -0.00038   -0.00875   -0.00459
 20 Li    0.02309    0.00458   -0.01881
 21 Li    0.00483    0.01786   -0.01741
 22 Li   -0.00494    0.00009    0.00326
 23 Li    0.00521    0.00314   -0.02312
 24 Li   -0.02722    0.00294    0.01006
 25 Li    0.01377   -0.00332    0.00701
 26 Li   -0.00202   -0.00779   -0.00508
 27 Li    0.00607    0.01409    0.00781
 28 Li    0.01155   -0.00852   -0.00991
 29 Li   -0.01788   -0.00997   -0.01201
 30 Li    0.00370    0.01763    0.01751
 31 Li    0.01280    0.01744    0.00190
 32 Li    0.00846   -0.00105    0.01279
 33 Li    0.00083   -0.01275    0.00836
 34 Li   -0.01078   -0.00076   -0.00634
 35 Li    0.01158    0.01718   -0.00970
 36 O    -0.07794   -0.03413    0.07628
 37 C    -0.04816    0.01766   -0.05742
 38 H     0.07107    0.09614    0.02639
 39 H    -0.05131    0.00713   -0.06856
 40 H    -0.01974    0.00183   -0.03458
 41 H     0.09727   -0.02792   -0.00942

System changes: positions 

Initializing position-dependent things.

Density initialized from wave functions
       .-----------------------.  
      /|                       |  
     / |                       |  
    /  |                       |  
   /   |                       |  
  /    |                       |  
 *     |                       |  
 |     |                       |  
 |     |                       |  
 |     |                       |  
 |     |                       |  
 |     |                  H    |  
 |     |       Li              Li 
 |C H  |                       |  
 |   Li|     Li      LiHHO     |  
 | Li  |  Li      Li      Li   |  
 |     |   Li      Li          |  
 |     |Li      Li      Li     |  
 |     |         Li            |  
 |   LLi     LLi     LLi       |  
 |     |  Li      Li      Li   |  
 | Li  |   Li      Li          |  
 |     |Li      Li      Li     |  
 Li    | Li      Li            |  
 |    Li      Li      Li       |  
 |     |                       |  
 |     |                       |  
 |     |                       |  
 |     |                       |  
 |     |                       |  
 |     |                       |  
 |     .-----------------------.  
 |    /                       /   
 |   /                       /    
 |  /                       /     
 | /                       /      
 |/                       /       
 *-----------------------*        

Positions:
   0 Li     1.617037    1.617037   10.000000    ( 0.0000,  0.0000,  0.0000)
   1 Li     4.851111    1.617037   10.000000    ( 0.0000,  0.0000,  0.0000)
   2 Li     8.085185    1.617037   10.000000    ( 0.0000,  0.0000,  0.0000)
   3 Li     1.617037    4.851111   10.000000    ( 0.0000,  0.0000,  0.0000)
   4 Li     4.851111    4.851111   10.000000    ( 0.0000,  0.0000,  0.0000)
   5 Li     8.085185    4.851111   10.000000    ( 0.0000,  0.0000,  0.0000)
   6 Li     1.617037    8.085185   10.000000    ( 0.0000,  0.0000,  0.0000)
   7 Li     4.851111    8.085185   10.000000    ( 0.0000,  0.0000,  0.0000)
   8 Li     8.085185    8.085185   10.000000    ( 0.0000,  0.0000,  0.0000)
   9 Li     0.000000    0.000000   11.617037    ( 0.0000,  0.0000,  0.0000)
  10 Li     3.234074    0.000000   11.617037    ( 0.0000,  0.0000,  0.0000)
  11 Li     6.468148    0.000000   11.617037    ( 0.0000,  0.0000,  0.0000)
  12 Li     0.000000    3.234074   11.617037    ( 0.0000,  0.0000,  0.0000)
  13 Li     3.234074    3.234074   11.617037    ( 0.0000,  0.0000,  0.0000)
  14 Li     6.468148    3.234074   11.617037    ( 0.0000,  0.0000,  0.0000)
  15 Li     0.000000    6.468148   11.617037    ( 0.0000,  0.0000,  0.0000)
  16 Li     3.234074    6.468148   11.617037    ( 0.0000,  0.0000,  0.0000)
  17 Li     6.468148    6.468148   11.617037    ( 0.0000,  0.0000,  0.0000)
  18 Li     1.611350    1.632621   13.512802    ( 0.0000,  0.0000,  0.0000)
  19 Li     4.833924    1.608871   13.462016    ( 0.0000,  0.0000,  0.0000)
  20 Li     8.083195    1.633222   13.518469    ( 0.0000,  0.0000,  0.0000)
  21 Li     1.566051    4.761924   13.582124    ( 0.0000,  0.0000,  0.0000)
  22 Li     4.829580    4.882952   13.460185    ( 0.0000,  0.0000,  0.0000)
  23 Li     8.122193    4.789530   13.569473    ( 0.0000,  0.0000,  0.0000)
  24 Li     1.653860    8.038213   13.468992    ( 0.0000,  0.0000,  0.0000)
  25 Li     4.830587    8.084503   13.467239    ( 0.0000,  0.0000,  0.0000)
  26 Li     8.061748    8.046335   13.474081    ( 0.0000,  0.0000,  0.0000)
  27 Li    -0.014318   -0.161778   15.324092    ( 0.0000,  0.0000,  0.0000)
  28 Li     3.208650   -0.003545   15.424517    ( 0.0000,  0.0000,  0.0000)
  29 Li     6.437663    0.000387   15.407529    ( 0.0000,  0.0000,  0.0000)
  30 Li     0.036662    2.999745   15.907379    ( 0.0000,  0.0000,  0.0000)
  31 Li     3.269723    3.201600   15.431885    ( 0.0000,  0.0000,  0.0000)
  32 Li     6.332814    3.252435   15.349903    ( 0.0000,  0.0000,  0.0000)
  33 Li     0.003447    6.452309   15.458942    ( 0.0000,  0.0000,  0.0000)
  34 Li     3.247928    6.457285   15.452566    ( 0.0000,  0.0000,  0.0000)
  35 Li     6.448806    6.466432   15.449630    ( 0.0000,  0.0000,  0.0000)
  36 O     -0.511783    2.276881   17.645428    ( 0.0000,  0.0000,  0.0000)
  37 C      0.000323    1.380039   18.668525    ( 0.0000,  0.0000,  0.0000)
  38 H     -0.477432    0.397940   18.585778    ( 0.0000,  0.0000,  0.0000)
  39 H     -0.165131    1.800182   19.663796    ( 0.0000,  0.0000,  0.0000)
  40 H      1.069312    1.278505   18.486726    ( 0.0000,  0.0000,  0.0000)
  41 H     -1.485683    2.231092   17.642967    ( 0.0000,  0.0000,  0.0000)

Unit cell:
           periodic     x           y           z      points  spacing
  1. axis:    yes    9.702222    0.000000    0.000000    60     0.1617
  2. axis:    yes    0.000000    9.702222    0.000000    60     0.1617
  3. axis:    no     0.000000    0.000000   24.851111   156     0.1593

  Lengths:   9.702222   9.702222  24.851111
  Angles:   90.000000  90.000000  90.000000

Effective grid spacing dv^(1/3) = 0.1609

     iter     time        total  log10-change:
                         energy  eigst   dens
iter:   1 00:48:39  -247.354645  -0.87
iter:   2 00:50:57  -247.356145  -1.76  -2.22
iter:   3 00:53:19  -247.357721c -2.19  -2.26
iter:   4 00:55:34  -247.352551c -2.42  -2.21
Writing to output.gpw (mode='')

iter:   5 00:58:07  -247.351679c -2.25  -2.53
iter:   6 01:00:30  -247.351257c -2.96  -2.51
iter:   7 01:02:54  -247.350773c -2.71  -2.74
iter:   8 01:05:10  -247.351151c -2.55  -2.86
iter:   9 01:07:19  -247.350796c -3.55  -2.77
Writing to output.gpw (mode='')

iter:  10 01:09:43  -247.350774c -3.20  -3.03
iter:  11 01:12:08  -247.350774c -3.90  -3.15
iter:  12 01:14:32  -247.350764c -4.52  -3.28
iter:  13 01:16:54  -247.350758c -4.43  -3.32
iter:  14 01:19:14  -247.350773c -4.06  -3.29
Writing to output.gpw (mode='')

iter:  15 01:21:41  -247.350753c -4.07  -3.21
iter:  16 01:23:58  -247.350748c -4.51  -3.46
iter:  17 01:26:22  -247.350746c -4.68  -3.76
iter:  18 01:28:54  -247.350744c -5.13  -3.90
iter:  19 01:31:23  -247.350738c -5.52  -3.94
