
  ___ ___ ___ _ _ _  
 |   |   |_  | | | | 
 | | | | | . | | | | 
 |__ |  _|___|_____|  22.8.0
 |___|_|             

User:   vazumah@r305.ib.bridges2.psc.edu
Date:   Fri Mar 10 12:22:51 2023
Arch:   x86_64
Pid:    36747
CWD:    /jet/home/vazumah/Calcs/LiMEAS/proton_donors/ethanediol_y/ontop/9.702_9.702/N2_y
Python: 3.11.0
gpaw:   /jet/home/vazumah/.conda/envs/GPAW_mpich/lib/python3.11/site-packages/gpaw
_gpaw:  /jet/home/vazumah/.conda/envs/GPAW_mpich/lib/python3.11/site-packages/
        _gpaw.cpython-311-x86_64-linux-gnu.so
ase:    /jet/home/vazumah/.conda/envs/GPAW_mpich/lib/python3.11/site-packages/ase (version 3.22.1)
numpy:  /jet/home/vazumah/.conda/envs/GPAW_mpich/lib/python3.11/site-packages/numpy (version 1.24.2)
scipy:  /jet/home/vazumah/.conda/envs/GPAW_mpich/lib/python3.11/site-packages/scipy (version 1.10.1)
libxc:  5.2.3
units:  Angstrom and eV
cores: 128
OpenMP: True
OMP_NUM_THREADS: 1

Input parameters:
  h: 0.16
  kpts: {size: [4, 4, 1]}
  occupations: {name: fermi-dirac,
                width: 0.05}
  poissonsolver: {dipolelayer: xy}
  xc: BEEF-vdW

System changes: positions, numbers, cell, pbc, initial_charges, initial_magmoms 

Initialize ...

species:
  Li:
    name: Lithium
    id: 830b4218f175192f93f959cfc0aad614
    Z: 3.0
    valence: 1
    core: 2
    charge: 0.0
    file: /jet/home/vazumah/datasets/gpaw-setups-0.9.20000/Li.PBE.gz
    compensation charges: {type: gauss,
                           rc: 0.33,
                           lmax: 2}
    cutoffs: {filter: 1.91,
              core: 2.55}
    valence states:
      #              energy  rcut
      - 2s(1.00)    -2.874   1.058
      - 2p(0.00)    -1.090   1.058
      -  s          24.337   1.058
  
    # Using partial waves for Li as LCAO basis

  O:
    name: Oxygen
    id: 32ecd46bf208036f09c70b0ec9a88b78
    Z: 8.0
    valence: 6
    core: 2
    charge: 0.0
    file: /jet/home/vazumah/datasets/gpaw-setups-0.9.20000/O.PBE.gz
    compensation charges: {type: gauss,
                           rc: 0.21,
                           lmax: 2}
    cutoffs: {filter: 1.17,
              core: 0.83}
    valence states:
      #              energy  rcut
      - 2s(2.00)   -23.961   0.688
      - 2p(4.00)    -9.029   0.598
      -  s           3.251   0.688
      -  p          18.182   0.598
      -  d           0.000   0.619
  
    # Using partial waves for O as LCAO basis

  C:
    name: Carbon
    id: 4aa54d4b901d75f77cc0ea3eec22967b
    Z: 6.0
    valence: 4
    core: 2
    charge: 0.0
    file: /jet/home/vazumah/datasets/gpaw-setups-0.9.20000/C.PBE.gz
    compensation charges: {type: gauss,
                           rc: 0.20,
                           lmax: 2}
    cutoffs: {filter: 1.14,
              core: 1.14}
    valence states:
      #              energy  rcut
      - 2s(2.00)   -13.751   0.635
      - 2p(2.00)    -5.284   0.635
      -  s          13.461   0.635
      -  p          21.927   0.635
      -  d           0.000   0.635
  
    # Using partial waves for C as LCAO basis

  H:
    name: Hydrogen
    id: d65de229564ff8ea4db303e23b6d1ecf
    Z: 1.0
    valence: 1
    core: 0
    charge: 0.0
    file: /jet/home/vazumah/datasets/gpaw-setups-0.9.20000/H.PBE.gz
    compensation charges: {type: gauss,
                           rc: 0.15,
                           lmax: 2}
    cutoffs: {filter: 0.85,
              core: 0.53}
    valence states:
      #              energy  rcut
      - 1s(1.00)    -6.494   0.476
      -  s          20.717   0.476
      -  p           0.000   0.476
  
    # Using partial waves for H as LCAO basis

  N:
    name: Nitrogen
    id: f7500608b86eaa90eef8b1d9a670dc53
    Z: 7.0
    valence: 5
    core: 2
    charge: 0.0
    file: /jet/home/vazumah/datasets/gpaw-setups-0.9.20000/N.PBE.gz
    compensation charges: {type: gauss,
                           rc: 0.18,
                           lmax: 2}
    cutoffs: {filter: 1.11,
              core: 0.96}
    valence states:
      #              energy  rcut
      - 2s(2.00)   -18.583   0.603
      - 2p(3.00)    -7.089   0.529
      -  s           8.629   0.603
      -  p          20.123   0.529
      -  d           0.000   0.577
  
    # Using partial waves for N as LCAO basis

Reference energy: -16475.706344  # eV

Spin-paired calculation

Convergence criteria:
 Maximum [total energy] change in last 3 cyles: 0.0005 eV / electron
 Maximum integral of absolute [dens]ity change: 0.0001 electrons / valence electron
 Maximum integral of absolute [eigenst]ate change: 4e-08 eV^2 / valence electron
 Maximum number of scf [iter]ations: 333
 (Square brackets indicate name in SCF output, whereas a 'c' in
 the SCF output indicates the quantity has converged.)

Symmetries present (total): 1

  ( 1  0  0)
  ( 0  1  0)
  ( 0  0  1)

16 k-points: 4 x 4 x 1 Monkhorst-Pack grid
8 k-points in the irreducible part of the Brillouin zone
       k-points in crystal coordinates                weights
   0:     0.12500000   -0.37500000    0.00000000          2/16
   1:     0.12500000   -0.12500000    0.00000000          2/16
   2:     0.12500000    0.12500000    0.00000000          2/16
   3:     0.12500000    0.37500000    0.00000000          2/16
   4:     0.37500000   -0.37500000    0.00000000          2/16
   5:     0.37500000   -0.12500000    0.00000000          2/16
   6:     0.37500000    0.12500000    0.00000000          2/16
   7:     0.37500000    0.37500000    0.00000000          2/16

Wave functions: Uniform real-space grid
  Kinetic energy operator: 6*3+1=19 point O(h^6) finite-difference Laplacian
  ScaLapack parameters: grid=1x1, blocksize=None
  Wavefunction extrapolation:
    Improved wavefunction reuse through dual PAW basis 

Occupation numbers: Fermi-Dirac:
  width: 0.0500  # eV
 

Eigensolver
   Davidson(niter=2) 

Densities:
  Coarse grid: 60*60*164 grid
  Fine grid: 120*120*328 grid
  Total Charge: 0.000000 

Density mixing:
  Method: separate
  Backend: pulay
  Linear mixing parameter: 0.05
  old densities: 5
  Damping of long wavelength oscillations: 50 

Hamiltonian:
  XC and Coulomb potentials evaluated on a 120*120*328 grid
  Using the BEEF-vdW Exchange-Correlation functional
  Interpolation: tri-quintic (5. degree polynomial)
  Poisson solver: FastPoissonSolver using
    Stencil: 6*3+1=19 point O(h^6) finite-difference Laplacian
    FFT axes: [0, 1]
    FST axes: [2]

Dipole correction along z-axis 

XC parameters: BEEF-vdW with 2 nearest neighbor stencil

Memory estimate:
  Process memory now: 128.05 MiB
  Calculator: 84.78 MiB
    Density: 22.56 MiB
      Arrays: 7.22 MiB
      Localized functions: 12.59 MiB
      Mixer: 2.75 MiB
    Hamiltonian: 5.72 MiB
      Arrays: 4.72 MiB
      XC: 0.00 MiB
      Poisson: 0.00 MiB
      vbar: 0.99 MiB
    Wavefunctions: 56.50 MiB
      Arrays psit_nG: 26.37 MiB
      Eigensolver: 29.47 MiB
      Projections: 0.01 MiB
      Projectors: 0.66 MiB

Total number of cores used: 128
Parallelization over k-points: 8
Domain decomposition: 2 x 2 x 4

Number of atoms: 48
Number of atomic orbitals: 174
Number of bands in calculation: 48
Number of valence electrons: 72
Bands to converge: occupied

... initialized

Initializing position-dependent things.

Density initialized from atomic densities
Creating initial wave functions:
  48 bands from LCAO basis set

       .-----------------------.  
      /|                       |  
     / |                       |  
    /  |                       |  
   /   |                       |  
  /    |                       |  
 *     |                       |  
 |     H                       |  
 |     |                       |  
 |     |                       |  
 |     |                       |  
 |     |                       N  
 |   H |                       |  
 | O C |H                H     |  
 O  C H|                       |  
 |   Li|     Li      Li        |  
 |  H  |                       |  
 | Li  |  LLi     LLi     Ni   |  
 |     |                       |  
 Li    |LLi     LLi     Li     |  
 |   Li|     Li      Li        |  
 |    Li  Li  Li  Li  Li  Li   |  
 | Li  |   Li      Li          |  
 |     |Li      Li      Li     |  
 Li    | Li      Li            |  
 |    Li      Li      Li       |  
 |     |                       |  
 |     |                       |  
 |     |                       |  
 |     |                       |  
 |     |                       |  
 |     |                       |  
 |     .-----------------------.  
 |    /                       /   
 |   /                       /    
 |  /                       /     
 | /                       /      
 |/                       /       
 *-----------------------*        

Positions:
   0 Li     1.617037    1.617037   10.000000    ( 0.0000,  0.0000,  0.0000)
   1 Li     4.851111    1.617037   10.000000    ( 0.0000,  0.0000,  0.0000)
   2 Li     8.085185    1.617037   10.000000    ( 0.0000,  0.0000,  0.0000)
   3 Li     1.617037    4.851111   10.000000    ( 0.0000,  0.0000,  0.0000)
   4 Li     4.851111    4.851111   10.000000    ( 0.0000,  0.0000,  0.0000)
   5 Li     8.085185    4.851111   10.000000    ( 0.0000,  0.0000,  0.0000)
   6 Li     1.617037    8.085185   10.000000    ( 0.0000,  0.0000,  0.0000)
   7 Li     4.851111    8.085185   10.000000    ( 0.0000,  0.0000,  0.0000)
   8 Li     8.085185    8.085185   10.000000    ( 0.0000,  0.0000,  0.0000)
   9 Li     0.000000    0.000000   11.617037    ( 0.0000,  0.0000,  0.0000)
  10 Li     3.234074    0.000000   11.617037    ( 0.0000,  0.0000,  0.0000)
  11 Li     6.468148    0.000000   11.617037    ( 0.0000,  0.0000,  0.0000)
  12 Li     0.000000    3.234074   11.617037    ( 0.0000,  0.0000,  0.0000)
  13 Li     3.234074    3.234074   11.617037    ( 0.0000,  0.0000,  0.0000)
  14 Li     6.468148    3.234074   11.617037    ( 0.0000,  0.0000,  0.0000)
  15 Li     0.000000    6.468148   11.617037    ( 0.0000,  0.0000,  0.0000)
  16 Li     3.234074    6.468148   11.617037    ( 0.0000,  0.0000,  0.0000)
  17 Li     6.468148    6.468148   11.617037    ( 0.0000,  0.0000,  0.0000)
  18 Li     1.617038    1.617038   13.469728    ( 0.0000,  0.0000,  0.0000)
  19 Li     4.851111    1.617038   13.469729    ( 0.0000,  0.0000,  0.0000)
  20 Li     8.085184    1.617038   13.469728    ( 0.0000,  0.0000,  0.0000)
  21 Li     1.617038    4.851111   13.469729    ( 0.0000,  0.0000,  0.0000)
  22 Li     4.851111    4.851111   13.469730    ( 0.0000,  0.0000,  0.0000)
  23 Li     8.085184    4.851111   13.469729    ( 0.0000,  0.0000,  0.0000)
  24 Li     1.617038    8.085184   13.469728    ( 0.0000,  0.0000,  0.0000)
  25 Li     4.851111    8.085184   13.469729    ( 0.0000,  0.0000,  0.0000)
  26 Li     8.085184    8.085184   13.469728    ( 0.0000,  0.0000,  0.0000)
  27 Li    -0.000000   -0.000000   15.445939    ( 0.0000,  0.0000,  0.0000)
  28 Li     3.234074    0.000000   15.445939    ( 0.0000,  0.0000,  0.0000)
  29 Li     6.468148    0.000000   15.445939    ( 0.0000,  0.0000,  0.0000)
  30 Li     0.000000    3.234074   15.445939    ( 0.0000,  0.0000,  0.0000)
  31 Li     3.234076    3.234076   15.445938    ( 0.0000,  0.0000,  0.0000)
  32 Li     6.468146    3.234076   15.445938    ( 0.0000,  0.0000,  0.0000)
  33 Li     0.000000    6.468148   15.445939    ( 0.0000,  0.0000,  0.0000)
  34 Li     3.234076    6.468146   15.445938    ( 0.0000,  0.0000,  0.0000)
  35 Li     6.468146    6.468146   15.445938    ( 0.0000,  0.0000,  0.0000)
  36 O      9.702222    9.702222   19.445939    ( 0.0000,  0.0000,  0.0000)
  37 O      9.746216   12.600420   19.213250    ( 0.0000,  0.0000,  0.0000)
  38 C     10.873434   10.430783   19.033562    ( 0.0000,  0.0000,  0.0000)
  39 C     10.887124   11.839968   19.602713    ( 0.0000,  0.0000,  0.0000)
  40 H     11.787824    9.902657   19.326395    ( 0.0000,  0.0000,  0.0000)
  41 H     10.826136   10.463532   17.943996    ( 0.0000,  0.0000,  0.0000)
  42 H     11.761390   12.376687   19.226232    ( 0.0000,  0.0000,  0.0000)
  43 H     10.962625   11.790239   20.701774    ( 0.0000,  0.0000,  0.0000)
  44 H      9.776737    9.532798   20.393261    ( 0.0000,  0.0000,  0.0000)
  45 H      8.979095   12.020954   19.309689    ( 0.0000,  0.0000,  0.0000)
  46 N      9.702000    9.702000   16.945939    ( 0.0000,  0.0000,  0.0000)
  47 N      9.702000   10.798622   16.945939    ( 0.0000,  0.0000,  0.0000)

Unit cell:
           periodic     x           y           z      points  spacing
  1. axis:    yes    9.702222    0.000000    0.000000    60     0.1617
  2. axis:    yes    0.000000    9.702222    0.000000    60     0.1617
  3. axis:    no     0.000000    0.000000   26.351111   164     0.1607

  Lengths:   9.702222   9.702222  26.351111
  Angles:   90.000000  90.000000  90.000000

Effective grid spacing dv^(1/3) = 0.1614

     iter     time        total  log10-change:
                         energy  eigst   dens
iter:   1 12:23:06  -642.237165
iter:   2 12:23:15   -49.674152  +2.64  +0.02
iter:   3 12:23:23   -24.405307  +3.17  -0.18
iter:   4 12:23:31  -199.004542  +3.25  -0.27
Writing to output.gpw (mode='')

iter:   5 12:23:39  -279.090384  +2.85  -0.32
iter:   6 12:23:47  -339.384762  +2.51  -0.55
iter:   7 12:23:55  -344.994815  +2.13  -0.57
iter:   8 12:24:03  -355.898404  +1.86  -0.58
iter:   9 12:24:11  -356.750226  +1.64  -0.54
Writing to output.gpw (mode='')

iter:  10 12:24:19  -338.127541  +1.31  -0.62
iter:  11 12:24:27  -389.896865  +1.82  -0.66
iter:  12 12:24:35  -368.274139  +1.26  -0.52
iter:  13 12:24:50  -334.282943  +1.34  -0.55
iter:  14 12:25:01  -331.006084  +0.61  -0.68
Writing to output.gpw (mode='')

iter:  15 12:25:09  -327.812757  +0.85  -0.74
iter:  16 12:25:17  -340.115917  +1.18  -0.82
iter:  17 12:25:25  -325.572768  +0.71  -0.63
iter:  18 12:25:33  -324.521970  +0.46  -0.95
iter:  19 12:25:41  -324.383447  +0.92  -0.98
Writing to output.gpw (mode='')

iter:  20 12:25:49  -324.183332  +0.16  -1.08
iter:  21 12:25:57  -323.627529  -0.40  -1.12
iter:  22 12:26:05  -323.779567  +0.10  -1.27
iter:  23 12:26:13  -323.598709  -0.55  -1.24
iter:  24 12:26:21  -323.662817  -0.52  -1.40
Writing to output.gpw (mode='')

iter:  25 12:26:29  -323.446501  -0.45  -1.39
iter:  26 12:26:37  -323.383890  -0.46  -1.57
iter:  27 12:26:45  -323.374545  -0.97  -1.76
iter:  28 12:26:53  -323.360723c -1.54  -1.76
iter:  29 12:27:01  -323.352435c -1.45  -1.90
Writing to output.gpw (mode='')

iter:  30 12:27:09  -323.346322c -1.72  -1.91
iter:  31 12:27:17  -323.344675c -1.75  -2.01
iter:  32 12:27:25  -323.339579c -1.84  -2.04
iter:  33 12:27:33  -323.335885c -2.08  -2.09
iter:  34 12:27:41  -323.335168c -1.80  -2.18
Writing to output.gpw (mode='')

iter:  35 12:27:49  -323.334262c -1.98  -2.29
iter:  36 12:27:58  -323.334748c -2.27  -2.46
iter:  37 12:28:05  -323.335676c -2.25  -2.55
iter:  38 12:28:13  -323.336397c -2.59  -2.70
iter:  39 12:28:21  -323.336846c -2.87  -2.77
Writing to output.gpw (mode='')

iter:  40 12:28:30  -323.336758c -2.99  -2.87
iter:  41 12:28:38  -323.336965c -2.96  -2.98
iter:  42 12:28:46  -323.337021c -3.02  -3.01
iter:  43 12:28:54  -323.337110c -3.24  -3.20
iter:  44 12:29:02  -323.337258c -3.09  -3.27
Writing to output.gpw (mode='')

iter:  45 12:29:10  -323.337333c -3.39  -3.39
iter:  46 12:29:18  -323.337436c -3.16  -3.39
iter:  47 12:29:26  -323.337503c -3.51  -3.42
iter:  48 12:29:34  -323.337520c -3.70  -3.35
iter:  49 12:29:47  -323.337557c -3.83  -3.49
Writing to output.gpw (mode='')

iter:  50 12:29:58  -323.337581c -3.79  -3.53
iter:  51 12:30:06  -323.337600c -3.77  -3.52
iter:  52 12:30:14  -323.337647c -3.81  -3.42
iter:  53 12:30:21  -323.337668c -3.93  -3.46
iter:  54 12:30:29  -323.337698c -3.98  -3.54
Writing to output.gpw (mode='')

iter:  55 12:30:37  -323.337711c -4.38  -3.63
iter:  56 12:30:45  -323.337720c -4.24  -3.64
iter:  57 12:30:53  -323.337726c -4.28  -3.62
iter:  58 12:31:01  -323.337747c -4.40  -3.65
iter:  59 12:31:09  -323.337756c -4.51  -3.81
Writing to output.gpw (mode='')

iter:  60 12:31:17  -323.337760c -4.53  -3.78
iter:  61 12:31:25  -323.337768c -4.58  -3.84
iter:  62 12:31:33  -323.337775c -4.86  -3.91
iter:  63 12:31:41  -323.337778c -4.98  -3.87
iter:  64 12:31:49  -323.337782c -4.78  -3.93
Writing to output.gpw (mode='')

iter:  65 12:31:57  -323.337785c -4.93  -4.09c
iter:  66 12:32:05  -323.337787c -5.00  -4.17c
iter:  67 12:32:13  -323.337789c -5.20  -4.22c
iter:  68 12:32:21  -323.337789c -5.26  -4.35c
iter:  69 12:32:29  -323.337788c -5.27  -4.55c
Writing to output.gpw (mode='')

iter:  70 12:32:37  -323.337789c -5.45  -4.72c
iter:  71 12:32:45  -323.337790c -5.54  -4.78c
iter:  72 12:32:53  -323.337791c -5.46  -4.83c
iter:  73 12:33:01  -323.337792c -5.65  -4.85c
iter:  74 12:33:09  -323.337794c -5.51  -4.88c
Writing to output.gpw (mode='')

iter:  75 12:33:17  -323.337794c -5.79  -4.94c
iter:  76 12:33:25  -323.337794c -5.70  -5.01c
iter:  77 12:33:33  -323.337794c -5.85  -5.15c
iter:  78 12:33:42  -323.337795c -5.96  -5.33c
iter:  79 12:33:54  -323.337795c -6.01  -5.32c
Writing to output.gpw (mode='')

iter:  80 12:34:06  -323.337795c -6.07  -5.23c
iter:  81 12:34:14  -323.337795c -6.06  -5.26c
iter:  82 12:34:22  -323.337795c -5.98  -5.18c
iter:  83 12:34:30  -323.337795c -6.17  -5.14c
iter:  84 12:34:38  -323.337795c -6.28  -5.13c
Writing to output.gpw (mode='')

iter:  85 12:34:52  -323.337796c -6.20  -5.08c
iter:  86 12:35:00  -323.337796c -6.16  -5.09c
iter:  87 12:35:08  -323.337796c -6.41  -5.07c
iter:  88 12:35:16  -323.337796c -6.50  -5.04c
iter:  89 12:35:24  -323.337796c -6.53  -5.05c
Writing to output.gpw (mode='')

iter:  90 12:35:32  -323.337796c -6.59  -4.95c
iter:  91 12:35:40  -323.337796c -6.38  -4.95c
iter:  92 12:35:48  -323.337797c -6.64  -4.92c
iter:  93 12:35:56  -323.337797c -6.67  -5.02c
iter:  94 12:36:04  -323.337798c -6.37  -5.09c
Writing to output.gpw (mode='')

iter:  95 12:36:12  -323.337798c -6.84  -5.25c
iter:  96 12:36:20  -323.337798c -6.86  -5.25c
iter:  97 12:36:28  -323.337798c -6.94  -5.47c
iter:  98 12:36:36  -323.337798c -6.99  -5.50c
iter:  99 12:36:44  -323.337798c -6.84  -5.54c
Writing to output.gpw (mode='')

iter: 100 12:36:52  -323.337798c -7.11  -5.60c
iter: 101 12:37:00  -323.337798c -7.09  -5.64c
iter: 102 12:37:08  -323.337798c -7.23  -5.77c
iter: 103 12:37:16  -323.337798c -7.09  -5.97c
iter: 104 12:37:24  -323.337798c -7.31  -6.05c
Writing to output.gpw (mode='')

iter: 105 12:37:32  -323.337798c -7.29  -5.97c
iter: 106 12:37:40  -323.337798c -7.38  -6.00c
iter: 107 12:37:48  -323.337798c -7.48c -6.03c

Converged after 107 iterations.

Dipole moment: (-25.504052, -14.788428, 0.231981) |e|*Ang

Energy contributions relative to reference atoms: (reference = -16475.706344)

Kinetic:       +188.339561
Potential:     -173.689988
External:        +0.000000
XC:            -339.071323
Entropy (-ST):   -0.150247
Local:           +1.159076
--------------------------
Free energy:   -323.412922
Extrapolated:  -323.337798

Dipole-layer corrected work functions: 3.403974, 2.958027 eV

Showing only first 2 kpts
 Kpt  Band  Eigenvalues  Occupancy
  0    34     -3.43480    1.98759
  0    35     -3.36565    1.95141
  0    36     -3.01621    0.07143
  0    37     -2.97908    0.03464

  1    34     -3.25016    1.59900
  1    35     -3.17769    0.96688
  1    36     -3.13758    0.59116
  1    37     -3.07833    0.22740


Fermi level: -3.18100

No gap
Writing to output.gpw (mode='')


Forces in eV/Ang:
  0 Li    0.01201    0.00853   -0.27141
  1 Li   -0.00062    0.00306   -0.27180
  2 Li   -0.01124    0.00907   -0.27099
  3 Li   -0.00502    0.00606   -0.26675
  4 Li   -0.00093   -0.00373   -0.28835
  5 Li    0.00582    0.00574   -0.26346
  6 Li    0.00394   -0.01664   -0.27479
  7 Li   -0.00107    0.00721   -0.26498
  8 Li   -0.00332   -0.01616   -0.27442
  9 Li   -0.00106   -0.00352    0.32765
 10 Li    0.01021    0.00503    0.25523
 11 Li   -0.00849    0.00529    0.26397
 12 Li    0.00088    0.02269    0.24903
 13 Li   -0.00133   -0.00587    0.25977
 14 Li   -0.00099   -0.00373    0.25985
 15 Li    0.00021   -0.00711    0.25274
 16 Li    0.01347   -0.00259    0.24826
 17 Li   -0.01369   -0.00677    0.24677
 18 Li   -0.01901    0.00347   -0.01692
 19 Li   -0.00090   -0.01136    0.06856
 20 Li    0.02113    0.01164   -0.02162
 21 Li   -0.00870    0.00096    0.05825
 22 Li    0.00305    0.00060    0.01407
 23 Li    0.00744    0.00055    0.05578
 24 Li    0.01897   -0.00634   -0.02392
 25 Li    0.00015    0.00700    0.06773
 26 Li   -0.01846   -0.01432   -0.03022
 27 Li   -0.04137   -0.68593   -7.70164
 28 Li    0.12643   -0.02258   -0.08317
 29 Li   -0.08840   -0.01586   -0.04569
 30 Li   -0.00676   -0.14600    0.17624
 31 Li    0.05555    0.03802   -0.04849
 32 Li   -0.04635    0.03516   -0.03956
 33 Li   -0.00007   -0.01842   -0.00011
 34 Li    0.00509   -0.00868   -0.02898
 35 Li   -0.00539   -0.00829   -0.02921
 36 O     0.01634    0.09328    0.14007
 37 O    -0.11613    0.20506    0.01146
 38 C     1.30415    0.20419    1.00776
 39 C     0.09740   -0.13696    0.24558
 40 H     0.07220   -0.05845    0.23287
 41 H     2.06043    0.35942    2.90623
 42 H     0.05420    0.02525    0.00613
 43 H     0.01028    0.11772    0.00798
 44 H     0.02697   -0.04864   -0.00173
 45 H    -0.04169    0.00693    0.02150
 46 N    -1.72143   -5.92806    4.65168
 47 N    -1.78744    5.96420   -1.48982

System changes: positions 

Initializing position-dependent things.

Density initialized from wave functions
       .-----------------------.  
      /|                       |  
     / |                       |  
    /  |                       |  
   /   |                       |  
  /    |                       |  
 *     |                       |  
 |     H                       |  
 |     |                       |  
 |     |                       |  
 |     |                       |  
 |     |                       N  
 |   H |                       |  
 | O C |H      Li      LiH     Li 
 O  C H|                       |  
 |     |     Li      Li      Li|  
 |  H  |                       |  
 |     |  LLi     LLi     NLi  |  
 |     |                       |  
 |     |Li      Li      Li     |  
 |   Li|     Li      Li        |  
 |    Li  Li  Li  Li  Li  Li   |  
 | Li  |   Li      Li          |  
 |     |Li      Li      Li     |  
 Li    | Li      Li            |  
 |    Li      Li      Li       |  
 |     |                       |  
 |     |                       |  
 |     |                       |  
 |     |                       |  
 |     |                       |  
 |     |                       |  
 |     .-----------------------.  
 |    /                       /   
 |   /                       /    
 |  /                       /     
 | /                       /      
 |/                       /       
 *-----------------------*        

Positions:
   0 Li     1.617037    1.617037   10.000000    ( 0.0000,  0.0000,  0.0000)
   1 Li     4.851111    1.617037   10.000000    ( 0.0000,  0.0000,  0.0000)
   2 Li     8.085185    1.617037   10.000000    ( 0.0000,  0.0000,  0.0000)
   3 Li     1.617037    4.851111   10.000000    ( 0.0000,  0.0000,  0.0000)
   4 Li     4.851111    4.851111   10.000000    ( 0.0000,  0.0000,  0.0000)
   5 Li     8.085185    4.851111   10.000000    ( 0.0000,  0.0000,  0.0000)
   6 Li     1.617037    8.085185   10.000000    ( 0.0000,  0.0000,  0.0000)
   7 Li     4.851111    8.085185   10.000000    ( 0.0000,  0.0000,  0.0000)
   8 Li     8.085185    8.085185   10.000000    ( 0.0000,  0.0000,  0.0000)
   9 Li     0.000000    0.000000   11.617037    ( 0.0000,  0.0000,  0.0000)
  10 Li     3.234074    0.000000   11.617037    ( 0.0000,  0.0000,  0.0000)
  11 Li     6.468148    0.000000   11.617037    ( 0.0000,  0.0000,  0.0000)
  12 Li     0.000000    3.234074   11.617037    ( 0.0000,  0.0000,  0.0000)
  13 Li     3.234074    3.234074   11.617037    ( 0.0000,  0.0000,  0.0000)
  14 Li     6.468148    3.234074   11.617037    ( 0.0000,  0.0000,  0.0000)
  15 Li     0.000000    6.468148   11.617037    ( 0.0000,  0.0000,  0.0000)
  16 Li     3.234074    6.468148   11.617037    ( 0.0000,  0.0000,  0.0000)
  17 Li     6.468148    6.468148   11.617037    ( 0.0000,  0.0000,  0.0000)
  18 Li     1.616940    1.617056   13.469640    ( 0.0000,  0.0000,  0.0000)
  19 Li     4.851106    1.616980   13.470084    ( 0.0000,  0.0000,  0.0000)
  20 Li     8.085293    1.617098   13.469616    ( 0.0000,  0.0000,  0.0000)
  21 Li     1.616993    4.851116   13.470031    ( 0.0000,  0.0000,  0.0000)
  22 Li     4.851127    4.851114   13.469803    ( 0.0000,  0.0000,  0.0000)
  23 Li     8.085222    4.851114   13.470018    ( 0.0000,  0.0000,  0.0000)
  24 Li     1.617136    8.085151   13.469604    ( 0.0000,  0.0000,  0.0000)
  25 Li     4.851112    8.085220   13.470080    ( 0.0000,  0.0000,  0.0000)
  26 Li     8.085088    8.085110   13.469572    ( 0.0000,  0.0000,  0.0000)
  27 Li    -0.000214   -0.003548   15.406098    ( 0.0000,  0.0000,  0.0000)
  28 Li     3.234728   -0.000117   15.445509    ( 0.0000,  0.0000,  0.0000)
  29 Li     6.467691   -0.000082   15.445702    ( 0.0000,  0.0000,  0.0000)
  30 Li    -0.000035    3.233318   15.446851    ( 0.0000,  0.0000,  0.0000)
  31 Li     3.234364    3.234273   15.445687    ( 0.0000,  0.0000,  0.0000)
  32 Li     6.467906    3.234258   15.445733    ( 0.0000,  0.0000,  0.0000)
  33 Li    -0.000000    6.468053   15.445938    ( 0.0000,  0.0000,  0.0000)
  34 Li     3.234103    6.468101   15.445788    ( 0.0000,  0.0000,  0.0000)
  35 Li     6.468118    6.468103   15.445787    ( 0.0000,  0.0000,  0.0000)
  36 O      9.702307    9.702705   19.446664    ( 0.0000,  0.0000,  0.0000)
  37 O      9.745615   12.601481   19.213309    ( 0.0000,  0.0000,  0.0000)
  38 C     10.880180   10.431839   19.038775    ( 0.0000,  0.0000,  0.0000)
  39 C     10.887628   11.839260   19.603984    ( 0.0000,  0.0000,  0.0000)
  40 H     11.788198    9.902355   19.327600    ( 0.0000,  0.0000,  0.0000)
  41 H     10.836795   10.465391   17.959030    ( 0.0000,  0.0000,  0.0000)
  42 H     11.761670   12.376817   19.226264    ( 0.0000,  0.0000,  0.0000)
  43 H     10.962679   11.790848   20.701815    ( 0.0000,  0.0000,  0.0000)
  44 H      9.776877    9.532546   20.393252    ( 0.0000,  0.0000,  0.0000)
  45 H      8.978880   12.020990   19.309800    ( 0.0000,  0.0000,  0.0000)
  46 N      9.693095    9.671333   16.970003    ( 0.0000,  0.0000,  0.0000)
  47 N      9.692753   10.829476   16.938232    ( 0.0000,  0.0000,  0.0000)

Unit cell:
           periodic     x           y           z      points  spacing
  1. axis:    yes    9.702222    0.000000    0.000000    60     0.1617
  2. axis:    yes    0.000000    9.702222    0.000000    60     0.1617
  3. axis:    no     0.000000    0.000000   26.351111   164     0.1607

  Lengths:   9.702222   9.702222  26.351111
  Angles:   90.000000  90.000000  90.000000

Effective grid spacing dv^(1/3) = 0.1614

     iter     time        total  log10-change:
                         energy  eigst   dens
iter:   1 12:37:58  -328.186197  +0.38
iter:   2 12:38:06  -325.216093  +0.11  -1.04
iter:   3 12:38:14  -324.217832  -0.61  -1.11
iter:   4 12:38:22  -324.000409  -0.91  -1.48
Writing to output.gpw (mode='')

iter:   5 12:38:30  -323.992152  -1.46  -1.91
iter:   6 12:38:38  -323.997342c -1.13  -2.02
iter:   7 12:38:46  -323.968750c -1.35  -1.93
iter:   8 12:38:54  -323.969178c -1.63  -2.25
iter:   9 12:39:02  -323.965385c -1.87  -2.22
Writing to output.gpw (mode='')

iter:  10 12:39:10  -323.965254c -2.39  -2.52
iter:  11 12:39:18  -323.965122c -2.60  -2.61
iter:  12 12:39:26  -323.965110c -2.64  -2.66
iter:  13 12:39:34  -323.965334c -2.75  -2.79
iter:  14 12:39:48  -323.965541c -3.01  -2.97
Writing to output.gpw (mode='')

iter:  15 12:39:57  -323.965651c -3.01  -2.97
iter:  16 12:40:05  -323.965740c -3.06  -3.15
iter:  17 12:40:13  -323.965800c -3.21  -3.23
iter:  18 12:40:21  -323.965882c -3.65  -3.34
iter:  19 12:40:29  -323.965940c -3.64  -3.40
Writing to output.gpw (mode='')

iter:  20 12:40:37  -323.965976c -3.59  -3.46
iter:  21 12:40:45  -323.966013c -3.72  -3.49
iter:  22 12:40:54  -323.966072c -3.75  -3.53
iter:  23 12:41:05  -323.966088c -4.03  -3.61
iter:  24 12:41:13  -323.966096c -4.05  -3.73
Writing to output.gpw (mode='')

iter:  25 12:41:21  -323.966094c -4.04  -3.74
iter:  26 12:41:29  -323.966110c -4.44  -3.94
iter:  27 12:41:37  -323.966114c -4.26  -4.07c
iter:  28 12:41:45  -323.966117c -4.34  -4.15c
iter:  29 12:41:53  -323.966123c -4.62  -4.10c
Writing to output.gpw (mode='')

iter:  30 12:42:01  -323.966128c -4.70  -4.08c
iter:  31 12:42:09  -323.966128c -4.68  -4.02c
iter:  32 12:42:17  -323.966123c -4.80  -4.09c
iter:  33 12:42:25  -323.966124c -4.94  -4.29c
iter:  34 12:42:33  -323.966127c -4.88  -4.50c
Writing to output.gpw (mode='')

iter:  35 12:42:41  -323.966128c -4.89  -4.63c
iter:  36 12:42:50  -323.966130c -5.26  -4.66c
iter:  37 12:42:58  -323.966129c -5.23  -4.69c
iter:  38 12:43:06  -323.966129c -5.14  -4.80c
iter:  39 12:43:14  -323.966130c -5.31  -4.99c
Writing to output.gpw (mode='')

iter:  40 12:43:22  -323.966131c -5.56  -4.97c
iter:  41 12:43:30  -323.966132c -5.58  -4.93c
iter:  42 12:43:38  -323.966132c -5.66  -4.87c
iter:  43 12:43:46  -323.966133c -5.79  -4.84c
iter:  44 12:43:54  -323.966133c -5.68  -4.76c
Writing to output.gpw (mode='')

iter:  45 12:44:02  -323.966133c -5.85  -4.79c
iter:  46 12:44:10  -323.966133c -5.86  -4.82c
iter:  47 12:44:18  -323.966132c -5.91  -4.96c
iter:  48 12:44:26  -323.966132c -5.85  -5.04c
iter:  49 12:44:34  -323.966129c -5.96  -5.13c
Writing to output.gpw (mode='')

iter:  50 12:44:51  -323.966130c -6.40  -5.13c
iter:  51 12:44:59  -323.966130c -6.35  -5.30c
iter:  52 12:45:07  -323.966130c -6.32  -5.29c
iter:  53 12:45:15  -323.966131c -6.38  -5.32c
iter:  54 12:45:23  -323.966130c -6.36  -5.14c
Writing to output.gpw (mode='')

iter:  55 12:45:31  -323.966129c -6.49  -5.32c
iter:  56 12:45:39  -323.966128c -6.50  -5.42c
iter:  57 12:45:47  -323.966128c -6.79  -5.58c
iter:  58 12:45:55  -323.966128c -6.78  -5.79c
iter:  59 12:46:03  -323.966128c -6.98  -5.86c
Writing to output.gpw (mode='')

iter:  60 12:46:11  -323.966128c -7.02  -5.86c
iter:  61 12:46:19  -323.966128c -7.09  -5.74c
iter:  62 12:46:27  -323.966128c -6.98  -5.64c
iter:  63 12:46:35  -323.966128c -7.38  -5.75c
iter:  64 12:46:43  -323.966128c -7.29  -5.71c
Writing to output.gpw (mode='')

iter:  65 12:46:51  -323.966128c -7.28  -5.65c
iter:  66 12:46:59  -323.966128c -7.64c -5.72c

Converged after 66 iterations.

Dipole moment: (-23.665222, -11.454151, 0.166062) |e|*Ang

Energy contributions relative to reference atoms: (reference = -16475.706344)

Kinetic:       +178.240465
Potential:     -165.908626
External:        +0.000000
XC:            -337.366662
Entropy (-ST):   -0.151971
Local:           +1.144680
--------------------------
Free energy:   -324.042113
Extrapolated:  -323.966128

Dipole-layer corrected work functions: 3.408143, 3.088914 eV

Showing only first 2 kpts
 Kpt  Band  Eigenvalues  Occupancy
  0    34     -3.49849    1.98660
  0    35     -3.43735    1.95521
  0    36     -3.09434    0.08757
  0    37     -3.05767    0.04303

  1    34     -3.32402    1.63805
  1    35     -3.24046    0.91947
  1    36     -3.20552    0.59463
  1    37     -3.13065    0.17295


Fermi level: -3.24853

No gap
Writing to output.gpw (mode='')


Forces in eV/Ang:
  0 Li    0.01219    0.00956   -0.27428
  1 Li   -0.00074    0.00311   -0.27155
  2 Li   -0.01127    0.01003   -0.27372
  3 Li   -0.00536    0.00662   -0.26679
  4 Li   -0.00133   -0.00394   -0.29065
  5 Li    0.00611    0.00602   -0.26328
  6 Li    0.00409   -0.01793   -0.27774
  7 Li   -0.00146    0.00634   -0.26475
  8 Li   -0.00320   -0.01727   -0.27702
  9 Li   -0.00101   -0.00359    0.33784
 10 Li    0.00800    0.00511    0.25919
 11 Li   -0.00665    0.00530    0.26883
 12 Li    0.00078    0.02301    0.25175
 13 Li    0.00150   -0.00530    0.25946
 14 Li   -0.00363   -0.00393    0.26007
 15 Li    0.00008   -0.00892    0.25226
 16 Li    0.01531   -0.00300    0.24739
 17 Li   -0.01506   -0.00628    0.24626
 18 Li   -0.01175    0.01256   -0.03793
 19 Li   -0.00102   -0.01275    0.07150
 20 Li    0.01474    0.02107   -0.04087
 21 Li   -0.00872    0.00066    0.05693
 22 Li    0.00392    0.00095    0.01533
 23 Li    0.00737    0.00073    0.05354
 24 Li    0.02431   -0.01714   -0.04148
 25 Li    0.00016    0.00929    0.06978
 26 Li   -0.02332   -0.02540   -0.04867
 27 Li   -0.02563   -0.38807   -5.65156
 28 Li    0.10923   -0.02178   -0.06438
 29 Li   -0.06711   -0.01432   -0.02343
 30 Li   -0.00901   -0.21318    0.23721
 31 Li    0.05651    0.04058   -0.04533
 32 Li   -0.04654    0.03742   -0.03630
 33 Li   -0.00008    0.00424    0.01586
 34 Li    0.00790   -0.01075   -0.02929
 35 Li   -0.00890   -0.01144   -0.02896
 36 O     0.11825    0.14175    0.17745
 37 O    -0.08026    0.16366    0.04801
 38 C     0.95995    0.18225    1.12068
 39 C     0.11283   -0.05208    0.25698
 40 H     0.21855   -0.12894    0.33608
 41 H     1.77167    0.30198    2.31146
 42 H     0.04469    0.02683    0.02119
 43 H     0.00916    0.14181    0.04749
 44 H     0.03144   -0.05630    0.05219
 45 H    -0.02009    0.00024    0.00196
 46 N    -1.59050    0.46772    2.95204
 47 N    -1.63510   -0.57179   -1.67717

System changes: positions 

Initializing position-dependent things.

Density initialized from wave functions
       .-----------------------.  
      /|                       |  
     / |                       |  
    /  |                       |  
   /   |                       |  
  /    |                       |  
 *     |                       |  
 |     H                       |  
 |     |                       |  
 |     |                       |  
 |     |                       |  
 |     |                       N  
 |   H |                       |  
 | O C |H      Li      LiH     Li 
 O  C H|                       |  
 |     |     Li      Li      Li|  
 |  H  |                       |  
 |     |  LLi     LLi     NLi  |  
 |     |                       |  
 |     |Li      Li      Li     |  
 |   Li|     Li      Li        |  
 |    Li  Li  Li  Li  Li  Li   |  
 | Li  |   Li      Li          |  
 |     |Li      Li      Li     |  
 Li    | Li      Li            |  
 |    Li      Li      Li       |  
 |     |                       |  
 |     |                       |  
 |     |                       |  
 |     |                       |  
 |     |                       |  
 |     |                       |  
 |     .-----------------------.  
 |    /                       /   
 |   /                       /    
 |  /                       /     
 | /                       /      
 |/                       /       
 *-----------------------*        

Positions:
   0 Li     1.617037    1.617037   10.000000    ( 0.0000,  0.0000,  0.0000)
   1 Li     4.851111    1.617037   10.000000    ( 0.0000,  0.0000,  0.0000)
   2 Li     8.085185    1.617037   10.000000    ( 0.0000,  0.0000,  0.0000)
   3 Li     1.617037    4.851111   10.000000    ( 0.0000,  0.0000,  0.0000)
   4 Li     4.851111    4.851111   10.000000    ( 0.0000,  0.0000,  0.0000)
   5 Li     8.085185    4.851111   10.000000    ( 0.0000,  0.0000,  0.0000)
   6 Li     1.617037    8.085185   10.000000    ( 0.0000,  0.0000,  0.0000)
   7 Li     4.851111    8.085185   10.000000    ( 0.0000,  0.0000,  0.0000)
   8 Li     8.085185    8.085185   10.000000    ( 0.0000,  0.0000,  0.0000)
   9 Li     0.000000    0.000000   11.617037    ( 0.0000,  0.0000,  0.0000)
  10 Li     3.234074    0.000000   11.617037    ( 0.0000,  0.0000,  0.0000)
  11 Li     6.468148    0.000000   11.617037    ( 0.0000,  0.0000,  0.0000)
  12 Li     0.000000    3.234074   11.617037    ( 0.0000,  0.0000,  0.0000)
  13 Li     3.234074    3.234074   11.617037    ( 0.0000,  0.0000,  0.0000)
  14 Li     6.468148    3.234074   11.617037    ( 0.0000,  0.0000,  0.0000)
  15 Li     0.000000    6.468148   11.617037    ( 0.0000,  0.0000,  0.0000)
  16 Li     3.234074    6.468148   11.617037    ( 0.0000,  0.0000,  0.0000)
  17 Li     6.468148    6.468148   11.617037    ( 0.0000,  0.0000,  0.0000)
  18 Li     1.616856    1.617142   13.469380    ( 0.0000,  0.0000,  0.0000)
  19 Li     4.851099    1.616891   13.470583    ( 0.0000,  0.0000,  0.0000)
  20 Li     8.085398    1.617243   13.469335    ( 0.0000,  0.0000,  0.0000)
  21 Li     1.616933    4.851121   13.470428    ( 0.0000,  0.0000,  0.0000)
  22 Li     4.851154    4.851121   13.469910    ( 0.0000,  0.0000,  0.0000)
  23 Li     8.085274    4.851119   13.470392    ( 0.0000,  0.0000,  0.0000)
  24 Li     1.617305    8.085034   13.469318    ( 0.0000,  0.0000,  0.0000)
  25 Li     4.851113    8.085284   13.470566    ( 0.0000,  0.0000,  0.0000)
  26 Li     8.084927    8.084935   13.469236    ( 0.0000,  0.0000,  0.0000)
  27 Li    -0.000396   -0.006323   15.366194    ( 0.0000,  0.0000,  0.0000)
  28 Li     3.235494   -0.000269   15.445055    ( 0.0000,  0.0000,  0.0000)
  29 Li     6.467218   -0.000182   15.445534    ( 0.0000,  0.0000,  0.0000)
  30 Li    -0.000097    3.231845   15.448493    ( 0.0000,  0.0000,  0.0000)
  31 Li     3.234758    3.234556   15.445370    ( 0.0000,  0.0000,  0.0000)
  32 Li     6.467581    3.234519   15.445479    ( 0.0000,  0.0000,  0.0000)
  33 Li    -0.000001    6.468078   15.446045    ( 0.0000,  0.0000,  0.0000)
  34 Li     3.234157    6.468026   15.445584    ( 0.0000,  0.0000,  0.0000)
  35 Li     6.468056    6.468023   15.445585    ( 0.0000,  0.0000,  0.0000)
  36 O      9.703110    9.703683   19.447894    ( 0.0000,  0.0000,  0.0000)
  37 O      9.745047   12.602632   19.213637    ( 0.0000,  0.0000,  0.0000)
  38 C     10.886957   10.433116   19.046574    ( 0.0000,  0.0000,  0.0000)
  39 C     10.888412   11.838878   19.605775    ( 0.0000,  0.0000,  0.0000)
  40 H     11.789691    9.901470   19.329923    ( 0.0000,  0.0000,  0.0000)
  41 H     10.849226   10.467512   17.975297    ( 0.0000,  0.0000,  0.0000)
  42 H     11.761984   12.377004   19.226409    ( 0.0000,  0.0000,  0.0000)
  43 H     10.962743   11.791832   20.702138    ( 0.0000,  0.0000,  0.0000)
  44 H      9.777095    9.532155   20.393604    ( 0.0000,  0.0000,  0.0000)
  45 H      8.978735   12.020993   19.309818    ( 0.0000,  0.0000,  0.0000)
  46 N      9.681963    9.673191   16.990985    ( 0.0000,  0.0000,  0.0000)
  47 N      9.681306   10.826922   16.926566    ( 0.0000,  0.0000,  0.0000)

Unit cell:
           periodic     x           y           z      points  spacing
  1. axis:    yes    9.702222    0.000000    0.000000    60     0.1617
  2. axis:    yes    0.000000    9.702222    0.000000    60     0.1617
  3. axis:    no     0.000000    0.000000   26.351111   164     0.1607

  Lengths:   9.702222   9.702222  26.351111
  Angles:   90.000000  90.000000  90.000000

Effective grid spacing dv^(1/3) = 0.1614

     iter     time        total  log10-change:
                         energy  eigst   dens
iter:   1 12:47:08  -324.352047  -1.03
iter:   2 12:47:16  -324.350103  -1.62  -2.16
iter:   3 12:47:24  -324.348147c -2.17  -2.18
iter:   4 12:47:32  -324.345518c -2.28  -2.37
Writing to output.gpw (mode='')

iter:   5 12:47:40  -324.344580c -2.33  -2.57
iter:   6 12:47:48  -324.344688c -2.58  -2.72
iter:   7 12:47:56  -324.344274c -3.03  -2.76
iter:   8 12:48:04  -324.344356c -3.32  -2.96
iter:   9 12:48:12  -324.344341c -3.71  -2.96
Writing to output.gpw (mode='')

iter:  10 12:48:20  -324.344328c -3.66  -3.09
iter:  11 12:48:28  -324.344320c -4.09  -3.30
iter:  12 12:48:36  -324.344355c -4.33  -3.41
iter:  13 12:48:44  -324.344341c -4.40  -3.43
iter:  14 12:48:52  -324.344363c -4.64  -3.47
Writing to output.gpw (mode='')

iter:  15 12:49:00  -324.344360c -4.94  -3.74
iter:  16 12:49:08  -324.344345c -4.71  -3.75
iter:  17 12:49:16  -324.344348c -4.97  -3.74
iter:  18 12:49:24  -324.344347c -5.53  -3.97
iter:  19 12:49:32  -324.344345c -5.23  -4.03c
Writing to output.gpw (mode='')

iter:  20 12:49:44  -324.344350c -5.59  -4.14c
iter:  21 12:49:55  -324.344350c -5.85  -4.26c
iter:  22 12:50:03  -324.344353c -5.79  -4.30c
iter:  23 12:50:11  -324.344349c -5.89  -4.43c
iter:  24 12:50:19  -324.344351c -6.20  -4.57c
Writing to output.gpw (mode='')

iter:  25 12:50:27  -324.344352c -6.11  -4.72c
iter:  26 12:50:35  -324.344351c -6.60  -4.77c
iter:  27 12:50:43  -324.344350c -6.43  -4.82c
iter:  28 12:50:51  -324.344351c -6.59  -4.87c
iter:  29 12:50:59  -324.344351c -6.63  -5.16c
Writing to output.gpw (mode='')

iter:  30 12:51:07  -324.344351c -6.96  -5.08c
iter:  31 12:51:15  -324.344351c -7.10  -5.05c
iter:  32 12:51:23  -324.344351c -7.00  -5.10c
iter:  33 12:51:31  -324.344351c -7.11  -5.13c
iter:  34 12:51:39  -324.344351c -7.31  -5.14c
Writing to output.gpw (mode='')

iter:  35 12:51:47  -324.344351c -7.43c -5.21c

Converged after 35 iterations.

Dipole moment: (-21.370885, -11.694606, 0.178290) |e|*Ang

Energy contributions relative to reference atoms: (reference = -16475.706344)

Kinetic:       +177.008186
Potential:     -165.269247
External:        +0.000000
XC:            -337.144748
Entropy (-ST):   -0.151430
Local:           +1.137173
--------------------------
Free energy:   -324.420066
Extrapolated:  -324.344351

Dipole-layer corrected work functions: 3.407574, 3.064839 eV

Showing only first 2 kpts
 Kpt  Band  Eigenvalues  Occupancy
  0    34     -3.48748    1.98695
  0    35     -3.42931    1.95881
  0    36     -3.07963    0.08365
  0    37     -3.04485    0.04262

  1    34     -3.30528    1.59847
  1    35     -3.22978    0.93578
  1    36     -3.19515    0.61109
  1    37     -3.11876    0.17429


Fermi level: -3.23621

No gap

Forces in eV/Ang:
  0 Li    0.01261    0.00972   -0.27527
  1 Li   -0.00102    0.00261   -0.27055
  2 Li   -0.01146    0.01019   -0.27462
  3 Li   -0.00586    0.00702   -0.26641
  4 Li   -0.00147   -0.00404   -0.29189
  5 Li    0.00662    0.00664   -0.26264
  6 Li    0.00345   -0.01833   -0.27863
  7 Li   -0.00155    0.00615   -0.26504
  8 Li   -0.00257   -0.01779   -0.27786
  9 Li   -0.00105   -0.00218    0.34408
 10 Li    0.00853    0.00421    0.25989
 11 Li   -0.00723    0.00440    0.27034
 12 Li    0.00068    0.02192    0.25502
 13 Li    0.00517   -0.00393    0.25805
 14 Li   -0.00706   -0.00244    0.25879
 15 Li    0.00002   -0.01046    0.24954
 16 Li    0.01387   -0.00306    0.24821
 17 Li   -0.01336   -0.00662    0.24701
 18 Li   -0.00233    0.01953   -0.04840
 19 Li   -0.00055   -0.01218    0.07201
 20 Li    0.00525    0.02840   -0.05354
 21 Li   -0.00855   -0.00163    0.05729
 22 Li    0.00386    0.00271    0.01489
 23 Li    0.00723   -0.00169    0.05416
 24 Li    0.02632   -0.02278   -0.04474
 25 Li    0.00064    0.00759    0.06793
 26 Li   -0.02536   -0.03153   -0.05313
 27 Li   -0.00574   -0.35816   -4.28438
 28 Li    0.10999   -0.02139   -0.06723
 29 Li   -0.06903   -0.01490   -0.02524
 30 Li   -0.00904   -0.21493    0.23375
 31 Li    0.05530    0.03915   -0.04611
 32 Li   -0.04703    0.03756   -0.03772
 33 Li   -0.00010    0.00894    0.01501
 34 Li    0.00666   -0.01027   -0.02888
 35 Li   -0.00811   -0.01131   -0.02861
 36 O     0.19399    0.17091    0.18668
 37 O    -0.04010    0.08438    0.04891
 38 C     0.70572    0.15784    1.12991
 39 C     0.13112    0.06394    0.27696
 40 H     0.33144   -0.17895    0.41947
 41 H     1.63449    0.27965    1.88626
 42 H     0.03396    0.02511    0.03596
 43 H     0.01026    0.16121    0.09105
 44 H     0.02141   -0.06971    0.09344
 45 H    -0.01348    0.00965    0.00049
 46 N    -1.51961    0.38128    1.69637
 47 N    -1.57817   -0.53068   -1.60564

System changes: positions 

Initializing position-dependent things.

Density initialized from wave functions
       .-----------------------.  
      /|                       |  
     / |                       |  
    /  |                       |  
   /   |                       |  
  /    |                       |  
 *     |                       |  
 |     H                       |  
 |     |                       |  
 |     |                       |  
 |     |                       |  
 |     |                       N  
 |   H |                       |  
 | O C |H      Li      LiH     Li 
 O  C H|                       |  
 |     |     Li      Li      Li|  
 |  H  |                       |  
 |     |  LLi     LLi     NLi  |  
 |     |                       |  
 |     |Li      Li      Li     |  
 |   Li|     Li      Li        |  
 |    Li  Li  Li  Li  Li  Li   |  
 | Li  |   Li      Li          |  
 |     |Li      Li      Li     |  
 Li    | Li      Li            |  
 |    Li      Li      Li       |  
 |     |                       |  
 |     |                       |  
 |     |                       |  
 |     |                       |  
 |     |                       |  
 |     |                       |  
 |     .-----------------------.  
 |    /                       /   
 |   /                       /    
 |  /                       /     
 | /                       /      
 |/                       /       
 *-----------------------*        

Positions:
   0 Li     1.617037    1.617037   10.000000    ( 0.0000,  0.0000,  0.0000)
   1 Li     4.851111    1.617037   10.000000    ( 0.0000,  0.0000,  0.0000)
   2 Li     8.085185    1.617037   10.000000    ( 0.0000,  0.0000,  0.0000)
   3 Li     1.617037    4.851111   10.000000    ( 0.0000,  0.0000,  0.0000)
   4 Li     4.851111    4.851111   10.000000    ( 0.0000,  0.0000,  0.0000)
   5 Li     8.085185    4.851111   10.000000    ( 0.0000,  0.0000,  0.0000)
   6 Li     1.617037    8.085185   10.000000    ( 0.0000,  0.0000,  0.0000)
   7 Li     4.851111    8.085185   10.000000    ( 0.0000,  0.0000,  0.0000)
   8 Li     8.085185    8.085185   10.000000    ( 0.0000,  0.0000,  0.0000)
   9 Li     0.000000    0.000000   11.617037    ( 0.0000,  0.0000,  0.0000)
  10 Li     3.234074    0.000000   11.617037    ( 0.0000,  0.0000,  0.0000)
  11 Li     6.468148    0.000000   11.617037    ( 0.0000,  0.0000,  0.0000)
  12 Li     0.000000    3.234074   11.617037    ( 0.0000,  0.0000,  0.0000)
  13 Li     3.234074    3.234074   11.617037    ( 0.0000,  0.0000,  0.0000)
  14 Li     6.468148    3.234074   11.617037    ( 0.0000,  0.0000,  0.0000)
  15 Li     0.000000    6.468148   11.617037    ( 0.0000,  0.0000,  0.0000)
  16 Li     3.234074    6.468148   11.617037    ( 0.0000,  0.0000,  0.0000)
  17 Li     6.468148    6.468148   11.617037    ( 0.0000,  0.0000,  0.0000)
  18 Li     1.616880    1.617388   13.468808    ( 0.0000,  0.0000,  0.0000)
  19 Li     4.851096    1.616763   13.471364    ( 0.0000,  0.0000,  0.0000)
  20 Li     8.085405    1.617587   13.468694    ( 0.0000,  0.0000,  0.0000)
  21 Li     1.616841    4.851090   13.471052    ( 0.0000,  0.0000,  0.0000)
  22 Li     4.851195    4.851160   13.470068    ( 0.0000,  0.0000,  0.0000)
  23 Li     8.085351    4.851087   13.470983    ( 0.0000,  0.0000,  0.0000)
  24 Li     1.617599    8.084761   13.468824    ( 0.0000,  0.0000,  0.0000)
  25 Li     4.851122    8.085356   13.471291    ( 0.0000,  0.0000,  0.0000)
  26 Li     8.084643    8.084565   13.468644    ( 0.0000,  0.0000,  0.0000)
  27 Li    -0.000356   -0.010175   15.326380    ( 0.0000,  0.0000,  0.0000)
  28 Li     3.236698   -0.000499   15.444302    ( 0.0000,  0.0000,  0.0000)
  29 Li     6.466450   -0.000348   15.445240    ( 0.0000,  0.0000,  0.0000)
  30 Li    -0.000194    3.229538   15.450978    ( 0.0000,  0.0000,  0.0000)
  31 Li     3.235350    3.234971   15.444865    ( 0.0000,  0.0000,  0.0000)
  32 Li     6.467069    3.234926   15.445061    ( 0.0000,  0.0000,  0.0000)
  33 Li    -0.000002    6.468190   15.446196    ( 0.0000,  0.0000,  0.0000)
  34 Li     3.234221    6.467918   15.445273    ( 0.0000,  0.0000,  0.0000)
  35 Li     6.467974    6.467903   15.445277    ( 0.0000,  0.0000,  0.0000)
  36 O      9.705582    9.705674   19.449951    ( 0.0000,  0.0000,  0.0000)
  37 O      9.744817   12.603128   19.214155    ( 0.0000,  0.0000,  0.0000)
  38 C     10.893358   10.434702   19.058814    ( 0.0000,  0.0000,  0.0000)
  39 C     10.889927   11.840172   19.608881    ( 0.0000,  0.0000,  0.0000)
  40 H     11.793838    9.899288   19.334881    ( 0.0000,  0.0000,  0.0000)
  41 H     10.866310   10.470445   17.993659    ( 0.0000,  0.0000,  0.0000)
  42 H     11.762297   12.377266   19.226873    ( 0.0000,  0.0000,  0.0000)
  43 H     10.962861   11.793675   20.703347    ( 0.0000,  0.0000,  0.0000)
  44 H      9.777269    9.531329   20.394819    ( 0.0000,  0.0000,  0.0000)
  45 H      8.978615   12.021153   19.309825    ( 0.0000,  0.0000,  0.0000)
  46 N      9.665831    9.673895   17.003214    ( 0.0000,  0.0000,  0.0000)
  47 N      9.664452   10.824414   16.909652    ( 0.0000,  0.0000,  0.0000)

Unit cell:
           periodic     x           y           z      points  spacing
  1. axis:    yes    9.702222    0.000000    0.000000    60     0.1617
  2. axis:    yes    0.000000    9.702222    0.000000    60     0.1617
  3. axis:    no     0.000000    0.000000   26.351111   164     0.1607

  Lengths:   9.702222   9.702222  26.351111
  Angles:   90.000000  90.000000  90.000000

Effective grid spacing dv^(1/3) = 0.1614

     iter     time        total  log10-change:
                         energy  eigst   dens
iter:   1 12:51:57  -324.677962  -1.02
iter:   2 12:52:05  -324.677563  -1.67  -2.19
iter:   3 12:52:13  -324.675964c -2.21  -2.23
iter:   4 12:52:21  -324.673507c -2.27  -2.41
Writing to output.gpw (mode='')

iter:   5 12:52:29  -324.672762c -2.31  -2.61
iter:   6 12:52:37  -324.672824c -2.65  -2.70
iter:   7 12:52:45  -324.672486c -3.02  -2.80
iter:   8 12:52:53  -324.672536c -3.46  -2.95
iter:   9 12:53:01  -324.672506c -3.60  -2.98
Writing to output.gpw (mode='')

iter:  10 12:53:09  -324.672499c -3.90  -3.24
iter:  11 12:53:18  -324.672497c -4.08  -3.33
iter:  12 12:53:26  -324.672514c -4.49  -3.50
iter:  13 12:53:34  -324.672500c -4.56  -3.54
iter:  14 12:53:42  -324.672506c -4.66  -3.68
Writing to output.gpw (mode='')

iter:  15 12:53:50  -324.672503c -4.99  -3.72
iter:  16 12:53:58  -324.672505c -5.19  -3.81
iter:  17 12:54:06  -324.672504c -5.12  -4.03c
iter:  18 12:54:14  -324.672505c -5.48  -4.21c
iter:  19 12:54:22  -324.672509c -5.56  -4.23c
Writing to output.gpw (mode='')

iter:  20 12:54:30  -324.672508c -5.84  -4.29c
iter:  21 12:54:38  -324.672508c -5.69  -4.43c
iter:  22 12:54:52  -324.672507c -5.94  -4.63c
iter:  23 12:55:00  -324.672506c -6.09  -4.70c
iter:  24 12:55:08  -324.672506c -6.33  -4.78c
Writing to output.gpw (mode='')

iter:  25 12:55:16  -324.672507c -6.37  -4.86c
iter:  26 12:55:24  -324.672506c -6.42  -4.93c
iter:  27 12:55:32  -324.672506c -6.60  -5.16c
iter:  28 12:55:40  -324.672506c -6.73  -5.17c
iter:  29 12:55:48  -324.672506c -6.61  -5.29c
Writing to output.gpw (mode='')

iter:  30 12:55:57  -324.672506c -6.95  -5.39c
iter:  31 12:56:05  -324.672506c -6.97  -5.43c
iter:  32 12:56:13  -324.672506c -7.09  -5.44c
iter:  33 12:56:21  -324.672506c -7.27  -5.44c
iter:  34 12:56:29  -324.672506c -7.41c -5.42c

Converged after 34 iterations.

Dipole moment: (-18.103270, -11.877276, 0.192051) |e|*Ang

Energy contributions relative to reference atoms: (reference = -16475.706344)

Kinetic:       +175.806135
Potential:     -164.614545
External:        +0.000000
XC:            -336.920186
Entropy (-ST):   -0.150868
Local:           +1.131524
--------------------------
Free energy:   -324.747940
Extrapolated:  -324.672506

Dipole-layer corrected work functions: 3.406680, 3.037491 eV

Showing only first 2 kpts
 Kpt  Band  Eigenvalues  Occupancy
  0    34     -3.47361    1.98701
  0    35     -3.41801    1.96103
  0    36     -3.06316    0.07997
  0    37     -3.03098    0.04282

  1    34     -3.28556    1.56132
  1    35     -3.21724    0.95156
  1    36     -3.18270    0.62531
  1    37     -3.10384    0.17178


Fermi level: -3.22209

No gap
Writing to output.gpw (mode='')


Forces in eV/Ang:
  0 Li    0.01314    0.00975   -0.27643
  1 Li   -0.00141    0.00216   -0.26959
  2 Li   -0.01164    0.01030   -0.27576
  3 Li   -0.00636    0.00735   -0.26586
  4 Li   -0.00154   -0.00408   -0.29301
  5 Li    0.00705    0.00731   -0.26196
  6 Li    0.00292   -0.01854   -0.27973
  7 Li   -0.00164    0.00618   -0.26508
  8 Li   -0.00196   -0.01833   -0.27890
  9 Li   -0.00119   -0.00093    0.34995
 10 Li    0.00909    0.00342    0.26064
 11 Li   -0.00780    0.00352    0.27200
 12 Li    0.00059    0.02105    0.25821
 13 Li    0.00864   -0.00266    0.25689
 14 Li   -0.01015   -0.00087    0.25792
 15 Li   -0.00004   -0.01148    0.24741
 16 Li    0.01273   -0.00339    0.24905
 17 Li   -0.01196   -0.00723    0.24760
 18 Li    0.00683    0.02646   -0.05788
 19 Li    0.00019   -0.01179    0.07183
 20 Li   -0.00410    0.03547   -0.06624
 21 Li   -0.00894   -0.00402    0.05774
 22 Li    0.00360    0.00435    0.01394
 23 Li    0.00772   -0.00395    0.05493
 24 Li    0.02951   -0.02892   -0.04915
 25 Li    0.00138    0.00599    0.06582
 26 Li   -0.02891   -0.03826   -0.05921
 27 Li    0.01991   -0.33015   -3.34525
 28 Li    0.10842   -0.02064   -0.06836
 29 Li   -0.06978   -0.01551   -0.02643
 30 Li   -0.00959   -0.21950    0.23172
 31 Li    0.05383    0.03750   -0.04637
 32 Li   -0.04824    0.03826   -0.03879
 33 Li   -0.00001    0.01236    0.01443
 34 Li    0.00574   -0.00956   -0.02820
 35 Li   -0.00785   -0.01132   -0.02824
 36 O     0.22649    0.17534    0.21272
 37 O     0.00253    0.03481    0.04463
 38 C     0.54951    0.10275    1.01241
 39 C     0.11624    0.12664    0.30853
 40 H     0.37442   -0.18215    0.49462
 41 H     1.40919    0.24087    1.43159
 42 H     0.04509    0.03958    0.04421
 43 H     0.01561    0.19685    0.15221
 44 H     0.00650   -0.08290    0.12553
 45 H    -0.00921    0.00670    0.00128
 46 N    -1.44751    0.54296    0.94299
 47 N    -1.38385   -0.65340   -1.41616

System changes: positions 

Initializing position-dependent things.

Density initialized from wave functions
       .-----------------------.  
      /|                       |  
     / |                       |  
    /  |                       |  
   /   |                       |  
  /    |                       |  
 *     |                       |  
 |     H                       |  
 |     |                       |  
 |     |                       |  
 |     |                       |  
 |     |                       N  
 |   H |                       |  
 | O C LH      Li      LiH     |  
 O  C H|                       |  
 |     |     Li      Li      Li|  
 |  H  |                       |  
 |     |  LLi     LLi     NLi  |  
 |     |                       |  
 |     |Li      Li      Li     |  
 |   Li|     Li      Li        |  
 |    Li  Li  Li  Li  Li  Li   |  
 | Li  |   Li      Li          |  
 |     |Li      Li      Li     |  
 Li    | Li      Li            |  
 |    Li      Li      Li       |  
 |     |                       |  
 |     |                       |  
 |     |                       |  
 |     |                       |  
 |     |                       |  
 |     |                       |  
 |     .-----------------------.  
 |    /                       /   
 |   /                       /    
 |  /                       /     
 | /                       /      
 |/                       /       
 *-----------------------*        

Positions:
   0 Li     1.617037    1.617037   10.000000    ( 0.0000,  0.0000,  0.0000)
   1 Li     4.851111    1.617037   10.000000    ( 0.0000,  0.0000,  0.0000)
   2 Li     8.085185    1.617037   10.000000    ( 0.0000,  0.0000,  0.0000)
   3 Li     1.617037    4.851111   10.000000    ( 0.0000,  0.0000,  0.0000)
   4 Li     4.851111    4.851111   10.000000    ( 0.0000,  0.0000,  0.0000)
   5 Li     8.085185    4.851111   10.000000    ( 0.0000,  0.0000,  0.0000)
   6 Li     1.617037    8.085185   10.000000    ( 0.0000,  0.0000,  0.0000)
   7 Li     4.851111    8.085185   10.000000    ( 0.0000,  0.0000,  0.0000)
   8 Li     8.085185    8.085185   10.000000    ( 0.0000,  0.0000,  0.0000)
   9 Li     0.000000    0.000000   11.617037    ( 0.0000,  0.0000,  0.0000)
  10 Li     3.234074    0.000000   11.617037    ( 0.0000,  0.0000,  0.0000)
  11 Li     6.468148    0.000000   11.617037    ( 0.0000,  0.0000,  0.0000)
  12 Li     0.000000    3.234074   11.617037    ( 0.0000,  0.0000,  0.0000)
  13 Li     3.234074    3.234074   11.617037    ( 0.0000,  0.0000,  0.0000)
  14 Li     6.468148    3.234074   11.617037    ( 0.0000,  0.0000,  0.0000)
  15 Li     0.000000    6.468148   11.617037    ( 0.0000,  0.0000,  0.0000)
  16 Li     3.234074    6.468148   11.617037    ( 0.0000,  0.0000,  0.0000)
  17 Li     6.468148    6.468148   11.617037    ( 0.0000,  0.0000,  0.0000)
  18 Li     1.617035    1.617797   13.467950    ( 0.0000,  0.0000,  0.0000)
  19 Li     4.851103    1.616604   13.472362    ( 0.0000,  0.0000,  0.0000)
  20 Li     8.085286    1.618124   13.467700    ( 0.0000,  0.0000,  0.0000)
  21 Li     1.616716    4.851018   13.471859    ( 0.0000,  0.0000,  0.0000)
  22 Li     4.851243    4.851232   13.470256    ( 0.0000,  0.0000,  0.0000)
  23 Li     8.085459    4.851015   13.471754    ( 0.0000,  0.0000,  0.0000)
  24 Li     1.618021    8.084327   13.468130    ( 0.0000,  0.0000,  0.0000)
  25 Li     4.851146    8.085425   13.472191    ( 0.0000,  0.0000,  0.0000)
  26 Li     8.084227    8.083997   13.467802    ( 0.0000,  0.0000,  0.0000)
  27 Li     0.000064   -0.014829   15.286654    ( 0.0000,  0.0000,  0.0000)
  28 Li     3.238220   -0.000783   15.443319    ( 0.0000,  0.0000,  0.0000)
  29 Li     6.465449   -0.000569   15.444841    ( 0.0000,  0.0000,  0.0000)
  30 Li    -0.000327    3.226527   15.454123    ( 0.0000,  0.0000,  0.0000)
  31 Li     3.236088    3.235479   15.444213    ( 0.0000,  0.0000,  0.0000)
  32 Li     6.466393    3.235458   15.444510    ( 0.0000,  0.0000,  0.0000)
  33 Li    -0.000002    6.468371   15.446377    ( 0.0000,  0.0000,  0.0000)
  34 Li     3.234290    6.467791   15.444885    ( 0.0000,  0.0000,  0.0000)
  35 Li     6.467873    6.467749   15.444886    ( 0.0000,  0.0000,  0.0000)
  36 O      9.709067    9.708211   19.452984    ( 0.0000,  0.0000,  0.0000)
  37 O      9.745114   12.603161   19.214735    ( 0.0000,  0.0000,  0.0000)
  38 C     10.899751   10.435895   19.072519    ( 0.0000,  0.0000,  0.0000)
  39 C     10.891572   11.842545   19.613334    ( 0.0000,  0.0000,  0.0000)
  40 H     11.799534    9.896585   19.342239    ( 0.0000,  0.0000,  0.0000)
  41 H     10.884953   10.473643   18.010985    ( 0.0000,  0.0000,  0.0000)
  42 H     11.762914   12.377845   19.227562    ( 0.0000,  0.0000,  0.0000)
  43 H     10.963098   11.796571   20.705785    ( 0.0000,  0.0000,  0.0000)
  44 H      9.777271    9.530088   20.396787    ( 0.0000,  0.0000,  0.0000)
  45 H      8.978508   12.021287   19.309856    ( 0.0000,  0.0000,  0.0000)
  46 N      9.646095    9.675630   17.010213    ( 0.0000,  0.0000,  0.0000)
  47 N      9.645841   10.821169   16.890956    ( 0.0000,  0.0000,  0.0000)

Unit cell:
           periodic     x           y           z      points  spacing
  1. axis:    yes    9.702222    0.000000    0.000000    60     0.1617
  2. axis:    yes    0.000000    9.702222    0.000000    60     0.1617
  3. axis:    no     0.000000    0.000000   26.351111   164     0.1607

  Lengths:   9.702222   9.702222  26.351111
  Angles:   90.000000  90.000000  90.000000

Effective grid spacing dv^(1/3) = 0.1614

     iter     time        total  log10-change:
                         energy  eigst   dens
iter:   1 12:56:39  -324.965369  -1.03
iter:   2 12:56:47  -324.961414  -1.62  -2.11
iter:   3 12:56:57  -324.958265c -2.21  -2.14
iter:   4 12:57:05  -324.955386c -2.28  -2.36
Writing to output.gpw (mode='')

iter:   5 12:57:13  -324.954495c -2.42  -2.58
iter:   6 12:57:21  -324.954540c -2.54  -2.74
iter:   7 12:57:29  -324.954147c -3.17  -2.77
iter:   8 12:57:37  -324.954224c -3.27  -2.97
iter:   9 12:57:45  -324.954184c -3.72  -2.97
Writing to output.gpw (mode='')

iter:  10 12:57:54  -324.954255c -3.70  -3.06
iter:  11 12:58:01  -324.954187c -3.93  -3.20
iter:  12 12:58:10  -324.954190c -4.38  -3.33
iter:  13 12:58:18  -324.954210c -4.45  -3.40
iter:  14 12:58:26  -324.954196c -4.74  -3.59
Writing to output.gpw (mode='')

iter:  15 12:58:34  -324.954189c -4.77  -3.67
iter:  16 12:58:42  -324.954188c -5.13  -3.69
iter:  17 12:58:50  -324.954189c -5.23  -3.75
iter:  18 12:58:58  -324.954188c -5.38  -3.97
iter:  19 12:59:06  -324.954191c -5.42  -4.11c
Writing to output.gpw (mode='')

iter:  20 12:59:14  -324.954188c -5.58  -4.16c
iter:  21 12:59:22  -324.954188c -5.92  -4.31c
iter:  22 12:59:30  -324.954189c -6.01  -4.37c
iter:  23 12:59:38  -324.954189c -6.16  -4.47c
iter:  24 12:59:52  -324.954190c -6.19  -4.57c
Writing to output.gpw (mode='')

iter:  25 13:00:00  -324.954189c -6.39  -4.65c
iter:  26 13:00:08  -324.954189c -6.65  -4.83c
iter:  27 13:00:16  -324.954189c -6.67  -4.90c
iter:  28 13:00:24  -324.954189c -6.70  -5.01c
iter:  29 13:00:33  -324.954189c -6.91  -5.17c
Writing to output.gpw (mode='')

iter:  30 13:00:40  -324.954189c -6.99  -5.21c
iter:  31 13:00:49  -324.954189c -6.98  -5.27c
iter:  32 13:00:57  -324.954189c -7.20  -5.40c
iter:  33 13:01:05  -324.954189c -7.21  -5.45c
iter:  34 13:01:13  -324.954189c -7.29  -5.49c
Writing to output.gpw (mode='')

iter:  35 13:01:21  -324.954189c -7.45c -5.54c

Converged after 35 iterations.

Dipole moment: (-14.379377, -12.210097, 0.207774) |e|*Ang

Energy contributions relative to reference atoms: (reference = -16475.706344)

Kinetic:       +174.851593
Potential:     -164.130604
External:        +0.000000
XC:            -336.728827
Entropy (-ST):   -0.150259
Local:           +1.128779
--------------------------
Free energy:   -325.029319
Extrapolated:  -324.954189

Dipole-layer corrected work functions: 3.405407, 3.005994 eV

Showing only first 2 kpts
 Kpt  Band  Eigenvalues  Occupancy
  0    34     -3.45671    1.98688
  0    35     -3.40338    1.96235
  0    36     -3.04432    0.07628
  0    37     -3.01455    0.04278

  1    34     -3.26401    1.52492
  1    35     -3.20256    0.96863
  1    36     -3.16794    0.63938
  1    37     -3.08643    0.16859


Fermi level: -3.20570

No gap

Forces in eV/Ang:
  0 Li    0.01367    0.00960   -0.27757
  1 Li   -0.00189    0.00172   -0.26860
  2 Li   -0.01174    0.01031   -0.27692
  3 Li   -0.00685    0.00763   -0.26514
  4 Li   -0.00155   -0.00404   -0.29397
  5 Li    0.00746    0.00800   -0.26121
  6 Li    0.00243   -0.01854   -0.28083
  7 Li   -0.00171    0.00637   -0.26494
  8 Li   -0.00132   -0.01880   -0.27996
  9 Li   -0.00140    0.00021    0.35508
 10 Li    0.00974    0.00270    0.26128
 11 Li   -0.00835    0.00267    0.27362
 12 Li    0.00052    0.02028    0.26122
 13 Li    0.01192   -0.00139    0.25586
 14 Li   -0.01298    0.00084    0.25723
 15 Li   -0.00008   -0.01213    0.24567
 16 Li    0.01177   -0.00391    0.24983
 17 Li   -0.01081   -0.00815    0.24808
 18 Li    0.01592    0.03330   -0.06610
 19 Li    0.00116   -0.01134    0.07100
 20 Li   -0.01344    0.04236   -0.07841
 21 Li   -0.00963   -0.00641    0.05820
 22 Li    0.00317    0.00587    0.01269
 23 Li    0.00856   -0.00623    0.05585
 24 Li    0.03367   -0.03545   -0.05395
 25 Li    0.00227    0.00429    0.06337
 26 Li   -0.03356   -0.04534   -0.06580
 27 Li    0.04356   -0.30641   -2.64958
 28 Li    0.10589   -0.01968   -0.06894
 29 Li   -0.07045   -0.01625   -0.02802
 30 Li   -0.01010   -0.22251    0.22797
 31 Li    0.05209    0.03551   -0.04625
 32 Li   -0.04978    0.03921   -0.03965
 33 Li    0.00015    0.01414    0.01348
 34 Li    0.00487   -0.00861   -0.02730
 35 Li   -0.00774   -0.01127   -0.02779
 36 O     0.24563    0.17779    0.23052
 37 O     0.02635   -0.00329    0.03932
 38 C     0.43551    0.04611    0.84766
 39 C     0.11351    0.14926    0.31606
 40 H     0.37676   -0.16179    0.55282
 41 H     1.20444    0.19427    1.05472
 42 H     0.05216    0.05344    0.05871
 43 H     0.02100    0.23574    0.21774
 44 H    -0.00495   -0.09509    0.15962
 45 H     0.00340    0.00583    0.00321
 46 N    -1.36344    0.52276    0.47217
 47 N    -1.25381   -0.56677   -1.19713

System changes: positions 

Initializing position-dependent things.

Density initialized from wave functions
       .-----------------------.  
      /|                       |  
     / |                       |  
    /  |                       |  
   /   |                       |  
  /    |                       |  
 *     |                       |  
 |     H                       |  
 |     |                       |  
 |     |                       |  
 |     |                       |  
 |     |                       N  
 |   H |                       |  
 | O C LH      Li      LiH     |  
 O  C H|                       |  
 |   Li|     Li      Li        |  
 |  H  |                       |  
 |     |  LLi     LLi    NLLi  |  
 |     |                       |  
 |     |Li      Li      Li     |  
 |   Li|     Li      Li        |  
 |    Li  Li  Li  Li  Li  Li   |  
 | Li  |   Li      Li          |  
 |     |Li      Li      Li     |  
 Li    | Li      Li            |  
 |    Li      Li      Li       |  
 |     |                       |  
 |     |                       |  
 |     |                       |  
 |     |                       |  
 |     |                       |  
 |     |                       |  
 |     .-----------------------.  
 |    /                       /   
 |   /                       /    
 |  /                       /     
 | /                       /      
 |/                       /       
 *-----------------------*        

Positions:
   0 Li     1.617037    1.617037   10.000000    ( 0.0000,  0.0000,  0.0000)
   1 Li     4.851111    1.617037   10.000000    ( 0.0000,  0.0000,  0.0000)
   2 Li     8.085185    1.617037   10.000000    ( 0.0000,  0.0000,  0.0000)
   3 Li     1.617037    4.851111   10.000000    ( 0.0000,  0.0000,  0.0000)
   4 Li     4.851111    4.851111   10.000000    ( 0.0000,  0.0000,  0.0000)
   5 Li     8.085185    4.851111   10.000000    ( 0.0000,  0.0000,  0.0000)
   6 Li     1.617037    8.085185   10.000000    ( 0.0000,  0.0000,  0.0000)
   7 Li     4.851111    8.085185   10.000000    ( 0.0000,  0.0000,  0.0000)
   8 Li     8.085185    8.085185   10.000000    ( 0.0000,  0.0000,  0.0000)
   9 Li     0.000000    0.000000   11.617037    ( 0.0000,  0.0000,  0.0000)
  10 Li     3.234074    0.000000   11.617037    ( 0.0000,  0.0000,  0.0000)
  11 Li     6.468148    0.000000   11.617037    ( 0.0000,  0.0000,  0.0000)
  12 Li     0.000000    3.234074   11.617037    ( 0.0000,  0.0000,  0.0000)
  13 Li     3.234074    3.234074   11.617037    ( 0.0000,  0.0000,  0.0000)
  14 Li     6.468148    3.234074   11.617037    ( 0.0000,  0.0000,  0.0000)
  15 Li     0.000000    6.468148   11.617037    ( 0.0000,  0.0000,  0.0000)
  16 Li     3.234074    6.468148   11.617037    ( 0.0000,  0.0000,  0.0000)
  17 Li     6.468148    6.468148   11.617037    ( 0.0000,  0.0000,  0.0000)
  18 Li     1.617346    1.618385   13.466807    ( 0.0000,  0.0000,  0.0000)
  19 Li     4.851125    1.616418   13.473551    ( 0.0000,  0.0000,  0.0000)
  20 Li     8.085015    1.618864   13.466334    ( 0.0000,  0.0000,  0.0000)
  21 Li     1.616555    4.850898   13.472838    ( 0.0000,  0.0000,  0.0000)
  22 Li     4.851295    4.851340   13.470464    ( 0.0000,  0.0000,  0.0000)
  23 Li     8.085603    4.850897   13.472696    ( 0.0000,  0.0000,  0.0000)
  24 Li     1.618593    8.083712   13.467224    ( 0.0000,  0.0000,  0.0000)
  25 Li     4.851187    8.085486   13.473240    ( 0.0000,  0.0000,  0.0000)
  26 Li     8.083655    8.083214   13.466690    ( 0.0000,  0.0000,  0.0000)
  27 Li     0.000900   -0.020111   15.247013    ( 0.0000,  0.0000,  0.0000)
  28 Li     3.240013   -0.001111   15.442131    ( 0.0000,  0.0000,  0.0000)
  29 Li     6.464238   -0.000846   15.444339    ( 0.0000,  0.0000,  0.0000)
  30 Li    -0.000495    3.222852   15.457865    ( 0.0000,  0.0000,  0.0000)
  31 Li     3.236953    3.236063   15.443431    ( 0.0000,  0.0000,  0.0000)
  32 Li     6.465555    3.236115   15.443834    ( 0.0000,  0.0000,  0.0000)
  33 Li     0.000001    6.468609   15.446582    ( 0.0000,  0.0000,  0.0000)
  34 Li     3.234363    6.467652   15.444431    ( 0.0000,  0.0000,  0.0000)
  35 Li     6.467750    6.467564   15.444422    ( 0.0000,  0.0000,  0.0000)
  36 O      9.713425    9.711259   19.456893    ( 0.0000,  0.0000,  0.0000)
  37 O      9.745751   12.602757   19.215352    ( 0.0000,  0.0000,  0.0000)
  38 C     10.906160   10.436499   19.086441    ( 0.0000,  0.0000,  0.0000)
  39 C     10.893499   11.845518   19.618757    ( 0.0000,  0.0000,  0.0000)
  40 H     11.806209    9.893748   19.351852    ( 0.0000,  0.0000,  0.0000)
  41 H     10.904512   10.476806   18.026840    ( 0.0000,  0.0000,  0.0000)
  42 H     11.763778   12.378759   19.228600    ( 0.0000,  0.0000,  0.0000)
  43 H     10.963465   11.800635   20.709668    ( 0.0000,  0.0000,  0.0000)
  44 H      9.777118    9.528427   20.399619    ( 0.0000,  0.0000,  0.0000)
  45 H      8.978574   12.021421   19.309925    ( 0.0000,  0.0000,  0.0000)
  46 N      9.623501    9.677738   17.013741    ( 0.0000,  0.0000,  0.0000)
  47 N      9.625246   10.818364   16.871692    ( 0.0000,  0.0000,  0.0000)

Unit cell:
           periodic     x           y           z      points  spacing
  1. axis:    yes    9.702222    0.000000    0.000000    60     0.1617
  2. axis:    yes    0.000000    9.702222    0.000000    60     0.1617
  3. axis:    no     0.000000    0.000000   26.351111   164     0.1607

  Lengths:   9.702222   9.702222  26.351111
  Angles:   90.000000  90.000000  90.000000

Effective grid spacing dv^(1/3) = 0.1614

     iter     time        total  log10-change:
                         energy  eigst   dens
iter:   1 13:01:30  -325.204840  -1.03
iter:   2 13:01:38  -325.202709  -1.67  -2.16
iter:   3 13:01:46  -325.200949c -2.22  -2.21
iter:   4 13:01:55  -325.198288c -2.31  -2.37
Writing to output.gpw (mode='')

iter:   5 13:02:03  -325.197408c -2.42  -2.58
iter:   6 13:02:11  -325.197502c -2.57  -2.75
iter:   7 13:02:19  -325.197109c -3.18  -2.77
iter:   8 13:02:27  -325.197188c -3.35  -2.98
iter:   9 13:02:35  -325.197180c -3.74  -2.99
Writing to output.gpw (mode='')

iter:  10 13:02:43  -325.197190c -3.74  -3.06
iter:  11 13:02:51  -325.197163c -3.98  -3.26
iter:  12 13:02:59  -325.197152c -4.45  -3.32
iter:  13 13:03:07  -325.197155c -4.32  -3.38
iter:  14 13:03:15  -325.197158c -4.50  -3.55
Writing to output.gpw (mode='')

iter:  15 13:03:24  -325.197153c -5.00  -3.78
iter:  16 13:03:32  -325.197148c -5.09  -3.82
iter:  17 13:03:40  -325.197139c -5.16  -3.93
iter:  18 13:03:51  -325.197147c -5.52  -4.16c
iter:  19 13:04:04  -325.197147c -5.80  -4.27c
Writing to output.gpw (mode='')

iter:  20 13:04:13  -325.197146c -5.70  -4.31c
iter:  21 13:04:21  -325.197148c -5.89  -4.37c
iter:  22 13:04:29  -325.197148c -6.01  -4.58c
iter:  23 13:04:37  -325.197148c -6.33  -4.62c
iter:  24 13:04:52  -325.197147c -6.29  -4.66c
Writing to output.gpw (mode='')

iter:  25 13:05:00  -325.197148c -6.41  -4.76c
iter:  26 13:05:08  -325.197148c -6.45  -4.84c
iter:  27 13:05:16  -325.197147c -6.65  -4.88c
iter:  28 13:05:24  -325.197148c -6.77  -5.15c
iter:  29 13:05:32  -325.197148c -6.73  -5.21c
Writing to output.gpw (mode='')

iter:  30 13:05:40  -325.197148c -6.80  -5.24c
iter:  31 13:05:48  -325.197147c -7.11  -5.28c
iter:  32 13:05:56  -325.197147c -7.20  -5.57c
iter:  33 13:06:04  -325.197147c -7.36  -5.66c
iter:  34 13:06:12  -325.197147c -7.33  -5.72c
Writing to output.gpw (mode='')

iter:  35 13:06:20  -325.197147c -7.35  -5.76c
iter:  36 13:06:28  -325.197148c -7.41c -5.78c

Converged after 36 iterations.

Dipole moment: (-10.370280, -12.616784, 0.222728) |e|*Ang

Energy contributions relative to reference atoms: (reference = -16475.706344)

Kinetic:       +173.909436
Potential:     -163.627234
External:        +0.000000
XC:            -336.530371
Entropy (-ST):   -0.149700
Local:           +1.125872
--------------------------
Free energy:   -325.271997
Extrapolated:  -325.197148

Dipole-layer corrected work functions: 3.404063, 2.975902 eV

Showing only first 2 kpts
 Kpt  Band  Eigenvalues  Occupancy
  0    34     -3.43960    1.98651
  0    35     -3.38855    1.96300
  0    36     -3.02687    0.07378
  0    37     -2.99817    0.04223

  1    34     -3.24378    1.49142
  1    35     -3.18851    0.98526
  1    36     -3.15374    0.65262
  1    37     -3.06918    0.16392


Fermi level: -3.18998

No gap
Writing to output.gpw (mode='')


Forces in eV/Ang:
  0 Li    0.01416    0.00934   -0.27879
  1 Li   -0.00244    0.00128   -0.26762
  2 Li   -0.01176    0.01026   -0.27816
  3 Li   -0.00732    0.00787   -0.26436
  4 Li   -0.00155   -0.00393   -0.29487
  5 Li    0.00784    0.00867   -0.26044
  6 Li    0.00200   -0.01839   -0.28199
  7 Li   -0.00180    0.00666   -0.26469
  8 Li   -0.00069   -0.01919   -0.28108
  9 Li   -0.00171    0.00123    0.35963
 10 Li    0.01040    0.00206    0.26189
 11 Li   -0.00885    0.00184    0.27533
 12 Li    0.00048    0.01962    0.26403
 13 Li    0.01509   -0.00011    0.25494
 14 Li   -0.01562    0.00264    0.25675
 15 Li   -0.00012   -0.01251    0.24429
 16 Li    0.01109   -0.00460    0.25050
 17 Li   -0.00995   -0.00932    0.24843
 18 Li    0.02489    0.04007   -0.07343
 19 Li    0.00228   -0.01084    0.06958
 20 Li   -0.02259    0.04906   -0.08997
 21 Li   -0.01055   -0.00878    0.05858
 22 Li    0.00267    0.00721    0.01123
 23 Li    0.00963   -0.00840    0.05666
 24 Li    0.03877   -0.04246   -0.05939
 25 Li    0.00324    0.00263    0.06064
 26 Li   -0.03916   -0.05286   -0.07297
 27 Li    0.06268   -0.28003   -2.10299
 28 Li    0.10227   -0.01852   -0.06872
 29 Li   -0.07035   -0.01698   -0.02941
 30 Li   -0.01095   -0.22552    0.22425
 31 Li    0.05014    0.03331   -0.04575
 32 Li   -0.05146    0.04029   -0.04022
 33 Li    0.00032    0.01502    0.01251
 34 Li    0.00413   -0.00752   -0.02625
 35 Li   -0.00783   -0.01122   -0.02728
 36 O     0.25725    0.17855    0.25248
 37 O     0.05015   -0.02687    0.03458
 38 C     0.38385    0.01992    0.67698
 39 C     0.11388    0.14390    0.31117
 40 H     0.34399   -0.12759    0.58832
 41 H     0.98372    0.14592    0.71838
 42 H     0.05741    0.06734    0.07643
 43 H     0.02605    0.26988    0.26664
 44 H    -0.00995   -0.10216    0.18382
 45 H     0.01403   -0.00078    0.00713
 46 N    -1.21881    0.47955    0.06063
 47 N    -1.10957   -0.50467   -1.04613

System changes: positions 

Initializing position-dependent things.

Density initialized from wave functions
       .-----------------------.  
      /|                       |  
     / |                       |  
    /  |                       |  
   /   |                       |  
  /    |                       |  
 *     |                       |  
 |     H                       |  
 |     |                       |  
 |     |                       |  
 |     |                       |  
 |     |                       N  
 |   H |                       |  
 | O C |H      Li      LiH     |  
 O  C HLi                      |  
 |   Li|     Li      Li        |  
 |   H |                       |  
 |     |  LLi     LLi    NLLi  |  
 |     |                       |  
 |     |Li      Li      Li     |  
 |   Li|     Li      Li        |  
 |    Li  Li  Li  Li  Li  Li   |  
 | Li  |   Li      Li          |  
 |     |Li      Li      Li     |  
 Li    | Li      Li            |  
 |    Li      Li      Li       |  
 |     |                       |  
 |     |                       |  
 |     |                       |  
 |     |                       |  
 |     |                       |  
 |     |                       |  
 |     .-----------------------.  
 |    /                       /   
 |   /                       /    
 |  /                       /     
 | /                       /      
 |/                       /       
 *-----------------------*        

Positions:
   0 Li     1.617037    1.617037   10.000000    ( 0.0000,  0.0000,  0.0000)
   1 Li     4.851111    1.617037   10.000000    ( 0.0000,  0.0000,  0.0000)
   2 Li     8.085185    1.617037   10.000000    ( 0.0000,  0.0000,  0.0000)
   3 Li     1.617037    4.851111   10.000000    ( 0.0000,  0.0000,  0.0000)
   4 Li     4.851111    4.851111   10.000000    ( 0.0000,  0.0000,  0.0000)
   5 Li     8.085185    4.851111   10.000000    ( 0.0000,  0.0000,  0.0000)
   6 Li     1.617037    8.085185   10.000000    ( 0.0000,  0.0000,  0.0000)
   7 Li     4.851111    8.085185   10.000000    ( 0.0000,  0.0000,  0.0000)
   8 Li     8.085185    8.085185   10.000000    ( 0.0000,  0.0000,  0.0000)
   9 Li     0.000000    0.000000   11.617037    ( 0.0000,  0.0000,  0.0000)
  10 Li     3.234074    0.000000   11.617037    ( 0.0000,  0.0000,  0.0000)
  11 Li     6.468148    0.000000   11.617037    ( 0.0000,  0.0000,  0.0000)
  12 Li     0.000000    3.234074   11.617037    ( 0.0000,  0.0000,  0.0000)
  13 Li     3.234074    3.234074   11.617037    ( 0.0000,  0.0000,  0.0000)
  14 Li     6.468148    3.234074   11.617037    ( 0.0000,  0.0000,  0.0000)
  15 Li     0.000000    6.468148   11.617037    ( 0.0000,  0.0000,  0.0000)
  16 Li     3.234074    6.468148   11.617037    ( 0.0000,  0.0000,  0.0000)
  17 Li     6.468148    6.468148   11.617037    ( 0.0000,  0.0000,  0.0000)
  18 Li     1.617828    1.619155   13.465393    ( 0.0000,  0.0000,  0.0000)
  19 Li     4.851168    1.616210   13.474899    ( 0.0000,  0.0000,  0.0000)
  20 Li     8.084577    1.619810   13.464603    ( 0.0000,  0.0000,  0.0000)
  21 Li     1.616354    4.850727   13.473972    ( 0.0000,  0.0000,  0.0000)
  22 Li     4.851347    4.851482   13.470683    ( 0.0000,  0.0000,  0.0000)
  23 Li     8.085786    4.850732   13.473794    ( 0.0000,  0.0000,  0.0000)
  24 Li     1.619329    8.082902   13.466099    ( 0.0000,  0.0000,  0.0000)
  25 Li     4.851248    8.085532   13.474411    ( 0.0000,  0.0000,  0.0000)
  26 Li     8.082912    8.082204   13.465304    ( 0.0000,  0.0000,  0.0000)
  27 Li     0.002117   -0.025826   15.207442    ( 0.0000,  0.0000,  0.0000)
  28 Li     3.242022   -0.001472   15.440770    ( 0.0000,  0.0000,  0.0000)
  29 Li     6.462847   -0.001176   15.443744    ( 0.0000,  0.0000,  0.0000)
  30 Li    -0.000702    3.218568   15.462131    ( 0.0000,  0.0000,  0.0000)
  31 Li     3.237923    3.236706   15.442539    ( 0.0000,  0.0000,  0.0000)
  32 Li     6.464563    3.236889   15.443050    ( 0.0000,  0.0000,  0.0000)
  33 Li     0.000006    6.468889   15.446806    ( 0.0000,  0.0000,  0.0000)
  34 Li     3.234437    6.467508   15.443922    ( 0.0000,  0.0000,  0.0000)
  35 Li     6.467606    6.467351   15.443894    ( 0.0000,  0.0000,  0.0000)
  36 O      9.718512    9.714747   19.461719    ( 0.0000,  0.0000,  0.0000)
  37 O      9.746775   12.602069   19.215993    ( 0.0000,  0.0000,  0.0000)
  38 C     10.913203   10.436873   19.099884    ( 0.0000,  0.0000,  0.0000)
  39 C     10.895718   11.848648   19.624875    ( 0.0000,  0.0000,  0.0000)
  40 H     11.813195    9.891088   19.363323    ( 0.0000,  0.0000,  0.0000)
  41 H     10.923915   10.479745   18.040719    ( 0.0000,  0.0000,  0.0000)
  42 H     11.764861   12.380023   19.230054    ( 0.0000,  0.0000,  0.0000)
  43 H     10.963962   11.805806   20.714807    ( 0.0000,  0.0000,  0.0000)
  44 H      9.776891    9.526431   20.403188    ( 0.0000,  0.0000,  0.0000)
  45 H      8.978806   12.021459   19.310069    ( 0.0000,  0.0000,  0.0000)
  46 N      9.599622    9.679866   17.013482    ( 0.0000,  0.0000,  0.0000)
  47 N      9.603555   10.815725   16.851569    ( 0.0000,  0.0000,  0.0000)

Unit cell:
           periodic     x           y           z      points  spacing
  1. axis:    yes    9.702222    0.000000    0.000000    60     0.1617
  2. axis:    yes    0.000000    9.702222    0.000000    60     0.1617
  3. axis:    no     0.000000    0.000000   26.351111   164     0.1607

  Lengths:   9.702222   9.702222  26.351111
  Angles:   90.000000  90.000000  90.000000

[...]

  1    34     -3.07439    1.98228
  1    35     -2.93526    1.74760
  1    36     -2.78344    0.49893
  1    37     -2.62433    0.02721


Fermi level: -2.83851

No gap
Writing to output.gpw (mode='')


Forces in eV/Ang:
  0 Li   -0.00788    0.01325   -0.29853
  1 Li    0.00474   -0.00869   -0.29513
  2 Li    0.00024    0.00262   -0.25011
  3 Li    0.00157    0.00791   -0.28897
  4 Li   -0.01182    0.01262   -0.28799
  5 Li    0.01015   -0.00513   -0.29325
  6 Li    0.01186   -0.00912   -0.28973
  7 Li   -0.00847   -0.00529   -0.28445
  8 Li   -0.00411    0.00708   -0.29587
  9 Li   -0.02355    0.03835    0.29361
 10 Li   -0.04153    0.03984    0.32990
 11 Li    0.05989    0.03316    0.32721
 12 Li   -0.03006   -0.02180    0.26954
 13 Li    0.00765   -0.00665    0.31373
 14 Li    0.07406   -0.02092    0.27418
 15 Li   -0.01976   -0.03534    0.30127
 16 Li   -0.03348   -0.04368    0.31722
 17 Li    0.06104   -0.03025    0.28837
 18 Li   -0.01107    0.00373   -0.00148
 19 Li   -0.01653   -0.00974   -0.00002
 20 Li   -0.00549   -0.00769   -0.00662
 21 Li    0.00975   -0.00077   -0.00695
 22 Li   -0.00534   -0.01143    0.00473
 23 Li    0.01013   -0.00194   -0.00477
 24 Li   -0.00300   -0.00054   -0.00772
 25 Li    0.00944   -0.00439    0.00839
 26 Li   -0.01166   -0.01904   -0.00882
 27 Li    0.01897    0.00658    0.00349
 28 Li    0.00011   -0.00611   -0.00395
 29 Li    0.01338    0.00108   -0.00579
 30 Li   -0.00336   -0.00216   -0.00474
 31 Li   -0.01056   -0.00123   -0.00355
 32 Li   -0.01234   -0.02543   -0.02042
 33 Li    0.00277    0.00656   -0.01190
 34 Li   -0.01222    0.00113   -0.01381
 35 Li   -0.00458   -0.01213    0.00417
 36 O    -0.00386    0.01321   -0.03466
 37 O     0.05034    0.02600   -0.01988
 38 C     0.00202   -0.00193   -0.01576
 39 C     0.01984    0.01643    0.02595
 40 H    -0.00065    0.01127    0.00507
 41 H     0.02358    0.00597   -0.04015
 42 H    -0.00446   -0.00125   -0.02054
 43 H    -0.01979    0.01126    0.02186
 44 H     0.01199    0.02871    0.00988
 45 H     0.02633    0.03013    0.01405
 46 N    -0.00487    0.05729   -0.00927
 47 N     0.02462   -0.01785    0.01928

System changes: positions 

Initializing position-dependent things.

Density initialized from wave functions
       .-----------------------.  
      /|                       |  
     / |                       |  
    /  |                       |  
   /   |                       |  
  /    |                       |  
 *     |                       |  
 |     |                       |  
 |     |                       |  
 |     |                       |  
 |     |                       |  
 |     |                       |  
 |   H |                       |  
 H    CHH      Li     Li       |  
 |O OC |                       |  
 |   Li|     Li      Li  H     |  
 |    H|                       |  
 |  Li |  LiLi    LiLi    Li   |  
 |     |             N N       |  
 |     |Li      Li      Li     |  
 |   Li|     Li      Li        |  
 |    Li  Li  Li  Li  Li  Li   |  
 | Li  |   Li      Li          |  
 |     |Li      Li      Li     |  
 Li    | Li      Li            |  
 |    Li      Li      Li       |  
 |     |                       |  
 |     |                       |  
 |     |                       |  
 |     |                       |  
 |     |                       |  
 |     |                       |  
 |     .-----------------------.  
 |    /                       /   
 |   /                       /    
 |  /                       /     
 | /                       /      
 |/                       /       
 *-----------------------*        

Positions:
   0 Li     1.617037    1.617037   10.000000    ( 0.0000,  0.0000,  0.0000)
   1 Li     4.851111    1.617037   10.000000    ( 0.0000,  0.0000,  0.0000)
   2 Li     8.085185    1.617037   10.000000    ( 0.0000,  0.0000,  0.0000)
   3 Li     1.617037    4.851111   10.000000    ( 0.0000,  0.0000,  0.0000)
   4 Li     4.851111    4.851111   10.000000    ( 0.0000,  0.0000,  0.0000)
   5 Li     8.085185    4.851111   10.000000    ( 0.0000,  0.0000,  0.0000)
   6 Li     1.617037    8.085185   10.000000    ( 0.0000,  0.0000,  0.0000)
   7 Li     4.851111    8.085185   10.000000    ( 0.0000,  0.0000,  0.0000)
   8 Li     8.085185    8.085185   10.000000    ( 0.0000,  0.0000,  0.0000)
   9 Li     0.000000    0.000000   11.617037    ( 0.0000,  0.0000,  0.0000)
  10 Li     3.234074    0.000000   11.617037    ( 0.0000,  0.0000,  0.0000)
  11 Li     6.468148    0.000000   11.617037    ( 0.0000,  0.0000,  0.0000)
  12 Li     0.000000    3.234074   11.617037    ( 0.0000,  0.0000,  0.0000)
  13 Li     3.234074    3.234074   11.617037    ( 0.0000,  0.0000,  0.0000)
  14 Li     6.468148    3.234074   11.617037    ( 0.0000,  0.0000,  0.0000)
  15 Li     0.000000    6.468148   11.617037    ( 0.0000,  0.0000,  0.0000)
  16 Li     3.234074    6.468148   11.617037    ( 0.0000,  0.0000,  0.0000)
  17 Li     6.468148    6.468148   11.617037    ( 0.0000,  0.0000,  0.0000)
  18 Li     1.577957    1.690684   13.542243    ( 0.0000,  0.0000,  0.0000)
  19 Li     4.905750    1.603674   13.475222    ( 0.0000,  0.0000,  0.0000)
  20 Li     8.110606    1.628662   13.578020    ( 0.0000,  0.0000,  0.0000)
  21 Li     1.640875    4.841767   13.569801    ( 0.0000,  0.0000,  0.0000)
  22 Li     4.961290    4.821136   13.472799    ( 0.0000,  0.0000,  0.0000)
  23 Li     8.181652    4.789506   13.582465    ( 0.0000,  0.0000,  0.0000)
  24 Li     1.525644    8.109382   13.503290    ( 0.0000,  0.0000,  0.0000)
  25 Li     4.807646    8.048616   13.448249    ( 0.0000,  0.0000,  0.0000)
  26 Li     8.047713    8.070418   13.503744    ( 0.0000,  0.0000,  0.0000)
  27 Li    -0.305950    0.123812   15.506886    ( 0.0000,  0.0000,  0.0000)
  28 Li     3.107688   -0.026442   15.332562    ( 0.0000,  0.0000,  0.0000)
  29 Li     6.292858   -0.120356   15.441992    ( 0.0000,  0.0000,  0.0000)
  30 Li     0.262338    3.160898   16.029092    ( 0.0000,  0.0000,  0.0000)
  31 Li     3.539694    3.305168   15.391210    ( 0.0000,  0.0000,  0.0000)
  32 Li     6.771595    2.973014   15.615199    ( 0.0000,  0.0000,  0.0000)
  33 Li     0.063138    6.574409   15.496606    ( 0.0000,  0.0000,  0.0000)
  34 Li     3.283745    6.499877   15.464517    ( 0.0000,  0.0000,  0.0000)
  35 Li     6.435495    6.338311   15.434477    ( 0.0000,  0.0000,  0.0000)
  36 O     10.052022    9.914959   19.420017    ( 0.0000,  0.0000,  0.0000)
  37 O     10.073641   12.399452   18.020968    ( 0.0000,  0.0000,  0.0000)
  38 C     11.281852   10.625981   19.193080    ( 0.0000,  0.0000,  0.0000)
  39 C     11.043003   12.121509   19.043334    ( 0.0000,  0.0000,  0.0000)
  40 H     12.007267   10.437468   19.993105    ( 0.0000,  0.0000,  0.0000)
  41 H     11.681222   10.214310   18.264392    ( 0.0000,  0.0000,  0.0000)
  42 H     11.967566   12.625557   18.750735    ( 0.0000,  0.0000,  0.0000)
  43 H     10.703623   12.553537   19.993240    ( 0.0000,  0.0000,  0.0000)
  44 H      9.786525   10.033698   20.340514    ( 0.0000,  0.0000,  0.0000)
  45 H      9.343681   11.770612   18.134119    ( 0.0000,  0.0000,  0.0000)
  46 N      7.634121   10.828979   15.577082    ( 0.0000,  0.0000,  0.0000)
  47 N      8.558481   11.682322   15.647113    ( 0.0000,  0.0000,  0.0000)

Unit cell:
           periodic     x           y           z      points  spacing
  1. axis:    yes    9.702222    0.000000    0.000000    60     0.1617
  2. axis:    yes    0.000000    9.702222    0.000000    60     0.1617
  3. axis:    no     0.000000    0.000000   26.351111   164     0.1607

  Lengths:   9.702222   9.702222  26.351111
  Angles:   90.000000  90.000000  90.000000

Effective grid spacing dv^(1/3) = 0.1614

     iter     time        total  log10-change:
                         energy  eigst   dens
iter:   1 00:55:57  -328.563481  -0.73
iter:   2 00:56:05  -328.464500  -1.20  -1.54
iter:   3 00:56:13  -328.427869  -2.34  -1.76
iter:   4 00:56:21  -328.419718  -2.31  -2.07
Writing to output.gpw (mode='')

iter:   5 00:56:29  -328.417734c -1.70  -2.33
iter:   6 00:56:37  -328.417175c -2.25  -2.48
iter:   7 00:56:45  -328.416327c -2.51  -2.54
iter:   8 00:56:53  -328.415544c -3.19  -2.77
iter:   9 00:57:01  -328.415536c -3.51  -2.93
Writing to output.gpw (mode='')

iter:  10 00:57:09  -328.415495c -3.50  -3.00
iter:  11 00:57:17  -328.415625c -3.84  -3.14
iter:  12 00:57:25  -328.415669c -4.06  -3.31
iter:  13 00:57:33  -328.415604c -4.21  -3.39
iter:  14 00:57:41  -328.415663c -4.27  -3.52
Writing to output.gpw (mode='')

iter:  15 00:57:49  -328.415646c -4.72  -3.63
iter:  16 00:57:57  -328.415600c -4.56  -3.68
iter:  17 00:58:05  -328.415622c -5.14  -3.77
iter:  18 00:58:13  -328.415655c -4.78  -3.89
iter:  19 00:58:21  -328.415651c -5.25  -4.02c
Writing to output.gpw (mode='')

iter:  20 00:58:29  -328.415635c -5.32  -4.06c
iter:  21 00:58:37  -328.415647c -5.44  -4.27c
iter:  22 00:58:45  -328.415646c -5.70  -4.36c
iter:  23 00:58:53  -328.415637c -5.78  -4.39c
iter:  24 00:59:01  -328.415638c -6.10  -4.55c
Writing to output.gpw (mode='')

iter:  25 00:59:11  -328.415646c -5.72  -4.65c
iter:  26 00:59:19  -328.415646c -6.13  -4.63c
iter:  27 00:59:27  -328.415640c -6.25  -4.66c
iter:  28 00:59:35  -328.415642c -6.39  -4.94c
iter:  29 00:59:47  -328.415640c -6.37  -5.02c
Writing to output.gpw (mode='')

iter:  30 00:59:57  -328.415640c -6.67  -5.06c
iter:  31 01:00:05  -328.415640c -6.76  -5.13c
iter:  32 01:00:13  -328.415641c -6.91  -5.19c
iter:  33 01:00:21  -328.415641c -7.04  -5.35c
iter:  34 01:00:29  -328.415641c -7.10  -5.45c
Writing to output.gpw (mode='')

iter:  35 01:00:37  -328.415640c -7.17  -5.50c
iter:  36 01:00:45  -328.415640c -7.24  -5.60c
iter:  37 01:00:53  -328.415641c -7.47c -5.57c

Converged after 37 iterations.

Dipole moment: (-18.984350, -19.361764, 0.570713) |e|*Ang

Energy contributions relative to reference atoms: (reference = -16475.706344)

Kinetic:       +159.069819
Potential:     -151.492599
External:        +0.000000
XC:            -337.068755
Entropy (-ST):   -0.158313
Local:           +1.155051
--------------------------
Free energy:   -328.494797
Extrapolated:  -328.415641

Dipole-layer corrected work functions: 3.389573, 2.292468 eV

Showing only first 2 kpts
 Kpt  Band  Eigenvalues  Occupancy
  0    34     -3.07530    1.98171
  0    35     -2.89378    1.48355
  0    36     -2.80699    0.67229
  0    37     -2.61256    0.02052

  1    34     -3.07614    1.98201
  1    35     -2.93761    1.74690
  1    36     -2.78573    0.49734
  1    37     -2.62443    0.02595


Fermi level: -2.84102

No gap
Writing to output.gpw (mode='')


Forces in eV/Ang:
  0 Li   -0.00806    0.01319   -0.29851
  1 Li    0.00540   -0.00891   -0.29506
  2 Li    0.00000    0.00262   -0.24920
  3 Li    0.00183    0.00819   -0.28875
  4 Li   -0.01206    0.01278   -0.28801
  5 Li    0.01008   -0.00556   -0.29293
  6 Li    0.01205   -0.00934   -0.28945
  7 Li   -0.00834   -0.00538   -0.28471
  8 Li   -0.00402    0.00753   -0.29619
  9 Li   -0.02396    0.03713    0.28928
 10 Li   -0.04109    0.04012    0.32793
 11 Li    0.05800    0.03106    0.32251
 12 Li   -0.02906   -0.02058    0.26669
 13 Li    0.00903   -0.00801    0.31319
 14 Li    0.07208   -0.01898    0.26863
 15 Li   -0.02199   -0.03458    0.30104
 16 Li   -0.03311   -0.04172    0.31357
 17 Li    0.06216   -0.02878    0.28797
 18 Li   -0.01047    0.00692   -0.00154
 19 Li   -0.02228   -0.00865   -0.00039
 20 Li   -0.00363   -0.00917   -0.00263
 21 Li    0.00868   -0.00242   -0.00380
 22 Li   -0.00515   -0.01359    0.00731
 23 Li    0.01043    0.00119   -0.00550
 24 Li    0.00005   -0.00278   -0.01007
 25 Li    0.01204   -0.00592    0.00874
 26 Li   -0.01539   -0.02511   -0.01199
 27 Li    0.02845    0.00004    0.00750
 28 Li    0.00356   -0.00609   -0.00270
 29 Li    0.01666    0.00427   -0.00191
 30 Li    0.00247   -0.00012   -0.00681
 31 Li   -0.01275   -0.00104   -0.00405
 32 Li   -0.01166   -0.02103   -0.02284
 33 Li    0.00246    0.00481   -0.00982
 34 Li   -0.01200    0.00188   -0.01360
 35 Li   -0.00567   -0.01030    0.00391
 36 O    -0.04749    0.01167    0.00742
 37 O     0.01729    0.04292   -0.00148
 38 C     0.00047   -0.00672   -0.00124
 39 C    -0.01390    0.00820    0.02409
 40 H     0.00098    0.01097    0.01454
 41 H     0.01435    0.00744   -0.03026
 42 H    -0.00482   -0.00313   -0.02982
 43 H    -0.01566    0.00712    0.03794
 44 H     0.02662    0.01550   -0.02273
 45 H     0.03143    0.02022    0.00909
 46 N    -0.02167    0.02828    0.01145
 47 N    -0.00889   -0.01058    0.01683

Timing:                                      incl.     excl.
-------------------------------------------------------------------
Density initialized from wave functions:     9.879     9.874   0.0% |
 Symmetrize density:                         0.005     0.005   0.0% |
Forces:                                     65.377    65.377   0.1% |
Hamiltonian:                              1028.871     0.020   0.0% |
 Atomic:                                     0.036     0.036   0.0% |
  XC Correction:                             0.000     0.000   0.0% |
 Calculate atomic Hamiltonians:              0.060     0.060   0.0% |
 Communicate:                               16.703    16.703   0.0% |
 Hartree integrate/restrict:                 3.205     3.205   0.0% |
 Initialize Hamiltonian:                     0.000     0.000   0.0% |
 Poisson:                                   43.568    16.270   0.0% |
  Communicate from 1D:                       4.348     4.348   0.0% |
  Communicate from 2D:                       4.424     4.424   0.0% |
  Communicate to 1D:                         2.374     2.374   0.0% |
  Communicate to 2D:                         4.925     4.925   0.0% |
  FFT 1D:                                    5.635     5.635   0.0% |
  FFT 2D:                                    5.593     5.593   0.0% |
 XC 3D grid:                               964.580   141.203   0.3% |
  VdW-DF integral:                         823.377     5.943   0.0% |
   Convolution:                             65.636    65.636   0.1% |
   FFT:                                     28.256    28.256   0.1% |
   gather:                                 255.964   255.964   0.6% |
   hmm1:                                    23.620    23.620   0.1% |
   hmm2:                                    30.862    30.862   0.1% |
   iFFT:                                    29.077    29.077   0.1% |
   potential:                              380.304     5.256   0.0% |
    collect:                                54.974    54.974   0.1% |
    p1:                                    131.749   131.749   0.3% |
    p2:                                     57.938    57.938   0.1% |
    sum:                                   130.387   130.387   0.3% |
   splines:                                  3.716     3.716   0.0% |
 vbar:                                       0.699     0.699   0.0% |
LCAO initialization:                         1.128     0.183   0.0% |
 LCAO eigensolver:                           0.209     0.000   0.0% |
  Calculate projections:                     0.000     0.000   0.0% |
  DenseAtomicCorrection:                     0.000     0.000   0.0% |
  Distribute overlap matrix:                 0.193     0.193   0.0% |
  Orbital Layouts:                           0.014     0.014   0.0% |
  Potential matrix:                          0.001     0.001   0.0% |
  Sum over cells:                            0.001     0.001   0.0% |
 LCAO to grid:                               0.621     0.621   0.0% |
 Set positions (LCAO WFS):                   0.115     0.072   0.0% |
  Basic WFS set positions:                   0.001     0.001   0.0% |
  Basis functions set positions:             0.000     0.000   0.0% |
  P tci:                                     0.000     0.000   0.0% |
  ST tci:                                    0.012     0.012   0.0% |
  mktci:                                     0.030     0.030   0.0% |
Redistribute:                                0.108     0.108   0.0% |
SCF-cycle:                               44199.875   724.407   1.6% ||
 Davidson:                               10836.053  3231.547   7.1% |--|
  Apply hamiltonian:                       672.526   672.526   1.5% ||
  Subspace diag:                          2029.479     0.748   0.0% |
   calc_h_matrix:                         1006.644   314.839   0.7% |
    Apply hamiltonian:                     691.804   691.804   1.5% ||
   diagonalize:                            102.814   102.814   0.2% |
   rotate_psi:                             919.274   919.274   2.0% ||
  calc. matrices:                         3408.723  1781.449   3.9% |-|
   Apply hamiltonian:                     1627.274  1627.274   3.6% ||
  diagonalize:                              32.689    32.689   0.1% |
  rotate_psi:                             1461.088  1461.088   3.2% ||
 Density:                                  208.667     0.144   0.0% |
  Atomic density matrices:                  25.042    25.042   0.1% |
  Mix:                                      89.516    89.516   0.2% |
  Multipole moments:                        10.667    10.667   0.0% |
  Pseudo density:                           83.299    83.190   0.2% |
   Symmetrize density:                       0.109     0.109   0.0% |
 Hamiltonian:                            32400.183     0.659   0.0% |
  Atomic:                                    1.330     1.316   0.0% |
   XC Correction:                            0.014     0.014   0.0% |
  Calculate atomic Hamiltonians:             1.918     1.918   0.0% |
  Communicate:                             430.980   430.980   0.9% |
  Hartree integrate/restrict:              100.602   100.602   0.2% |
  Poisson:                                1374.472   505.426   1.1% |
   Communicate from 1D:                    133.937   133.937   0.3% |
   Communicate from 2D:                    137.370   137.370   0.3% |
   Communicate to 1D:                       77.666    77.666   0.2% |
   Communicate to 2D:                      156.468   156.468   0.3% |
   FFT 1D:                                 182.692   182.692   0.4% |
   FFT 2D:                                 180.913   180.913   0.4% |
  XC 3D grid:                            30467.723  4522.257   9.9% |---|
   VdW-DF integral:                      25945.466   192.364   0.4% |
    Convolution:                          2089.609  2089.609   4.6% |-|
    FFT:                                   909.659   909.659   2.0% ||
    gather:                               7977.968  7977.968  17.5% |------|
    hmm1:                                  747.790   747.790   1.6% ||
    hmm2:                                  981.133   981.133   2.2% ||
    iFFT:                                  936.906   936.906   2.1% ||
    potential:                           12109.993   169.439   0.4% |
     collect:                             1765.051  1765.051   3.9% |-|
     p1:                                  4206.417  4206.417   9.2% |---|
     p2:                                  1852.758  1852.758   4.1% |-|
     sum:                                 4116.328  4116.328   9.1% |---|
    splines:                                 0.044     0.044   0.0% |
  vbar:                                     22.499    22.499   0.0% |
 Orthonormalize:                            30.565     0.022   0.0% |
  calc_s_matrix:                             4.428     4.428   0.0% |
  inverse-cholesky:                          8.777     8.777   0.0% |
  projections:                               0.003     0.003   0.0% |
  rotate_psi_s:                             17.334    17.334   0.0% |
Set symmetry:                                0.002     0.002   0.0% |
Other:                                     176.905   176.905   0.4% |
-------------------------------------------------------------------
Total:                                             45482.144 100.0%

Memory usage: 1.12 GiB
Date: Sat Mar 11 01:00:54 2023
