
  ___ ___ ___ _ _ _  
 |   |   |_  | | | | 
 | | | | | . | | | | 
 |__ |  _|___|_____|  22.8.0
 |___|_|             

User:   vazumah@r154.ib.bridges2.psc.edu
Date:   Wed Mar  8 21:29:12 2023
Arch:   x86_64
Pid:    73099
CWD:    /jet/home/vazumah/Calcs/N2_with_proton_donor/CH3CH2OH_y/bridge/8.085_1.617/N2_y
Python: 3.11.0
gpaw:   /jet/home/vazumah/.conda/envs/GPAW_mpich/lib/python3.11/site-packages/gpaw
_gpaw:  /jet/home/vazumah/.conda/envs/GPAW_mpich/lib/python3.11/site-packages/
        _gpaw.cpython-311-x86_64-linux-gnu.so
ase:    /jet/home/vazumah/.conda/envs/GPAW_mpich/lib/python3.11/site-packages/ase (version 3.22.1)
numpy:  /jet/home/vazumah/.conda/envs/GPAW_mpich/lib/python3.11/site-packages/numpy (version 1.24.2)
scipy:  /jet/home/vazumah/.conda/envs/GPAW_mpich/lib/python3.11/site-packages/scipy (version 1.10.1)
libxc:  5.2.3
units:  Angstrom and eV
cores: 128
OpenMP: True
OMP_NUM_THREADS: 1

Input parameters:
  h: 0.16
  kpts: {size: [4, 4, 1]}
  occupations: {name: fermi-dirac,
                width: 0.05}
  poissonsolver: {dipolelayer: xy}
  xc: BEEF-vdW

System changes: positions, numbers, cell, pbc, initial_charges, initial_magmoms 

Initialize ...

species:
  Li:
    name: Lithium
    id: 830b4218f175192f93f959cfc0aad614
    Z: 3.0
    valence: 1
    core: 2
    charge: 0.0
    file: /jet/home/vazumah/datasets/gpaw-setups-0.9.20000/Li.PBE.gz
    compensation charges: {type: gauss,
                           rc: 0.33,
                           lmax: 2}
    cutoffs: {filter: 1.91,
              core: 2.55}
    valence states:
      #              energy  rcut
      - 2s(1.00)    -2.874   1.058
      - 2p(0.00)    -1.090   1.058
      -  s          24.337   1.058
  
    # Using partial waves for Li as LCAO basis

  O:
    name: Oxygen
    id: 32ecd46bf208036f09c70b0ec9a88b78
    Z: 8.0
    valence: 6
    core: 2
    charge: 0.0
    file: /jet/home/vazumah/datasets/gpaw-setups-0.9.20000/O.PBE.gz
    compensation charges: {type: gauss,
                           rc: 0.21,
                           lmax: 2}
    cutoffs: {filter: 1.17,
              core: 0.83}
    valence states:
      #              energy  rcut
      - 2s(2.00)   -23.961   0.688
      - 2p(4.00)    -9.029   0.598
      -  s           3.251   0.688
      -  p          18.182   0.598
      -  d           0.000   0.619
  
    # Using partial waves for O as LCAO basis

  C:
    name: Carbon
    id: 4aa54d4b901d75f77cc0ea3eec22967b
    Z: 6.0
    valence: 4
    core: 2
    charge: 0.0
    file: /jet/home/vazumah/datasets/gpaw-setups-0.9.20000/C.PBE.gz
    compensation charges: {type: gauss,
                           rc: 0.20,
                           lmax: 2}
    cutoffs: {filter: 1.14,
              core: 1.14}
    valence states:
      #              energy  rcut
      - 2s(2.00)   -13.751   0.635
      - 2p(2.00)    -5.284   0.635
      -  s          13.461   0.635
      -  p          21.927   0.635
      -  d           0.000   0.635
  
    # Using partial waves for C as LCAO basis

  H:
    name: Hydrogen
    id: d65de229564ff8ea4db303e23b6d1ecf
    Z: 1.0
    valence: 1
    core: 0
    charge: 0.0
    file: /jet/home/vazumah/datasets/gpaw-setups-0.9.20000/H.PBE.gz
    compensation charges: {type: gauss,
                           rc: 0.15,
                           lmax: 2}
    cutoffs: {filter: 0.85,
              core: 0.53}
    valence states:
      #              energy  rcut
      - 1s(1.00)    -6.494   0.476
      -  s          20.717   0.476
      -  p           0.000   0.476
  
    # Using partial waves for H as LCAO basis

  N:
    name: Nitrogen
    id: f7500608b86eaa90eef8b1d9a670dc53
    Z: 7.0
    valence: 5
    core: 2
    charge: 0.0
    file: /jet/home/vazumah/datasets/gpaw-setups-0.9.20000/N.PBE.gz
    compensation charges: {type: gauss,
                           rc: 0.18,
                           lmax: 2}
    cutoffs: {filter: 1.11,
              core: 0.96}
    valence states:
      #              energy  rcut
      - 2s(2.00)   -18.583   0.603
      - 2p(3.00)    -7.089   0.529
      -  s           8.629   0.603
      -  p          20.123   0.529
      -  d           0.000   0.577
  
    # Using partial waves for N as LCAO basis

Reference energy: -14434.854043  # eV

Spin-paired calculation

Convergence criteria:
 Maximum [total energy] change in last 3 cyles: 0.0005 eV / electron
 Maximum integral of absolute [dens]ity change: 0.0001 electrons / valence electron
 Maximum integral of absolute [eigenst]ate change: 4e-08 eV^2 / valence electron
 Maximum number of scf [iter]ations: 333
 (Square brackets indicate name in SCF output, whereas a 'c' in
 the SCF output indicates the quantity has converged.)

Symmetries present (total): 1

  ( 1  0  0)
  ( 0  1  0)
  ( 0  0  1)

16 k-points: 4 x 4 x 1 Monkhorst-Pack grid
8 k-points in the irreducible part of the Brillouin zone
       k-points in crystal coordinates                weights
   0:     0.12500000   -0.37500000    0.00000000          2/16
   1:     0.12500000   -0.12500000    0.00000000          2/16
   2:     0.12500000    0.12500000    0.00000000          2/16
   3:     0.12500000    0.37500000    0.00000000          2/16
   4:     0.37500000   -0.37500000    0.00000000          2/16
   5:     0.37500000   -0.12500000    0.00000000          2/16
   6:     0.37500000    0.12500000    0.00000000          2/16
   7:     0.37500000    0.37500000    0.00000000          2/16

Wave functions: Uniform real-space grid
  Kinetic energy operator: 6*3+1=19 point O(h^6) finite-difference Laplacian
  ScaLapack parameters: grid=1x1, blocksize=None
  Wavefunction extrapolation:
    Improved wavefunction reuse through dual PAW basis 

Occupation numbers: Fermi-Dirac:
  width: 0.0500  # eV
 

Eigensolver
   Davidson(niter=2) 

Densities:
  Coarse grid: 60*60*164 grid
  Fine grid: 120*120*328 grid
  Total Charge: 0.000000 

Density mixing:
  Method: separate
  Backend: pulay
  Linear mixing parameter: 0.05
  old densities: 5
  Damping of long wavelength oscillations: 50 

Hamiltonian:
  XC and Coulomb potentials evaluated on a 120*120*328 grid
  Using the BEEF-vdW Exchange-Correlation functional
  Interpolation: tri-quintic (5. degree polynomial)
  Poisson solver: FastPoissonSolver using
    Stencil: 6*3+1=19 point O(h^6) finite-difference Laplacian
    FFT axes: [0, 1]
    FST axes: [2]

Dipole correction along z-axis 

XC parameters: BEEF-vdW with 2 nearest neighbor stencil

Memory estimate:
  Process memory now: 127.22 MiB
  Calculator: 80.22 MiB
    Density: 22.47 MiB
      Arrays: 7.22 MiB
      Localized functions: 12.50 MiB
      Mixer: 2.75 MiB
    Hamiltonian: 5.71 MiB
      Arrays: 4.72 MiB
      XC: 0.00 MiB
      Poisson: 0.00 MiB
      vbar: 0.99 MiB
    Wavefunctions: 52.04 MiB
      Arrays psit_nG: 24.17 MiB
      Eigensolver: 27.21 MiB
      Projections: 0.01 MiB
      Projectors: 0.65 MiB

Total number of cores used: 128
Parallelization over k-points: 8
Domain decomposition: 2 x 2 x 4

Number of atoms: 47
Number of atomic orbitals: 170
Number of bands in calculation: 44
Number of valence electrons: 66
Bands to converge: occupied

... initialized

Initializing position-dependent things.

Density initialized from atomic densities
Creating initial wave functions:
  44 bands from LCAO basis set

       .-----------------------.  
      /|                       |  
     / |                       |  
    /  |                       |  
   /   |                       |  
  /    |                       |  
 *     |                       |  
 |     |                       |  
 |     |                       |  
 |     |                       |  
 |     |                       |  
 |     |                       |  
 |     |              H        |  
 |     |                C H    |  
 |     |             HH  C     |  
 |   Li|     Li      LO   H    |  
 |     |              NN       |  
 | Li  |  LLi     LLi     Li   |  
 |     |                       |  
 Li    |LLi     LLi     Li     |  
 |   Li|     Li      Li        |  
 |    Li  Li  Li  Li  Li  Li   |  
 | Li  |   Li      Li          |  
 |     |Li      Li      Li     |  
 Li    | Li      Li            |  
 |    Li      Li      Li       |  
 |     |                       |  
 |     |                       |  
 |     |                       |  
 |     |                       |  
 |     |                       |  
 |     |                       |  
 |     .-----------------------.  
 |    /                       /   
 |   /                       /    
 |  /                       /     
 | /                       /      
 |/                       /       
 *-----------------------*        

Positions:
   0 Li     1.617037    1.617037   10.000000    ( 0.0000,  0.0000,  0.0000)
   1 Li     4.851111    1.617037   10.000000    ( 0.0000,  0.0000,  0.0000)
   2 Li     8.085185    1.617037   10.000000    ( 0.0000,  0.0000,  0.0000)
   3 Li     1.617037    4.851111   10.000000    ( 0.0000,  0.0000,  0.0000)
   4 Li     4.851111    4.851111   10.000000    ( 0.0000,  0.0000,  0.0000)
   5 Li     8.085185    4.851111   10.000000    ( 0.0000,  0.0000,  0.0000)
   6 Li     1.617037    8.085185   10.000000    ( 0.0000,  0.0000,  0.0000)
   7 Li     4.851111    8.085185   10.000000    ( 0.0000,  0.0000,  0.0000)
   8 Li     8.085185    8.085185   10.000000    ( 0.0000,  0.0000,  0.0000)
   9 Li     0.000000    0.000000   11.617037    ( 0.0000,  0.0000,  0.0000)
  10 Li     3.234074    0.000000   11.617037    ( 0.0000,  0.0000,  0.0000)
  11 Li     6.468148    0.000000   11.617037    ( 0.0000,  0.0000,  0.0000)
  12 Li     0.000000    3.234074   11.617037    ( 0.0000,  0.0000,  0.0000)
  13 Li     3.234074    3.234074   11.617037    ( 0.0000,  0.0000,  0.0000)
  14 Li     6.468148    3.234074   11.617037    ( 0.0000,  0.0000,  0.0000)
  15 Li     0.000000    6.468148   11.617037    ( 0.0000,  0.0000,  0.0000)
  16 Li     3.234074    6.468148   11.617037    ( 0.0000,  0.0000,  0.0000)
  17 Li     6.468148    6.468148   11.617037    ( 0.0000,  0.0000,  0.0000)
  18 Li     1.617038    1.617038   13.469728    ( 0.0000,  0.0000,  0.0000)
  19 Li     4.851111    1.617038   13.469729    ( 0.0000,  0.0000,  0.0000)
  20 Li     8.085184    1.617038   13.469728    ( 0.0000,  0.0000,  0.0000)
  21 Li     1.617038    4.851111   13.469729    ( 0.0000,  0.0000,  0.0000)
  22 Li     4.851111    4.851111   13.469730    ( 0.0000,  0.0000,  0.0000)
  23 Li     8.085184    4.851111   13.469729    ( 0.0000,  0.0000,  0.0000)
  24 Li     1.617038    8.085184   13.469728    ( 0.0000,  0.0000,  0.0000)
  25 Li     4.851111    8.085184   13.469729    ( 0.0000,  0.0000,  0.0000)
  26 Li     8.085184    8.085184   13.469728    ( 0.0000,  0.0000,  0.0000)
  27 Li    -0.000000   -0.000000   15.445939    ( 0.0000,  0.0000,  0.0000)
  28 Li     3.234074    0.000000   15.445939    ( 0.0000,  0.0000,  0.0000)
  29 Li     6.468148    0.000000   15.445939    ( 0.0000,  0.0000,  0.0000)
  30 Li     0.000000    3.234074   15.445939    ( 0.0000,  0.0000,  0.0000)
  31 Li     3.234076    3.234076   15.445938    ( 0.0000,  0.0000,  0.0000)
  32 Li     6.468146    3.234076   15.445938    ( 0.0000,  0.0000,  0.0000)
  33 Li     0.000000    6.468148   15.445939    ( 0.0000,  0.0000,  0.0000)
  34 Li     3.234076    6.468146   15.445938    ( 0.0000,  0.0000,  0.0000)
  35 Li     6.468146    6.468146   15.445938    ( 0.0000,  0.0000,  0.0000)
  36 O      8.085185    1.617037   18.445939    ( 0.0000,  0.0000,  0.0000)
  37 C      8.901943    2.799444   18.450238    ( 0.0000,  0.0000,  0.0000)
  38 C      8.082324    4.083659   18.435704    ( 0.0000,  0.0000,  0.0000)
  39 H      9.585478    2.790821   19.310398    ( 0.0000,  0.0000,  0.0000)
  40 H      9.511668    2.724056   17.547442    ( 0.0000,  0.0000,  0.0000)
  41 H      8.736271    4.960586   18.420269    ( 0.0000,  0.0000,  0.0000)
  42 H      7.433301    4.118370   17.558886    ( 0.0000,  0.0000,  0.0000)
  43 H      7.453837    4.153847   19.328265    ( 0.0000,  0.0000,  0.0000)
  44 H      7.502208    1.656204   19.214164    ( 0.0000,  0.0000,  0.0000)
  45 N      8.085000    1.617000   16.945939    ( 0.0000,  0.0000,  0.0000)
  46 N      8.085000    2.713622   16.945939    ( 0.0000,  0.0000,  0.0000)

Unit cell:
           periodic     x           y           z      points  spacing
  1. axis:    yes    9.702222    0.000000    0.000000    60     0.1617
  2. axis:    yes    0.000000    9.702222    0.000000    60     0.1617
  3. axis:    no     0.000000    0.000000   26.351111   164     0.1607

  Lengths:   9.702222   9.702222  26.351111
  Angles:   90.000000  90.000000  90.000000

Effective grid spacing dv^(1/3) = 0.1614

     iter     time        total  log10-change:
                         energy  eigst   dens
iter:   1 21:29:30  -521.489998
iter:   2 21:29:38  -134.662899  +2.52  -0.02
iter:   3 21:29:46  -136.525369  +3.17  -0.23
iter:   4 21:29:53  -252.683826  +3.07  -0.33
Writing to output.gpw (mode='')

iter:   5 21:30:00  -264.162044  +2.59  -0.37
iter:   6 21:30:07  -290.538218  +2.29  -0.69
iter:   7 21:30:14  -304.391075  +1.99  -0.72
iter:   8 21:30:21  -311.505348  +1.64  -0.71
iter:   9 21:30:29  -318.928237  +1.65  -0.69
Writing to output.gpw (mode='')

iter:  10 21:30:36  -355.651992  +2.03  -0.59
iter:  11 21:30:43  -336.079650  +1.62  -0.57
iter:  12 21:30:50  -308.454277  +1.13  -0.63
iter:  13 21:30:57  -301.871616  +1.21  -0.79
iter:  14 21:31:04  -306.195192  +1.09  -0.82
Writing to output.gpw (mode='')

iter:  15 21:31:11  -302.850191  +0.27  -0.72
iter:  16 21:31:18  -302.183641  +0.51  -0.80
iter:  17 21:31:26  -301.226975  +0.24  -0.86
iter:  18 21:31:33  -299.220416  +0.52  -0.93
iter:  19 21:31:42  -298.946886  +0.62  -1.04
Writing to output.gpw (mode='')

iter:  20 21:31:51  -298.455894  -0.03  -1.07
iter:  21 21:32:03  -298.397483  +0.16  -1.24
iter:  22 21:32:14  -298.361976  -0.15  -1.36
iter:  23 21:32:21  -298.361256  -0.33  -1.46
iter:  24 21:32:28  -298.333858c -1.11  -1.57
Writing to output.gpw (mode='')

iter:  25 21:32:35  -298.404359  -0.53  -1.63
iter:  26 21:32:43  -298.343549  -1.08  -1.63
iter:  27 21:32:50  -298.315660  -0.86  -1.79
iter:  28 21:32:57  -298.304054  -1.30  -1.95
iter:  29 21:33:04  -298.302122c -1.32  -2.08
Writing to output.gpw (mode='')

iter:  30 21:33:11  -298.309789c -1.49  -2.24
iter:  31 21:33:18  -298.308497c -1.94  -2.17
iter:  32 21:33:25  -298.308871c -1.86  -2.34
iter:  33 21:33:33  -298.309812c -2.10  -2.45
iter:  34 21:33:40  -298.310821c -2.12  -2.49
Writing to output.gpw (mode='')

iter:  35 21:33:47  -298.311983c -2.24  -2.62
iter:  36 21:33:54  -298.312782c -2.23  -2.73
iter:  37 21:34:01  -298.313133c -2.51  -2.77
iter:  38 21:34:08  -298.313428c -2.49  -2.78
iter:  39 21:34:15  -298.313659c -2.78  -2.93
Writing to output.gpw (mode='')

iter:  40 21:34:29  -298.313978c -2.66  -2.97
iter:  41 21:34:38  -298.314348c -2.88  -3.07
iter:  42 21:34:45  -298.314532c -2.83  -3.10
iter:  43 21:34:52  -298.314743c -3.18  -3.26
iter:  44 21:34:59  -298.314808c -3.12  -3.38
Writing to output.gpw (mode='')

iter:  45 21:35:06  -298.314945c -3.03  -3.47
iter:  46 21:35:14  -298.315056c -3.26  -3.53
iter:  47 21:35:21  -298.315134c -3.05  -3.51
iter:  48 21:35:28  -298.315238c -3.38  -3.34
iter:  49 21:35:35  -298.315321c -3.42  -3.35
Writing to output.gpw (mode='')

iter:  50 21:35:42  -298.315423c -3.55  -3.36
iter:  51 21:35:49  -298.315545c -3.47  -3.54
iter:  52 21:35:56  -298.315555c -3.73  -3.76
iter:  53 21:36:03  -298.315611c -3.75  -3.77
iter:  54 21:36:10  -298.315632c -3.76  -3.84
Writing to output.gpw (mode='')

iter:  55 21:36:18  -298.315665c -3.91  -3.96
iter:  56 21:36:25  -298.315661c -3.95  -4.09c
iter:  57 21:36:32  -298.315694c -4.02  -4.11c
iter:  58 21:36:39  -298.315707c -4.25  -4.26c
iter:  59 21:36:46  -298.315719c -4.18  -4.30c
Writing to output.gpw (mode='')

iter:  60 21:36:53  -298.315726c -4.42  -4.46c
iter:  61 21:37:00  -298.315734c -3.99  -4.53c
iter:  62 21:37:08  -298.315739c -4.42  -4.57c
iter:  63 21:37:18  -298.315744c -4.52  -4.52c
iter:  64 21:37:25  -298.315748c -4.58  -4.53c
Writing to output.gpw (mode='')

iter:  65 21:37:32  -298.315749c -4.30  -4.49c
iter:  66 21:37:39  -298.315752c -4.77  -4.40c
iter:  67 21:37:46  -298.315755c -4.46  -4.37c
iter:  68 21:37:53  -298.315756c -4.52  -4.31c
iter:  69 21:38:00  -298.315758c -4.90  -4.28c
Writing to output.gpw (mode='')

iter:  70 21:38:07  -298.315761c -5.01  -4.25c
iter:  71 21:38:14  -298.315763c -4.84  -4.26c
iter:  72 21:38:21  -298.315762c -4.80  -4.26c
iter:  73 21:38:29  -298.315762c -4.81  -4.22c
iter:  74 21:38:36  -298.315772c -5.18  -4.18c
Writing to output.gpw (mode='')

iter:  75 21:38:43  -298.315774c -5.19  -4.24c
iter:  76 21:38:50  -298.315774c -5.38  -4.27c
iter:  77 21:38:57  -298.315777c -5.34  -4.21c
iter:  78 21:39:04  -298.315785c -5.31  -4.34c
iter:  79 21:39:11  -298.315790c -5.34  -4.52c
Writing to output.gpw (mode='')

iter:  80 21:39:18  -298.315790c -5.50  -4.67c
iter:  81 21:39:33  -298.315791c -5.39  -4.71c
iter:  82 21:39:40  -298.315790c -5.63  -4.81c
iter:  83 21:39:47  -298.315790c -5.65  -4.85c
iter:  84 21:39:54  -298.315791c -5.68  -4.89c
Writing to output.gpw (mode='')

iter:  85 21:40:02  -298.315792c -5.83  -4.98c
iter:  86 21:40:09  -298.315790c -5.87  -5.17c
iter:  87 21:40:16  -298.315790c -5.94  -5.28c
iter:  88 21:40:23  -298.315791c -6.05  -5.32c
iter:  89 21:40:30  -298.315791c -6.21  -5.40c
Writing to output.gpw (mode='')

iter:  90 21:40:37  -298.315790c -6.21  -5.45c
iter:  91 21:40:44  -298.315791c -6.22  -5.47c
iter:  92 21:40:52  -298.315791c -6.01  -5.63c
iter:  93 21:40:59  -298.315791c -6.21  -5.77c
iter:  94 21:41:06  -298.315791c -6.32  -5.87c
Writing to output.gpw (mode='')

iter:  95 21:41:13  -298.315792c -6.39  -5.99c
iter:  96 21:41:20  -298.315791c -6.41  -6.07c
iter:  97 21:41:27  -298.315791c -6.46  -6.09c
iter:  98 21:41:35  -298.315791c -6.49  -6.04c
iter:  99 21:41:42  -298.315792c -6.64  -5.92c
Writing to output.gpw (mode='')

iter: 100 21:41:49  -298.315791c -6.67  -5.94c
iter: 101 21:41:56  -298.315791c -6.69  -5.95c
iter: 102 21:42:03  -298.315791c -6.80  -5.90c
iter: 103 21:42:10  -298.315791c -6.83  -5.84c
iter: 104 21:42:17  -298.315791c -6.76  -5.81c
Writing to output.gpw (mode='')

iter: 105 21:42:25  -298.315791c -6.89  -5.82c
iter: 106 21:42:32  -298.315791c -6.93  -5.77c
iter: 107 21:42:39  -298.315791c -7.00  -5.67c
iter: 108 21:42:46  -298.315791c -7.04  -5.62c
iter: 109 21:42:53  -298.315791c -7.10  -5.73c
Writing to output.gpw (mode='')

iter: 110 21:43:00  -298.315791c -7.21  -5.66c
iter: 111 21:43:08  -298.315791c -7.12  -5.62c
iter: 112 21:43:15  -298.315791c -7.27  -5.83c
iter: 113 21:43:22  -298.315791c -7.22  -5.81c
iter: 114 21:43:29  -298.315791c -7.21  -5.65c
Writing to output.gpw (mode='')

iter: 115 21:43:36  -298.315792c -7.22  -5.80c
iter: 116 21:43:43  -298.315792c -7.41c -5.84c

Converged after 116 iterations.

Dipole moment: (4.974110, -3.282368, 0.394823) |e|*Ang

Energy contributions relative to reference atoms: (reference = -14434.854043)

Kinetic:       +199.902569
Potential:     -175.719268
External:        +0.000000
XC:            -323.155046
Entropy (-ST):   -0.155474
Local:           +0.733691
--------------------------
Free energy:   -298.393528
Extrapolated:  -298.315792

Dipole-layer corrected work functions: 3.375009, 2.616024 eV

Showing only first 2 kpts
 Kpt  Band  Eigenvalues  Occupancy
  0    31     -3.24484    1.98643
  0    32     -3.15544    1.92156
  0    33     -2.86571    0.13879
  0    34     -2.75589    0.01645

  1    31     -3.05621    1.54195
  1    32     -2.98636    0.90869
  1    33     -2.97221    0.77104
  1    34     -2.90307    0.27199


Fermi level: -2.99552

No gap
Writing to output.gpw (mode='')


Forces in eV/Ang:
  0 Li    0.02106    0.00440   -0.26986
  1 Li   -0.02399    0.00394   -0.27177
  2 Li    0.00240   -0.00564   -0.28203
  3 Li    0.00794   -0.00383   -0.27672
  4 Li   -0.00398    0.00013   -0.27838
  5 Li   -0.00083    0.02538   -0.27731
  6 Li    0.00020   -0.00140   -0.27322
  7 Li    0.00536   -0.00383   -0.27632
  8 Li   -0.00205   -0.02055   -0.26774
  9 Li   -0.00133   -0.01056    0.29934
 10 Li   -0.00142    0.01827    0.25079
 11 Li    0.00596   -0.00861    0.29497
 12 Li   -0.00752    0.00182    0.31769
 13 Li   -0.00348   -0.01060    0.23533
 14 Li    0.01324   -0.00243    0.32121
 15 Li   -0.00516    0.00931    0.24030
 16 Li   -0.00036   -0.00644    0.27890
 17 Li   -0.00021    0.01174    0.23745
 18 Li   -0.02151    0.01183    0.06785
 19 Li    0.01200    0.00601    0.03295
 20 Li    0.00653   -0.02214   -0.24733
 21 Li   -0.03494   -0.02026    0.06292
 22 Li    0.03321   -0.03136    0.06627
 23 Li   -0.00098    0.05230   -0.05700
 24 Li   -0.00687    0.00838    0.03268
 25 Li    0.00455    0.02424    0.05065
 26 Li   -0.00296   -0.01399    0.04255
 27 Li    0.00124   -0.04892    0.06605
 28 Li   -0.01564    0.03643   -0.00063
 29 Li    0.00800   -0.04031    0.03445
 30 Li   -0.05936    0.05307   -0.26094
 31 Li   -0.01932   -0.01761   -0.00259
 32 Li    0.03866    0.01393   -0.10935
 33 Li    0.02966    0.04769   -0.07494
 34 Li    0.00143   -0.01819   -0.00419
 35 Li   -0.02639    0.05026   -0.05929
 36 O     1.84371   -3.46527   11.56587
 37 C     2.40401    2.98426    3.89549
 38 C    -0.18895    2.26736    2.48636
 39 H    -0.25747   -0.33869    0.71637
 40 H     2.34737    0.56535    1.89388
 41 H     0.13282    0.05454    0.19360
 42 H    -0.14449    1.31100    1.29661
 43 H     0.10135    0.04284    0.30784
 44 H    -0.94410   -0.65199    1.37659
 45 N    -2.86255   -8.95116   -8.95037
 46 N    -2.37105    6.02676  -14.40284

System changes: positions 

Initializing position-dependent things.

Density initialized from wave functions
       .-----------------------.  
      /|                       |  
     / |                       |  
    /  |                       |  
   /   |                       |  
  /    |                       |  
 *     |                       |  
 |     |                       |  
 |     |                       |  
 |     |                       |  
 |     |                       |  
 |     |                       |  
 |     |              H        |  
 |     Li              LC H    |  
 |     |             HH  C     |  
 |   Li|     Li      LO   H    |  
 |     |              NN       |  
 |     |  LLi     LLi     LLi  |  
 |     |                       |  
 |     |LLi     Li      Li     |  
 |   Li|     Li      Li        |  
 |    Li  Li  Li  Li  Li  Li   |  
 | Li  |   Li      Li          |  
 |     |Li      Li      Li     |  
 Li    | Li      Li            |  
 |    Li      Li      Li       |  
 |     |                       |  
 |     |                       |  
 |     |                       |  
 |     |                       |  
 |     |                       |  
 |     |                       |  
 |     .-----------------------.  
 |    /                       /   
 |   /                       /    
 |  /                       /     
 | /                       /      
 |/                       /       
 *-----------------------*        

Positions:
   0 Li     1.617037    1.617037   10.000000    ( 0.0000,  0.0000,  0.0000)
   1 Li     4.851111    1.617037   10.000000    ( 0.0000,  0.0000,  0.0000)
   2 Li     8.085185    1.617037   10.000000    ( 0.0000,  0.0000,  0.0000)
   3 Li     1.617037    4.851111   10.000000    ( 0.0000,  0.0000,  0.0000)
   4 Li     4.851111    4.851111   10.000000    ( 0.0000,  0.0000,  0.0000)
   5 Li     8.085185    4.851111   10.000000    ( 0.0000,  0.0000,  0.0000)
   6 Li     1.617037    8.085185   10.000000    ( 0.0000,  0.0000,  0.0000)
   7 Li     4.851111    8.085185   10.000000    ( 0.0000,  0.0000,  0.0000)
   8 Li     8.085185    8.085185   10.000000    ( 0.0000,  0.0000,  0.0000)
   9 Li     0.000000    0.000000   11.617037    ( 0.0000,  0.0000,  0.0000)
  10 Li     3.234074    0.000000   11.617037    ( 0.0000,  0.0000,  0.0000)
  11 Li     6.468148    0.000000   11.617037    ( 0.0000,  0.0000,  0.0000)
  12 Li     0.000000    3.234074   11.617037    ( 0.0000,  0.0000,  0.0000)
  13 Li     3.234074    3.234074   11.617037    ( 0.0000,  0.0000,  0.0000)
  14 Li     6.468148    3.234074   11.617037    ( 0.0000,  0.0000,  0.0000)
  15 Li     0.000000    6.468148   11.617037    ( 0.0000,  0.0000,  0.0000)
  16 Li     3.234074    6.468148   11.617037    ( 0.0000,  0.0000,  0.0000)
  17 Li     6.468148    6.468148   11.617037    ( 0.0000,  0.0000,  0.0000)
  18 Li     1.616984    1.617068   13.469900    ( 0.0000,  0.0000,  0.0000)
  19 Li     4.851141    1.617054   13.469813    ( 0.0000,  0.0000,  0.0000)
  20 Li     8.085200    1.616982   13.469101    ( 0.0000,  0.0000,  0.0000)
  21 Li     1.616950    4.851060   13.469889    ( 0.0000,  0.0000,  0.0000)
  22 Li     4.851195    4.851032   13.469898    ( 0.0000,  0.0000,  0.0000)
  23 Li     8.085181    4.851243   13.469585    ( 0.0000,  0.0000,  0.0000)
  24 Li     1.617021    8.085205   13.469811    ( 0.0000,  0.0000,  0.0000)
  25 Li     4.851123    8.085245   13.469858    ( 0.0000,  0.0000,  0.0000)
  26 Li     8.085176    8.085148   13.469836    ( 0.0000,  0.0000,  0.0000)
  27 Li     0.000003   -0.000124   15.446107    ( 0.0000,  0.0000,  0.0000)
  28 Li     3.234034    0.000092   15.445937    ( 0.0000,  0.0000,  0.0000)
  29 Li     6.468169   -0.000102   15.446026    ( 0.0000,  0.0000,  0.0000)
  30 Li    -0.000150    3.234208   15.445278    ( 0.0000,  0.0000,  0.0000)
  31 Li     3.234028    3.234032   15.445932    ( 0.0000,  0.0000,  0.0000)
  32 Li     6.468243    3.234112   15.445661    ( 0.0000,  0.0000,  0.0000)
  33 Li     0.000075    6.468269   15.445749    ( 0.0000,  0.0000,  0.0000)
  34 Li     3.234080    6.468099   15.445927    ( 0.0000,  0.0000,  0.0000)
  35 Li     6.468079    6.468273   15.445788    ( 0.0000,  0.0000,  0.0000)
  36 O      8.089855    1.608260   18.475235    ( 0.0000,  0.0000,  0.0000)
  37 C      8.908032    2.807003   18.460105    ( 0.0000,  0.0000,  0.0000)
  38 C      8.081845    4.089402   18.442002    ( 0.0000,  0.0000,  0.0000)
  39 H      9.584826    2.789963   19.312212    ( 0.0000,  0.0000,  0.0000)
  40 H      9.517614    2.725488   17.552239    ( 0.0000,  0.0000,  0.0000)
  41 H      8.736607    4.960724   18.420760    ( 0.0000,  0.0000,  0.0000)
  42 H      7.432935    4.121691   17.562170    ( 0.0000,  0.0000,  0.0000)
  43 H      7.454093    4.153955   19.329045    ( 0.0000,  0.0000,  0.0000)
  44 H      7.499817    1.654552   19.217651    ( 0.0000,  0.0000,  0.0000)
  45 N      8.077749    1.594327   16.923269    ( 0.0000,  0.0000,  0.0000)
  46 N      8.078994    2.728887   16.909458    ( 0.0000,  0.0000,  0.0000)

Unit cell:
           periodic     x           y           z      points  spacing
  1. axis:    yes    9.702222    0.000000    0.000000    60     0.1617
  2. axis:    yes    0.000000    9.702222    0.000000    60     0.1617
  3. axis:    no     0.000000    0.000000   26.351111   164     0.1607

  Lengths:   9.702222   9.702222  26.351111
  Angles:   90.000000  90.000000  90.000000

Effective grid spacing dv^(1/3) = 0.1614

     iter     time        total  log10-change:
                         energy  eigst   dens
iter:   1 21:43:52  -300.313953  -0.38
iter:   2 21:43:59  -300.047061  -0.67  -1.35
iter:   3 21:44:06  -299.810256  -0.73  -1.33
iter:   4 21:44:14  -299.731548  -1.19  -1.58
Writing to output.gpw (mode='')

iter:   5 21:44:21  -299.729899  -1.22  -1.91
iter:   6 21:44:34  -299.711858c -1.13  -1.94
iter:   7 21:44:41  -299.721459c -1.42  -2.07
iter:   8 21:44:48  -299.719328c -1.85  -2.19
iter:   9 21:44:55  -299.707549c -2.21  -2.21
Writing to output.gpw (mode='')

iter:  10 21:45:03  -299.707570c -2.51  -2.50
iter:  11 21:45:10  -299.707187c -2.67  -2.51
iter:  12 21:45:17  -299.706780c -2.77  -2.67
iter:  13 21:45:24  -299.707205c -2.71  -2.79
iter:  14 21:45:32  -299.707345c -3.27  -3.09
Writing to output.gpw (mode='')

iter:  15 21:45:39  -299.707056c -3.57  -3.04
iter:  16 21:45:46  -299.707178c -3.71  -3.12
iter:  17 21:45:53  -299.707313c -3.84  -3.24
iter:  18 21:46:00  -299.707282c -3.91  -3.34
iter:  19 21:46:08  -299.707214c -4.11  -3.51
Writing to output.gpw (mode='')

iter:  20 21:46:15  -299.707313c -4.35  -3.62
iter:  21 21:46:22  -299.707264c -4.33  -3.73
iter:  22 21:46:29  -299.707297c -4.45  -3.84
iter:  23 21:46:36  -299.707290c -4.69  -3.93
iter:  24 21:46:44  -299.707310c -4.78  -3.98
Writing to output.gpw (mode='')

iter:  25 21:46:51  -299.707300c -4.98  -4.08c
iter:  26 21:46:58  -299.707286c -4.87  -4.20c
iter:  27 21:47:05  -299.707309c -5.11  -4.27c
iter:  28 21:47:13  -299.707302c -5.22  -4.37c
iter:  29 21:47:20  -299.707300c -5.18  -4.41c
Writing to output.gpw (mode='')

iter:  30 21:47:27  -299.707306c -5.43  -4.57c
iter:  31 21:47:34  -299.707309c -5.52  -4.57c
iter:  32 21:47:42  -299.707307c -5.59  -4.56c
iter:  33 21:47:49  -299.707309c -5.62  -4.59c
iter:  34 21:47:56  -299.707309c -5.91  -4.61c
Writing to output.gpw (mode='')

iter:  35 21:48:03  -299.707307c -5.78  -4.69c
iter:  36 21:48:11  -299.707310c -5.98  -4.78c
iter:  37 21:48:18  -299.707311c -6.08  -4.81c
iter:  38 21:48:25  -299.707308c -6.08  -4.83c
iter:  39 21:48:32  -299.707310c -6.09  -4.91c
Writing to output.gpw (mode='')

iter:  40 21:48:39  -299.707309c -6.30  -5.02c
iter:  41 21:48:46  -299.707312c -6.42  -4.97c
iter:  42 21:48:54  -299.707312c -6.46  -5.15c
iter:  43 21:49:01  -299.707311c -6.68  -5.32c
iter:  44 21:49:08  -299.707311c -6.51  -5.42c
Writing to output.gpw (mode='')

iter:  45 21:49:15  -299.707311c -6.47  -5.50c
iter:  46 21:49:30  -299.707312c -6.76  -5.51c
iter:  47 21:49:38  -299.707312c -6.68  -5.34c
iter:  48 21:49:45  -299.707312c -6.74  -5.73c
iter:  49 21:49:53  -299.707312c -6.84  -5.78c
Writing to output.gpw (mode='')

iter:  50 21:50:00  -299.707312c -6.89  -5.75c
iter:  51 21:50:07  -299.707312c -6.96  -5.78c
iter:  52 21:50:14  -299.707312c -7.06  -5.70c
iter:  53 21:50:21  -299.707312c -6.92  -5.58c
iter:  54 21:50:29  -299.707312c -7.14  -5.57c
Writing to output.gpw (mode='')

iter:  55 21:50:36  -299.707312c -7.14  -5.54c
iter:  56 21:50:43  -299.707312c -7.28  -5.44c
iter:  57 21:50:50  -299.707312c -7.41c -5.43c

Converged after 57 iterations.

Dipole moment: (4.854957, -3.178955, 0.377683) |e|*Ang

Energy contributions relative to reference atoms: (reference = -14434.854043)

Kinetic:       +190.215524
Potential:     -168.865288
External:        +0.000000
XC:            -321.715876
Entropy (-ST):   -0.162646
Local:           +0.739651
--------------------------
Free energy:   -299.788635
Extrapolated:  -299.707312

Dipole-layer corrected work functions: 3.378028, 2.651991 eV

Showing only first 2 kpts
 Kpt  Band  Eigenvalues  Occupancy
  0    31     -3.26229    1.98587
  0    32     -3.16894    1.91200
  0    33     -2.91129    0.22321
  0    34     -2.77668    0.01688

  1    31     -3.07365    1.52728
  1    32     -3.00853    0.93528
  1    33     -2.98598    0.71756
  1    34     -2.92058    0.26281


Fermi level: -3.01501

No gap
Writing to output.gpw (mode='')


Forces in eV/Ang:
  0 Li    0.02094    0.00474   -0.27060
  1 Li   -0.02380    0.00437   -0.27315
  2 Li    0.00241   -0.00530   -0.28322
  3 Li    0.00936   -0.00311   -0.27731
  4 Li   -0.00595    0.00061   -0.27961
  5 Li   -0.00066    0.02386   -0.27759
  6 Li    0.00131   -0.00233   -0.27415
  7 Li    0.00399   -0.00432   -0.27634
  8 Li   -0.00183   -0.01966   -0.26825
  9 Li   -0.00194   -0.00922    0.30246
 10 Li   -0.00190    0.01802    0.24938
 11 Li    0.00665   -0.00699    0.29847
 12 Li   -0.00782    0.00132    0.31963
 13 Li   -0.00344   -0.00993    0.23402
 14 Li    0.01342   -0.00322    0.32481
 15 Li   -0.00548    0.00933    0.24025
 16 Li   -0.00039   -0.00696    0.27735
 17 Li    0.00008    0.01136    0.23782
 18 Li   -0.01633    0.01185    0.06027
 19 Li    0.00544    0.00520    0.02379
 20 Li    0.00697   -0.02043   -0.23943
 21 Li   -0.03578   -0.02170    0.06359
 22 Li    0.03412   -0.03268    0.06519
 23 Li   -0.00005    0.05697   -0.06540
 24 Li   -0.00767    0.00918    0.03252
 25 Li    0.00570    0.02588    0.05224
 26 Li   -0.00299   -0.01641    0.03674
 27 Li   -0.01659   -0.03192    0.09863
 28 Li   -0.01581    0.03145   -0.00586
 29 Li    0.03349   -0.01457    0.07577
 30 Li   -0.09422    0.01482   -0.20292
 31 Li   -0.01761   -0.01185   -0.01122
 32 Li    0.07169   -0.01768   -0.05449
 33 Li    0.03420    0.04511   -0.07596
 34 Li    0.00079   -0.01845   -0.00537
 35 Li   -0.03065    0.05031   -0.05998
 36 O     2.42497   -2.35112    9.08352
 37 C     1.89039    2.25360    3.29703
 38 C    -0.14854    1.85036    2.09473
 39 H    -0.08156   -0.23949    0.87576
 40 H     1.93370    0.46799    1.93316
 41 H     0.18425    0.14803    0.20497
 42 H    -0.09274    1.20753    1.32447
 43 H     0.01434    0.08519    0.43210
 44 H    -1.27346   -0.42014    1.71334
 45 N    -2.48391   -4.21933   -7.96472
 46 N    -2.29720    1.11171  -12.79646

System changes: positions 

Initializing position-dependent things.

Density initialized from wave functions
       .-----------------------.  
      /|                       |  
     / |                       |  
    /  |                       |  
   /   |                       |  
  /    |                       |  
 *     |                       |  
 |     |                       |  
 |     |                       |  
 |     |                       |  
 |     |                       |  
 |     |                       |  
 |     |              H        |  
 |     |               LC H    Li 
 |     |             HH  C     |  
 |   Li|     Li      LO   H    |  
 |     |              NN       |  
 |     |  LLi     LLi     LLi  |  
 |     |                       |  
 |     |LLi     Li      Li     |  
 |   Li|     Li      Li        |  
 |    Li  Li  Li  Li  Li  Li   |  
 | Li  |   Li      Li          |  
 |     |Li      Li      Li     |  
 Li    | Li      Li            |  
 |    Li      Li      Li       |  
 |     |                       |  
 |     |                       |  
 |     |                       |  
 |     |                       |  
 |     |                       |  
 |     |                       |  
 |     .-----------------------.  
 |    /                       /   
 |   /                       /    
 |  /                       /     
 | /                       /      
 |/                       /       
 *-----------------------*        

Positions:
   0 Li     1.617037    1.617037   10.000000    ( 0.0000,  0.0000,  0.0000)
   1 Li     4.851111    1.617037   10.000000    ( 0.0000,  0.0000,  0.0000)
   2 Li     8.085185    1.617037   10.000000    ( 0.0000,  0.0000,  0.0000)
   3 Li     1.617037    4.851111   10.000000    ( 0.0000,  0.0000,  0.0000)
   4 Li     4.851111    4.851111   10.000000    ( 0.0000,  0.0000,  0.0000)
   5 Li     8.085185    4.851111   10.000000    ( 0.0000,  0.0000,  0.0000)
   6 Li     1.617037    8.085185   10.000000    ( 0.0000,  0.0000,  0.0000)
   7 Li     4.851111    8.085185   10.000000    ( 0.0000,  0.0000,  0.0000)
   8 Li     8.085185    8.085185   10.000000    ( 0.0000,  0.0000,  0.0000)
   9 Li     0.000000    0.000000   11.617037    ( 0.0000,  0.0000,  0.0000)
  10 Li     3.234074    0.000000   11.617037    ( 0.0000,  0.0000,  0.0000)
  11 Li     6.468148    0.000000   11.617037    ( 0.0000,  0.0000,  0.0000)
  12 Li     0.000000    3.234074   11.617037    ( 0.0000,  0.0000,  0.0000)
  13 Li     3.234074    3.234074   11.617037    ( 0.0000,  0.0000,  0.0000)
  14 Li     6.468148    3.234074   11.617037    ( 0.0000,  0.0000,  0.0000)
  15 Li     0.000000    6.468148   11.617037    ( 0.0000,  0.0000,  0.0000)
  16 Li     3.234074    6.468148   11.617037    ( 0.0000,  0.0000,  0.0000)
  17 Li     6.468148    6.468148   11.617037    ( 0.0000,  0.0000,  0.0000)
  18 Li     1.616943    1.617107   13.470079    ( 0.0000,  0.0000,  0.0000)
  19 Li     4.851142    1.617069   13.469867    ( 0.0000,  0.0000,  0.0000)
  20 Li     8.085225    1.616919   13.468328    ( 0.0000,  0.0000,  0.0000)
  21 Li     1.616829    4.850984   13.470102    ( 0.0000,  0.0000,  0.0000)
  22 Li     4.851311    4.850920   13.470111    ( 0.0000,  0.0000,  0.0000)
  23 Li     8.085183    4.851445   13.469345    ( 0.0000,  0.0000,  0.0000)
  24 Li     1.616993    8.085238   13.469918    ( 0.0000,  0.0000,  0.0000)
  25 Li     4.851145    8.085335   13.470035    ( 0.0000,  0.0000,  0.0000)
  26 Li     8.085166    8.085088   13.469942    ( 0.0000,  0.0000,  0.0000)
  27 Li    -0.000100   -0.000184   15.446522    ( 0.0000,  0.0000,  0.0000)
  28 Li     3.233981    0.000183   15.445904    ( 0.0000,  0.0000,  0.0000)
  29 Li     6.468348   -0.000081   15.446389    ( 0.0000,  0.0000,  0.0000)
  30 Li    -0.000557    3.234154   15.444761    ( 0.0000,  0.0000,  0.0000)
  31 Li     3.233974    3.234008   15.445871    ( 0.0000,  0.0000,  0.0000)
  32 Li     6.468571    3.233968   15.445628    ( 0.0000,  0.0000,  0.0000)
  33 Li     0.000201    6.468412   15.445494    ( 0.0000,  0.0000,  0.0000)
  34 Li     3.234081    6.468038   15.445906    ( 0.0000,  0.0000,  0.0000)
  35 Li     6.467965    6.468440   15.445587    ( 0.0000,  0.0000,  0.0000)
  36 O      8.099471    1.603468   18.498668    ( 0.0000,  0.0000,  0.0000)
  37 C      8.912917    2.812507   18.469427    ( 0.0000,  0.0000,  0.0000)
  38 C      8.081462    4.094415   18.447894    ( 0.0000,  0.0000,  0.0000)
  39 H      9.585030    2.789437   19.315548    ( 0.0000,  0.0000,  0.0000)
  40 H      9.522912    2.726777   17.558759    ( 0.0000,  0.0000,  0.0000)
  41 H      8.737357    4.961468   18.421470    ( 0.0000,  0.0000,  0.0000)
  42 H      7.432768    4.125418   17.566640    ( 0.0000,  0.0000,  0.0000)
  43 H      7.453906    4.154352   19.330814    ( 0.0000,  0.0000,  0.0000)
  44 H      7.494702    1.653785   19.224245    ( 0.0000,  0.0000,  0.0000)
  45 N      8.070531    1.593109   16.899505    ( 0.0000,  0.0000,  0.0000)
  46 N      8.071572    2.719300   16.871340    ( 0.0000,  0.0000,  0.0000)

Unit cell:
           periodic     x           y           z      points  spacing
  1. axis:    yes    9.702222    0.000000    0.000000    60     0.1617
  2. axis:    yes    0.000000    9.702222    0.000000    60     0.1617
  3. axis:    no     0.000000    0.000000   26.351111   164     0.1607

  Lengths:   9.702222   9.702222  26.351111
  Angles:   90.000000  90.000000  90.000000

Effective grid spacing dv^(1/3) = 0.1614

     iter     time        total  log10-change:
                         energy  eigst   dens
iter:   1 21:50:59  -300.977882  -0.78
iter:   2 21:51:06  -300.812060  -0.66  -1.47
iter:   3 21:51:13  -300.765231  -1.46  -1.62
iter:   4 21:51:21  -300.751912  -1.01  -1.98
Writing to output.gpw (mode='')

iter:   5 21:51:28  -300.748126c -1.84  -1.97
iter:   6 21:51:35  -300.836924  -1.25  -2.27
iter:   7 21:51:42  -300.775520  -1.74  -1.80
iter:   8 21:51:49  -300.736443  -1.42  -1.99
iter:   9 21:51:56  -300.735956  -1.88  -2.53
Writing to output.gpw (mode='')

iter:  10 21:52:03  -300.745011c -2.72  -2.68
iter:  11 21:52:11  -300.735621c -1.86  -2.32
iter:  12 21:52:18  -300.736065c -2.90  -2.52
iter:  13 21:52:25  -300.735940c -2.79  -2.82
iter:  14 21:52:32  -300.736794c -3.24  -2.92
Writing to output.gpw (mode='')

iter:  15 21:52:39  -300.736634c -3.46  -2.93
iter:  16 21:52:46  -300.735909c -3.35  -2.97
iter:  17 21:52:53  -300.736564c -3.65  -3.12
iter:  18 21:53:01  -300.736100c -3.63  -3.08
iter:  19 21:53:08  -300.736262c -4.12  -3.40
Writing to output.gpw (mode='')

iter:  20 21:53:15  -300.736186c -3.90  -3.45
iter:  21 21:53:22  -300.736202c -4.43  -3.65
iter:  22 21:53:32  -300.736243c -4.23  -3.75
iter:  23 21:53:40  -300.736220c -4.51  -3.83
iter:  24 21:53:47  -300.736227c -4.54  -3.94
Writing to output.gpw (mode='')

iter:  25 21:53:54  -300.736234c -4.78  -3.93
iter:  26 21:54:01  -300.736231c -4.80  -3.99
iter:  27 21:54:08  -300.736249c -4.90  -4.09c
iter:  28 21:54:15  -300.736246c -4.99  -4.16c
iter:  29 21:54:28  -300.736247c -5.30  -4.31c
Writing to output.gpw (mode='')

iter:  30 21:54:37  -300.736253c -5.24  -4.37c
iter:  31 21:54:44  -300.736248c -5.24  -4.48c
iter:  32 21:54:51  -300.736253c -5.59  -4.61c
iter:  33 21:54:58  -300.736255c -5.58  -4.61c
iter:  34 21:55:06  -300.736258c -5.73  -4.67c
Writing to output.gpw (mode='')

iter:  35 21:55:13  -300.736260c -5.62  -4.74c
iter:  36 21:55:20  -300.736261c -5.73  -4.85c
iter:  37 21:55:27  -300.736260c -5.96  -4.83c
iter:  38 21:55:34  -300.736263c -6.02  -4.91c
iter:  39 21:55:42  -300.736263c -5.99  -5.05c
Writing to output.gpw (mode='')

iter:  40 21:55:49  -300.736264c -6.25  -5.14c
iter:  41 21:55:56  -300.736264c -6.26  -5.15c
iter:  42 21:56:03  -300.736263c -6.35  -5.12c
iter:  43 21:56:10  -300.736263c -6.75  -5.08c
iter:  44 21:56:17  -300.736262c -6.56  -5.06c
Writing to output.gpw (mode='')

iter:  45 21:56:25  -300.736262c -6.72  -5.00c
iter:  46 21:56:32  -300.736262c -6.51  -4.99c
iter:  47 21:56:39  -300.736262c -6.63  -4.96c
iter:  48 21:56:46  -300.736262c -6.68  -4.95c
iter:  49 21:56:53  -300.736263c -6.91  -4.92c
Writing to output.gpw (mode='')

iter:  50 21:57:01  -300.736263c -6.95  -4.93c
iter:  51 21:57:08  -300.736263c -6.97  -4.97c
iter:  52 21:57:15  -300.736263c -7.15  -4.93c
iter:  53 21:57:22  -300.736268c -7.18  -4.94c
iter:  54 21:57:29  -300.736268c -7.37  -4.95c
Writing to output.gpw (mode='')

iter:  55 21:57:36  -300.736268c -7.36  -4.94c
iter:  56 21:57:44  -300.736269c -7.23  -4.99c
iter:  57 21:57:51  -300.736269c -7.40c -5.04c

Converged after 57 iterations.

Dipole moment: (4.848716, -3.158524, 0.393119) |e|*Ang

Energy contributions relative to reference atoms: (reference = -14434.854043)

Kinetic:       +187.699563
Potential:     -167.684170
External:        +0.000000
XC:            -321.412953
Entropy (-ST):   -0.163570
Local:           +0.743077
--------------------------
Free energy:   -300.818054
Extrapolated:  -300.736269

Dipole-layer corrected work functions: 3.378550, 2.622840 eV

Showing only first 2 kpts
 Kpt  Band  Eigenvalues  Occupancy
  0    31     -3.24734    1.98569
  0    32     -3.15332    1.90978
  0    33     -2.89743    0.22504
  0    34     -2.76407    0.01745

  1    31     -3.05542    1.49846
  1    32     -2.99675    0.96053
  1    33     -2.97185    0.71929
  1    34     -2.90662    0.26445


Fermi level: -3.00069

No gap
Writing to output.gpw (mode='')


Forces in eV/Ang:
  0 Li    0.02160    0.00489   -0.27094
  1 Li   -0.02453    0.00460   -0.27359
  2 Li    0.00232   -0.00540   -0.28324
  3 Li    0.00929   -0.00313   -0.27716
  4 Li   -0.00620    0.00047   -0.27995
  5 Li   -0.00041    0.02389   -0.27742
  6 Li    0.00129   -0.00194   -0.27476
  7 Li    0.00366   -0.00376   -0.27632
  8 Li   -0.00160   -0.01997   -0.26844
  9 Li   -0.00246   -0.00829    0.30266
 10 Li   -0.00158    0.01798    0.24831
 11 Li    0.00667   -0.00633    0.29895
 12 Li   -0.00832    0.00090    0.31982
 13 Li   -0.00323   -0.00985    0.23331
 14 Li    0.01370   -0.00325    0.32604
 15 Li   -0.00561    0.00998    0.23949
 16 Li   -0.00085   -0.00777    0.27784
 17 Li    0.00074    0.01131    0.23794
 18 Li   -0.01599    0.01121    0.06014
 19 Li    0.00540    0.00504    0.02462
 20 Li    0.00708   -0.02177   -0.24279
 21 Li   -0.03714   -0.02301    0.06541
 22 Li    0.03497   -0.03325    0.06562
 23 Li    0.00049    0.05762   -0.06371
 24 Li   -0.00758    0.00983    0.03298
 25 Li    0.00596    0.02576    0.05204
 26 Li   -0.00288   -0.01492    0.03621
 27 Li   -0.00858   -0.04588    0.08731
 28 Li   -0.01519    0.03224   -0.00643
 29 Li    0.02769   -0.02615    0.07147
 30 Li   -0.06359    0.01883   -0.22188
 31 Li   -0.01656   -0.01187   -0.01289
 32 Li    0.03985   -0.00475   -0.07912
 33 Li    0.03323    0.04148   -0.07630
 34 Li    0.00086   -0.01850   -0.00500
 35 Li   -0.02983    0.04880   -0.06072
 36 O     2.51885   -1.78926    7.97887
 37 C     1.56514    1.74953    2.99636
 38 C    -0.10747    1.37549    1.67290
 39 H     0.06198   -0.12323    0.92521
 40 H     1.61580    0.43652    1.97544
 41 H     0.19414    0.19866    0.19537
 42 H    -0.03772    1.08115    1.26640
 43 H    -0.04363    0.11318    0.49789
 44 H    -1.19746   -0.24573    1.66183
 45 N    -2.25463   -4.23708   -7.46507
 46 N    -2.23406    1.33300  -11.44391

System changes: positions 

Initializing position-dependent things.

Density initialized from wave functions
       .-----------------------.  
      /|                       |  
     / |                       |  
    /  |                       |  
   /   |                       |  
  /    |                       |  
 *     |                       |  
 |     |                       |  
 |     |                       |  
 |     |                       |  
 |     |                       |  
 |     |                       |  
 |     |              H        |  
 |     |               LC H    Li 
 |     |             HH  C     |  
 |   Li|     Li      LO   H    |  
 |     |               N       |  
 |     |  LLi     LLi N   LLi  |  
 |     |                       |  
 |     |LLi     Li      Li     |  
 |   Li|     Li      Li        |  
 |    Li  Li  Li  Li  Li  Li   |  
 | Li  |   Li      Li          |  
 |     |Li      Li      Li     |  
 Li    | Li      Li            |  
 |    Li      Li      Li       |  
 |     |                       |  
 |     |                       |  
 |     |                       |  
 |     |                       |  
 |     |                       |  
 |     |                       |  
 |     .-----------------------.  
 |    /                       /   
 |   /                       /    
 |  /                       /     
 | /                       /      
 |/                       /       
 *-----------------------*        

Positions:
   0 Li     1.617037    1.617037   10.000000    ( 0.0000,  0.0000,  0.0000)
   1 Li     4.851111    1.617037   10.000000    ( 0.0000,  0.0000,  0.0000)
   2 Li     8.085185    1.617037   10.000000    ( 0.0000,  0.0000,  0.0000)
   3 Li     1.617037    4.851111   10.000000    ( 0.0000,  0.0000,  0.0000)
   4 Li     4.851111    4.851111   10.000000    ( 0.0000,  0.0000,  0.0000)
   5 Li     8.085185    4.851111   10.000000    ( 0.0000,  0.0000,  0.0000)
   6 Li     1.617037    8.085185   10.000000    ( 0.0000,  0.0000,  0.0000)
   7 Li     4.851111    8.085185   10.000000    ( 0.0000,  0.0000,  0.0000)
   8 Li     8.085185    8.085185   10.000000    ( 0.0000,  0.0000,  0.0000)
   9 Li     0.000000    0.000000   11.617037    ( 0.0000,  0.0000,  0.0000)
  10 Li     3.234074    0.000000   11.617037    ( 0.0000,  0.0000,  0.0000)
  11 Li     6.468148    0.000000   11.617037    ( 0.0000,  0.0000,  0.0000)
  12 Li     0.000000    3.234074   11.617037    ( 0.0000,  0.0000,  0.0000)
  13 Li     3.234074    3.234074   11.617037    ( 0.0000,  0.0000,  0.0000)
  14 Li     6.468148    3.234074   11.617037    ( 0.0000,  0.0000,  0.0000)
  15 Li     0.000000    6.468148   11.617037    ( 0.0000,  0.0000,  0.0000)
  16 Li     3.234074    6.468148   11.617037    ( 0.0000,  0.0000,  0.0000)
  17 Li     6.468148    6.468148   11.617037    ( 0.0000,  0.0000,  0.0000)
  18 Li     1.616885    1.617156   13.470347    ( 0.0000,  0.0000,  0.0000)
  19 Li     4.851147    1.617089   13.469966    ( 0.0000,  0.0000,  0.0000)
  20 Li     8.085262    1.616806   13.467138    ( 0.0000,  0.0000,  0.0000)
  21 Li     1.616632    4.850855   13.470440    ( 0.0000,  0.0000,  0.0000)
  22 Li     4.851492    4.850748   13.470432    ( 0.0000,  0.0000,  0.0000)
  23 Li     8.085194    4.851747   13.469024    ( 0.0000,  0.0000,  0.0000)
  24 Li     1.616954    8.085294   13.470083    ( 0.0000,  0.0000,  0.0000)
  25 Li     4.851180    8.085465   13.470292    ( 0.0000,  0.0000,  0.0000)
  26 Li     8.085153    8.085021   13.470095    ( 0.0000,  0.0000,  0.0000)
  27 Li    -0.000124   -0.000484   15.446945    ( 0.0000,  0.0000,  0.0000)
  28 Li     3.233912    0.000332   15.445850    ( 0.0000,  0.0000,  0.0000)
  29 Li     6.468510   -0.000235   15.446829    ( 0.0000,  0.0000,  0.0000)
  30 Li    -0.000691    3.234162   15.443686    ( 0.0000,  0.0000,  0.0000)
  31 Li     3.233908    3.233968   15.445765    ( 0.0000,  0.0000,  0.0000)
  32 Li     6.468572    3.233965   15.445186    ( 0.0000,  0.0000,  0.0000)
  33 Li     0.000368    6.468572   15.445116    ( 0.0000,  0.0000,  0.0000)
  34 Li     3.234084    6.467946   15.445882    ( 0.0000,  0.0000,  0.0000)
  35 Li     6.467814    6.468664   15.445282    ( 0.0000,  0.0000,  0.0000)
  36 O      8.114481    1.603534   18.519372    ( 0.0000,  0.0000,  0.0000)
  37 C      8.915877    2.814006   18.479330    ( 0.0000,  0.0000,  0.0000)
  38 C      8.081450    4.095358   18.450865    ( 0.0000,  0.0000,  0.0000)
  39 H      9.587234    2.790238   19.321030    ( 0.0000,  0.0000,  0.0000)
  40 H      9.526507    2.728303   17.568915    ( 0.0000,  0.0000,  0.0000)
  41 H      8.738560    4.963207   18.422370    ( 0.0000,  0.0000,  0.0000)
  42 H      7.433263    4.129181   17.572362    ( 0.0000,  0.0000,  0.0000)
  43 H      7.452875    4.155301   19.334253    ( 0.0000,  0.0000,  0.0000)
  44 H      7.488527    1.654954   19.232938    ( 0.0000,  0.0000,  0.0000)
  45 N      8.062880    1.587297   16.870896    ( 0.0000,  0.0000,  0.0000)
  46 N      8.061500    2.712269   16.833272    ( 0.0000,  0.0000,  0.0000)

Unit cell:
           periodic     x           y           z      points  spacing
  1. axis:    yes    9.702222    0.000000    0.000000    60     0.1617
  2. axis:    yes    0.000000    9.702222    0.000000    60     0.1617
  3. axis:    no     0.000000    0.000000   26.351111   164     0.1607

  Lengths:   9.702222   9.702222  26.351111
  Angles:   90.000000  90.000000  90.000000

Effective grid spacing dv^(1/3) = 0.1614

     iter     time        total  log10-change:
                         energy  eigst   dens
iter:   1 21:58:00  -301.829668  -0.82
iter:   2 21:58:07  -301.748864  -0.89  -1.59
iter:   3 21:58:14  -301.719454  -1.71  -1.70
iter:   4 21:58:21  -301.727071c -1.93  -2.10
Writing to output.gpw (mode='')

iter:   5 21:58:29  -301.722771c -1.39  -2.06
iter:   6 21:58:36  -301.727436c -1.96  -1.89
iter:   7 21:58:43  -301.705021c -2.23  -1.87
iter:   8 21:58:50  -301.702321c -2.38  -2.18
iter:   9 21:58:58  -301.703249c -2.29  -2.34
Writing to output.gpw (mode='')

iter:  10 21:59:05  -301.703237c -2.48  -2.61
iter:  11 21:59:12  -301.701581c -3.07  -2.63
iter:  12 21:59:19  -301.701194c -3.35  -2.87
iter:  13 21:59:32  -301.701552c -3.60  -2.89
iter:  14 21:59:39  -301.701576c -3.73  -3.02
Writing to output.gpw (mode='')

iter:  15 21:59:47  -301.701283c -3.44  -3.10
iter:  16 21:59:54  -301.701419c -3.89  -3.27
iter:  17 22:00:01  -301.701456c -4.16  -3.24
iter:  18 22:00:08  -301.701304c -4.19  -3.56
iter:  19 22:00:15  -301.701386c -4.67  -3.67
Writing to output.gpw (mode='')

iter:  20 22:00:23  -301.701312c -4.65  -3.77
iter:  21 22:00:30  -301.701345c -4.68  -3.91
iter:  22 22:00:37  -301.701339c -5.21  -3.91
iter:  23 22:00:45  -301.701342c -5.12  -3.98
iter:  24 22:00:52  -301.701348c -5.37  -4.24c
Writing to output.gpw (mode='')

iter:  25 22:00:59  -301.701346c -5.57  -4.20c
iter:  26 22:01:06  -301.701352c -5.38  -4.28c
iter:  27 22:01:13  -301.701346c -5.77  -4.32c
iter:  28 22:01:21  -301.701352c -5.63  -4.38c
iter:  29 22:01:28  -301.701354c -5.90  -4.36c
Writing to output.gpw (mode='')

iter:  30 22:01:35  -301.701348c -5.82  -4.46c
iter:  31 22:01:45  -301.701353c -6.09  -4.48c
iter:  32 22:01:57  -301.701353c -6.16  -4.69c
iter:  33 22:02:10  -301.701355c -6.26  -4.73c
iter:  34 22:02:19  -301.701354c -6.23  -4.79c
Writing to output.gpw (mode='')

iter:  35 22:02:26  -301.701354c -6.31  -4.77c
iter:  36 22:02:33  -301.701353c -6.69  -4.95c
iter:  37 22:02:40  -301.701354c -6.64  -5.21c
iter:  38 22:02:47  -301.701355c -6.75  -5.20c
iter:  39 22:02:55  -301.701355c -6.75  -5.31c
Writing to output.gpw (mode='')

iter:  40 22:03:02  -301.701354c -6.81  -5.35c
iter:  41 22:03:09  -301.701355c -6.94  -5.43c
iter:  42 22:03:16  -301.701355c -6.90  -5.54c
iter:  43 22:03:23  -301.701355c -6.89  -5.58c
iter:  44 22:03:31  -301.701355c -7.22  -5.66c
Writing to output.gpw (mode='')

iter:  45 22:03:38  -301.701355c -7.10  -5.65c
iter:  46 22:03:45  -301.701355c -7.44c -5.58c

Converged after 46 iterations.

Dipole moment: (4.762310, -3.118147, 0.393549) |e|*Ang

Energy contributions relative to reference atoms: (reference = -14434.854043)

Kinetic:       +184.331974
Potential:     -165.733165
External:        +0.000000
XC:            -320.963595
Entropy (-ST):   -0.165556
Local:           +0.746209
--------------------------
Free energy:   -301.784132
Extrapolated:  -301.701355

Dipole-layer corrected work functions: 3.379661, 2.623124 eV

Showing only first 2 kpts
 Kpt  Band  Eigenvalues  Occupancy
  0    31     -3.24672    1.98531
  0    32     -3.15179    1.90585
  0    33     -2.90343    0.24711
  0    34     -2.76579    0.01781

  1    31     -3.05226    1.46893
  1    32     -2.99908    0.97690
  1    33     -2.97132    0.70803
  1    34     -2.90666    0.26143


Fermi level: -3.00139

No gap
Writing to output.gpw (mode='')


Forces in eV/Ang:
  0 Li    0.02203    0.00502   -0.27145
  1 Li   -0.02506    0.00500   -0.27416
  2 Li    0.00229   -0.00534   -0.28345
  3 Li    0.00960   -0.00296   -0.27706
  4 Li   -0.00671    0.00052   -0.28058
  5 Li   -0.00028    0.02356   -0.27736
  6 Li    0.00155   -0.00181   -0.27538
  7 Li    0.00311   -0.00344   -0.27626
  8 Li   -0.00133   -0.02004   -0.26868
  9 Li   -0.00301   -0.00724    0.30342
 10 Li   -0.00157    0.01772    0.24734
 11 Li    0.00696   -0.00550    0.30014
 12 Li   -0.00862    0.00062    0.32028
 13 Li   -0.00303   -0.00981    0.23264
 14 Li    0.01384   -0.00334    0.32753
 15 Li   -0.00563    0.01049    0.23902
 16 Li   -0.00121   -0.00836    0.27774
 17 Li    0.00105    0.01096    0.23817
 18 Li   -0.01466    0.01043    0.05793
 19 Li    0.00408    0.00454    0.02342
 20 Li    0.00730   -0.02218   -0.24258
 21 Li   -0.03779   -0.02398    0.06597
 22 Li    0.03508   -0.03374    0.06509
 23 Li    0.00119    0.05825   -0.06392
 24 Li   -0.00775    0.01022    0.03327
 25 Li    0.00654    0.02606    0.05213
 26 Li   -0.00283   -0.01429    0.03437
 27 Li   -0.00591   -0.05312    0.08449
 28 Li   -0.01445    0.03170   -0.00788
 29 Li    0.02799   -0.03100    0.07507
 30 Li   -0.04232    0.01519   -0.22015
 31 Li   -0.01512   -0.01088   -0.01593
 32 Li    0.01605    0.00523   -0.09113
 33 Li    0.03300    0.03806   -0.07594
 34 Li    0.00098   -0.01824   -0.00524
 35 Li   -0.03010    0.04820   -0.06131
 36 O     2.17231   -1.42957    7.16241
 37 C     1.34633    1.45457    2.72414
 38 C    -0.03913    1.16151    1.54242
 39 H     0.15021   -0.01757    0.91131
 40 H     1.35628    0.38051    1.89485
 41 H     0.15107    0.14690    0.18608
 42 H    -0.04352    0.95688    1.13322
 43 H    -0.02968    0.11889    0.45106
 44 H    -0.87690   -0.12405    1.28957
 45 N    -2.10942   -3.79957   -6.74526
 46 N    -2.04244    1.09984  -10.25413

System changes: positions 

Initializing position-dependent things.

Density initialized from wave functions
       .-----------------------.  
      /|                       |  
     / |                       |  
    /  |                       |  
   /   |                       |  
  /    |                       |  
 *     |                       |  
 |     |                       |  
 |     |                       |  
 |     |                       |  
 |     |                       |  
 |     |                       |  
 |     |              H        |  
 |     |               LC H    Li 
 |     |             HO  C     |  
 |   Li|     Li      Li   H    |  
 |     |               N       |  
 |     |  LLi     LLi N   LLi  |  
 |     |                       |  
 |     |LLi     Li      Li     |  
 |   Li|     Li      Li        |  
 |    Li  Li  Li  Li  Li  Li   |  
 | Li  |   Li      Li          |  
 |     |Li      Li      Li     |  
 Li    | Li      Li            |  
 |    Li      Li      Li       |  
 |     |                       |  
 |     |                       |  
 |     |                       |  
 |     |                       |  
 |     |                       |  
 |     |                       |  
 |     .-----------------------.  
 |    /                       /   
 |   /                       /    
 |  /                       /     
 | /                       /      
 |/                       /       
 *-----------------------*        

Positions:
   0 Li     1.617037    1.617037   10.000000    ( 0.0000,  0.0000,  0.0000)
   1 Li     4.851111    1.617037   10.000000    ( 0.0000,  0.0000,  0.0000)
   2 Li     8.085185    1.617037   10.000000    ( 0.0000,  0.0000,  0.0000)
   3 Li     1.617037    4.851111   10.000000    ( 0.0000,  0.0000,  0.0000)
   4 Li     4.851111    4.851111   10.000000    ( 0.0000,  0.0000,  0.0000)
   5 Li     8.085185    4.851111   10.000000    ( 0.0000,  0.0000,  0.0000)
   6 Li     1.617037    8.085185   10.000000    ( 0.0000,  0.0000,  0.0000)
   7 Li     4.851111    8.085185   10.000000    ( 0.0000,  0.0000,  0.0000)
   8 Li     8.085185    8.085185   10.000000    ( 0.0000,  0.0000,  0.0000)
   9 Li     0.000000    0.000000   11.617037    ( 0.0000,  0.0000,  0.0000)
  10 Li     3.234074    0.000000   11.617037    ( 0.0000,  0.0000,  0.0000)
  11 Li     6.468148    0.000000   11.617037    ( 0.0000,  0.0000,  0.0000)
  12 Li     0.000000    3.234074   11.617037    ( 0.0000,  0.0000,  0.0000)
  13 Li     3.234074    3.234074   11.617037    ( 0.0000,  0.0000,  0.0000)
  14 Li     6.468148    3.234074   11.617037    ( 0.0000,  0.0000,  0.0000)
  15 Li     0.000000    6.468148   11.617037    ( 0.0000,  0.0000,  0.0000)
  16 Li     3.234074    6.468148   11.617037    ( 0.0000,  0.0000,  0.0000)
  17 Li     6.468148    6.468148   11.617037    ( 0.0000,  0.0000,  0.0000)
  18 Li     1.616822    1.617210   13.470672    ( 0.0000,  0.0000,  0.0000)
  19 Li     4.851141    1.617110   13.470084    ( 0.0000,  0.0000,  0.0000)
  20 Li     8.085313    1.616654   13.465589    ( 0.0000,  0.0000,  0.0000)
  21 Li     1.616371    4.850677   13.470883    ( 0.0000,  0.0000,  0.0000)
  22 Li     4.851727    4.850519   13.470843    ( 0.0000,  0.0000,  0.0000)
  23 Li     8.085215    4.852144   13.468604    ( 0.0000,  0.0000,  0.0000)
  24 Li     1.616902    8.085371   13.470301    ( 0.0000,  0.0000,  0.0000)
  25 Li     4.851232    8.085637   13.470628    ( 0.0000,  0.0000,  0.0000)
  26 Li     8.085137    8.084942   13.470275    ( 0.0000,  0.0000,  0.0000)
  27 Li    -0.000120   -0.000960   15.447456    ( 0.0000,  0.0000,  0.0000)
  28 Li     3.233832    0.000521   15.445766    ( 0.0000,  0.0000,  0.0000)
  29 Li     6.468716   -0.000501   15.447425    ( 0.0000,  0.0000,  0.0000)
  30 Li    -0.000603    3.234147   15.442305    ( 0.0000,  0.0000,  0.0000)
  31 Li     3.233839    3.233925   15.445596    ( 0.0000,  0.0000,  0.0000)
  32 Li     6.468278    3.234107   15.444445    ( 0.0000,  0.0000,  0.0000)
  33 Li     0.000581    6.468744   15.444629    ( 0.0000,  0.0000,  0.0000)
  34 Li     3.234090    6.467831   15.445846    ( 0.0000,  0.0000,  0.0000)
  35 Li     6.467614    6.468952   15.444877    ( 0.0000,  0.0000,  0.0000)
  36 O      8.127857    1.606036   18.540313    ( 0.0000,  0.0000,  0.0000)
  37 C      8.918037    2.813917   18.489755    ( 0.0000,  0.0000,  0.0000)
  38 C      8.082296    4.095332   18.454556    ( 0.0000,  0.0000,  0.0000)
  39 H      9.590793    2.792406   19.327638    ( 0.0000,  0.0000,  0.0000)
  40 H      9.528739    2.729653   17.580768    ( 0.0000,  0.0000,  0.0000)
  41 H      8.739386    4.964423   18.423421    ( 0.0000,  0.0000,  0.0000)
  42 H      7.433585    4.132726   17.577964    ( 0.0000,  0.0000,  0.0000)
  43 H      7.452024    4.156488   19.337679    ( 0.0000,  0.0000,  0.0000)
  44 H      7.485460    1.657509   19.238418    ( 0.0000,  0.0000,  0.0000)
  45 N      8.053939    1.581161   16.841783    ( 0.0000,  0.0000,  0.0000)
  46 N      8.050979    2.704293   16.795514    ( 0.0000,  0.0000,  0.0000)

Unit cell:
           periodic     x           y           z      points  spacing
  1. axis:    yes    9.702222    0.000000    0.000000    60     0.1617
  2. axis:    yes    0.000000    9.702222    0.000000    60     0.1617
  3. axis:    no     0.000000    0.000000   26.351111   164     0.1607

  Lengths:   9.702222   9.702222  26.351111
  Angles:   90.000000  90.000000  90.000000

Effective grid spacing dv^(1/3) = 0.1614

     iter     time        total  log10-change:
                         energy  eigst   dens
iter:   1 22:03:54  -302.717850  -0.83
iter:   2 22:04:01  -302.610248  -0.84  -1.54
iter:   3 22:04:09  -302.574046  -1.76  -1.67
iter:   4 22:04:16  -302.584014  -1.99  -2.09
Writing to output.gpw (mode='')

iter:   5 22:04:29  -302.583489c -1.32  -2.04
iter:   6 22:04:37  -302.592588c -1.85  -1.84
iter:   7 22:04:45  -302.561755c -2.34  -1.79
iter:   8 22:04:52  -302.556395  -2.37  -2.10
iter:   9 22:04:59  -302.558275c -2.22  -2.31
Writing to output.gpw (mode='')

iter:  10 22:05:06  -302.558515c -2.47  -2.58
iter:  11 22:05:13  -302.556433c -3.12  -2.59
iter:  12 22:05:21  -302.555442c -3.30  -2.78
iter:  13 22:05:28  -302.555650c -3.60  -2.90
iter:  14 22:05:35  -302.555696c -3.67  -3.02
Writing to output.gpw (mode='')

iter:  15 22:05:42  -302.555489c -3.52  -3.14
iter:  16 22:05:49  -302.555774c -3.62  -3.27
iter:  17 22:05:56  -302.555654c -4.25  -3.20
iter:  18 22:06:04  -302.555652c -4.13  -3.63
iter:  19 22:06:11  -302.555630c -4.69  -3.73
Writing to output.gpw (mode='')

iter:  20 22:06:18  -302.555640c -5.01  -3.84
iter:  21 22:06:25  -302.555653c -5.08  -3.85
iter:  22 22:06:32  -302.555663c -5.01  -3.86
iter:  23 22:06:40  -302.555669c -5.09  -3.88
iter:  24 22:06:47  -302.555664c -5.47  -3.90
Writing to output.gpw (mode='')

iter:  25 22:06:54  -302.555694c -5.21  -3.94
iter:  26 22:07:01  -302.555682c -5.25  -4.00
iter:  27 22:07:08  -302.555672c -5.60  -4.10c
iter:  28 22:07:15  -302.555669c -5.88  -4.37c
iter:  29 22:07:22  -302.555671c -5.68  -4.46c
Writing to output.gpw (mode='')

iter:  30 22:07:30  -302.555667c -5.91  -4.72c
iter:  31 22:07:37  -302.555675c -5.81  -4.74c
iter:  32 22:07:44  -302.555674c -6.16  -4.67c
iter:  33 22:07:51  -302.555673c -6.05  -4.68c
iter:  34 22:07:58  -302.555672c -6.24  -4.78c
Writing to output.gpw (mode='')

iter:  35 22:08:06  -302.555671c -6.23  -4.85c
iter:  36 22:08:13  -302.555671c -6.37  -4.96c
iter:  37 22:08:20  -302.555673c -6.64  -5.09c
iter:  38 22:08:27  -302.555671c -6.56  -5.19c
iter:  39 22:08:34  -302.555672c -6.73  -5.16c
Writing to output.gpw (mode='')

iter:  40 22:08:42  -302.555673c -6.63  -5.32c
iter:  41 22:08:49  -302.555674c -6.89  -5.39c
iter:  42 22:08:56  -302.555673c -6.91  -5.47c
iter:  43 22:09:03  -302.555674c -7.08  -5.47c
iter:  44 22:09:10  -302.555673c -7.32  -5.55c
Writing to output.gpw (mode='')

iter:  45 22:09:18  -302.555674c -7.31  -5.71c
iter:  46 22:09:30  -302.555674c -7.44c -5.82c

Converged after 46 iterations.

Dipole moment: (4.648484, -3.075447, 0.389795) |e|*Ang

Energy contributions relative to reference atoms: (reference = -14434.854043)

Kinetic:       +181.685738
Potential:     -164.236243
External:        +0.000000
XC:            -320.671265
Entropy (-ST):   -0.167366
Local:           +0.749780
--------------------------
Free energy:   -302.639357
Extrapolated:  -302.555674

Dipole-layer corrected work functions: 3.380786, 2.631467 eV

Showing only first 2 kpts
 Kpt  Band  Eigenvalues  Occupancy
  0    31     -3.24989    1.98485
  0    32     -3.15401    1.90124
  0    33     -2.91333    0.27033
  0    34     -2.77112    0.01803

  1    31     -3.05318    1.43866
  1    32     -3.00508    0.98951
  1    33     -2.97510    0.69929
  1    34     -2.91037    0.25682


Fermi level: -3.00613

No gap
Writing to output.gpw (mode='')


Forces in eV/Ang:
  0 Li    0.02243    0.00517   -0.27205
  1 Li   -0.02551    0.00539   -0.27468
  2 Li    0.00223   -0.00527   -0.28370
  3 Li    0.00990   -0.00281   -0.27704
  4 Li   -0.00719    0.00058   -0.28119
  5 Li   -0.00020    0.02320   -0.27740
  6 Li    0.00180   -0.00163   -0.27595
  7 Li    0.00262   -0.00315   -0.27625
  8 Li   -0.00109   -0.02008   -0.26895
  9 Li   -0.00357   -0.00626    0.30415
 10 Li   -0.00162    0.01734    0.24659
 11 Li    0.00728   -0.00480    0.30119
 12 Li   -0.00884    0.00043    0.32074
 13 Li   -0.00285   -0.00978    0.23215
 14 Li    0.01396   -0.00334    0.32880
 15 Li   -0.00558    0.01100    0.23870
 16 Li   -0.00153   -0.00890    0.27760
 17 Li    0.00124    0.01066    0.23850
 18 Li   -0.01322    0.00944    0.05529
 19 Li    0.00285    0.00386    0.02222
 20 Li    0.00738   -0.02250   -0.24148
 21 Li   -0.03804   -0.02471    0.06585
 22 Li    0.03480   -0.03401    0.06428
 23 Li    0.00186    0.05840   -0.06416
 24 Li   -0.00793    0.01047    0.03359
 25 Li    0.00717    0.02634    0.05205
 26 Li   -0.00277   -0.01366    0.03249
 27 Li   -0.00320   -0.06008    0.08172
 28 Li   -0.01349    0.03112   -0.00907
 29 Li    0.02854   -0.03587    0.07844
 30 Li   -0.01960    0.01317   -0.21579
 31 Li   -0.01375   -0.00994   -0.01855
 32 Li   -0.01272    0.01800   -0.10580
 33 Li    0.03275    0.03518   -0.07522
 34 Li    0.00121   -0.01787   -0.00541
 35 Li   -0.03044    0.04764   -0.06157
 36 O     1.95743   -1.24220    6.19212
 37 C     1.15387    1.27860    2.48692
 38 C    -0.00750    0.99524    1.40534
 39 H     0.21852    0.07220    0.87536
 40 H     1.15256    0.31560    1.74575
 41 H     0.12284    0.10527    0.18228
 42 H    -0.03103    0.83185    1.02637
 43 H    -0.01760    0.12217    0.41220
 44 H    -0.77845   -0.01705    1.15180
 45 N    -1.83406   -3.62249   -6.01023
 46 N    -1.88344    1.07702   -9.09426

System changes: positions 

Initializing position-dependent things.

Density initialized from wave functions
       .-----------------------.  
      /|                       |  
     / |                       |  
    /  |                       |  
   /   |                       |  
  /    |                       |  
 *     |                       |  
 |     |                       |  
 |     |                       |  
 |     |                       |  
 |     |                       |  
 |     |                       |  
 |     |              H        |  
 |     |               LC H    Li 
 |     |             HO  C     |  
 |   Li|     Li      Li   H    |  
 |     |               N       |  
 |     |  LLi     LLi N   LLi  |  
 |     |                       |  
 |     |LLi     Li      Li     |  
 |   Li|     Li      Li        |  
 |    Li  Li  Li  Li  Li  Li   |  
 | Li  |   Li      Li          |  
 |     |Li      Li      Li     |  
 Li    | Li      Li            |  
 |    Li      Li      Li       |  
 |     |                       |  
 |     |                       |  
 |     |                       |  
 |     |                       |  
 |     |                       |  
 |     |                       |  
 |     .-----------------------.  
 |    /                       /   
 |   /                       /    
 |  /                       /     
 | /                       /      
 |/                       /       
 *-----------------------*        

Positions:
   0 Li     1.617037    1.617037   10.000000    ( 0.0000,  0.0000,  0.0000)
   1 Li     4.851111    1.617037   10.000000    ( 0.0000,  0.0000,  0.0000)
   2 Li     8.085185    1.617037   10.000000    ( 0.0000,  0.0000,  0.0000)
   3 Li     1.617037    4.851111   10.000000    ( 0.0000,  0.0000,  0.0000)
   4 Li     4.851111    4.851111   10.000000    ( 0.0000,  0.0000,  0.0000)
   5 Li     8.085185    4.851111   10.000000    ( 0.0000,  0.0000,  0.0000)
   6 Li     1.617037    8.085185   10.000000    ( 0.0000,  0.0000,  0.0000)
   7 Li     4.851111    8.085185   10.000000    ( 0.0000,  0.0000,  0.0000)
   8 Li     8.085185    8.085185   10.000000    ( 0.0000,  0.0000,  0.0000)
   9 Li     0.000000    0.000000   11.617037    ( 0.0000,  0.0000,  0.0000)
  10 Li     3.234074    0.000000   11.617037    ( 0.0000,  0.0000,  0.0000)
  11 Li     6.468148    0.000000   11.617037    ( 0.0000,  0.0000,  0.0000)
  12 Li     0.000000    3.234074   11.617037    ( 0.0000,  0.0000,  0.0000)
  13 Li     3.234074    3.234074   11.617037    ( 0.0000,  0.0000,  0.0000)
  14 Li     6.468148    3.234074   11.617037    ( 0.0000,  0.0000,  0.0000)
  15 Li     0.000000    6.468148   11.617037    ( 0.0000,  0.0000,  0.0000)
  16 Li     3.234074    6.468148   11.617037    ( 0.0000,  0.0000,  0.0000)
  17 Li     6.468148    6.468148   11.617037    ( 0.0000,  0.0000,  0.0000)
  18 Li     1.616758    1.617266   13.471053    ( 0.0000,  0.0000,  0.0000)
  19 Li     4.851121    1.617127   13.470221    ( 0.0000,  0.0000,  0.0000)
  20 Li     8.085377    1.616461   13.463653    ( 0.0000,  0.0000,  0.0000)
  21 Li     1.616043    4.850449   13.471435    ( 0.0000,  0.0000,  0.0000)
  22 Li     4.852016    4.850230   13.471349    ( 0.0000,  0.0000,  0.0000)
  23 Li     8.085249    4.852641   13.468071    ( 0.0000,  0.0000,  0.0000)
  24 Li     1.616834    8.085469   13.470579    ( 0.0000,  0.0000,  0.0000)
  25 Li     4.851306    8.085859   13.471051    ( 0.0000,  0.0000,  0.0000)
  26 Li     8.085116    8.084846   13.470483    ( 0.0000,  0.0000,  0.0000)
  27 Li    -0.000092   -0.001621   15.448079    ( 0.0000,  0.0000,  0.0000)
  28 Li     3.233742    0.000753   15.445650    ( 0.0000,  0.0000,  0.0000)
  29 Li     6.468987   -0.000883   15.448211    ( 0.0000,  0.0000,  0.0000)
  30 Li    -0.000261    3.234115   15.440645    ( 0.0000,  0.0000,  0.0000)
  31 Li     3.233766    3.233879   15.445358    ( 0.0000,  0.0000,  0.0000)
  32 Li     6.467591    3.234441   15.443349    ( 0.0000,  0.0000,  0.0000)
  33 Li     0.000848    6.468937   15.444026    ( 0.0000,  0.0000,  0.0000)
  34 Li     3.234101    6.467691   15.445798    ( 0.0000,  0.0000,  0.0000)
  35 Li     6.467357    6.469314   15.444366    ( 0.0000,  0.0000,  0.0000)
  36 O      8.141659    1.608907   18.558398    ( 0.0000,  0.0000,  0.0000)
  37 C      8.919573    2.813716   18.501150    ( 0.0000,  0.0000,  0.0000)
  38 C      8.083543    4.094889   18.458886    ( 0.0000,  0.0000,  0.0000)
  39 H      9.595610    2.795880   19.335224    ( 0.0000,  0.0000,  0.0000)
  40 H      9.530213    2.730636   17.593475    ( 0.0000,  0.0000,  0.0000)
  41 H      8.740038    4.965236   18.424735    ( 0.0000,  0.0000,  0.0000)
  42 H      7.434010    4.136002   17.583865    ( 0.0000,  0.0000,  0.0000)
  43 H      7.451325    4.157918   19.341253    ( 0.0000,  0.0000,  0.0000)
  44 H      7.482285    1.661454   19.244082    ( 0.0000,  0.0000,  0.0000)
  45 N      8.045675    1.572347   16.812604    ( 0.0000,  0.0000,  0.0000)
  46 N      8.039453    2.696671   16.757977    ( 0.0000,  0.0000,  0.0000)

Unit cell:
           periodic     x           y           z      points  spacing
  1. axis:    yes    9.702222    0.000000    0.000000    60     0.1617
  2. axis:    yes    0.000000    9.702222    0.000000    60     0.1617
  3. axis:    no     0.000000    0.000000   26.351111   164     0.1607

  Lengths:   9.702222   9.702222  26.351111
  Angles:   90.000000  90.000000  90.000000

Effective grid spacing dv^(1/3) = 0.1614

     iter     time        total  log10-change:
                         energy  eigst   dens
iter:   1 22:09:43  -303.419524  -0.87
iter:   2 22:09:51  -303.359235  -1.01  -1.61
iter:   3 22:09:58  -303.324196  -1.90  -1.69
iter:   4 22:10:05  -303.324941  -2.17  -2.22
Writing to output.gpw (mode='')

iter:   5 22:10:12  -303.330739c -2.19  -2.22
iter:   6 22:10:19  -303.314671c -1.87  -2.15
iter:   7 22:10:27  -303.316221c -2.39  -2.23
iter:   8 22:10:34  -303.320405c -2.50  -2.47
iter:   9 22:10:41  -303.312767c -2.45  -2.35
Writing to output.gpw (mode='')

iter:  10 22:10:48  -303.312663c -3.02  -2.75
iter:  11 22:10:56  -303.312615c -2.97  -2.96
iter:  12 22:11:03  -303.312849c -3.71  -3.09
iter:  13 22:11:10  -303.312917c -3.86  -3.18
iter:  14 22:11:17  -303.312789c -3.63  -3.20
Writing to output.gpw (mode='')

iter:  15 22:11:25  -303.312752c -4.23  -3.22
iter:  16 22:11:32  -303.312850c -4.03  -3.34
iter:  17 22:11:39  -303.312851c -4.05  -3.57
iter:  18 22:11:46  -303.312869c -4.57  -3.75
iter:  19 22:11:53  -303.312858c -4.55  -3.86
Writing to output.gpw (mode='')

iter:  20 22:12:01  -303.312865c -4.89  -3.93
iter:  21 22:12:08  -303.312867c -4.82  -3.97
iter:  22 22:12:15  -303.312873c -5.12  -4.07c
iter:  23 22:12:22  -303.312858c -5.29  -4.05c
iter:  24 22:12:29  -303.312866c -5.57  -4.15c
Writing to output.gpw (mode='')

iter:  25 22:12:36  -303.312879c -5.36  -4.18c
iter:  26 22:12:44  -303.312875c -5.52  -4.36c
iter:  27 22:12:51  -303.312879c -5.64  -4.45c
iter:  28 22:12:58  -303.312875c -5.48  -4.58c
iter:  29 22:13:05  -303.312881c -5.99  -4.64c
Writing to output.gpw (mode='')

iter:  30 22:13:12  -303.312882c -5.98  -4.69c
iter:  31 22:13:20  -303.312881c -6.08  -4.70c
iter:  32 22:13:27  -303.312879c -6.13  -4.69c
iter:  33 22:13:34  -303.312879c -6.12  -4.64c
iter:  34 22:13:41  -303.312878c -6.21  -4.62c
Writing to output.gpw (mode='')

iter:  35 22:13:48  -303.312880c -6.35  -4.52c
iter:  36 22:13:56  -303.312879c -6.36  -4.64c
iter:  37 22:14:03  -303.312877c -6.66  -4.55c
iter:  38 22:14:10  -303.312879c -6.43  -4.54c
iter:  39 22:14:17  -303.312883c -6.72  -4.59c
Writing to output.gpw (mode='')

iter:  40 22:14:29  -303.312879c -6.89  -4.66c
iter:  41 22:14:37  -303.312885c -6.91  -4.56c
iter:  42 22:14:45  -303.312884c -6.68  -4.79c
iter:  43 22:14:52  -303.312886c -6.88  -4.98c
iter:  44 22:14:59  -303.312884c -7.01  -5.03c
Writing to output.gpw (mode='')

iter:  45 22:15:06  -303.312886c -7.09  -5.03c
iter:  46 22:15:13  -303.312885c -7.41c -5.18c

Converged after 46 iterations.

Dipole moment: (4.495306, -3.025217, 0.380338) |e|*Ang

Energy contributions relative to reference atoms: (reference = -14434.854043)

Kinetic:       +178.873847
Potential:     -162.518177
External:        +0.000000
XC:            -320.335734
Entropy (-ST):   -0.169431
Local:           +0.751894
--------------------------
Free energy:   -303.397601
Extrapolated:  -303.312885

Dipole-layer corrected work functions: 3.382029, 2.650889 eV

Showing only first 2 kpts
 Kpt  Band  Eigenvalues  Occupancy
  0    31     -3.25814    1.98421
  0    32     -3.16112    1.89502
  0    33     -2.93029    0.30286
  0    34     -2.78147    0.01803

  1    31     -3.06051    1.41405
  1    32     -3.01598    0.99524
  1    33     -2.98394    0.68581
  1    34     -2.91911    0.24974


Fermi level: -3.01646

No gap
Writing to output.gpw (mode='')


Forces in eV/Ang:
  0 Li    0.02265    0.00537   -0.27279
  1 Li   -0.02576    0.00580   -0.27531
  2 Li    0.00216   -0.00510   -0.28404
  3 Li    0.01034   -0.00264   -0.27718
  4 Li   -0.00774    0.00067   -0.28193
  5 Li   -0.00011    0.02263   -0.27761
  6 Li    0.00214   -0.00156   -0.27648
  7 Li    0.00211   -0.00300   -0.27630
  8 Li   -0.00088   -0.01994   -0.26930
  9 Li   -0.00419   -0.00528    0.30526
 10 Li   -0.00172    0.01680    0.24597
 11 Li    0.00775   -0.00415    0.30246
 12 Li   -0.00896    0.00028    0.32132
 13 Li   -0.00272   -0.00972    0.23183
 14 Li    0.01401   -0.00330    0.32991
 15 Li   -0.00540    0.01137    0.23853
 16 Li   -0.00188   -0.00922    0.27735
 17 Li    0.00126    0.01027    0.23900
 18 Li   -0.01118    0.00827    0.05157
 19 Li    0.00100    0.00292    0.01983
 20 Li    0.00738   -0.02219   -0.23774
 21 Li   -0.03785   -0.02521    0.06485
 22 Li    0.03397   -0.03403    0.06284
 23 Li    0.00260    0.05840   -0.06538
 24 Li   -0.00831    0.01074    0.03392
 25 Li    0.00795    0.02685    0.05198
 26 Li   -0.00269   -0.01341    0.03011
 27 Li   -0.00420   -0.06279    0.08389
 28 Li   -0.01261    0.02998   -0.01040
 29 Li    0.03174   -0.03774    0.08510
 30 Li   -0.00329    0.00810   -0.20156
 31 Li   -0.01253   -0.00866   -0.02122
 32 Li   -0.03985    0.03055   -0.11665
 33 Li    0.03302    0.03302   -0.07435
 34 Li    0.00142   -0.01736   -0.00568
 35 Li   -0.03125    0.04760   -0.06150
 36 O     1.67095   -1.15443    5.45159
 37 C     1.01848    1.17286    2.18112
 38 C     0.00311    0.86909    1.27818
 39 H     0.26883    0.14846    0.84400
 40 H     0.98139    0.26333    1.57025
 41 H     0.10724    0.07457    0.18556
 42 H    -0.01324    0.70902    0.93120
 43 H    -0.01119    0.12676    0.38367
 44 H    -0.60681    0.04250    0.91276
 45 N    -1.63882   -3.24167   -5.40057
 46 N    -1.75255    0.89895   -8.06694

System changes: positions 

Initializing position-dependent things.

Density initialized from wave functions
       .-----------------------.  
      /|                       |  
     / |                       |  
    /  |                       |  
   /   |                       |  
  /    |                       |  
 *     |                       |  
 |     |                       |  
 |     |                       |  
 |     |                       |  
 |     |                       |  
 |     |                       |  
 |     |              H        |  
 |     |               LC H    Li 
 |     |             HO  C     |  
 |   Li|     Li      Li   H    |  
 |     |               N       |  
 | Li  |  LLi     LLi N   Li   |  
 |     |                       |  
 |     |LLi     Li      Li     |  
 |   Li|     Li      Li        |  
 |    Li  Li  Li  Li  Li  Li   |  
 | Li  |   Li      Li          |  
 |     |Li      Li      Li     |  
 Li    | Li      Li            |  
 |    Li      Li      Li       |  
 |     |                       |  
 |     |                       |  
 |     |                       |  
 |     |                       |  
 |     |                       |  
 |     |                       |  
 |     .-----------------------.  
 |    /                       /   
 |   /                       /    
 |  /                       /     
 | /                       /      
 |/                       /       
 *-----------------------*        

Positions:
   0 Li     1.617037    1.617037   10.000000    ( 0.0000,  0.0000,  0.0000)
   1 Li     4.851111    1.617037   10.000000    ( 0.0000,  0.0000,  0.0000)
   2 Li     8.085185    1.617037   10.000000    ( 0.0000,  0.0000,  0.0000)
   3 Li     1.617037    4.851111   10.000000    ( 0.0000,  0.0000,  0.0000)
   4 Li     4.851111    4.851111   10.000000    ( 0.0000,  0.0000,  0.0000)
   5 Li     8.085185    4.851111   10.000000    ( 0.0000,  0.0000,  0.0000)
   6 Li     1.617037    8.085185   10.000000    ( 0.0000,  0.0000,  0.0000)
   7 Li     4.851111    8.085185   10.000000    ( 0.0000,  0.0000,  0.0000)
   8 Li     8.085185    8.085185   10.000000    ( 0.0000,  0.0000,  0.0000)
   9 Li     0.000000    0.000000   11.617037    ( 0.0000,  0.0000,  0.0000)
  10 Li     3.234074    0.000000   11.617037    ( 0.0000,  0.0000,  0.0000)
  11 Li     6.468148    0.000000   11.617037    ( 0.0000,  0.0000,  0.0000)
  12 Li     0.000000    3.234074   11.617037    ( 0.0000,  0.0000,  0.0000)
  13 Li     3.234074    3.234074   11.617037    ( 0.0000,  0.0000,  0.0000)
  14 Li     6.468148    3.234074   11.617037    ( 0.0000,  0.0000,  0.0000)
  15 Li     0.000000    6.468148   11.617037    ( 0.0000,  0.0000,  0.0000)
  16 Li     3.234074    6.468148   11.617037    ( 0.0000,  0.0000,  0.0000)
  17 Li     6.468148    6.468148   11.617037    ( 0.0000,  0.0000,  0.0000)
  18 Li     1.616703    1.617320   13.471466    ( 0.0000,  0.0000,  0.0000)
  19 Li     4.851079    1.617137   13.470357    ( 0.0000,  0.0000,  0.0000)
  20 Li     8.085453    1.616237   13.461381    ( 0.0000,  0.0000,  0.0000)
  21 Li     1.615657    4.850173   13.472078    ( 0.0000,  0.0000,  0.0000)
  22 Li     4.852349    4.849886   13.471939    ( 0.0000,  0.0000,  0.0000)
[...]
iter:  18 04:08:39  -309.938827c -6.95  -4.72c
iter:  19 04:08:46  -309.938827c -7.14  -4.86c
Writing to output.gpw (mode='')

iter:  20 04:08:54  -309.938827c -7.31  -4.97c
iter:  21 04:09:01  -309.938827c -7.59c -5.02c

Converged after 21 iterations.

Dipole moment: (-0.463634, -2.651623, 0.274479) |e|*Ang

Energy contributions relative to reference atoms: (reference = -14434.854043)

Kinetic:       +148.853490
Potential:     -140.981954
External:        +0.000000
XC:            -318.509165
Entropy (-ST):   -0.161653
Local:           +0.779629
--------------------------
Free energy:   -310.019653
Extrapolated:  -309.938827

Dipole-layer corrected work functions: 3.401844, 2.874201 eV

Showing only first 2 kpts
 Kpt  Band  Eigenvalues  Occupancy
  0    31     -3.34361    1.96777
  0    32     -3.14797    1.09918
  0    33     -3.12163    0.83753
  0    34     -3.03955    0.24490

  1    31     -3.45484    1.99646
  1    32     -3.08916    0.54690
  1    33     -3.03297    0.21800
  1    34     -3.01527    0.15814


Fermi level: -3.13802

No gap
Writing to output.gpw (mode='')


Forces in eV/Ang:
  0 Li   -0.00883   -0.01104   -0.29194
  1 Li    0.00973    0.01003   -0.29214
  2 Li   -0.00097   -0.00139   -0.24818
  3 Li    0.01634    0.01530   -0.28622
  4 Li   -0.00875    0.00831   -0.29145
  5 Li   -0.01083   -0.00798   -0.29390
  6 Li    0.00695   -0.00839   -0.29266
  7 Li   -0.01543   -0.01538   -0.28588
  8 Li    0.01033    0.01113   -0.29005
  9 Li   -0.01857    0.01168    0.29610
 10 Li    0.01688    0.00898    0.26636
 11 Li    0.01936    0.01302    0.22764
 12 Li   -0.02693   -0.03609    0.26972
 13 Li   -0.00618   -0.02504    0.28455
 14 Li    0.01220   -0.03109    0.30808
 15 Li   -0.01449   -0.00029    0.28702
 16 Li    0.00258    0.01139    0.27388
 17 Li    0.01183    0.02437    0.27703
 18 Li    0.00071   -0.00176   -0.00183
 19 Li   -0.00479    0.00083   -0.00272
 20 Li    0.00484    0.01490    0.01229
 21 Li    0.00385   -0.00013   -0.00071
 22 Li   -0.00884    0.00832   -0.00561
 23 Li    0.00527   -0.00075    0.00034
 24 Li   -0.00469    0.00592    0.00016
 25 Li    0.00451   -0.00085    0.00265
 26 Li    0.00275   -0.00046    0.00131
 27 Li   -0.00423    0.00595   -0.00174
 28 Li   -0.00702    0.00134    0.00244
 29 Li   -0.00275    0.00309    0.00685
 30 Li    0.00138    0.00766    0.00287
 31 Li    0.00701    0.00107   -0.00107
 32 Li    0.00545    0.00008   -0.00375
 33 Li   -0.00462    0.00987    0.00323
 34 Li    0.00193   -0.00234    0.00241
 35 Li    0.00056   -0.00091   -0.00249
 36 O     0.04416   -0.03254   -0.01724
 37 C    -0.00527    0.00994    0.00005
 38 C    -0.00651    0.02348    0.02064
 39 H     0.00379   -0.01369   -0.00292
 40 H    -0.00171   -0.00935   -0.00463
 41 H     0.01479    0.00967    0.00872
 42 H     0.00432   -0.00896    0.00476
 43 H    -0.00889   -0.01770    0.02649
 44 H    -0.03216    0.01210    0.02877
 45 N     0.00657   -0.02025   -0.01841
 46 N    -0.00871    0.00450    0.00078

System changes: positions 

Initializing position-dependent things.

Density initialized from wave functions
       .-----------------------.  
      /|                       |  
     / |                       |  
    /  |                       |  
   /   |                       |  
  /    |                       |  
 *     |                       |  
 |     |                       |  
 |     |                       |  
 |     |                       |  
 |     |                       |  
 |     |              H        |  
 |     |                  HH   |  
 |     Li      Li    H  CC     |  
 | H   |              HO       |  
 |   Li|     Li      Li        |  
 |     |                       |  
 |     |  LLi     LLi     Li   |  
 |     |             N N       |  
 |     |Li      LiLi    Li     |  
 |   Li|     Li      Li        |  
 |    Li  Li  Li  Li  Li  Li   |  
 | Li  |   Li      Li          |  
 |     |Li      Li      Li     |  
 Li    | Li      Li            |  
 |    Li      Li      Li       |  
 |     |                       |  
 |     |                       |  
 |     |                       |  
 |     |                       |  
 |     |                       |  
 |     |                       |  
 |     .-----------------------.  
 |    /                       /   
 |   /                       /    
 |  /                       /     
 | /                       /      
 |/                       /       
 *-----------------------*        

Positions:
   0 Li     1.617037    1.617037   10.000000    ( 0.0000,  0.0000,  0.0000)
   1 Li     4.851111    1.617037   10.000000    ( 0.0000,  0.0000,  0.0000)
   2 Li     8.085185    1.617037   10.000000    ( 0.0000,  0.0000,  0.0000)
   3 Li     1.617037    4.851111   10.000000    ( 0.0000,  0.0000,  0.0000)
   4 Li     4.851111    4.851111   10.000000    ( 0.0000,  0.0000,  0.0000)
   5 Li     8.085185    4.851111   10.000000    ( 0.0000,  0.0000,  0.0000)
   6 Li     1.617037    8.085185   10.000000    ( 0.0000,  0.0000,  0.0000)
   7 Li     4.851111    8.085185   10.000000    ( 0.0000,  0.0000,  0.0000)
   8 Li     8.085185    8.085185   10.000000    ( 0.0000,  0.0000,  0.0000)
   9 Li     0.000000    0.000000   11.617037    ( 0.0000,  0.0000,  0.0000)
  10 Li     3.234074    0.000000   11.617037    ( 0.0000,  0.0000,  0.0000)
  11 Li     6.468148    0.000000   11.617037    ( 0.0000,  0.0000,  0.0000)
  12 Li     0.000000    3.234074   11.617037    ( 0.0000,  0.0000,  0.0000)
  13 Li     3.234074    3.234074   11.617037    ( 0.0000,  0.0000,  0.0000)
  14 Li     6.468148    3.234074   11.617037    ( 0.0000,  0.0000,  0.0000)
  15 Li     0.000000    6.468148   11.617037    ( 0.0000,  0.0000,  0.0000)
  16 Li     3.234074    6.468148   11.617037    ( 0.0000,  0.0000,  0.0000)
  17 Li     6.468148    6.468148   11.617037    ( 0.0000,  0.0000,  0.0000)
  18 Li     1.616598    1.556419   13.492236    ( 0.0000,  0.0000,  0.0000)
  19 Li     4.865828    1.639262   13.493804    ( 0.0000,  0.0000,  0.0000)
  20 Li     8.066361    1.575285   13.509222    ( 0.0000,  0.0000,  0.0000)
  21 Li     1.559708    4.792379   13.469008    ( 0.0000,  0.0000,  0.0000)
  22 Li     4.809581    4.893675   13.471642    ( 0.0000,  0.0000,  0.0000)
  23 Li     8.027687    4.850002   13.474734    ( 0.0000,  0.0000,  0.0000)
  24 Li     1.668713    8.054513   13.482264    ( 0.0000,  0.0000,  0.0000)
  25 Li     4.917200    8.153464   13.486275    ( 0.0000,  0.0000,  0.0000)
  26 Li     8.127365    8.105639   13.505551    ( 0.0000,  0.0000,  0.0000)
  27 Li     0.139215   -0.105488   15.510211    ( 0.0000,  0.0000,  0.0000)
  28 Li     3.408422   -0.059120   15.439058    ( 0.0000,  0.0000,  0.0000)
  29 Li     6.751635    0.263163   15.643840    ( 0.0000,  0.0000,  0.0000)
  30 Li    -0.231608    3.005943   15.430278    ( 0.0000,  0.0000,  0.0000)
  31 Li     3.086017    3.279589   15.409312    ( 0.0000,  0.0000,  0.0000)
  32 Li     6.327216    3.344086   15.408712    ( 0.0000,  0.0000,  0.0000)
  33 Li     0.062706    6.336071   15.381857    ( 0.0000,  0.0000,  0.0000)
  34 Li     3.229422    6.457705   15.428962    ( 0.0000,  0.0000,  0.0000)
  35 Li     6.406867    6.627188   15.417404    ( 0.0000,  0.0000,  0.0000)
  36 O      8.287656    1.667215   19.035428    ( 0.0000,  0.0000,  0.0000)
  37 C      9.057392    2.879738   18.997518    ( 0.0000,  0.0000,  0.0000)
  38 C      8.198205    4.129272   18.860604    ( 0.0000,  0.0000,  0.0000)
  39 H      9.700388    2.952942   19.884468    ( 0.0000,  0.0000,  0.0000)
  40 H      9.718006    2.765802   18.133321    ( 0.0000,  0.0000,  0.0000)
  41 H      8.830286    5.013569   18.739916    ( 0.0000,  0.0000,  0.0000)
  42 H      7.545931    4.056968   17.988166    ( 0.0000,  0.0000,  0.0000)
  43 H      7.575751    4.281844   19.746741    ( 0.0000,  0.0000,  0.0000)
  44 H      7.776045    1.664704   19.852978    ( 0.0000,  0.0000,  0.0000)
  45 N      8.549968    1.201154   15.531505    ( 0.0000,  0.0000,  0.0000)
  46 N      7.655058    2.079905   15.511738    ( 0.0000,  0.0000,  0.0000)

Unit cell:
           periodic     x           y           z      points  spacing
  1. axis:    yes    9.702222    0.000000    0.000000    60     0.1617
  2. axis:    yes    0.000000    9.702222    0.000000    60     0.1617
  3. axis:    no     0.000000    0.000000   26.351111   164     0.1607

  Lengths:   9.702222   9.702222  26.351111
  Angles:   90.000000  90.000000  90.000000

Effective grid spacing dv^(1/3) = 0.1614

     iter     time        total  log10-change:
                         energy  eigst   dens
iter:   1 04:09:09  -309.941802  -1.99
iter:   2 04:09:17  -309.940722  -2.75  -2.36
iter:   3 04:09:29  -309.940052c -3.41  -2.58
iter:   4 04:09:37  -309.939712c -3.87  -2.78
Writing to output.gpw (mode='')

iter:   5 04:09:44  -309.939097c -3.13  -2.88
iter:   6 04:09:51  -309.939098c -3.19  -3.09
iter:   7 04:09:58  -309.939178c -3.44  -3.22
iter:   8 04:10:05  -309.939127c -4.37  -3.17
iter:   9 04:10:13  -309.939174c -3.93  -3.49
Writing to output.gpw (mode='')

iter:  10 04:10:20  -309.939099c -5.02  -3.45
iter:  11 04:10:27  -309.939088c -4.95  -3.70
iter:  12 04:10:34  -309.939076c -5.04  -3.82
iter:  13 04:10:41  -309.939083c -5.39  -3.85
iter:  14 04:10:48  -309.939086c -5.52  -3.94
Writing to output.gpw (mode='')

iter:  15 04:10:56  -309.939089c -6.11  -4.09c
iter:  16 04:11:03  -309.939095c -6.15  -4.14c
iter:  17 04:11:10  -309.939095c -6.31  -4.41c
iter:  18 04:11:17  -309.939094c -6.43  -4.47c
iter:  19 04:11:24  -309.939099c -6.29  -4.61c
Writing to output.gpw (mode='')

iter:  20 04:11:31  -309.939097c -6.99  -4.62c
iter:  21 04:11:39  -309.939097c -7.21  -4.78c
iter:  22 04:11:46  -309.939096c -7.15  -4.83c
iter:  23 04:11:53  -309.939095c -7.42c -4.99c

Converged after 23 iterations.

Dipole moment: (-0.406547, -2.686947, 0.276152) |e|*Ang

Energy contributions relative to reference atoms: (reference = -14434.854043)

Kinetic:       +148.814125
Potential:     -140.950714
External:        +0.000000
XC:            -318.501531
Entropy (-ST):   -0.161659
Local:           +0.779854
--------------------------
Free energy:   -310.019925
Extrapolated:  -309.939095

Dipole-layer corrected work functions: 3.401813, 2.870954 eV

Showing only first 2 kpts
 Kpt  Band  Eigenvalues  Occupancy
  0    31     -3.34142    1.96742
  0    32     -3.14661    1.10188
  0    33     -3.11995    0.83710
  0    34     -3.03791    0.24491

  1    31     -3.45314    1.99646
  1    32     -3.08791    0.54996
  1    33     -3.03129    0.21782
  1    34     -3.01430    0.16011


Fermi level: -3.13638

No gap
Writing to output.gpw (mode='')


Forces in eV/Ang:
  0 Li   -0.00901   -0.01120   -0.29194
  1 Li    0.00960    0.01018   -0.29216
  2 Li   -0.00101   -0.00136   -0.24790
  3 Li    0.01628    0.01531   -0.28615
  4 Li   -0.00875    0.00830   -0.29125
  5 Li   -0.01100   -0.00791   -0.29392
  6 Li    0.00691   -0.00851   -0.29268
  7 Li   -0.01546   -0.01540   -0.28576
  8 Li    0.01044    0.01115   -0.28997
  9 Li   -0.01823    0.01172    0.29645
 10 Li    0.01699    0.00922    0.26724
 11 Li    0.01989    0.01277    0.22721
 12 Li   -0.02609   -0.03582    0.26980
 13 Li   -0.00559   -0.02501    0.28556
 14 Li    0.01339   -0.03213    0.30829
 15 Li   -0.01471    0.00001    0.28760
 16 Li    0.00306    0.01134    0.27455
 17 Li    0.01193    0.02414    0.27695
 18 Li    0.00112   -0.00300   -0.00259
 19 Li   -0.00464    0.00186   -0.00167
 20 Li    0.00164    0.01668    0.00352
 21 Li    0.00354   -0.00151   -0.00112
 22 Li   -0.01040    0.00968   -0.00613
 23 Li    0.00553   -0.00033    0.00104
 24 Li   -0.00427    0.00626    0.00070
 25 Li    0.00438   -0.00080    0.00211
 26 Li    0.00464   -0.00023    0.00108
 27 Li    0.00474   -0.00326   -0.00432
 28 Li   -0.00620    0.00078    0.00239
 29 Li   -0.01172   -0.00265    0.00719
 30 Li    0.00048    0.00891    0.00332
 31 Li    0.00367    0.00171   -0.00116
 32 Li    0.00390   -0.00019   -0.00400
 33 Li   -0.00463    0.00816    0.00323
 34 Li    0.00215   -0.00241    0.00202
 35 Li   -0.00016    0.00070   -0.00216
 36 O     0.03179   -0.02694    0.00408
 37 C    -0.01615   -0.02053   -0.00011
 38 C     0.00639    0.00993    0.02095
 39 H     0.00711   -0.00931   -0.00730
 40 H    -0.00275   -0.00089    0.00671
 41 H     0.00776    0.01724    0.00621
 42 H     0.00306   -0.00615    0.01388
 43 H    -0.01090   -0.01580    0.01819
 44 H    -0.02248    0.01576    0.00626
 45 N     0.00211   -0.02031   -0.00309
 46 N    -0.00491    0.00833    0.00246

Timing:                                      incl.     excl.
-------------------------------------------------------------------
Density initialized from wave functions:     4.367     4.365   0.0% |
 Symmetrize density:                         0.002     0.002   0.0% |
Forces:                                     39.877    39.877   0.2% |
Hamiltonian:                               523.102     0.013   0.0% |
 Atomic:                                     0.021     0.021   0.0% |
  XC Correction:                             0.000     0.000   0.0% |
 Calculate atomic Hamiltonians:              0.035     0.035   0.0% |
 Communicate:                               10.736    10.736   0.0% |
 Hartree integrate/restrict:                 1.818     1.818   0.0% |
 Initialize Hamiltonian:                     0.001     0.001   0.0% |
 Poisson:                                   24.394     8.918   0.0% |
  Communicate from 1D:                       2.404     2.404   0.0% |
  Communicate from 2D:                       2.442     2.442   0.0% |
  Communicate to 1D:                         1.348     1.348   0.0% |
  Communicate to 2D:                         2.807     2.807   0.0% |
  FFT 1D:                                    3.249     3.249   0.0% |
  FFT 2D:                                    3.225     3.225   0.0% |
 XC 3D grid:                               485.656    74.487   0.3% |
  VdW-DF integral:                         411.169     3.419   0.0% |
   Convolution:                             38.504    38.504   0.2% |
   FFT:                                     16.342    16.342   0.1% |
   gather:                                 142.991   142.991   0.6% |
   hmm1:                                    13.286    13.286   0.1% |
   hmm2:                                    17.693    17.693   0.1% |
   iFFT:                                    16.930    16.930   0.1% |
   potential:                              158.358     4.401   0.0% |
    collect:                                24.810    24.810   0.1% |
    p1:                                     72.726    72.726   0.3% |
    p2:                                     27.296    27.296   0.1% |
    sum:                                    29.126    29.126   0.1% |
   splines:                                  3.645     3.645   0.0% |
 vbar:                                       0.429     0.429   0.0% |
LCAO initialization:                         1.117     0.186   0.0% |
 LCAO eigensolver:                           0.269     0.000   0.0% |
  Calculate projections:                     0.000     0.000   0.0% |
  DenseAtomicCorrection:                     0.000     0.000   0.0% |
  Distribute overlap matrix:                 0.221     0.221   0.0% |
  Orbital Layouts:                           0.046     0.046   0.0% |
  Potential matrix:                          0.001     0.001   0.0% |
  Sum over cells:                            0.001     0.001   0.0% |
 LCAO to grid:                               0.543     0.543   0.0% |
 Set positions (LCAO WFS):                   0.120     0.076   0.0% |
  Basic WFS set positions:                   0.001     0.001   0.0% |
  Basis functions set positions:             0.000     0.000   0.0% |
  P tci:                                     0.000     0.000   0.0% |
  ST tci:                                    0.012     0.012   0.0% |
  mktci:                                     0.031     0.031   0.0% |
Redistribute:                                0.060     0.060   0.0% |
SCF-cycle:                               23490.259   501.879   2.1% ||
 Davidson:                                5883.056  1748.496   7.2% |--|
  Apply hamiltonian:                       365.110   365.110   1.5% ||
  Subspace diag:                          1103.882     0.362   0.0% |
   calc_h_matrix:                          535.440   164.181   0.7% |
    Apply hamiltonian:                     371.259   371.259   1.5% ||
   diagonalize:                             64.299    64.299   0.3% |
   rotate_psi:                             503.781   503.781   2.1% ||
  calc. matrices:                         1846.686   925.620   3.8% |-|
   Apply hamiltonian:                      921.066   921.066   3.8% |-|
  diagonalize:                              16.613    16.613   0.1% |
  rotate_psi:                              802.270   802.270   3.3% ||
 Density:                                  118.791     0.081   0.0% |
  Atomic density matrices:                  15.618    15.618   0.1% |
  Mix:                                      52.254    52.254   0.2% |
  Multipole moments:                         5.863     5.863   0.0% |
  Pseudo density:                           44.975    44.904   0.2% |
   Symmetrize density:                       0.071     0.071   0.0% |
 Hamiltonian:                            16968.773     0.406   0.0% |
  Atomic:                                    0.734     0.725   0.0% |
   XC Correction:                            0.009     0.009   0.0% |
  Calculate atomic Hamiltonians:             1.175     1.175   0.0% |
  Communicate:                             256.734   256.734   1.1% |
  Hartree integrate/restrict:               60.579    60.579   0.3% |
  Poisson:                                 805.326   296.540   1.2% |
   Communicate from 1D:                     78.961    78.961   0.3% |
   Communicate from 2D:                     80.740    80.740   0.3% |
   Communicate to 1D:                       45.136    45.136   0.2% |
   Communicate to 2D:                       91.495    91.495   0.4% |
   FFT 1D:                                 106.559   106.559   0.4% |
   FFT 2D:                                 105.897   105.897   0.4% |
  XC 3D grid:                            15829.498  2421.723  10.0% |---|
   VdW-DF integral:                      13407.776   111.493   0.5% |
    Convolution:                          1255.006  1255.006   5.2% |-|
    FFT:                                   534.728   534.728   2.2% ||
    gather:                               4683.095  4683.095  19.4% |-------|
    hmm1:                                  433.053   433.053   1.8% ||
    hmm2:                                  574.371   574.371   2.4% ||
    iFFT:                                  551.639   551.639   2.3% ||
    potential:                            5264.363   143.691   0.6% |
     collect:                              814.440   814.440   3.4% ||
     p1:                                  2366.086  2366.086   9.8% |---|
     p2:                                   891.989   891.989   3.7% ||
     sum:                                 1048.157  1048.157   4.3% |-|
    splines:                                 0.027     0.027   0.0% |
  vbar:                                     14.320    14.320   0.1% |
 Orthonormalize:                            17.759     0.013   0.0% |
  calc_s_matrix:                             2.323     2.323   0.0% |
  inverse-cholesky:                          6.321     6.321   0.0% |
  projections:                               0.002     0.002   0.0% |
  rotate_psi_s:                              9.100     9.100   0.0% |
Set symmetry:                                0.004     0.004   0.0% |
Other:                                     103.200   103.200   0.4% |
-------------------------------------------------------------------
Total:                                             24161.986 100.0%

Memory usage: 1.11 GiB
Date: Thu Mar  9 04:11:54 2023
