
  ___ ___ ___ _ _ _  
 |   |   |_  | | | | 
 | | | | | . | | | | 
 |__ |  _|___|_____|  22.8.0
 |___|_|             

User:   vazumah@c09.hercules
Date:   Sat Feb 25 22:52:08 2023
Arch:   x86_64
Pid:    20805
CWD:    /home/vazumah/Python_projects/LiNRR/Li_adsorb_studies/proton_donors/N2_with_proton_donor/Li_BCC_100/adsorbates/CH3CH2OH_z/bridge/8.085_1.617/N2_y
Python: 3.10.8
gpaw:   /home/vazumah/.conda/envs/GPAW/lib/python3.10/site-packages/gpaw
_gpaw:  /home/vazumah/.conda/envs/GPAW/lib/python3.10/site-packages/
        _gpaw.cpython-310-x86_64-linux-gnu.so
ase:    /home/vazumah/.conda/envs/GPAW/lib/python3.10/site-packages/ase (version 3.22.1)
numpy:  /home/vazumah/.conda/envs/GPAW/lib/python3.10/site-packages/numpy (version 1.24.1)
scipy:  /home/vazumah/.conda/envs/GPAW/lib/python3.10/site-packages/scipy (version 1.10.0)
libxc:  5.2.3
units:  Angstrom and eV
cores: 24
OpenMP: True
OMP_NUM_THREADS: 1

Input parameters:
  h: 0.16

System changes: positions, numbers, cell, pbc, initial_charges, initial_magmoms 

Initialize ...

species:
  Li:
    name: Lithium
    id: b73562207f97a71b6967473b66fe8b65
    Z: 3.0
    valence: 1
    core: 2
    charge: 0.0
    file: /home/vazumah/.conda/envs/GPAW/share/gpaw/Li.LDA.gz
    compensation charges: {type: gauss,
                           rc: 0.33,
                           lmax: 2}
    cutoffs: {filter: 1.91,
              core: 2.55}
    valence states:
      #              energy  rcut
      - 2s(1.00)    -2.874   1.058
      - 2p(0.00)    -1.126   1.058
      -  s          24.338   1.058
  
    # Using partial waves for Li as LCAO basis

  O:
    name: Oxygen
    id: 9b9d51c344dea68c822856295a461509
    Z: 8.0
    valence: 6
    core: 2
    charge: 0.0
    file: /home/vazumah/.conda/envs/GPAW/share/gpaw/O.LDA.gz
    compensation charges: {type: gauss,
                           rc: 0.21,
                           lmax: 2}
    cutoffs: {filter: 1.17,
              core: 0.83}
    valence states:
      #              energy  rcut
      - 2s(2.00)   -23.752   0.688
      - 2p(4.00)    -9.195   0.598
      -  s           3.459   0.688
      -  p          18.016   0.598
      -  d           0.000   0.619
  
    # Using partial waves for O as LCAO basis

  C:
    name: Carbon
    id: d60576a1f549371a163e72552ca58787
    Z: 6.0
    valence: 4
    core: 2
    charge: 0.0
    file: /home/vazumah/.conda/envs/GPAW/share/gpaw/C.LDA.gz
    compensation charges: {type: gauss,
                           rc: 0.20,
                           lmax: 2}
    cutoffs: {filter: 1.14,
              core: 1.14}
    valence states:
      #              energy  rcut
      - 2s(2.00)   -13.639   0.635
      - 2p(2.00)    -5.414   0.635
      -  s          13.573   0.635
      -  p          21.797   0.635
      -  d           0.000   0.635
  
    # Using partial waves for C as LCAO basis

  H:
    name: Hydrogen
    id: 4766778ce56282eaa64abeb28b7c1de3
    Z: 1.0
    valence: 1
    core: 0
    charge: 0.0
    file: /home/vazumah/.conda/envs/GPAW/share/gpaw/H.LDA.gz
    compensation charges: {type: gauss,
                           rc: 0.15,
                           lmax: 2}
    cutoffs: {filter: 0.85,
              core: 0.53}
    valence states:
      #              energy  rcut
      - 1s(1.00)    -6.353   0.476
      -  s          20.858   0.476
      -  p           0.000   0.476
  
    # Using partial waves for H as LCAO basis

  N:
    name: Nitrogen
    id: c467cdfa1b75f62c8f7a0469921b1cfb
    Z: 7.0
    valence: 5
    core: 2
    charge: 0.0
    file: /home/vazumah/.conda/envs/GPAW/share/gpaw/N.LDA.gz
    compensation charges: {type: gauss,
                           rc: 0.18,
                           lmax: 2}
    cutoffs: {filter: 1.11,
              core: 0.96}
    valence states:
      #              energy  rcut
      - 2s(2.00)   -18.420   0.603
      - 2p(3.00)    -7.237   0.529
      -  s           8.791   0.603
      -  p          19.974   0.529
      -  d           0.000   0.577
  
    # Using partial waves for N as LCAO basis

Reference energy: -14265.952424  # eV

Spin-paired calculation

Convergence criteria:
 Maximum [total energy] change in last 3 cyles: 0.0005 eV / electron
 Maximum integral of absolute [dens]ity change: 0.0001 electrons / valence electron
 Maximum integral of absolute [eigenst]ate change: 4e-08 eV^2 / valence electron
 Maximum number of scf [iter]ations: 333
 (Square brackets indicate name in SCF output, whereas a 'c' in
 the SCF output indicates the quantity has converged.)

Symmetries present (total): 1

  ( 1  0  0)
  ( 0  1  0)
  ( 0  0  1)

1 k-point (Gamma)
1 k-point in the irreducible part of the Brillouin zone
       k-points in crystal coordinates                weights
   0:     0.00000000    0.00000000    0.00000000          1/1

Wave functions: Uniform real-space grid
  Kinetic energy operator: 6*3+1=19 point O(h^6) finite-difference Laplacian
  ScaLapack parameters: grid=1x1, blocksize=None
  Wavefunction extrapolation:
    Improved wavefunction reuse through dual PAW basis 

Occupation numbers: Fermi-Dirac:
  width: 0.1000  # eV
 

Eigensolver
   Davidson(niter=2) 

Densities:
  Coarse grid: 60*60*156 grid
  Fine grid: 120*120*312 grid
  Total Charge: 0.000000 

Density mixing:
  Method: separate
  Backend: pulay
  Linear mixing parameter: 0.05
  old densities: 5
  Damping of long wavelength oscillations: 50 

Hamiltonian:
  XC and Coulomb potentials evaluated on a 120*120*312 grid
  Using the LDA Exchange-Correlation functional
  Interpolation: tri-quintic (5. degree polynomial)
  Poisson solver: FastPoissonSolver using
    Stencil: 6*3+1=19 point O(h^6) finite-difference Laplacian
    FFT axes: [0, 1]
    FST axes: [2]
 

Memory estimate:
  Process memory now: 233.62 MiB
  Calculator: 34.86 MiB
    Density: 14.67 MiB
      Arrays: 4.55 MiB
      Localized functions: 8.41 MiB
      Mixer: 1.72 MiB
    Hamiltonian: 3.64 MiB
      Arrays: 2.97 MiB
      XC: 0.00 MiB
      Poisson: 0.00 MiB
      vbar: 0.66 MiB
    Wavefunctions: 16.55 MiB
      Arrays psit_nG: 7.55 MiB
      Eigensolver: 8.56 MiB
      Projections: 0.00 MiB
      Projectors: 0.43 MiB

Total number of cores used: 24
Domain decomposition: 2 x 2 x 6

Number of atoms: 47
Number of atomic orbitals: 170
Number of bands in calculation: 44
Number of valence electrons: 66
Bands to converge: occupied

... initialized

Initializing position-dependent things.

Density initialized from atomic densities
Creating initial wave functions:
  44 bands from LCAO basis set

       .-----------------------.  
      /|                       |  
     / |                       |  
    /  |                       |  
   /   |                       |  
  /    |                       |  
 *     |                       |  
 |     |                       |  
 |     |                       |  
 |     |            H    H     |  
 |     |              H        |  
 |     |            H O        |  
 |     Li      Li  H  C H      |  
 |     |                       |  
 |   Li|     Li      Li        |  
 |     |  Li      Li      Li   |  
 |     |   Li      LiN    Li   |  
 |     |Li      LiLi   NLi     |  
 |     |                       |  
 |   LLi     LLi     LLi       |  
 |     |  Li      Li      Li   |  
 | Li  |   Li      Li          |  
 |     |Li      Li      Li     |  
 Li    | Li      Li            |  
 |    Li      Li      Li       |  
 |     |                       |  
 |     |                       |  
 |     |                       |  
 |     |                       |  
 |     |                       |  
 |     |                       |  
 |     .-----------------------.  
 |    /                       /   
 |   /                       /    
 |  /                       /     
 | /                       /      
 |/                       /       
 *-----------------------*        

Positions:
   0 Li     1.617037    1.617037   10.000000    ( 0.0000,  0.0000,  0.0000)
   1 Li     4.851111    1.617037   10.000000    ( 0.0000,  0.0000,  0.0000)
   2 Li     8.085185    1.617037   10.000000    ( 0.0000,  0.0000,  0.0000)
   3 Li     1.617037    4.851111   10.000000    ( 0.0000,  0.0000,  0.0000)
   4 Li     4.851111    4.851111   10.000000    ( 0.0000,  0.0000,  0.0000)
   5 Li     8.085185    4.851111   10.000000    ( 0.0000,  0.0000,  0.0000)
   6 Li     1.617037    8.085185   10.000000    ( 0.0000,  0.0000,  0.0000)
   7 Li     4.851111    8.085185   10.000000    ( 0.0000,  0.0000,  0.0000)
   8 Li     8.085185    8.085185   10.000000    ( 0.0000,  0.0000,  0.0000)
   9 Li     0.000000    0.000000   11.617037    ( 0.0000,  0.0000,  0.0000)
  10 Li     3.234074    0.000000   11.617037    ( 0.0000,  0.0000,  0.0000)
  11 Li     6.468148    0.000000   11.617037    ( 0.0000,  0.0000,  0.0000)
  12 Li     0.000000    3.234074   11.617037    ( 0.0000,  0.0000,  0.0000)
  13 Li     3.234074    3.234074   11.617037    ( 0.0000,  0.0000,  0.0000)
  14 Li     6.468148    3.234074   11.617037    ( 0.0000,  0.0000,  0.0000)
  15 Li     0.000000    6.468148   11.617037    ( 0.0000,  0.0000,  0.0000)
  16 Li     3.234074    6.468148   11.617037    ( 0.0000,  0.0000,  0.0000)
  17 Li     6.468148    6.468148   11.617037    ( 0.0000,  0.0000,  0.0000)
  18 Li     1.595509    1.594341   13.521113    ( 0.0000,  0.0000,  0.0000)
  19 Li     4.875757    1.669805   13.523007    ( 0.0000,  0.0000,  0.0000)
  20 Li     8.084601    1.619304   13.573205    ( 0.0000,  0.0000,  0.0000)
  21 Li     1.537970    4.787371   13.515473    ( 0.0000,  0.0000,  0.0000)
  22 Li     4.813147    4.877897   13.504320    ( 0.0000,  0.0000,  0.0000)
  23 Li     8.033336    4.828877   13.530236    ( 0.0000,  0.0000,  0.0000)
  24 Li     1.653345    8.047130   13.481953    ( 0.0000,  0.0000,  0.0000)
  25 Li     4.911990    8.143315   13.494306    ( 0.0000,  0.0000,  0.0000)
  26 Li     8.125773    8.099628   13.516332    ( 0.0000,  0.0000,  0.0000)
  27 Li     0.122820   -0.114585   15.486523    ( 0.0000,  0.0000,  0.0000)
  28 Li     3.369991   -0.045509   15.433870    ( 0.0000,  0.0000,  0.0000)
  29 Li     6.701148    0.204638   15.590293    ( 0.0000,  0.0000,  0.0000)
  30 Li    -0.305390    2.980364   15.691723    ( 0.0000,  0.0000,  0.0000)
  31 Li     3.083623    3.281383   15.463522    ( 0.0000,  0.0000,  0.0000)
  32 Li     6.319692    3.337664   15.554884    ( 0.0000,  0.0000,  0.0000)
  33 Li     0.047264    6.350009   15.456463    ( 0.0000,  0.0000,  0.0000)
  34 Li     3.243262    6.476191   15.445465    ( 0.0000,  0.0000,  0.0000)
  35 Li     6.419510    6.599247   15.450516    ( 0.0000,  0.0000,  0.0000)
  36 O      7.889996    2.545694   19.227444    ( 0.0000,  0.0000,  0.0000)
  37 C      8.020026    1.225021   19.777759    ( 0.0000,  0.0000,  0.0000)
  38 C      8.194501    1.224440   21.291760    ( 0.0000,  0.0000,  0.0000)
  39 H      7.159011    0.607327   19.488645    ( 0.0000,  0.0000,  0.0000)
  40 H      8.900117    0.803689   19.287345    ( 0.0000,  0.0000,  0.0000)
  41 H      8.352089    0.206024   21.656245    ( 0.0000,  0.0000,  0.0000)
  42 H      9.054614    1.831527   21.579376    ( 0.0000,  0.0000,  0.0000)
  43 H      7.307568    1.625626   21.791403    ( 0.0000,  0.0000,  0.0000)
  44 H      7.058133    2.920631   19.540742    ( 0.0000,  0.0000,  0.0000)
  45 N      7.601176    2.026264   15.591869    ( 0.0000,  0.0000,  0.0000)
  46 N      8.503069    1.152415   15.590895    ( 0.0000,  0.0000,  0.0000)

Unit cell:
           periodic     x           y           z      points  spacing
  1. axis:    yes    9.702222    0.000000    0.000000    60     0.1617
  2. axis:    yes    0.000000    9.702222    0.000000    60     0.1617
  3. axis:    no     0.000000    0.000000   24.851111   156     0.1593

  Lengths:   9.702222   9.702222  24.851111
  Angles:   90.000000  90.000000  90.000000

Effective grid spacing dv^(1/3) = 0.1609

     iter     time        total  log10-change:
                         energy  eigst   dens
iter:   1 22:52:43  -215.245671
iter:   2 22:53:09   -97.108533  +1.74  -0.19
iter:   3 22:53:36   -70.900595  +2.79  -0.42
iter:   4 22:54:02   -79.910024  +2.31  -0.57
iter:   5 22:54:27  -127.444843  +2.96  -0.67
iter:   6 22:54:52  -139.999973  +2.24  -0.69
iter:   7 22:55:18  -143.413227  +1.86  -0.76
iter:   8 22:55:45  -153.695402  +1.61  -0.81
iter:   9 22:56:11  -155.683645  +1.27  -0.70
iter:  10 22:56:37  -150.325758  +0.91  -0.71
iter:  11 22:57:04  -145.766833  +0.67  -0.81
iter:  12 22:57:30  -140.963175  +0.74  -0.88
iter:  13 22:57:54  -140.832813  +0.01  -0.95
iter:  14 22:58:21  -139.486281  +0.19  -0.95
iter:  15 22:58:47  -139.099642  +0.07  -1.04
iter:  16 22:59:13  -138.770122  +0.05  -1.08
iter:  17 22:59:38  -138.538282  +0.10  -1.21
iter:  18 23:00:03  -137.930532  -0.08  -1.18
iter:  19 23:00:28  -137.889098  -0.21  -1.44
iter:  20 23:00:54  -137.913679  -0.57  -1.54
iter:  21 23:01:23  -137.881234c -0.97  -1.56
iter:  22 23:01:48  -137.808232  -0.70  -1.60
iter:  23 23:02:11  -137.825158  -1.03  -1.79
iter:  24 23:02:37  -137.824587c -0.90  -1.80
iter:  25 23:03:01  -137.798467c -1.31  -1.86
iter:  26 23:03:26  -137.797913c -1.45  -2.09
iter:  27 23:03:52  -137.797246c -2.15  -2.16
iter:  28 23:04:16  -137.795652c -1.70  -2.22
iter:  29 23:04:42  -137.795988c -2.22  -2.35
iter:  30 23:05:08  -137.795418c -2.62  -2.37
iter:  31 23:05:33  -137.794678c -2.37  -2.42
iter:  32 23:05:59  -137.794932c -2.65  -2.68
iter:  33 23:06:25  -137.795291c -3.11  -2.73
iter:  34 23:06:52  -137.795400c -3.06  -2.80
iter:  35 23:07:19  -137.795333c -3.67  -2.97
iter:  36 23:07:47  -137.794999c -3.43  -3.01
iter:  37 23:08:16  -137.795130c -3.41  -3.07
iter:  38 23:08:42  -137.795040c -3.88  -3.19
iter:  39 23:09:09  -137.795105c -3.98  -3.26
iter:  40 23:09:36  -137.795148c -3.87  -3.29
iter:  41 23:10:03  -137.795097c -3.84  -3.47
iter:  42 23:10:31  -137.795100c -4.60  -3.68
iter:  43 23:10:58  -137.795080c -4.64  -3.69
iter:  44 23:11:25  -137.795074c -4.62  -3.75
iter:  45 23:11:56  -137.795087c -4.89  -3.83
iter:  46 23:12:21  -137.795081c -4.72  -3.90
iter:  47 23:12:48  -137.795083c -5.15  -4.14c
iter:  48 23:13:14  -137.795084c -5.31  -4.18c
iter:  49 23:13:42  -137.795089c -5.15  -4.32c
iter:  50 23:14:08  -137.795088c -5.60  -4.44c
iter:  51 23:14:34  -137.795088c -5.34  -4.45c
iter:  52 23:15:01  -137.795086c -5.38  -4.56c
iter:  53 23:15:27  -137.795084c -5.63  -4.61c
iter:  54 23:15:53  -137.795083c -5.65  -4.67c
iter:  55 23:16:19  -137.795084c -6.06  -4.82c
iter:  56 23:16:45  -137.795083c -6.33  -4.86c
iter:  57 23:17:09  -137.795082c -6.07  -4.98c
iter:  58 23:17:33  -137.795081c -6.22  -5.03c
iter:  59 23:17:58  -137.795081c -6.38  -5.16c
iter:  60 23:18:23  -137.795080c -6.28  -5.25c
iter:  61 23:18:49  -137.795081c -6.39  -5.39c
iter:  62 23:19:16  -137.795081c -6.82  -5.41c
iter:  63 23:19:43  -137.795081c -6.55  -5.56c
iter:  64 23:20:11  -137.795081c -6.64  -5.69c
iter:  65 23:20:38  -137.795080c -6.93  -5.68c
iter:  66 23:21:03  -137.795080c -6.96  -5.70c
iter:  67 23:21:30  -137.795080c -7.31  -5.90c
iter:  68 23:21:57  -137.795080c -6.84  -5.96c
iter:  69 23:22:24  -137.795080c -7.61c -5.97c

Converged after 69 iterations.

Dipole moment: (-0.507006, -6.409682, 0.353250) |e|*Ang

Energy contributions relative to reference atoms: (reference = -14265.952424)

Kinetic:       +139.894278
Potential:     -134.210477
External:        +0.000000
XC:            -143.938374
Entropy (-ST):   -0.617147
Local:           +0.768067
--------------------------
Free energy:   -138.103654
Extrapolated:  -137.795080

 Band  Eigenvalues  Occupancy
    0    -25.21795    2.00000
    1    -24.00058    2.00000
    2    -18.40657    2.00000
    3    -15.32161    2.00000
    4    -13.11658    2.00000
    5    -12.44139    2.00000
    6    -11.13680    2.00000
    7    -10.49925    2.00000
    8     -9.59933    2.00000
    9     -9.37894    2.00000
   10     -9.29688    2.00000
   11     -9.05906    2.00000
   12     -8.93964    2.00000
   13     -7.76442    2.00000
   14     -6.39551    2.00000
   15     -6.10441    2.00000
   16     -5.14921    2.00000
   17     -5.06295    2.00000
   18     -4.99780    2.00000
   19     -4.99375    2.00000
   20     -4.79780    2.00000
   21     -4.24656    2.00000
   22     -4.05477    1.99998
   23     -4.02041    1.99998
   24     -3.92557    1.99994
   25     -3.87527    1.99990
   26     -3.82735    1.99983
   27     -3.79476    1.99977
   28     -3.78242    1.99974
   29     -3.41680    1.98995
   30     -3.27433    1.95886
   31     -3.06059    1.69775
   32     -2.87092    0.91475
   33     -2.80740    0.61744
   34     -2.76413    0.44930
   35     -2.68774    0.23785
   36     -2.57617    0.08471
   37     -2.44692    0.02400
   38     -2.40756    0.01625
   39     -2.35686    0.00982
   40     -1.93603    0.00015
   41     -1.80360    0.00004
   42     -1.58187    0.00000
   43     -1.52027    0.00000

Fermi level: -2.88801

Gap: 0.190 eV
Transition (v -> c):
  (s=0, k=0, n=31, [0.00, 0.00, 0.00]) -> (s=0, k=0, n=32, [0.00, 0.00, 0.00])
Timing:                               incl.     excl.
------------------------------------------------------------
Hamiltonian:                          1.107     0.000   0.0% |
 Atomic:                              0.033     0.001   0.0% |
  XC Correction:                      0.032     0.032   0.0% |
 Calculate atomic Hamiltonians:       0.140     0.140   0.0% |
 Communicate:                         0.075     0.075   0.0% |
 Hartree integrate/restrict:          0.053     0.053   0.0% |
 Initialize Hamiltonian:              0.000     0.000   0.0% |
 Poisson:                             0.562     0.037   0.0% |
  Communicate from 1D:                0.100     0.100   0.0% |
  Communicate from 2D:                0.180     0.180   0.0% |
  Communicate to 1D:                  0.045     0.045   0.0% |
  Communicate to 2D:                  0.103     0.103   0.0% |
  FFT 1D:                             0.059     0.059   0.0% |
  FFT 2D:                             0.039     0.039   0.0% |
 XC 3D grid:                          0.241     0.241   0.0% |
 vbar:                                0.002     0.002   0.0% |
HirshfeldPartitioning initialize:     4.234     4.234   0.0% |
LCAO initialization:                  2.634     1.051   0.0% |
 LCAO eigensolver:                    0.650     0.001   0.0% |
  Calculate projections:              0.000     0.000   0.0% |
  DenseAtomicCorrection:              0.000     0.000   0.0% |
  Distribute overlap matrix:          0.408     0.408   0.0% |
  Orbital Layouts:                    0.240     0.240   0.0% |
  Potential matrix:                   0.000     0.000   0.0% |
 LCAO to grid:                        0.004     0.004   0.0% |
 Set positions (LCAO WFS):            0.929     0.718   0.0% |
  Basic WFS set positions:            0.004     0.004   0.0% |
  Basis functions set positions:      0.001     0.001   0.0% |
  P tci:                              0.000     0.000   0.0% |
  ST tci:                             0.039     0.039   0.0% |
  mktci:                              0.167     0.167   0.0% |
SCF-cycle:                         1807.559     1.065   0.0% |
 Davidson:                         1699.954  1421.636   0.7% |
  Apply hamiltonian:                 45.852    45.852   0.0% |
  Subspace diag:                     61.543     0.013   0.0% |
   calc_h_matrix:                    47.317     3.200   0.0% |
    Apply hamiltonian:               44.117    44.117   0.0% |
   diagonalize:                       7.858     7.858   0.0% |
   rotate_psi:                        6.354     6.354   0.0% |
  calc. matrices:                   155.152    43.511   0.0% |
   Apply hamiltonian:               111.641   111.641   0.1% |
  diagonalize:                        0.510     0.510   0.0% |
  rotate_psi:                        15.260    15.260   0.0% |
 Density:                            26.561     0.003   0.0% |
  Atomic density matrices:            2.757     2.757   0.0% |
  Mix:                               21.353    21.353   0.0% |
  Multipole moments:                  0.902     0.902   0.0% |
  Pseudo density:                     1.546     1.545   0.0% |
   Symmetrize density:                0.002     0.002   0.0% |
 Hamiltonian:                        77.723     0.010   0.0% |
  Atomic:                             2.361     0.373   0.0% |
   XC Correction:                     1.988     1.988   0.0% |
  Calculate atomic Hamiltonians:      9.044     9.044   0.0% |
  Communicate:                        5.693     5.693   0.0% |
  Hartree integrate/restrict:         5.854     5.854   0.0% |
  Poisson:                           40.897     2.465   0.0% |
   Communicate from 1D:               8.095     8.095   0.0% |
   Communicate from 2D:               9.477     9.477   0.0% |
   Communicate to 1D:                 4.790     4.790   0.0% |
   Communicate to 2D:                10.208    10.208   0.0% |
   FFT 1D:                            3.232     3.232   0.0% |
   FFT 2D:                            2.630     2.630   0.0% |
  XC 3D grid:                        13.689    13.689   0.0% |
  vbar:                               0.176     0.176   0.0% |
 Orthonormalize:                      2.256     0.000   0.0% |
  calc_s_matrix:                      0.013     0.013   0.0% |
  inverse-cholesky:                   2.194     2.194   0.0% |
  projections:                        0.000     0.000   0.0% |
  rotate_psi_s:                       0.049     0.049   0.0% |
Set symmetry:                         0.002     0.002   0.0% |
Other:                            213135.901 213135.901  99.2% |---------------------------------------|
------------------------------------------------------------
Total:                                      214951.436 100.0%

Memory usage: 4.54 GiB
Date: Tue Feb 28 10:34:39 2023
