
  ___ ___ ___ _ _ _  
 |   |   |_  | | | | 
 | | | | | . | | | | 
 |__ |  _|___|_____|  22.8.0
 |___|_|             

User:   vazumah@r367.ib.bridges2.psc.edu
Date:   Fri Mar 10 19:26:20 2023
Arch:   x86_64
Pid:    34179
CWD:    /jet/home/vazumah/Calcs/LiMEAS/proton_donors/propan_1_ol_x/ontop/9.702_9.702/N2_z
Python: 3.11.0
gpaw:   /jet/home/vazumah/.conda/envs/GPAW_mpich/lib/python3.11/site-packages/gpaw
_gpaw:  /jet/home/vazumah/.conda/envs/GPAW_mpich/lib/python3.11/site-packages/
        _gpaw.cpython-311-x86_64-linux-gnu.so
ase:    /jet/home/vazumah/.conda/envs/GPAW_mpich/lib/python3.11/site-packages/ase (version 3.22.1)
numpy:  /jet/home/vazumah/.conda/envs/GPAW_mpich/lib/python3.11/site-packages/numpy (version 1.24.2)
scipy:  /jet/home/vazumah/.conda/envs/GPAW_mpich/lib/python3.11/site-packages/scipy (version 1.10.1)
libxc:  5.2.3
units:  Angstrom and eV
cores: 128
OpenMP: True
OMP_NUM_THREADS: 1

Input parameters:
  h: 0.16
  kpts: {size: [4, 4, 1]}
  occupations: {name: fermi-dirac,
                width: 0.05}
  poissonsolver: {dipolelayer: xy}
  xc: BEEF-vdW

System changes: positions, numbers, cell, pbc, initial_charges, initial_magmoms 

Initialize ...

species:
  Li:
    name: Lithium
    id: 830b4218f175192f93f959cfc0aad614
    Z: 3.0
    valence: 1
    core: 2
    charge: 0.0
    file: /jet/home/vazumah/datasets/gpaw-setups-0.9.20000/Li.PBE.gz
    compensation charges: {type: gauss,
                           rc: 0.33,
                           lmax: 2}
    cutoffs: {filter: 1.91,
              core: 2.55}
    valence states:
      #              energy  rcut
      - 2s(1.00)    -2.874   1.058
      - 2p(0.00)    -1.090   1.058
      -  s          24.337   1.058
  
    # Using partial waves for Li as LCAO basis

  O:
    name: Oxygen
    id: 32ecd46bf208036f09c70b0ec9a88b78
    Z: 8.0
    valence: 6
    core: 2
    charge: 0.0
    file: /jet/home/vazumah/datasets/gpaw-setups-0.9.20000/O.PBE.gz
    compensation charges: {type: gauss,
                           rc: 0.21,
                           lmax: 2}
    cutoffs: {filter: 1.17,
              core: 0.83}
    valence states:
      #              energy  rcut
      - 2s(2.00)   -23.961   0.688
      - 2p(4.00)    -9.029   0.598
      -  s           3.251   0.688
      -  p          18.182   0.598
      -  d           0.000   0.619
  
    # Using partial waves for O as LCAO basis

  C:
    name: Carbon
    id: 4aa54d4b901d75f77cc0ea3eec22967b
    Z: 6.0
    valence: 4
    core: 2
    charge: 0.0
    file: /jet/home/vazumah/datasets/gpaw-setups-0.9.20000/C.PBE.gz
    compensation charges: {type: gauss,
                           rc: 0.20,
                           lmax: 2}
    cutoffs: {filter: 1.14,
              core: 1.14}
    valence states:
      #              energy  rcut
      - 2s(2.00)   -13.751   0.635
      - 2p(2.00)    -5.284   0.635
      -  s          13.461   0.635
      -  p          21.927   0.635
      -  d           0.000   0.635
  
    # Using partial waves for C as LCAO basis

  H:
    name: Hydrogen
    id: d65de229564ff8ea4db303e23b6d1ecf
    Z: 1.0
    valence: 1
    core: 0
    charge: 0.0
    file: /jet/home/vazumah/datasets/gpaw-setups-0.9.20000/H.PBE.gz
    compensation charges: {type: gauss,
                           rc: 0.15,
                           lmax: 2}
    cutoffs: {filter: 0.85,
              core: 0.53}
    valence states:
      #              energy  rcut
      - 1s(1.00)    -6.494   0.476
      -  s          20.717   0.476
      -  p           0.000   0.476
  
    # Using partial waves for H as LCAO basis

  N:
    name: Nitrogen
    id: f7500608b86eaa90eef8b1d9a670dc53
    Z: 7.0
    valence: 5
    core: 2
    charge: 0.0
    file: /jet/home/vazumah/datasets/gpaw-setups-0.9.20000/N.PBE.gz
    compensation charges: {type: gauss,
                           rc: 0.18,
                           lmax: 2}
    cutoffs: {filter: 1.11,
              core: 0.96}
    valence states:
      #              energy  rcut
      - 2s(2.00)   -18.583   0.603
      - 2p(3.00)    -7.089   0.529
      -  s           8.629   0.603
      -  p          20.123   0.529
      -  d           0.000   0.577
  
    # Using partial waves for N as LCAO basis

Reference energy: -15487.462483  # eV

Spin-paired calculation

Convergence criteria:
 Maximum [total energy] change in last 3 cyles: 0.0005 eV / electron
 Maximum integral of absolute [dens]ity change: 0.0001 electrons / valence electron
 Maximum integral of absolute [eigenst]ate change: 4e-08 eV^2 / valence electron
 Maximum number of scf [iter]ations: 333
 (Square brackets indicate name in SCF output, whereas a 'c' in
 the SCF output indicates the quantity has converged.)

Symmetries present (total): 1

  ( 1  0  0)
  ( 0  1  0)
  ( 0  0  1)

16 k-points: 4 x 4 x 1 Monkhorst-Pack grid
8 k-points in the irreducible part of the Brillouin zone
       k-points in crystal coordinates                weights
   0:     0.12500000   -0.37500000    0.00000000          2/16
   1:     0.12500000   -0.12500000    0.00000000          2/16
   2:     0.12500000    0.12500000    0.00000000          2/16
   3:     0.12500000    0.37500000    0.00000000          2/16
   4:     0.37500000   -0.37500000    0.00000000          2/16
   5:     0.37500000   -0.12500000    0.00000000          2/16
   6:     0.37500000    0.12500000    0.00000000          2/16
   7:     0.37500000    0.37500000    0.00000000          2/16

Wave functions: Uniform real-space grid
  Kinetic energy operator: 6*3+1=19 point O(h^6) finite-difference Laplacian
  ScaLapack parameters: grid=1x1, blocksize=None
  Wavefunction extrapolation:
    Improved wavefunction reuse through dual PAW basis 

Occupation numbers: Fermi-Dirac:
  width: 0.0500  # eV
 

Eigensolver
   Davidson(niter=2) 

Densities:
  Coarse grid: 60*60*168 grid
  Fine grid: 120*120*336 grid
  Total Charge: 0.000000 

Density mixing:
  Method: separate
  Backend: pulay
  Linear mixing parameter: 0.05
  old densities: 5
  Damping of long wavelength oscillations: 50 

Hamiltonian:
  XC and Coulomb potentials evaluated on a 120*120*336 grid
  Using the BEEF-vdW Exchange-Correlation functional
  Interpolation: tri-quintic (5. degree polynomial)
  Poisson solver: FastPoissonSolver using
    Stencil: 6*3+1=19 point O(h^6) finite-difference Laplacian
    FFT axes: [0, 1]
    FST axes: [2]

Dipole correction along z-axis 

XC parameters: BEEF-vdW with 2 nearest neighbor stencil

Memory estimate:
  Process memory now: 127.14 MiB
  Calculator: 86.79 MiB
    Density: 23.03 MiB
      Arrays: 7.40 MiB
      Localized functions: 12.82 MiB
      Mixer: 2.82 MiB
    Hamiltonian: 5.85 MiB
      Arrays: 4.84 MiB
      XC: 0.00 MiB
      Poisson: 0.00 MiB
      vbar: 1.01 MiB
    Wavefunctions: 57.90 MiB
      Arrays psit_nG: 27.03 MiB
      Eigensolver: 30.19 MiB
      Projections: 0.01 MiB
      Projectors: 0.67 MiB

Total number of cores used: 128
Parallelization over k-points: 8
Domain decomposition: 2 x 2 x 4

Number of atoms: 50
Number of atomic orbitals: 176
Number of bands in calculation: 48
Number of valence electrons: 72
Bands to converge: occupied

... initialized

Initializing position-dependent things.

Density initialized from atomic densities
Creating initial wave functions:
  48 bands from LCAO basis set

       .-----------------------.  
      /|                       |  
     / |                       |  
    /  |                       |  
   /   |                       |  
  /    |                       |  
 *     |                       |  
 |     |                       |  
 |     |    H                  |  
 |     |     C    H            |  
 |     |    H                  H  
 |     |                       |  
 |     |                       N  
 |   H |   H                   |  
 |   C |   C                   |  
 O   H |   H                   |  
 |   Li|     Li      Li        |  
 |     |  Li      Li      Li   |  
 | Li  |   Li      Li          |  
 |     |Li      Li      Li     |  
 Li    | Li      Li            |  
 |   LLi     LLi     LLi       |  
 |     |  Li      Li      Li   |  
 | Li  |   Li      Li          |  
 |     |Li      Li      Li     |  
 Li    | Li      Li            |  
 |    Li      Li      Li       |  
 |     |                       |  
 |     |                       |  
 |     |                       |  
 |     |                       |  
 |     |                       |  
 |     |                       |  
 |     .-----------------------.  
 |    /                       /   
 |   /                       /    
 |  /                       /     
 | /                       /      
 |/                       /       
 *-----------------------*        

Positions:
   0 Li     1.617037    1.617037   10.000000    ( 0.0000,  0.0000,  0.0000)
   1 Li     4.851111    1.617037   10.000000    ( 0.0000,  0.0000,  0.0000)
   2 Li     8.085185    1.617037   10.000000    ( 0.0000,  0.0000,  0.0000)
   3 Li     1.617037    4.851111   10.000000    ( 0.0000,  0.0000,  0.0000)
   4 Li     4.851111    4.851111   10.000000    ( 0.0000,  0.0000,  0.0000)
   5 Li     8.085185    4.851111   10.000000    ( 0.0000,  0.0000,  0.0000)
   6 Li     1.617037    8.085185   10.000000    ( 0.0000,  0.0000,  0.0000)
   7 Li     4.851111    8.085185   10.000000    ( 0.0000,  0.0000,  0.0000)
   8 Li     8.085185    8.085185   10.000000    ( 0.0000,  0.0000,  0.0000)
   9 Li     0.000000    0.000000   11.617037    ( 0.0000,  0.0000,  0.0000)
  10 Li     3.234074    0.000000   11.617037    ( 0.0000,  0.0000,  0.0000)
  11 Li     6.468148    0.000000   11.617037    ( 0.0000,  0.0000,  0.0000)
  12 Li     0.000000    3.234074   11.617037    ( 0.0000,  0.0000,  0.0000)
  13 Li     3.234074    3.234074   11.617037    ( 0.0000,  0.0000,  0.0000)
  14 Li     6.468148    3.234074   11.617037    ( 0.0000,  0.0000,  0.0000)
  15 Li     0.000000    6.468148   11.617037    ( 0.0000,  0.0000,  0.0000)
  16 Li     3.234074    6.468148   11.617037    ( 0.0000,  0.0000,  0.0000)
  17 Li     6.468148    6.468148   11.617037    ( 0.0000,  0.0000,  0.0000)
  18 Li     1.617038    1.617038   13.469728    ( 0.0000,  0.0000,  0.0000)
  19 Li     4.851111    1.617038   13.469729    ( 0.0000,  0.0000,  0.0000)
  20 Li     8.085184    1.617038   13.469728    ( 0.0000,  0.0000,  0.0000)
  21 Li     1.617038    4.851111   13.469729    ( 0.0000,  0.0000,  0.0000)
  22 Li     4.851111    4.851111   13.469730    ( 0.0000,  0.0000,  0.0000)
  23 Li     8.085184    4.851111   13.469729    ( 0.0000,  0.0000,  0.0000)
  24 Li     1.617038    8.085184   13.469728    ( 0.0000,  0.0000,  0.0000)
  25 Li     4.851111    8.085184   13.469729    ( 0.0000,  0.0000,  0.0000)
  26 Li     8.085184    8.085184   13.469728    ( 0.0000,  0.0000,  0.0000)
  27 Li    -0.000000   -0.000000   15.445939    ( 0.0000,  0.0000,  0.0000)
  28 Li     3.234074    0.000000   15.445939    ( 0.0000,  0.0000,  0.0000)
  29 Li     6.468148    0.000000   15.445939    ( 0.0000,  0.0000,  0.0000)
  30 Li     0.000000    3.234074   15.445939    ( 0.0000,  0.0000,  0.0000)
  31 Li     3.234076    3.234076   15.445938    ( 0.0000,  0.0000,  0.0000)
  32 Li     6.468146    3.234076   15.445938    ( 0.0000,  0.0000,  0.0000)
  33 Li     0.000000    6.468148   15.445939    ( 0.0000,  0.0000,  0.0000)
  34 Li     3.234076    6.468146   15.445938    ( 0.0000,  0.0000,  0.0000)
  35 Li     6.468146    6.468146   15.445938    ( 0.0000,  0.0000,  0.0000)
  36 O      9.702222    9.702222   19.645939    ( 0.0000,  0.0000,  0.0000)
  37 C     12.136471    9.314601   19.645810    ( 0.0000,  0.0000,  0.0000)
  38 C     10.994282   10.325011   19.635257    ( 0.0000,  0.0000,  0.0000)
  39 C     13.516806    9.977014   19.652171    ( 0.0000,  0.0000,  0.0000)
  40 H     12.017858    8.671752   20.523111    ( 0.0000,  0.0000,  0.0000)
  41 H     12.042557    8.672843   18.760130    ( 0.0000,  0.0000,  0.0000)
  42 H     11.018090   10.944954   20.535148    ( 0.0000,  0.0000,  0.0000)
  43 H     11.087864   10.991914   18.767482    ( 0.0000,  0.0000,  0.0000)
  44 H     13.650343   10.603094   20.537849    ( 0.0000,  0.0000,  0.0000)
  45 H     14.314087    9.232239   19.652977    ( 0.0000,  0.0000,  0.0000)
  46 H     13.658355   10.612530   18.773910    ( 0.0000,  0.0000,  0.0000)
  47 H      9.653460    9.124664   18.874628    ( 0.0000,  0.0000,  0.0000)
  48 N      9.702000    9.702000   17.195939    ( 0.0000,  0.0000,  0.0000)
  49 N      9.702000    9.702000   18.292561    ( 0.0000,  0.0000,  0.0000)

Unit cell:
           periodic     x           y           z      points  spacing
  1. axis:    yes    9.702222    0.000000    0.000000    60     0.1617
  2. axis:    yes    0.000000    9.702222    0.000000    60     0.1617
  3. axis:    no     0.000000    0.000000   26.601111   168     0.1583

  Lengths:   9.702222   9.702222  26.601111
  Angles:   90.000000  90.000000  90.000000

Effective grid spacing dv^(1/3) = 0.1606

     iter     time        total  log10-change:
                         energy  eigst   dens
iter:   1 19:26:35  -670.069015
iter:   2 19:26:42     3.678569  +2.67  +0.04
iter:   3 19:26:50     9.706349  +3.26  -0.15
iter:   4 19:26:57  -195.018187  +3.15  -0.23
Writing to output.gpw (mode='')

iter:   5 19:27:05  -235.941290  +2.77  -0.26
iter:   6 19:27:12  -302.949441  +2.57  -0.59
iter:   7 19:27:19  -344.004161  +2.29  -0.62
iter:   8 19:27:27  -382.367726  +2.06  -0.57
iter:   9 19:27:34  -416.931136  +2.09  -0.49
Writing to output.gpw (mode='')

iter:  10 19:27:42  -382.002936  +1.69  -0.45
iter:  11 19:27:49  -331.577545  +1.37  -0.46
iter:  12 19:27:56  -337.237303  +1.00  -0.69
iter:  13 19:28:04  -329.049807  +1.32  -0.74
iter:  14 19:28:11  -326.869201  +0.93  -0.71
Writing to output.gpw (mode='')

iter:  15 19:28:19  -325.650574  +0.82  -0.74
iter:  16 19:28:26  -323.454183  +0.45  -0.76
iter:  17 19:28:33  -320.619374  +0.62  -0.83
iter:  18 19:28:41  -320.232435  +0.43  -0.97
iter:  19 19:28:48  -319.964429  +0.48  -1.03
Writing to output.gpw (mode='')

iter:  20 19:28:55  -319.814530  -0.01  -1.09
iter:  21 19:29:03  -319.395496  +0.18  -1.13
iter:  22 19:29:10  -319.408264  -0.18  -1.40
iter:  23 19:29:18  -319.305272  -0.60  -1.38
iter:  24 19:29:25  -319.278404  -0.76  -1.50
Writing to output.gpw (mode='')

iter:  25 19:29:32  -319.258261  -0.73  -1.57
iter:  26 19:29:43  -319.274069c -0.64  -1.72
iter:  27 19:29:51  -319.267465c -1.27  -1.85
iter:  28 19:29:59  -319.269106c -1.48  -1.95
iter:  29 19:30:06  -319.266048c -1.58  -2.01
Writing to output.gpw (mode='')

iter:  30 19:30:13  -319.266897c -1.60  -2.16
iter:  31 19:30:21  -319.268813c -1.81  -2.23
iter:  32 19:30:28  -319.269127c -2.10  -2.25
iter:  33 19:30:36  -319.267920c -2.09  -2.29
iter:  34 19:30:43  -319.268997c -2.21  -2.45
Writing to output.gpw (mode='')

iter:  35 19:30:50  -319.269881c -2.56  -2.66
iter:  36 19:30:58  -319.270308c -2.65  -2.67
iter:  37 19:31:05  -319.270670c -2.79  -2.67
iter:  38 19:31:12  -319.270920c -2.86  -2.69
iter:  39 19:31:20  -319.271146c -2.73  -2.89
Writing to output.gpw (mode='')

iter:  40 19:31:27  -319.271380c -3.05  -3.03
iter:  41 19:31:35  -319.271574c -3.03  -3.10
iter:  42 19:31:42  -319.271751c -3.21  -3.14
iter:  43 19:31:49  -319.271882c -3.22  -3.11
iter:  44 19:31:57  -319.271994c -3.32  -3.09
Writing to output.gpw (mode='')

iter:  45 19:32:04  -319.272100c -3.37  -3.07
iter:  46 19:32:12  -319.272179c -3.49  -3.06
iter:  47 19:32:19  -319.272236c -3.33  -3.14
iter:  48 19:32:26  -319.272337c -3.55  -3.25
iter:  49 19:32:34  -319.272382c -3.66  -3.14
Writing to output.gpw (mode='')

iter:  50 19:32:41  -319.272415c -3.69  -3.19
iter:  51 19:32:48  -319.272440c -3.73  -3.23
iter:  52 19:32:56  -319.272464c -3.89  -3.32
iter:  53 19:33:03  -319.272474c -3.86  -3.32
iter:  54 19:33:11  -319.272497c -4.08  -3.39
Writing to output.gpw (mode='')

iter:  55 19:33:18  -319.272515c -3.96  -3.44
iter:  56 19:33:26  -319.272514c -4.09  -3.47
iter:  57 19:33:33  -319.272519c -4.17  -3.66
iter:  58 19:33:40  -319.272528c -4.34  -3.74
iter:  59 19:33:48  -319.272538c -4.37  -3.83
Writing to output.gpw (mode='')

iter:  60 19:33:55  -319.272554c -4.26  -3.91
iter:  61 19:34:03  -319.272559c -4.55  -4.05c
iter:  62 19:34:10  -319.272557c -4.55  -4.10c
iter:  63 19:34:17  -319.272563c -4.66  -4.25c
iter:  64 19:34:25  -319.272571c -4.63  -4.32c
Writing to output.gpw (mode='')

iter:  65 19:34:32  -319.272573c -4.78  -4.48c
iter:  66 19:34:44  -319.272576c -4.88  -4.51c
iter:  67 19:34:53  -319.272577c -4.87  -4.53c
iter:  68 19:35:01  -319.272579c -5.04  -4.60c
iter:  69 19:35:08  -319.272578c -5.18  -4.66c
Writing to output.gpw (mode='')

iter:  70 19:35:15  -319.272579c -5.40  -4.85c
iter:  71 19:35:23  -319.272580c -5.19  -4.86c
iter:  72 19:35:30  -319.272581c -5.35  -4.87c
iter:  73 19:35:38  -319.272581c -5.42  -4.87c
iter:  74 19:35:45  -319.272582c -5.42  -4.84c
Writing to output.gpw (mode='')

iter:  75 19:35:52  -319.272582c -5.57  -4.92c
iter:  76 19:36:00  -319.272583c -5.51  -4.85c
iter:  77 19:36:07  -319.272583c -5.65  -4.84c
iter:  78 19:36:15  -319.272583c -5.85  -4.83c
iter:  79 19:36:22  -319.272583c -5.85  -4.81c
Writing to output.gpw (mode='')

iter:  80 19:36:30  -319.272584c -5.80  -4.80c
iter:  81 19:36:45  -319.272584c -6.07  -4.72c
iter:  82 19:36:54  -319.272583c -5.96  -4.73c
iter:  83 19:37:02  -319.272583c -6.19  -4.81c
iter:  84 19:37:09  -319.272584c -6.16  -4.76c
Writing to output.gpw (mode='')

iter:  85 19:37:17  -319.272584c -6.41  -4.85c
iter:  86 19:37:24  -319.272583c -6.36  -4.84c
iter:  87 19:37:32  -319.272583c -6.24  -4.83c
iter:  88 19:37:39  -319.272584c -6.45  -4.76c
iter:  89 19:37:46  -319.272584c -6.68  -4.89c
Writing to output.gpw (mode='')

iter:  90 19:37:54  -319.272584c -6.49  -4.89c
iter:  91 19:38:01  -319.272584c -6.69  -4.96c
iter:  92 19:38:09  -319.272583c -6.64  -5.00c
iter:  93 19:38:16  -319.272584c -6.71  -5.04c
iter:  94 19:38:23  -319.272583c -6.70  -5.21c
Writing to output.gpw (mode='')

iter:  95 19:38:31  -319.272583c -6.72  -5.23c
iter:  96 19:38:38  -319.272584c -6.81  -5.25c
iter:  97 19:38:46  -319.272584c -6.89  -5.37c
iter:  98 19:38:53  -319.272584c -6.98  -5.44c
iter:  99 19:39:01  -319.272584c -6.94  -5.57c
Writing to output.gpw (mode='')

iter: 100 19:39:08  -319.272584c -7.10  -5.69c
iter: 101 19:39:15  -319.272584c -7.14  -5.71c
iter: 102 19:39:23  -319.272584c -7.21  -5.74c
iter: 103 19:39:30  -319.272584c -7.32  -5.78c
iter: 104 19:39:44  -319.272584c -7.38  -5.93c
Writing to output.gpw (mode='')

iter: 105 19:39:55  -319.272584c -7.42c -5.93c

Converged after 105 iterations.

Dipole moment: (-15.925101, -17.784356, 0.354198) |e|*Ang

Energy contributions relative to reference atoms: (reference = -15487.462483)

Kinetic:       +224.278742
Potential:     -196.116926
External:        +0.000000
XC:            -348.143219
Entropy (-ST):   -0.148419
Local:           +0.783028
--------------------------
Free energy:   -319.346793
Extrapolated:  -319.272584

Dipole-layer corrected work functions: 3.376793, 2.695902 eV

Showing only first 2 kpts
 Kpt  Band  Eigenvalues  Occupancy
  0    34     -3.27905    1.98453
  0    35     -3.14608    1.79954
  0    36     -2.92211    0.18479
  0    37     -2.78219    0.01232

  1    34     -3.10895    1.62062
  1    35     -3.03891    1.02567
  1    36     -2.98838    0.55398
  1    37     -2.92893    0.20898


Fermi level: -3.03635

Gap: 0.014 eV
Transition (v -> c):
  (s=0, k=1, n=35, [0.12, -0.12, 0.00]) -> (s=0, k=7, n=36, [0.38, 0.38, 0.00])

Forces in eV/Ang:
  0 Li    0.01184    0.00308   -0.27004
  1 Li   -0.00141   -0.00131   -0.26922
  2 Li   -0.01036    0.00268   -0.26911
  3 Li    0.00124    0.00678   -0.27521
  4 Li   -0.00083    0.00132   -0.28128
  5 Li   -0.00102    0.00757   -0.27343
  6 Li    0.00635   -0.00848   -0.27190
  7 Li   -0.00078    0.00073   -0.27591
  8 Li   -0.00610   -0.00934   -0.27157
  9 Li    0.00103    0.00608    0.31468
 10 Li    0.01535   -0.00022    0.25903
 11 Li   -0.01698   -0.00160    0.26134
 12 Li    0.00106   -0.00421    0.28739
 13 Li    0.00184    0.00413    0.26332
 14 Li   -0.00298    0.00362    0.26175
 15 Li   -0.00105   -0.00212    0.25653
 16 Li   -0.01350   -0.00521    0.26171
 17 Li    0.01521   -0.00345    0.26396
 18 Li    0.02128   -0.00136   -0.02166
 19 Li    0.00049    0.00334    0.04566
 20 Li   -0.02424    0.00119   -0.03347
 21 Li   -0.01203   -0.00533    0.04411
 22 Li    0.00093    0.00172    0.03174
 23 Li    0.01175   -0.00848    0.04584
 24 Li    0.00363    0.00015    0.00672
 25 Li   -0.00175   -0.00638    0.03850
 26 Li    0.00113    0.00548    0.00849
 27 Li    0.03226    0.05889   -1.05971
 28 Li    0.00737   -0.00142   -0.03903
 29 Li   -0.00428   -0.00619   -0.00381
 30 Li    0.00875   -0.06051    0.04278
 31 Li    0.02143    0.01098   -0.02546
 32 Li   -0.02636    0.01083   -0.02410
 33 Li    0.00172    0.02582    0.00344
 34 Li    0.00221   -0.00315   -0.02066
 35 Li   -0.00637   -0.00325   -0.01687
 36 O     1.00800   13.74348   23.22049
 37 C    -0.11308   -0.37491   -0.09165
 38 C     3.02313    1.83796    3.03837
 39 C    -0.08580    0.19775    0.05615
 40 H     0.04046   -0.03776   -0.00708
 41 H     0.10525   -0.04325    0.07403
 42 H     0.30255    0.10631    0.00857
 43 H     0.01246    0.16450    0.28186
 44 H    -0.01159    0.00910    0.01802
 45 H    -0.06780   -0.06359   -0.03659
 46 H    -0.00150   -0.02598   -0.02700
 47 H    -1.84024  -22.29619    0.59960
 48 N     0.23464    5.46964  -13.22547
 49 N    -2.62266    1.24368  -12.90147

System changes: positions 

Initializing position-dependent things.

Density initialized from wave functions
       .-----------------------.  
      /|                       |  
     / |                       |  
    /  |                       |  
   /   |                       |  
  /    |                       |  
 *     |                       |  
 |     |                       |  
 |     |    H                  |  
 |     |     C    H            |  
 |     |    H                 H|  
 |     |                       |  
 |     |                       |  
 |   H |   H                   |  
 |   C |   C   Li      Li      |  
 O   H |   H                   |  
 |   Li|     Li      Li  N     |  
 |     |  Li      Li      Li   |  
 N Li  |   Li      Li          |  
 |     |Li      Li      Li     |  
 Li    |                       |  
 |   LLi     LLi     LLi       |  
 |     |  Li      Li      Li   |  
 | Li  |   Li      Li          |  
 |     |Li      Li      Li     |  
 Li    | Li      Li            |  
 |    Li      Li      Li       |  
 |     |                       |  
 |     |                       |  
 |     |                       |  
 |     |                       |  
 |     |                       |  
 |     |                       |  
 |     .-----------------------.  
 |    /                       /   
 |   /                       /    
 |  /                       /     
 | /                       /      
 |/                       /       
 *-----------------------*        

Positions:
   0 Li     1.617037    1.617037   10.000000    ( 0.0000,  0.0000,  0.0000)
   1 Li     4.851111    1.617037   10.000000    ( 0.0000,  0.0000,  0.0000)
   2 Li     8.085185    1.617037   10.000000    ( 0.0000,  0.0000,  0.0000)
   3 Li     1.617037    4.851111   10.000000    ( 0.0000,  0.0000,  0.0000)
   4 Li     4.851111    4.851111   10.000000    ( 0.0000,  0.0000,  0.0000)
   5 Li     8.085185    4.851111   10.000000    ( 0.0000,  0.0000,  0.0000)
   6 Li     1.617037    8.085185   10.000000    ( 0.0000,  0.0000,  0.0000)
   7 Li     4.851111    8.085185   10.000000    ( 0.0000,  0.0000,  0.0000)
   8 Li     8.085185    8.085185   10.000000    ( 0.0000,  0.0000,  0.0000)
   9 Li     0.000000    0.000000   11.617037    ( 0.0000,  0.0000,  0.0000)
  10 Li     3.234074    0.000000   11.617037    ( 0.0000,  0.0000,  0.0000)
  11 Li     6.468148    0.000000   11.617037    ( 0.0000,  0.0000,  0.0000)
  12 Li     0.000000    3.234074   11.617037    ( 0.0000,  0.0000,  0.0000)
  13 Li     3.234074    3.234074   11.617037    ( 0.0000,  0.0000,  0.0000)
  14 Li     6.468148    3.234074   11.617037    ( 0.0000,  0.0000,  0.0000)
  15 Li     0.000000    6.468148   11.617037    ( 0.0000,  0.0000,  0.0000)
  16 Li     3.234074    6.468148   11.617037    ( 0.0000,  0.0000,  0.0000)
  17 Li     6.468148    6.468148   11.617037    ( 0.0000,  0.0000,  0.0000)
  18 Li     1.617070    1.617036   13.469696    ( 0.0000,  0.0000,  0.0000)
  19 Li     4.851112    1.617043   13.469797    ( 0.0000,  0.0000,  0.0000)
  20 Li     8.085148    1.617040   13.469678    ( 0.0000,  0.0000,  0.0000)
  21 Li     1.617021    4.851103   13.469795    ( 0.0000,  0.0000,  0.0000)
  22 Li     4.851112    4.851114   13.469777    ( 0.0000,  0.0000,  0.0000)
  23 Li     8.085201    4.851098   13.469797    ( 0.0000,  0.0000,  0.0000)
  24 Li     1.617043    8.085184   13.469738    ( 0.0000,  0.0000,  0.0000)
  25 Li     4.851108    8.085174   13.469786    ( 0.0000,  0.0000,  0.0000)
  26 Li     8.085186    8.085192   13.469740    ( 0.0000,  0.0000,  0.0000)
  27 Li     0.000048    0.000087   15.444370    ( 0.0000,  0.0000,  0.0000)
  28 Li     3.234085   -0.000002   15.445881    ( 0.0000,  0.0000,  0.0000)
  29 Li     6.468142   -0.000009   15.445933    ( 0.0000,  0.0000,  0.0000)
  30 Li     0.000013    3.233984   15.446002    ( 0.0000,  0.0000,  0.0000)
  31 Li     3.234108    3.234093   15.445900    ( 0.0000,  0.0000,  0.0000)
  32 Li     6.468107    3.234092   15.445902    ( 0.0000,  0.0000,  0.0000)
  33 Li     0.000003    6.468187   15.445944    ( 0.0000,  0.0000,  0.0000)
  34 Li     3.234080    6.468141   15.445907    ( 0.0000,  0.0000,  0.0000)
  35 Li     6.468136    6.468141   15.445913    ( 0.0000,  0.0000,  0.0000)
  36 O      9.703715    9.722581   19.680338    ( 0.0000,  0.0000,  0.0000)
  37 C     12.136303    9.314046   19.645674    ( 0.0000,  0.0000,  0.0000)
  38 C     10.998760   10.327734   19.639758    ( 0.0000,  0.0000,  0.0000)
  39 C     13.516679    9.977307   19.652254    ( 0.0000,  0.0000,  0.0000)
  40 H     12.017918    8.671696   20.523100    ( 0.0000,  0.0000,  0.0000)
  41 H     12.042712    8.672779   18.760240    ( 0.0000,  0.0000,  0.0000)
  42 H     11.018538   10.945112   20.535161    ( 0.0000,  0.0000,  0.0000)
  43 H     11.087883   10.992157   18.767900    ( 0.0000,  0.0000,  0.0000)
  44 H     13.650326   10.603108   20.537876    ( 0.0000,  0.0000,  0.0000)
  45 H     14.313987    9.232145   19.652922    ( 0.0000,  0.0000,  0.0000)
  46 H     13.658353   10.612492   18.773870    ( 0.0000,  0.0000,  0.0000)
  47 H      9.650734    9.091635   18.875516    ( 0.0000,  0.0000,  0.0000)
  48 N      9.702348    9.710103   17.176347    ( 0.0000,  0.0000,  0.0000)
  49 N      9.698115    9.703842   18.273449    ( 0.0000,  0.0000,  0.0000)

Unit cell:
           periodic     x           y           z      points  spacing
  1. axis:    yes    9.702222    0.000000    0.000000    60     0.1617
  2. axis:    yes    0.000000    9.702222    0.000000    60     0.1617
  3. axis:    no     0.000000    0.000000   26.601111   168     0.1583

  Lengths:   9.702222   9.702222  26.601111
  Angles:   90.000000  90.000000  90.000000

Effective grid spacing dv^(1/3) = 0.1606

     iter     time        total  log10-change:
                         energy  eigst   dens
iter:   1 19:40:04  -322.249022  -0.38
iter:   2 19:40:12  -322.084292  -0.57  -1.35
iter:   3 19:40:19  -321.600840  -0.65  -1.25
iter:   4 19:40:27  -321.496965  -1.14  -1.63
Writing to output.gpw (mode='')

iter:   5 19:40:34  -321.475772  -1.19  -1.93
iter:   6 19:40:42  -321.482472c -1.08  -2.17
iter:   7 19:40:49  -321.470504c -1.76  -2.06
iter:   8 19:40:57  -321.469357c -1.97  -2.32
iter:   9 19:41:04  -321.468827c -2.51  -2.48
Writing to output.gpw (mode='')

iter:  10 19:41:11  -321.468421c -2.38  -2.56
iter:  11 19:41:19  -321.468637c -2.96  -2.75
iter:  12 19:41:26  -321.468550c -3.09  -2.86
iter:  13 19:41:34  -321.468552c -3.41  -3.03
iter:  14 19:41:41  -321.468552c -3.38  -3.11
Writing to output.gpw (mode='')

iter:  15 19:41:49  -321.468634c -3.43  -3.21
iter:  16 19:41:56  -321.468634c -3.85  -3.19
iter:  17 19:42:04  -321.468614c -3.79  -3.24
iter:  18 19:42:11  -321.468612c -4.13  -3.40
iter:  19 19:42:19  -321.468627c -4.22  -3.51
Writing to output.gpw (mode='')

iter:  20 19:42:26  -321.468624c -4.70  -3.74
iter:  21 19:42:33  -321.468636c -4.67  -3.85
iter:  22 19:42:41  -321.468640c -4.80  -3.96
iter:  23 19:42:48  -321.468640c -5.16  -3.95
iter:  24 19:42:56  -321.468638c -5.15  -4.06c
Writing to output.gpw (mode='')

iter:  25 19:43:03  -321.468637c -5.36  -4.18c
iter:  26 19:43:11  -321.468635c -5.29  -4.28c
iter:  27 19:43:18  -321.468636c -5.58  -4.48c
iter:  28 19:43:26  -321.468636c -5.72  -4.53c
iter:  29 19:43:33  -321.468637c -5.75  -4.55c
Writing to output.gpw (mode='')

iter:  30 19:43:40  -321.468638c -5.84  -4.61c
iter:  31 19:43:48  -321.468638c -6.01  -4.70c
iter:  32 19:43:55  -321.468638c -6.20  -4.83c
iter:  33 19:44:03  -321.468638c -6.11  -4.90c
iter:  34 19:44:10  -321.468638c -6.27  -4.99c
Writing to output.gpw (mode='')

iter:  35 19:44:18  -321.468638c -6.39  -5.01c
iter:  36 19:44:25  -321.468638c -6.48  -5.15c
iter:  37 19:44:32  -321.468638c -6.64  -4.95c
iter:  38 19:44:47  -321.468639c -6.77  -5.10c
iter:  39 19:44:54  -321.468639c -6.69  -5.12c
Writing to output.gpw (mode='')

iter:  40 19:45:02  -321.468639c -6.83  -5.35c
iter:  41 19:45:09  -321.468639c -6.80  -5.51c
iter:  42 19:45:17  -321.468639c -6.95  -5.52c
iter:  43 19:45:24  -321.468639c -6.74  -5.45c
iter:  44 19:45:32  -321.468639c -7.19  -5.38c
Writing to output.gpw (mode='')

iter:  45 19:45:39  -321.468639c -7.23  -5.32c
iter:  46 19:45:47  -321.468639c -7.30  -5.38c
iter:  47 19:45:54  -321.468639c -7.41c -5.43c

Converged after 47 iterations.

Dipole moment: (-15.621630, -20.463111, 0.233484) |e|*Ang

Energy contributions relative to reference atoms: (reference = -15487.462483)

Kinetic:       +219.304476
Potential:     -194.177599
External:        +0.000000
XC:            -347.294440
Entropy (-ST):   -0.148071
Local:           +0.772959
--------------------------
Free energy:   -321.542674
Extrapolated:  -321.468639

Dipole-layer corrected work functions: 3.384275, 2.935439 eV

Showing only first 2 kpts
 Kpt  Band  Eigenvalues  Occupancy
  0    34     -3.40292    1.98464
  0    35     -3.28744    1.85536
  0    36     -3.03068    0.14041
  0    37     -2.90692    0.01263

  1    34     -3.22557    1.57646
  1    35     -3.15679    0.96936
  1    36     -3.12110    0.63074
  1    37     -3.05606    0.22289


Fermi level: -3.15986

No gap
Writing to output.gpw (mode='')


Forces in eV/Ang:
  0 Li    0.01220    0.00363   -0.27046
  1 Li   -0.00201   -0.00067   -0.26902
  2 Li   -0.01032    0.00327   -0.26925
  3 Li    0.00117    0.00540   -0.27405
  4 Li   -0.00054    0.00022   -0.28331
  5 Li   -0.00127    0.00731   -0.27253
  6 Li    0.00579   -0.00789   -0.27133
  7 Li   -0.00022    0.00068   -0.27464
  8 Li   -0.00586   -0.00938   -0.27135
  9 Li    0.00073    0.00658    0.31339
 10 Li    0.01525   -0.00098    0.25792
 11 Li   -0.01664   -0.00235    0.26020
 12 Li    0.00092   -0.00235    0.28388
 13 Li    0.00506    0.00453    0.26011
 14 Li   -0.00573    0.00439    0.25856
 15 Li   -0.00090   -0.00500    0.25451
 16 Li   -0.01248   -0.00441    0.26116
 17 Li    0.01376   -0.00360    0.26269
 18 Li    0.02181    0.00031   -0.02077
 19 Li    0.00120    0.00218    0.04780
 20 Li   -0.02468    0.00281   -0.03456
 21 Li   -0.00996   -0.00609    0.04483
 22 Li    0.00063    0.00307    0.03121
 23 Li    0.01002   -0.00989    0.04665
 24 Li    0.00221    0.00036    0.00891
 25 Li   -0.00174   -0.00595    0.03907
 26 Li    0.00172    0.00472    0.01191
 27 Li    0.03292    0.06140   -1.38171
 28 Li    0.01196   -0.00171   -0.03873
 29 Li   -0.00918   -0.00831   -0.00872
 30 Li    0.00939   -0.04500    0.03079
 31 Li    0.02017    0.01052   -0.02698
 32 Li   -0.02694    0.01326   -0.02733
 33 Li    0.00051    0.01846   -0.00197
 34 Li    0.00270   -0.00348   -0.02142
 35 Li   -0.00471   -0.00241   -0.01766
 36 O     0.73303   11.27404   20.35925
 37 C    -0.01940   -0.28550   -0.04726
 38 C     2.47804    1.54780    2.69633
 39 C    -0.06639    0.12416    0.05274
 40 H     0.04040   -0.04543   -0.00790
 41 H     0.08794   -0.05093    0.06605
 42 H     0.46695    0.25738    0.09429
 43 H     0.08151    0.16677    0.32183
 44 H    -0.01319    0.01051    0.01653
 45 H    -0.05351   -0.04851   -0.03114
 46 H    -0.00291   -0.01437   -0.03032
 47 H    -1.20207  -16.26560    0.06410
 48 N     0.21918    5.31556  -11.22302
 49 N    -2.73960   -1.97453  -10.92757

System changes: positions 

Initializing position-dependent things.

Density initialized from wave functions
       .-----------------------.  
      /|                       |  
     / |                       |  
    /  |                       |  
   /   |                       |  
  /    |                       |  
 *     |                       |  
 |     |                       |  
 |     |    H                  |  
 |     |     C    H            |  
 |     |    H                 HN  
 |     |                       |  
 |     |                       |  
 |   H |   H                   |  
 |   C |   C   Li      Li      |  
 O   H |   H                   |  
 |     |     Li      Li      Li|  
 |     |  Li      Li      Li   |  
 N Li  |   Li      Li          |  
 |     |Li      Li      Li     |  
 Li    |                       |  
 |   LLi     LLi     LLi       |  
 |     |  Li      Li      Li   |  
 | Li  |   Li      Li          |  
 |     |Li      Li      Li     |  
 Li    | Li      Li            |  
 |    Li      Li      Li       |  
 |     |                       |  
 |     |                       |  
 |     |                       |  
 |     |                       |  
 |     |                       |  
 |     |                       |  
 |     .-----------------------.  
 |    /                       /   
 |   /                       /    
 |  /                       /     
 | /                       /      
 |/                       /       
 *-----------------------*        

Positions:
   0 Li     1.617037    1.617037   10.000000    ( 0.0000,  0.0000,  0.0000)
   1 Li     4.851111    1.617037   10.000000    ( 0.0000,  0.0000,  0.0000)
   2 Li     8.085185    1.617037   10.000000    ( 0.0000,  0.0000,  0.0000)
   3 Li     1.617037    4.851111   10.000000    ( 0.0000,  0.0000,  0.0000)
   4 Li     4.851111    4.851111   10.000000    ( 0.0000,  0.0000,  0.0000)
   5 Li     8.085185    4.851111   10.000000    ( 0.0000,  0.0000,  0.0000)
   6 Li     1.617037    8.085185   10.000000    ( 0.0000,  0.0000,  0.0000)
   7 Li     4.851111    8.085185   10.000000    ( 0.0000,  0.0000,  0.0000)
   8 Li     8.085185    8.085185   10.000000    ( 0.0000,  0.0000,  0.0000)
   9 Li     0.000000    0.000000   11.617037    ( 0.0000,  0.0000,  0.0000)
  10 Li     3.234074    0.000000   11.617037    ( 0.0000,  0.0000,  0.0000)
  11 Li     6.468148    0.000000   11.617037    ( 0.0000,  0.0000,  0.0000)
  12 Li     0.000000    3.234074   11.617037    ( 0.0000,  0.0000,  0.0000)
  13 Li     3.234074    3.234074   11.617037    ( 0.0000,  0.0000,  0.0000)
  14 Li     6.468148    3.234074   11.617037    ( 0.0000,  0.0000,  0.0000)
  15 Li     0.000000    6.468148   11.617037    ( 0.0000,  0.0000,  0.0000)
  16 Li     3.234074    6.468148   11.617037    ( 0.0000,  0.0000,  0.0000)
  17 Li     6.468148    6.468148   11.617037    ( 0.0000,  0.0000,  0.0000)
  18 Li     1.617128    1.617046   13.469647    ( 0.0000,  0.0000,  0.0000)
  19 Li     4.851119    1.617043   13.469931    ( 0.0000,  0.0000,  0.0000)
  20 Li     8.085082    1.617056   13.469584    ( 0.0000,  0.0000,  0.0000)
  21 Li     1.617006    4.851083   13.469914    ( 0.0000,  0.0000,  0.0000)
  22 Li     4.851112    4.851129   13.469854    ( 0.0000,  0.0000,  0.0000)
  23 Li     8.085217    4.851065   13.469921    ( 0.0000,  0.0000,  0.0000)
  24 Li     1.617042    8.085186   13.469772    ( 0.0000,  0.0000,  0.0000)
  25 Li     4.851104    8.085161   13.469890    ( 0.0000,  0.0000,  0.0000)
  26 Li     8.085193    8.085200   13.469789    ( 0.0000,  0.0000,  0.0000)
  27 Li     0.000136    0.000258   15.439094    ( 0.0000,  0.0000,  0.0000)
  28 Li     3.234140   -0.000008   15.445783    ( 0.0000,  0.0000,  0.0000)
  29 Li     6.468092   -0.000042   15.445884    ( 0.0000,  0.0000,  0.0000)
  30 Li     0.000040    3.233952   15.446017    ( 0.0000,  0.0000,  0.0000)
  31 Li     3.234153    3.234117   15.445823    ( 0.0000,  0.0000,  0.0000)
  32 Li     6.468034    3.234140   15.445815    ( 0.0000,  0.0000,  0.0000)
  33 Li    -0.000003    6.468194   15.445910    ( 0.0000,  0.0000,  0.0000)
  34 Li     3.234089    6.468130   15.445848    ( 0.0000,  0.0000,  0.0000)
  35 Li     6.468133    6.468139   15.445864    ( 0.0000,  0.0000,  0.0000)
  36 O      9.704116    9.738209   19.717157    ( 0.0000,  0.0000,  0.0000)
  37 C     12.136758    9.313795   19.645791    ( 0.0000,  0.0000,  0.0000)
  38 C     11.002183   10.330142   19.644832    ( 0.0000,  0.0000,  0.0000)
  39 C     13.516613    9.977230   19.652371    ( 0.0000,  0.0000,  0.0000)
  40 H     12.018021    8.671538   20.523075    ( 0.0000,  0.0000,  0.0000)
  41 H     12.042845    8.672607   18.760367    ( 0.0000,  0.0000,  0.0000)
  42 H     11.020620   10.946584   20.535864    ( 0.0000,  0.0000,  0.0000)
  43 H     11.088463   10.992597   18.768940    ( 0.0000,  0.0000,  0.0000)
  44 H     13.650283   10.603142   20.537910    ( 0.0000,  0.0000,  0.0000)
  45 H     14.313927    9.232102   19.652872    ( 0.0000,  0.0000,  0.0000)
  46 H     13.658338   10.612518   18.773774    ( 0.0000,  0.0000,  0.0000)
  47 H      9.651085    9.082364   18.872800    ( 0.0000,  0.0000,  0.0000)
  48 N      9.702827    9.722905   17.158338    ( 0.0000,  0.0000,  0.0000)
  49 N      9.690460    9.681466   18.256044    ( 0.0000,  0.0000,  0.0000)

Unit cell:
           periodic     x           y           z      points  spacing
  1. axis:    yes    9.702222    0.000000    0.000000    60     0.1617
  2. axis:    yes    0.000000    9.702222    0.000000    60     0.1617
  3. axis:    no     0.000000    0.000000   26.601111   168     0.1583

  Lengths:   9.702222   9.702222  26.601111
  Angles:   90.000000  90.000000  90.000000

Effective grid spacing dv^(1/3) = 0.1606

     iter     time        total  log10-change:
                         energy  eigst   dens
iter:   1 19:46:03  -323.174967  -0.67
iter:   2 19:46:10  -323.108101  -1.21  -1.84
iter:   3 19:46:18  -323.084311  -1.11  -1.73
iter:   4 19:46:25  -323.031403  -1.23  -1.75
Writing to output.gpw (mode='')

iter:   5 19:46:33  -323.024542  -2.11  -2.16
iter:   6 19:46:40  -323.021454c -2.01  -2.29
iter:   7 19:46:48  -323.019108c -2.09  -2.38
iter:   8 19:46:55  -323.018247c -2.24  -2.42
iter:   9 19:47:02  -323.017819c -2.49  -2.46
Writing to output.gpw (mode='')

iter:  10 19:47:10  -323.017578c -2.99  -2.74
iter:  11 19:47:17  -323.017570c -3.16  -2.82
iter:  12 19:47:25  -323.017611c -3.18  -2.89
iter:  13 19:47:32  -323.017698c -3.63  -2.96
iter:  14 19:47:40  -323.017678c -3.78  -2.94
Writing to output.gpw (mode='')

iter:  15 19:47:47  -323.017636c -4.03  -3.15
iter:  16 19:47:55  -323.017593c -3.86  -3.25
iter:  17 19:48:02  -323.017589c -3.91  -3.41
iter:  18 19:48:09  -323.017586c -4.34  -3.61
iter:  19 19:48:17  -323.017597c -4.64  -3.64
Writing to output.gpw (mode='')

iter:  20 19:48:24  -323.017606c -4.64  -3.88
iter:  21 19:48:32  -323.017614c -4.94  -4.00c
iter:  22 19:48:39  -323.017614c -5.12  -4.04c
iter:  23 19:48:47  -323.017620c -5.07  -4.15c
iter:  24 19:48:54  -323.017618c -5.22  -4.25c
Writing to output.gpw (mode='')

iter:  25 19:49:01  -323.017619c -5.59  -4.30c
iter:  26 19:49:09  -323.017621c -5.50  -4.36c
iter:  27 19:49:16  -323.017621c -5.87  -4.39c
iter:  28 19:49:24  -323.017621c -5.62  -4.47c
iter:  29 19:49:31  -323.017622c -5.62  -4.57c
Writing to output.gpw (mode='')

iter:  30 19:49:44  -323.017622c -5.68  -4.61c
iter:  31 19:49:52  -323.017622c -6.15  -4.70c
iter:  32 19:50:00  -323.017623c -6.20  -4.60c
iter:  33 19:50:07  -323.017623c -6.32  -4.65c
iter:  34 19:50:15  -323.017623c -6.34  -4.67c
Writing to output.gpw (mode='')

iter:  35 19:50:22  -323.017623c -6.51  -4.62c
iter:  36 19:50:30  -323.017623c -6.30  -4.72c
iter:  37 19:50:37  -323.017623c -6.57  -4.61c
iter:  38 19:50:44  -323.017624c -6.55  -4.64c
iter:  39 19:50:52  -323.017624c -6.86  -4.65c
Writing to output.gpw (mode='')

iter:  40 19:50:59  -323.017623c -6.93  -4.73c
iter:  41 19:51:07  -323.017624c -6.85  -4.61c
iter:  42 19:51:14  -323.017624c -7.02  -4.83c
iter:  43 19:51:22  -323.017624c -7.12  -4.95c
iter:  44 19:51:29  -323.017624c -6.96  -5.10c
Writing to output.gpw (mode='')

iter:  45 19:51:36  -323.017624c -7.38  -5.44c
iter:  46 19:51:44  -323.017624c -7.32  -5.47c
iter:  47 19:51:51  -323.017624c -7.12  -5.60c
iter:  48 19:51:59  -323.017624c -7.54c -5.61c

Converged after 48 iterations.

Dipole moment: (-14.929855, -20.491730, 0.126763) |e|*Ang

Energy contributions relative to reference atoms: (reference = -15487.462483)

Kinetic:       +216.258087
Potential:     -192.981286
External:        +0.000000
XC:            -346.995310
Entropy (-ST):   -0.145973
Local:           +0.773872
--------------------------
Free energy:   -323.090610
Extrapolated:  -323.017624

Dipole-layer corrected work functions: 3.390112, 3.146429 eV

Showing only first 2 kpts
 Kpt  Band  Eigenvalues  Occupancy
  0    34     -3.51260    1.98502
  0    35     -3.41151    1.89216
  0    36     -3.12875    0.11569
  0    37     -3.01510    0.01257

  1    34     -3.32794    1.53470
  1    35     -3.26199    0.93730
  1    36     -3.23332    0.66409
  1    37     -3.16583    0.22835


Fermi level: -3.26827

No gap
Writing to output.gpw (mode='')


Forces in eV/Ang:
  0 Li    0.01171    0.00376   -0.27054
  1 Li   -0.00170   -0.00074   -0.26887
  2 Li   -0.01021    0.00372   -0.26940
  3 Li    0.00109    0.00397   -0.27262
  4 Li   -0.00006   -0.00021   -0.28462
  5 Li   -0.00164    0.00588   -0.27183
  6 Li    0.00604   -0.00680   -0.27067
  7 Li    0.00009    0.00074   -0.27363
  8 Li   -0.00637   -0.00842   -0.27080
  9 Li    0.00034    0.00617    0.31191
 10 Li    0.01535   -0.00142    0.25637
 11 Li   -0.01632   -0.00243    0.25800
 12 Li    0.00083   -0.00065    0.27992
 13 Li    0.00566    0.00536    0.25789
 14 Li   -0.00618    0.00567    0.25625
 15 Li   -0.00045   -0.00674    0.25505
 16 Li   -0.01120   -0.00447    0.26086
 17 Li    0.01201   -0.00452    0.26110
 18 Li    0.02273    0.00167   -0.02125
 19 Li    0.00140    0.00207    0.04781
 20 Li   -0.02504    0.00354   -0.03313
 21 Li   -0.00809   -0.00629    0.04633
 22 Li    0.00019    0.00336    0.03022
 23 Li    0.00855   -0.00938    0.04814
 24 Li    0.00292    0.00059    0.00938
 25 Li   -0.00089   -0.00558    0.03946
 26 Li   -0.00044    0.00354    0.01122
 27 Li    0.03499    0.06810   -1.61532
 28 Li    0.01377   -0.00270   -0.03730
 29 Li   -0.01177   -0.00801   -0.01388
 30 Li    0.00829   -0.02500    0.01830
 31 Li    0.01915    0.01029   -0.02813
 32 Li   -0.02572    0.01351   -0.02903
 33 Li    0.00062    0.00519   -0.01099
 34 Li    0.00432   -0.00348   -0.02201
 35 Li   -0.00581   -0.00255   -0.01995
 36 O     0.66577    9.39675   17.65969
 37 C     0.01852   -0.22268   -0.00857
 38 C     1.92169    1.31300    2.39031
 39 C    -0.04286    0.08288    0.04500
 40 H     0.04473   -0.05072   -0.00696
 41 H     0.07717   -0.05328    0.05972
 42 H     0.62498    0.39691    0.16983
 43 H     0.09288    0.14737    0.33752
 44 H    -0.01488    0.00733    0.01151
 45 H    -0.03470   -0.04202   -0.02729
 46 H    -0.00422   -0.00966   -0.02725
 47 H    -0.96140  -14.25538    1.73065
 48 N     0.27136    5.06351   -9.11419
 49 N    -2.65063   -1.84491  -11.56039

System changes: positions 

Initializing position-dependent things.

Density initialized from wave functions
       .-----------------------.  
      /|                       |  
     / |                       |  
    /  |                       |  
   /   |                       |  
  /    |                       |  
 *     |                       |  
 |     |                       |  
 |     |    H                  |  
 |     |     C    H            |  
 |     |    H                 HN  
 |     |                       |  
 |     |                       |  
 |   H |   H                   |  
 O   C |   C   Li      Li      |  
 |   H |   H                   |  
 |     |     Li      Li      Li|  
 |     |  Li      Li      Li   |  
 N Li  |   Li      Li          |  
 |     |Li      Li      Li     |  
 Li    |                       |  
 |   LLi     LLi     LLi       |  
 |     |  Li      Li      Li   |  
 | Li  |   Li      Li          |  
 |     |Li      Li      Li     |  
 Li    | Li      Li            |  
 |    Li      Li      Li       |  
 |     |                       |  
 |     |                       |  
 |     |                       |  
 |     |                       |  
 |     |                       |  
 |     |                       |  
 |     .-----------------------.  
 |    /                       /   
 |   /                       /    
 |  /                       /     
 | /                       /      
 |/                       /       
 *-----------------------*        

Positions:
   0 Li     1.617037    1.617037   10.000000    ( 0.0000,  0.0000,  0.0000)
   1 Li     4.851111    1.617037   10.000000    ( 0.0000,  0.0000,  0.0000)
   2 Li     8.085185    1.617037   10.000000    ( 0.0000,  0.0000,  0.0000)
   3 Li     1.617037    4.851111   10.000000    ( 0.0000,  0.0000,  0.0000)
   4 Li     4.851111    4.851111   10.000000    ( 0.0000,  0.0000,  0.0000)
   5 Li     8.085185    4.851111   10.000000    ( 0.0000,  0.0000,  0.0000)
   6 Li     1.617037    8.085185   10.000000    ( 0.0000,  0.0000,  0.0000)
   7 Li     4.851111    8.085185   10.000000    ( 0.0000,  0.0000,  0.0000)
   8 Li     8.085185    8.085185   10.000000    ( 0.0000,  0.0000,  0.0000)
   9 Li     0.000000    0.000000   11.617037    ( 0.0000,  0.0000,  0.0000)
  10 Li     3.234074    0.000000   11.617037    ( 0.0000,  0.0000,  0.0000)
  11 Li     6.468148    0.000000   11.617037    ( 0.0000,  0.0000,  0.0000)
  12 Li     0.000000    3.234074   11.617037    ( 0.0000,  0.0000,  0.0000)
  13 Li     3.234074    3.234074   11.617037    ( 0.0000,  0.0000,  0.0000)
  14 Li     6.468148    3.234074   11.617037    ( 0.0000,  0.0000,  0.0000)
  15 Li     0.000000    6.468148   11.617037    ( 0.0000,  0.0000,  0.0000)
  16 Li     3.234074    6.468148   11.617037    ( 0.0000,  0.0000,  0.0000)
  17 Li     6.468148    6.468148   11.617037    ( 0.0000,  0.0000,  0.0000)
  18 Li     1.617212    1.617067   13.469577    ( 0.0000,  0.0000,  0.0000)
  19 Li     4.851128    1.617043   13.470103    ( 0.0000,  0.0000,  0.0000)
  20 Li     8.084994    1.617080   13.469475    ( 0.0000,  0.0000,  0.0000)
  21 Li     1.616999    4.851057   13.470081    ( 0.0000,  0.0000,  0.0000)
  22 Li     4.851109    4.851148   13.469948    ( 0.0000,  0.0000,  0.0000)
  23 Li     8.085230    4.851030   13.470095    ( 0.0000,  0.0000,  0.0000)
  24 Li     1.617048    8.085190   13.469817    ( 0.0000,  0.0000,  0.0000)
  25 Li     4.851106    8.085146   13.470027    ( 0.0000,  0.0000,  0.0000)
  26 Li     8.085183    8.085202   13.469840    ( 0.0000,  0.0000,  0.0000)
  27 Li     0.000268    0.000536   15.430831    ( 0.0000,  0.0000,  0.0000)
  28 Li     3.234218   -0.000024   15.445667    ( 0.0000,  0.0000,  0.0000)
  29 Li     6.468015   -0.000077   15.445786    ( 0.0000,  0.0000,  0.0000)
  30 Li     0.000066    3.234052   15.445952    ( 0.0000,  0.0000,  0.0000)
  31 Li     3.234206    3.234148   15.445715    ( 0.0000,  0.0000,  0.0000)
  32 Li     6.467951    3.234198   15.445692    ( 0.0000,  0.0000,  0.0000)
  33 Li    -0.000006    6.468104   15.445798    ( 0.0000,  0.0000,  0.0000)
  34 Li     3.234115    6.468117   15.445767    ( 0.0000,  0.0000,  0.0000)
  35 Li     6.468116    6.468134   15.445780    ( 0.0000,  0.0000,  0.0000)
  36 O      9.704658    9.747684   19.748085    ( 0.0000,  0.0000,  0.0000)
  37 C     12.137480    9.313819   19.646187    ( 0.0000,  0.0000,  0.0000)
  38 C     11.002993   10.331881   19.649560    ( 0.0000,  0.0000,  0.0000)
  39 C     13.516690    9.976928   19.652464    ( 0.0000,  0.0000,  0.0000)
  40 H     12.018195    8.671301   20.523053    ( 0.0000,  0.0000,  0.0000)
  41 H     12.042962    8.672378   18.760495    ( 0.0000,  0.0000,  0.0000)
  42 H     11.024376   10.949409   20.537260    ( 0.0000,  0.0000,  0.0000)
  43 H     11.089172   10.992999   18.770355    ( 0.0000,  0.0000,  0.0000)
  44 H     13.650216   10.603156   20.537914    ( 0.0000,  0.0000,  0.0000)
  45 H     14.313981    9.232069   19.652827    ( 0.0000,  0.0000,  0.0000)
  46 H     13.658310   10.612567   18.773683    ( 0.0000,  0.0000,  0.0000)
  47 H      9.652249    9.074536   18.885051    ( 0.0000,  0.0000,  0.0000)
  48 N      9.703947    9.737833   17.148802    ( 0.0000,  0.0000,  0.0000)
  49 N      9.681454    9.660345   18.223291    ( 0.0000,  0.0000,  0.0000)

Unit cell:
           periodic     x           y           z      points  spacing
  1. axis:    yes    9.702222    0.000000    0.000000    60     0.1617
  2. axis:    yes    0.000000    9.702222    0.000000    60     0.1617
  3. axis:    no     0.000000    0.000000   26.601111   168     0.1583

  Lengths:   9.702222   9.702222  26.601111
  Angles:   90.000000  90.000000  90.000000

Effective grid spacing dv^(1/3) = 0.1606

     iter     time        total  log10-change:
                         energy  eigst   dens
iter:   1 19:52:08  -324.556893  -0.65
iter:   2 19:52:15  -324.474253  -1.09  -1.73
iter:   3 19:52:23  -324.425674  -1.00  -1.84
iter:   4 19:52:30  -324.364148  -0.92  -1.70
Writing to output.gpw (mode='')

iter:   5 19:52:38  -324.371113  -1.62  -2.20
iter:   6 19:52:45  -324.374540c -1.46  -2.14
iter:   7 19:52:53  -324.349496c -1.61  -2.13
iter:   8 19:53:00  -324.348292c -2.42  -2.47
iter:   9 19:53:08  -324.347890c -2.50  -2.58
Writing to output.gpw (mode='')

iter:  10 19:53:15  -324.347693c -2.74  -2.74
iter:  11 19:53:23  -324.347661c -3.03  -2.92
iter:  12 19:53:30  -324.347753c -3.32  -2.96
iter:  13 19:53:38  -324.347747c -3.58  -3.02
iter:  14 19:53:45  -324.347765c -3.95  -3.19
Writing to output.gpw (mode='')

iter:  15 19:53:53  -324.347722c -4.25  -3.25
iter:  16 19:54:00  -324.347717c -4.09  -3.42
iter:  17 19:54:08  -324.347718c -4.38  -3.53
iter:  18 19:54:15  -324.347724c -4.53  -3.63
iter:  19 19:54:23  -324.347727c -4.76  -3.69
Writing to output.gpw (mode='')

iter:  20 19:54:30  -324.347736c -4.83  -3.82
iter:  21 19:54:47  -324.347734c -5.11  -3.86
iter:  22 19:54:54  -324.347734c -5.18  -4.00c
iter:  23 19:55:02  -324.347735c -5.32  -4.01c
iter:  24 19:55:09  -324.347736c -5.52  -4.03c
Writing to output.gpw (mode='')

iter:  25 19:55:17  -324.347732c -5.38  -4.23c
iter:  26 19:55:24  -324.347732c -5.98  -4.29c
iter:  27 19:55:32  -324.347734c -5.89  -4.46c
iter:  28 19:55:39  -324.347734c -6.13  -4.63c
iter:  29 19:55:47  -324.347735c -6.35  -4.76c
Writing to output.gpw (mode='')

iter:  30 19:55:56  -324.347735c -6.28  -4.84c
iter:  31 19:56:04  -324.347735c -6.33  -4.87c
iter:  32 19:56:12  -324.347735c -6.59  -5.08c
iter:  33 19:56:19  -324.347735c -6.71  -5.11c
iter:  34 19:56:27  -324.347736c -6.77  -5.16c
Writing to output.gpw (mode='')

iter:  35 19:56:34  -324.347736c -6.72  -5.25c
iter:  36 19:56:42  -324.347736c -6.97  -5.30c
iter:  37 19:56:49  -324.347736c -7.01  -5.34c
iter:  38 19:56:57  -324.347736c -7.10  -5.37c
iter:  39 19:57:04  -324.347736c -7.20  -5.55c
Writing to output.gpw (mode='')

iter:  40 19:57:12  -324.347736c -6.92  -5.67c
iter:  41 19:57:19  -324.347736c -7.34  -5.63c
iter:  42 19:57:26  -324.347736c -7.39  -5.58c
iter:  43 19:57:34  -324.347736c -7.42c -5.63c

Converged after 43 iterations.

Dipole moment: (-14.171667, -20.012290, 0.022862) |e|*Ang

Energy contributions relative to reference atoms: (reference = -15487.462483)

Kinetic:       +215.463030
Potential:     -193.623223
External:        +0.000000
XC:            -346.886220
Entropy (-ST):   -0.145084
Local:           +0.771219
--------------------------
Free energy:   -324.420278
Extrapolated:  -324.347736

Dipole-layer corrected work functions: 3.395026, 3.351078 eV

Showing only first 2 kpts
 Kpt  Band  Eigenvalues  Occupancy
  0    34     -3.61810    1.98523
  0    35     -3.52869    1.91484
  0    36     -3.22085    0.09095
  0    37     -3.12208    0.01313

  1    34     -3.42605    1.48533
  1    35     -3.36316    0.90141
  1    36     -3.34311    0.70926
  1    37     -3.27275    0.23715


Fermi level: -3.37305

No gap
Writing to output.gpw (mode='')


Forces in eV/Ang:
  0 Li    0.01082    0.00415   -0.27010
  1 Li   -0.00135   -0.00036   -0.26887
  2 Li   -0.00968    0.00446   -0.26915
  3 Li    0.00096    0.00302   -0.27182
  4 Li    0.00019   -0.00066   -0.28606
  5 Li   -0.00173    0.00457   -0.27147
  6 Li    0.00591   -0.00639   -0.26976
  7 Li    0.00009    0.00036   -0.27295
  8 Li   -0.00620   -0.00792   -0.26991
  9 Li    0.00007    0.00574    0.31014
 10 Li    0.01487   -0.00176    0.25578
 11 Li   -0.01558   -0.00244    0.25696
 12 Li    0.00073    0.00151    0.27530
 13 Li    0.00682    0.00531    0.25588
 14 Li   -0.00721    0.00592    0.25412
 15 Li   -0.00008   -0.00893    0.25437
 16 Li   -0.00938   -0.00375    0.25999
 17 Li    0.00980   -0.00442    0.25968
 18 Li    0.02165    0.00344   -0.01706
 19 Li    0.00143    0.00202    0.04674
 20 Li   -0.02351    0.00479   -0.02682
 21 Li   -0.00527   -0.00606    0.04482
 22 Li   -0.00018    0.00345    0.03014
 23 Li    0.00607   -0.00858    0.04665
 24 Li    0.00223   -0.00003    0.01366
 25 Li   -0.00034   -0.00509    0.03892
 26 Li   -0.00080    0.00191    0.01420
 27 Li    0.03636    0.06702   -1.77245
 28 Li    0.01802   -0.00335   -0.03883
 29 Li   -0.01775   -0.00709   -0.02183
 30 Li    0.00727   -0.00627    0.00438
 31 Li    0.01502    0.00815   -0.02743
 32 Li   -0.02122    0.01140   -0.02866
 33 Li    0.00107   -0.00623   -0.02273
 34 Li    0.00301   -0.00189   -0.02150
 35 Li   -0.00446   -0.00139   -0.02093
 36 O     0.62811    7.24901   15.47272
 37 C     0.02880   -0.15893    0.02844
 38 C     1.45056    1.02764    2.12911
 39 C    -0.02182    0.06402    0.03672
 40 H     0.04703   -0.05425   -0.00853
 41 H     0.06864   -0.05231    0.05995
 42 H     0.70411    0.47808    0.17887
 43 H     0.07396    0.12467    0.31521
 44 H    -0.01543    0.00174    0.00538
 45 H    -0.01393   -0.04106   -0.02408
 46 H    -0.00435   -0.00757   -0.02285
 47 H    -0.61982  -10.94186    2.89090
 48 N     0.39672    4.77339  -10.23480
 49 N    -2.72184   -2.58366   -9.00036

System changes: positions 

Initializing position-dependent things.

Density initialized from wave functions
       .-----------------------.  
      /|                       |  
     / |                       |  
    /  |                       |  
   /   |                       |  
  /    |                       |  
 *     |                       |  
 |     |                       |  
 |     |    H                  |  
 |     |     C    H            |  
 |     |    H                 HN  
 |     |                       |  
 |     |                       |  
 |   H |   H                   |  
 O   C |   C   Li      Li      |  
 |   H |   H                   |  
 |     |     Li      Li      Li|  
 |     |  Li      Li      Li   |  
 N Li  |   Li      Li          |  
 |     |Li      Li      Li     |  
 Li    |                       |  
 |   LLi     LLi     LLi       |  
 |     |  Li      Li      Li   |  
 | Li  |   Li      Li          |  
 |     |Li      Li      Li     |  
 Li    | Li      Li            |  
 |    Li      Li      Li       |  
 |     |                       |  
 |     |                       |  
 |     |                       |  
 |     |                       |  
 |     |                       |  
 |     |                       |  
 |     .-----------------------.  
 |    /                       /   
 |   /                       /    
 |  /                       /     
 | /                       /      
 |/                       /       
 *-----------------------*        

Positions:
   0 Li     1.617037    1.617037   10.000000    ( 0.0000,  0.0000,  0.0000)
   1 Li     4.851111    1.617037   10.000000    ( 0.0000,  0.0000,  0.0000)
   2 Li     8.085185    1.617037   10.000000    ( 0.0000,  0.0000,  0.0000)
   3 Li     1.617037    4.851111   10.000000    ( 0.0000,  0.0000,  0.0000)
   4 Li     4.851111    4.851111   10.000000    ( 0.0000,  0.0000,  0.0000)
   5 Li     8.085185    4.851111   10.000000    ( 0.0000,  0.0000,  0.0000)
   6 Li     1.617037    8.085185   10.000000    ( 0.0000,  0.0000,  0.0000)
   7 Li     4.851111    8.085185   10.000000    ( 0.0000,  0.0000,  0.0000)
   8 Li     8.085185    8.085185   10.000000    ( 0.0000,  0.0000,  0.0000)
   9 Li     0.000000    0.000000   11.617037    ( 0.0000,  0.0000,  0.0000)
  10 Li     3.234074    0.000000   11.617037    ( 0.0000,  0.0000,  0.0000)
  11 Li     6.468148    0.000000   11.617037    ( 0.0000,  0.0000,  0.0000)
  12 Li     0.000000    3.234074   11.617037    ( 0.0000,  0.0000,  0.0000)
  13 Li     3.234074    3.234074   11.617037    ( 0.0000,  0.0000,  0.0000)
  14 Li     6.468148    3.234074   11.617037    ( 0.0000,  0.0000,  0.0000)
  15 Li     0.000000    6.468148   11.617037    ( 0.0000,  0.0000,  0.0000)
  16 Li     3.234074    6.468148   11.617037    ( 0.0000,  0.0000,  0.0000)
  17 Li     6.468148    6.468148   11.617037    ( 0.0000,  0.0000,  0.0000)
  18 Li     1.617314    1.617103   13.469516    ( 0.0000,  0.0000,  0.0000)
  19 Li     4.851138    1.617047   13.470318    ( 0.0000,  0.0000,  0.0000)
  20 Li     8.084889    1.617116   13.469380    ( 0.0000,  0.0000,  0.0000)
  21 Li     1.617005    4.851027   13.470290    ( 0.0000,  0.0000,  0.0000)
  22 Li     4.851103    4.851171   13.470076    ( 0.0000,  0.0000,  0.0000)
  23 Li     8.085233    4.850991   13.470312    ( 0.0000,  0.0000,  0.0000)
  24 Li     1.617055    8.085190   13.469905    ( 0.0000,  0.0000,  0.0000)
  25 Li     4.851111    8.085129   13.470205    ( 0.0000,  0.0000,  0.0000)
  26 Li     8.085167    8.085195   13.469924    ( 0.0000,  0.0000,  0.0000)
  27 Li     0.000452    0.000884   15.419607    ( 0.0000,  0.0000,  0.0000)
  28 Li     3.234344   -0.000048   15.445496    ( 0.0000,  0.0000,  0.0000)
  29 Li     6.467879   -0.000113   15.445609    ( 0.0000,  0.0000,  0.0000)
  30 Li     0.000091    3.234271   15.445800    ( 0.0000,  0.0000,  0.0000)
  31 Li     3.234248    3.234174   15.445581    ( 0.0000,  0.0000,  0.0000)
  32 Li     6.467877    3.234253   15.445541    ( 0.0000,  0.0000,  0.0000)
  33 Li    -0.000004    6.467927   15.445578    ( 0.0000,  0.0000,  0.0000)
  34 Li     3.234136    6.468113   15.445666    ( 0.0000,  0.0000,  0.0000)
  35 Li     6.468100    6.468134   15.445666    ( 0.0000,  0.0000,  0.0000)
  36 O      9.705854    9.751648   19.782442    ( 0.0000,  0.0000,  0.0000)
  37 C     12.138247    9.314062   19.646855    ( 0.0000,  0.0000,  0.0000)
  38 C     11.002351   10.332938   19.655027    ( 0.0000,  0.0000,  0.0000)
  39 C     13.516885    9.976608   19.652540    ( 0.0000,  0.0000,  0.0000)
  40 H     12.018441    8.670982   20.523012    ( 0.0000,  0.0000,  0.0000)
  41 H     12.043108    8.672101   18.760696    ( 0.0000,  0.0000,  0.0000)
  42 H     11.029431   10.953288   20.538893    ( 0.0000,  0.0000,  0.0000)
  43 H     11.089783   10.993373   18.771950    ( 0.0000,  0.0000,  0.0000)
  44 H     13.650128   10.603131   20.537881    ( 0.0000,  0.0000,  0.0000)
  45 H     14.314162    9.231986   19.652775    ( 0.0000,  0.0000,  0.0000)
  46 H     13.658276   10.612615   18.773601    ( 0.0000,  0.0000,  0.0000)
  47 H      9.654649    9.073031   18.910038    ( 0.0000,  0.0000,  0.0000)
  48 N      9.706427    9.756181   17.119429    ( 0.0000,  0.0000,  0.0000)
  49 N      9.669015    9.634066   18.195819    ( 0.0000,  0.0000,  0.0000)

Unit cell:
           periodic     x           y           z      points  spacing
  1. axis:    yes    9.702222    0.000000    0.000000    60     0.1617
  2. axis:    yes    0.000000    9.702222    0.000000    60     0.1617
  3. axis:    no     0.000000    0.000000   26.601111   168     0.1583

  Lengths:   9.702222   9.702222  26.601111
  Angles:   90.000000  90.000000  90.000000

Effective grid spacing dv^(1/3) = 0.1606

     iter     time        total  log10-change:
                         energy  eigst   dens
iter:   1 19:57:43  -325.831564  -0.64
iter:   2 19:57:50  -325.784229  -0.94  -1.70
iter:   3 19:57:58  -325.739462  -1.37  -1.64
iter:   4 19:58:05  -325.704299  -1.39  -1.90
Writing to output.gpw (mode='')

iter:   5 19:58:13  -325.703184  -1.92  -2.29
iter:   6 19:58:20  -325.704553c -1.82  -2.41
iter:   7 19:58:27  -325.700920c -2.33  -2.33
iter:   8 19:58:35  -325.700716c -2.54  -2.67
iter:   9 19:58:42  -325.700699c -3.01  -2.81
Writing to output.gpw (mode='')

iter:  10 19:58:50  -325.700488c -3.07  -2.91
iter:  11 19:58:57  -325.700573c -3.15  -2.97
iter:  12 19:59:05  -325.700542c -3.79  -3.10
iter:  13 19:59:12  -325.700566c -3.89  -3.21
iter:  14 19:59:19  -325.700543c -4.19  -3.35
Writing to output.gpw (mode='')

iter:  15 19:59:27  -325.700521c -4.19  -3.40
iter:  16 19:59:34  -325.700515c -4.07  -3.59
iter:  17 19:59:47  -325.700513c -4.79  -3.53
iter:  18 19:59:54  -325.700518c -4.55  -3.67
iter:  19 20:00:02  -325.700523c -5.10  -3.86
Writing to output.gpw (mode='')

iter:  20 20:00:09  -325.700528c -5.08  -3.90
iter:  21 20:00:17  -325.700530c -4.96  -4.04c
iter:  22 20:00:24  -325.700528c -5.39  -4.18c
iter:  23 20:00:31  -325.700525c -5.62  -4.25c
iter:  24 20:00:39  -325.700526c -5.88  -4.37c
Writing to output.gpw (mode='')

iter:  25 20:00:46  -325.700528c -5.90  -4.48c
iter:  26 20:00:54  -325.700528c -6.05  -4.64c
iter:  27 20:01:01  -325.700528c -6.13  -4.70c
iter:  28 20:01:09  -325.700528c -6.43  -4.96c
iter:  29 20:01:16  -325.700529c -6.17  -5.01c
Writing to output.gpw (mode='')

iter:  30 20:01:24  -325.700529c -6.24  -5.05c
iter:  31 20:01:31  -325.700529c -6.35  -5.12c
iter:  32 20:01:39  -325.700529c -6.59  -5.17c
iter:  33 20:01:46  -325.700529c -6.59  -5.27c
iter:  34 20:01:53  -325.700529c -6.86  -5.28c
Writing to output.gpw (mode='')

iter:  35 20:02:01  -325.700529c -6.69  -5.30c
iter:  36 20:02:08  -325.700529c -6.88  -5.40c
iter:  37 20:02:16  -325.700529c -6.83  -5.58c
iter:  38 20:02:23  -325.700529c -7.07  -5.59c
iter:  39 20:02:31  -325.700529c -6.88  -5.60c
Writing to output.gpw (mode='')

iter:  40 20:02:38  -325.700529c -7.21  -5.54c
iter:  41 20:02:45  -325.700529c -7.05  -5.55c
iter:  42 20:02:53  -325.700529c -7.48c -5.57c

Converged after 42 iterations.

Dipole moment: (-13.280971, -18.736740, -0.065622) |e|*Ang

Energy contributions relative to reference atoms: (reference = -15487.462483)

Kinetic:       +210.204756
Potential:     -190.502099
External:        +0.000000
XC:            -346.104229
Entropy (-ST):   -0.144323
Local:           +0.773204
--------------------------
Free energy:   -325.772691
Extrapolated:  -325.700529

Dipole-layer corrected work functions: 3.398958, 3.525106 eV

Showing only first 2 kpts
 Kpt  Band  Eigenvalues  Occupancy
  0    34     -3.70706    1.98523
  0    35     -3.62244    1.92228
  0    36     -3.30517    0.08319
  0    37     -3.21385    0.01388

  1    34     -3.50970    1.44361
  1    35     -3.45085    0.88862
  1    36     -3.43342    0.72140
  1    37     -3.35992    0.22966


Fermi level: -3.46203

No gap
Writing to output.gpw (mode='')


Forces in eV/Ang:
  0 Li    0.01026    0.00418   -0.27011
  1 Li   -0.00074   -0.00054   -0.26875
  2 Li   -0.00965    0.00507   -0.26934
  3 Li    0.00086    0.00290   -0.27132
  4 Li    0.00038   -0.00062   -0.28710
  5 Li   -0.00192    0.00343   -0.27146
  6 Li    0.00645   -0.00623   -0.26970
  7 Li   -0.00031    0.00011   -0.27284
  8 Li   -0.00651   -0.00755   -0.26945
  9 Li   -0.00011    0.00551    0.31013
 10 Li    0.01462   -0.00201    0.25550
 11 Li   -0.01522   -0.00232    0.25635
 12 Li    0.00063    0.00220    0.27374
 13 Li    0.00705    0.00567    0.25477
 14 Li   -0.00751    0.00671    0.25304
 15 Li    0.00030   -0.00985    0.25471
 16 Li   -0.00850   -0.00388    0.25947
 17 Li    0.00887   -0.00483    0.25823
 18 Li    0.02301    0.00539   -0.01978
 19 Li    0.00104    0.00223    0.04543
 20 Li   -0.02410    0.00566   -0.02500
 21 Li   -0.00399   -0.00616    0.04441
 22 Li   -0.00052    0.00307    0.03056
 23 Li    0.00522   -0.00717    0.04625
 24 Li    0.00276   -0.00130    0.01361
 25 Li    0.00071   -0.00458    0.03870
 26 Li   -0.00246   -0.00016    0.01138
 27 Li    0.04061    0.06325   -2.06374
 28 Li    0.01346   -0.00438   -0.03254
 29 Li   -0.01482   -0.00456   -0.02194
 30 Li    0.00519    0.00019    0.00181
 31 Li    0.01412    0.00815   -0.02652
 32 Li   -0.01844    0.00991   -0.02749
 33 Li    0.00245   -0.01157   -0.02840
 34 Li    0.00325   -0.00125   -0.02113
 35 Li   -0.00597   -0.00250   -0.02281
 36 O     0.67088    5.46250   12.88462
 37 C     0.01419   -0.11615    0.04989
 38 C     1.14244    0.84982    1.90525
 39 C    -0.00834    0.05689    0.03161
 40 H     0.05470   -0.05821   -0.00421
 41 H     0.05492   -0.03820    0.06562
 42 H     0.75695    0.53084    0.20532
 43 H     0.00900    0.06638    0.31406
 44 H    -0.01236   -0.00186    0.00118
 45 H     0.00217   -0.04089   -0.02188
 46 H    -0.00402   -0.00648   -0.01915
 47 H    -0.38817   -8.38124    3.78125
 48 N     0.47824    4.16078   -7.52721
 49 N    -2.75820   -2.59945   -9.51498

System changes: positions 

Initializing position-dependent things.

Density initialized from wave functions
       .-----------------------.  
      /|                       |  
     / |                       |  
    /  |                       |  
   /   |                       |  
  /    |                       |  
 *     |                       |  
 |     |                       |  
 |     |    H                  |  
 |     |     C    H            |  
 |     |    H                  H  
 |     |                       N  
 |     |                       |  
 |   H |   H                   |  
 O   C |   C   Li      Li      |  
 |   H |   H                   |  
 |   Li|     Li      Li        |  
 |     |  Li      Li      Li   |  
 N Li  |   Li      Li          |  
 |     |Li      Li      Li     |  
 Li    |                       |  
 |   LLi     LLi     LLi       |  
 |     |  Li      Li      Li   |  
 | Li  |   Li      Li          |  
 |     |Li      Li      Li     |  
 Li    | Li      Li            |  
 |    Li      Li      Li       |  
 |     |                       |  
 |     |                       |  
 |     |                       |  
 |     |                       |  
 |     |                       |  
 |     |                       |  
 |     .-----------------------.  
 |    /                       /   
 |   /                       /    
 |  /                       /     
 | /                       /      
 |/                       /       
 *-----------------------*        

Positions:
   0 Li     1.617037    1.617037   10.000000    ( 0.0000,  0.0000,  0.0000)
   1 Li     4.851111    1.617037   10.000000    ( 0.0000,  0.0000,  0.0000)
   2 Li     8.085185    1.617037   10.000000    ( 0.0000,  0.0000,  0.0000)
   3 Li     1.617037    4.851111   10.000000    ( 0.0000,  0.0000,  0.0000)
   4 Li     4.851111    4.851111   10.000000    ( 0.0000,  0.0000,  0.0000)
   5 Li     8.085185    4.851111   10.000000    ( 0.0000,  0.0000,  0.0000)
   6 Li     1.617037    8.085185   10.000000    ( 0.0000,  0.0000,  0.0000)
   7 Li     4.851111    8.085185   10.000000    ( 0.0000,  0.0000,  0.0000)
   8 Li     8.085185    8.085185   10.000000    ( 0.0000,  0.0000,  0.0000)
   9 Li     0.000000    0.000000   11.617037    ( 0.0000,  0.0000,  0.0000)
  10 Li     3.234074    0.000000   11.617037    ( 0.0000,  0.0000,  0.0000)
  11 Li     6.468148    0.000000   11.617037    ( 0.0000,  0.0000,  0.0000)
  12 Li     0.000000    3.234074   11.617037    ( 0.0000,  0.0000,  0.0000)
  13 Li     3.234074    3.234074   11.617037    ( 0.0000,  0.0000,  0.0000)
  14 Li     6.468148    3.234074   11.617037    ( 0.0000,  0.0000,  0.0000)
  15 Li     0.000000    6.468148   11.617037    ( 0.0000,  0.0000,  0.0000)
  16 Li     3.234074    6.468148   11.617037    ( 0.0000,  0.0000,  0.0000)
  17 Li     6.468148    6.468148   11.617037    ( 0.0000,  0.0000,  0.0000)
  18 Li     1.617419    1.617147   13.469434    ( 0.0000,  0.0000,  0.0000)
  19 Li     4.851144    1.617054   13.470513    ( 0.0000,  0.0000,  0.0000)
  20 Li     8.084785    1.617154   13.469299    ( 0.0000,  0.0000,  0.0000)
  21 Li     1.617010    4.850998   13.470481    ( 0.0000,  0.0000,  0.0000)
  22 Li     4.851097    4.851187   13.470207    ( 0.0000,  0.0000,  0.0000)
  23 Li     8.085237    4.850966   13.470512    ( 0.0000,  0.0000,  0.0000)
  24 Li     1.617064    8.085179   13.469985    ( 0.0000,  0.0000,  0.0000)
  25 Li     4.851122    8.085115   13.470374    ( 0.0000,  0.0000,  0.0000)
  26 Li     8.085147    8.085177   13.469980    ( 0.0000,  0.0000,  0.0000)
  27 Li     0.000655    0.001160   15.407762    ( 0.0000,  0.0000,  0.0000)
  28 Li     3.234413   -0.000076   15.445377    ( 0.0000,  0.0000,  0.0000)
  29 Li     6.467789   -0.000125   15.445466    ( 0.0000,  0.0000,  0.0000)
  30 Li     0.000102    3.234432   15.445701    ( 0.0000,  0.0000,  0.0000)
  31 Li     3.234288    3.234201   15.445465    ( 0.0000,  0.0000,  0.0000)
  32 Li     6.467823    3.234290   15.445416    ( 0.0000,  0.0000,  0.0000)
  33 Li     0.000011    6.467777   15.445365    ( 0.0000,  0.0000,  0.0000)
  34 Li     3.234150    6.468114   15.445574    ( 0.0000,  0.0000,  0.0000)
  35 Li     6.468075    6.468125   15.445550    ( 0.0000,  0.0000,  0.0000)
  36 O      9.708027    9.752119   19.809645    ( 0.0000,  0.0000,  0.0000)
  37 C     12.138583    9.314261   19.647455    ( 0.0000,  0.0000,  0.0000)
  38 C     11.002272   10.333890   19.660231    ( 0.0000,  0.0000,  0.0000)
  39 C     13.517059    9.976513   19.652609    ( 0.0000,  0.0000,  0.0000)
  40 H     12.018724    8.670673   20.523004    ( 0.0000,  0.0000,  0.0000)
  41 H     12.043204    8.671969   18.760974    ( 0.0000,  0.0000,  0.0000)
  42 H     11.033879   10.956691   20.540264    ( 0.0000,  0.0000,  0.0000)
  43 H     11.089698   10.993334   18.773367    ( 0.0000,  0.0000,  0.0000)
  44 H     13.650078   10.603089   20.537837    ( 0.0000,  0.0000,  0.0000)
  45 H     14.314370    9.231860   19.652719    ( 0.0000,  0.0000,  0.0000)
  46 H     13.658254   10.612634   18.773543    ( 0.0000,  0.0000,  0.0000)
  47 H      9.656969    9.075658   18.935400    ( 0.0000,  0.0000,  0.0000)
  48 N      9.709294    9.770180   17.102003    ( 0.0000,  0.0000,  0.0000)
  49 N      9.656480    9.612547   18.164517    ( 0.0000,  0.0000,  0.0000)

Unit cell:
           periodic     x           y           z      points  spacing
  1. axis:    yes    9.702222    0.000000    0.000000    60     0.1617
  2. axis:    yes    0.000000    9.702222    0.000000    60     0.1617
  3. axis:    no     0.000000    0.000000   26.601111   168     0.1583

  Lengths:   9.702222   9.702222  26.601111
  Angles:   90.000000  90.000000  90.000000

Effective grid spacing dv^(1/3) = 0.1606

     iter     time        total  log10-change:
                         energy  eigst   dens
iter:   1 20:03:02  -326.744835  -0.82
iter:   2 20:03:10  -326.735975  -1.40  -2.17
iter:   3 20:03:17  -326.720371c -1.13  -2.27
iter:   4 20:03:25  -326.714974c -1.84  -2.11
Writing to output.gpw (mode='')

iter:   5 20:03:32  -326.719200c -1.80  -2.35
iter:   6 20:03:40  -326.717304c -1.89  -2.41
iter:   7 20:03:47  -326.711712c -2.01  -2.37
iter:   8 20:03:55  -326.712704c -2.73  -2.76
iter:   9 20:04:02  -326.711873c -2.45  -2.58
Writing to output.gpw (mode='')

iter:  10 20:04:10  -326.711064c -3.07  -2.71
iter:  11 20:04:17  -326.710926c -3.25  -2.82
iter:  12 20:04:25  -326.710863c -3.62  -2.95
iter:  13 20:04:32  -326.710892c -3.49  -3.03
iter:  14 20:04:46  -326.710849c -4.19  -3.21
Writing to output.gpw (mode='')

iter:  15 20:04:54  -326.710828c -3.67  -3.28
iter:  16 20:05:02  -326.710790c -4.06  -3.22
iter:  17 20:05:09  -326.710793c -4.72  -3.57
iter:  18 20:05:17  -326.710803c -4.66  -3.68
iter:  19 20:05:24  -326.710814c -4.61  -3.79
Writing to output.gpw (mode='')

iter:  20 20:05:32  -326.710811c -5.12  -3.88
iter:  21 20:05:39  -326.710815c -5.32  -4.08c
iter:  22 20:05:47  -326.710811c -5.44  -4.09c
iter:  23 20:05:54  -326.710809c -5.67  -4.28c
iter:  24 20:06:02  -326.710810c -5.99  -4.35c
Writing to output.gpw (mode='')

iter:  25 20:06:09  -326.710810c -5.99  -4.53c
iter:  26 20:06:17  -326.710810c -6.33  -4.70c
iter:  27 20:06:25  -326.710810c -6.44  -4.70c
iter:  28 20:06:36  -326.710810c -6.58  -4.82c
iter:  29 20:06:49  -326.710810c -6.72  -4.98c
Writing to output.gpw (mode='')

iter:  30 20:06:58  -326.710810c -6.50  -5.02c
iter:  31 20:07:06  -326.710811c -6.98  -5.07c
iter:  32 20:07:14  -326.710811c -7.04  -5.12c
iter:  33 20:07:21  -326.710810c -6.98  -5.19c
iter:  34 20:07:29  -326.710810c -7.11  -5.33c
Writing to output.gpw (mode='')

iter:  35 20:07:36  -326.710810c -7.35  -5.36c
iter:  36 20:07:44  -326.710810c -7.12  -5.47c
iter:  37 20:07:51  -326.710810c -7.45c -5.60c

Converged after 37 iterations.

Dipole moment: (-12.474864, -17.355802, -0.128802) |e|*Ang

Energy contributions relative to reference atoms: (reference = -15487.462483)

Kinetic:       +207.787345
Potential:     -189.462004
External:        +0.000000
XC:            -345.737433
Entropy (-ST):   -0.143677
Local:           +0.773120
--------------------------
Free energy:   -326.782649
Extrapolated:  -326.710810

Dipole-layer corrected work functions: 3.401359, 3.648960 eV

Showing only first 2 kpts
 Kpt  Band  Eigenvalues  Occupancy
  0    34     -3.77052    1.98532
  0    35     -3.69027    1.92901
  0    36     -3.36274    0.07476
  0    37     -3.27963    0.01463

  1    34     -3.56711    1.39650
  1    35     -3.51320    0.88098
  1    36     -3.49772    0.73227
  1    37     -3.42300    0.22948


Fermi level: -3.52516

No gap
Writing to output.gpw (mode='')


Forces in eV/Ang:
  0 Li    0.00956    0.00426   -0.26998
  1 Li   -0.00012   -0.00065   -0.26867
  2 Li   -0.00945    0.00556   -0.26945
  3 Li    0.00069    0.00285   -0.27094
  4 Li    0.00040   -0.00067   -0.28787
  5 Li   -0.00189    0.00229   -0.27142
  6 Li    0.00674   -0.00618   -0.26958
  7 Li   -0.00076   -0.00008   -0.27266
  8 Li   -0.00652   -0.00713   -0.26891
  9 Li   -0.00017    0.00518    0.31006
 10 Li    0.01423   -0.00218    0.25545
 11 Li   -0.01492   -0.00216    0.25599
 12 Li    0.00045    0.00303    0.27180
 13 Li    0.00732    0.00582    0.25376
 14 Li   -0.00782    0.00701    0.25243
 15 Li    0.00059   -0.01074    0.25481
 16 Li   -0.00738   -0.00396    0.25903
 17 Li    0.00782   -0.00473    0.25719
 18 Li    0.02373    0.00751   -0.02074
 19 Li    0.00037    0.00251    0.04425
 20 Li   -0.02389    0.00653   -0.02100
 21 Li   -0.00261   -0.00632    0.04354
 22 Li   -0.00061    0.00275    0.03066
 23 Li    0.00407   -0.00568    0.04510
 24 Li    0.00320   -0.00276    0.01482
 25 Li    0.00158   -0.00419    0.03839
 26 Li   -0.00378   -0.00217    0.00997
 27 Li    0.04343    0.05831   -2.21664
 28 Li    0.01365   -0.00548   -0.03127
 29 Li   -0.01649   -0.00210   -0.02557
 30 Li    0.00302    0.00809   -0.00355
 31 Li    0.01257    0.00778   -0.02571
 32 Li   -0.01475    0.00755   -0.02593
 33 Li    0.00384   -0.01790   -0.03558
 34 Li    0.00235   -0.00002   -0.02053
 35 Li   -0.00640   -0.00282   -0.02392
 36 O     0.75686    3.87877   10.90795
 37 C     0.02592   -0.06935    0.07935
 38 C     0.85955    0.67324    1.69331
 39 C     0.00392    0.04000    0.02440
 40 H     0.05843   -0.06126   -0.00213
 41 H     0.03982   -0.02871    0.06443
 42 H     0.77385    0.56874    0.22919
 43 H    -0.04594    0.01990    0.30368
 44 H    -0.00995   -0.00291    0.00085
 45 H     0.01061   -0.03687   -0.02065
 46 H    -0.00306   -0.00386   -0.01826
 47 H    -0.21761   -5.99765    4.40524
 48 N     0.64917    3.91509   -7.61485
 49 N    -2.94306   -2.97726   -7.69164

System changes: positions 

Initializing position-dependent things.

Density initialized from wave functions
       .-----------------------.  
      /|                       |  
     / |                       |  
    /  |                       |  
   /   |                       |  
  /    |                       |  
 *     |                       |  
 |     |                       |  
 |     |    H                  |  
 |     |     C    H            |  
 |     |    H                  H  
 |     |                       N  
 |     |                       |  
 |   H |   H                   |  
 O   C |   C   Li      Li      |  
 |   H |   H                   |  
 |   Li|     Li      Li        |  
 |     |  Li      Li      Li   |  
 N Li  |   Li      Li          |  
 |     |Li      Li      Li     |  
 Li    |                       |  
 |   LLi     LLi     LLi       |  
 |     |  Li      Li      Li   |  
 | Li  |   Li      Li          |  
 |     |Li      Li      Li     |  
 Li    | Li      Li            |  
 |    Li      Li      Li       |  
 |     |                       |  
 |     |                       |  
 |     |                       |  
 |     |                       |  
 |     |                       |  
 |     |                       |  
 |     .-----------------------.  
 |    /                       /   
 |   /                       /    
 |  /                       /     
 | /                       /      
 |/                       /       
 *-----------------------*        

Positions:
   0 Li     1.617037    1.617037   10.000000    ( 0.0000,  0.0000,  0.0000)
   1 Li     4.851111    1.617037   10.000000    ( 0.0000,  0.0000,  0.0000)
   2 Li     8.085185    1.617037   10.000000    ( 0.0000,  0.0000,  0.0000)
   3 Li     1.617037    4.851111   10.000000    ( 0.0000,  0.0000,  0.0000)
   4 Li     4.851111    4.851111   10.000000    ( 0.0000,  0.0000,  0.0000)
   5 Li     8.085185    4.851111   10.000000    ( 0.0000,  0.0000,  0.0000)
   6 Li     1.617037    8.085185   10.000000    ( 0.0000,  0.0000,  0.0000)
   7 Li     4.851111    8.085185   10.000000    ( 0.0000,  0.0000,  0.0000)
   8 Li     8.085185    8.085185   10.000000    ( 0.0000,  0.0000,  0.0000)
   9 Li     0.000000    0.000000   11.617037    ( 0.0000,  0.0000,  0.0000)
  10 Li     3.234074    0.000000   11.617037    ( 0.0000,  0.0000,  0.0000)
  11 Li     6.468148    0.000000   11.617037    ( 0.0000,  0.0000,  0.0000)
  12 Li     0.000000    3.234074   11.617037    ( 0.0000,  0.0000,  0.0000)
  13 Li     3.234074    3.234074   11.617037    ( 0.0000,  0.0000,  0.0000)
  14 Li     6.468148    3.234074   11.617037    ( 0.0000,  0.0000,  0.0000)
  15 Li     0.000000    6.468148   11.617037    ( 0.0000,  0.0000,  0.0000)
  16 Li     3.234074    6.468148   11.617037    ( 0.0000,  0.0000,  0.0000)
  17 Li     6.468148    6.468148   11.617037    ( 0.0000,  0.0000,  0.0000)
  18 Li     1.617552    1.617209   13.469313    ( 0.0000,  0.0000,  0.0000)
  19 Li     4.851142    1.617068   13.470732    ( 0.0000,  0.0000,  0.0000)
  20 Li     8.084661    1.617199   13.469221    ( 0.0000,  0.0000,  0.0000)
  21 Li     1.617015    4.850963   13.470701    ( 0.0000,  0.0000,  0.0000)
  22 Li     4.851091    4.851201   13.470364    ( 0.0000,  0.0000,  0.0000)
[...]
External:        +0.000000
XC:            -338.415926
Entropy (-ST):   -0.151655
Local:           +0.804420
--------------------------
Free energy:   -334.388904
Extrapolated:  -334.313076

Dipole-layer corrected work functions: 3.410570, 4.057925 eV

Showing only first 2 kpts
 Kpt  Band  Eigenvalues  Occupancy
  0    34     -3.96851    1.98171
  0    35     -3.88523    1.90690
  0    36     -3.57886    0.08557
  0    37     -3.50325    0.01951

  1    34     -3.78616    1.47701
  1    35     -3.72117    0.86998
  1    36     -3.69273    0.60718
  1    37     -3.63988    0.26309


Fermi level: -3.73425

No gap
Writing to output.gpw (mode='')


Forces in eV/Ang:
  0 Li    0.01089    0.00090   -0.27728
  1 Li   -0.00789    0.00246   -0.27435
  2 Li   -0.00155    0.02266   -0.26271
  3 Li    0.00063    0.00063   -0.27862
  4 Li    0.00137   -0.00015   -0.28747
  5 Li   -0.00319   -0.00963   -0.27526
  6 Li    0.02056    0.00693   -0.27321
  7 Li   -0.01662    0.00539   -0.26790
  8 Li   -0.00420   -0.00896   -0.26301
  9 Li   -0.00169   -0.00426    0.29809
 10 Li    0.01421   -0.00183    0.25035
 11 Li   -0.01887   -0.00063    0.26182
 12 Li    0.00091   -0.01959    0.27730
 13 Li   -0.00465   -0.07472    0.29240
 14 Li    0.00119   -0.01952    0.27604
 15 Li    0.01379   -0.01218    0.30233
 16 Li    0.01013    0.03894    0.29224
 17 Li   -0.02120   -0.02568    0.28928
 18 Li    0.00294    0.00237    0.00697
 19 Li    0.00061    0.00433   -0.00357
 20 Li    0.00535    0.00366   -0.00176
 21 Li    0.00165   -0.00190   -0.00292
 22 Li    0.00313    0.00787    0.00718
 23 Li   -0.00118    0.00761   -0.00089
 24 Li   -0.00146   -0.00050    0.00445
 25 Li    0.00101   -0.00166   -0.00082
 26 Li    0.00567   -0.00086    0.00163
 27 Li    0.00605    0.00104   -0.00016
 28 Li    0.01454   -0.00155   -0.00100
 29 Li    0.00949    0.00575    0.00289
 30 Li   -0.00266    0.00366   -0.00129
 31 Li   -0.00858   -0.00562   -0.00030
 32 Li    0.00763    0.00311   -0.00307
 33 Li    0.00006   -0.00058    0.00487
 34 Li   -0.01418    0.00405    0.00441
 35 Li    0.00362    0.01979    0.00685
 36 O    -0.00176   -0.02604   -0.06496
 37 C    -0.00896   -0.00741   -0.00581
 38 C    -0.02110   -0.00615   -0.00176
 39 C    -0.00667    0.00981    0.01600
 40 H    -0.00090    0.01413    0.00067
 41 H     0.00951   -0.02293   -0.02832
 42 H     0.01161   -0.00136    0.01735
 43 H    -0.00880   -0.00862    0.00638
 44 H     0.01907    0.02309   -0.00209
 45 H    -0.03140    0.00061    0.00148
 46 H     0.00356   -0.01503   -0.00405
 47 H     0.01274    0.03743    0.02418
 48 N    -0.02167    0.00089    0.04201
 49 N     0.01577   -0.00313   -0.01502

System changes: positions 

Initializing position-dependent things.

Density initialized from wave functions
       .-----------------------.  
      /|                       |  
     / |                       |  
    /  |                       |  
   /   |                       |  
  /    |                       |  
 *     |                       |  
 |     |                       |  
 |     |     H                 H  
 |     |                       |  
 |     |    H     H            |  
 |     |                     N |  
 |     H                  N    |  
 |O  C |    H                  |  
 |   H |       Li      Li      Li 
 |     |   C                   |  
 |   Li|     Li      Li        |  
 |     |  Li      Li      Li   |  
 | Li  |   Li      Li          |  
 |     |Li      Li      Li     |  
 |     |                       |  
 |   LLi     LLi     LLi       |  
 |     |  Li      Li      Li   |  
 | Li  |   Li      Li          |  
 |     |Li      Li      Li     |  
 Li    | Li      Li            |  
 |    Li      Li      Li       |  
 |     |                       |  
 |     |                       |  
 |     |                       |  
 |     |                       |  
 |     |                       |  
 |     |                       |  
 |     .-----------------------.  
 |    /                       /   
 |   /                       /    
 |  /                       /     
 | /                       /      
 |/                       /       
 *-----------------------*        

Positions:
   0 Li     1.617037    1.617037   10.000000    ( 0.0000,  0.0000,  0.0000)
   1 Li     4.851111    1.617037   10.000000    ( 0.0000,  0.0000,  0.0000)
   2 Li     8.085185    1.617037   10.000000    ( 0.0000,  0.0000,  0.0000)
   3 Li     1.617037    4.851111   10.000000    ( 0.0000,  0.0000,  0.0000)
   4 Li     4.851111    4.851111   10.000000    ( 0.0000,  0.0000,  0.0000)
   5 Li     8.085185    4.851111   10.000000    ( 0.0000,  0.0000,  0.0000)
   6 Li     1.617037    8.085185   10.000000    ( 0.0000,  0.0000,  0.0000)
   7 Li     4.851111    8.085185   10.000000    ( 0.0000,  0.0000,  0.0000)
   8 Li     8.085185    8.085185   10.000000    ( 0.0000,  0.0000,  0.0000)
   9 Li     0.000000    0.000000   11.617037    ( 0.0000,  0.0000,  0.0000)
  10 Li     3.234074    0.000000   11.617037    ( 0.0000,  0.0000,  0.0000)
  11 Li     6.468148    0.000000   11.617037    ( 0.0000,  0.0000,  0.0000)
  12 Li     0.000000    3.234074   11.617037    ( 0.0000,  0.0000,  0.0000)
  13 Li     3.234074    3.234074   11.617037    ( 0.0000,  0.0000,  0.0000)
  14 Li     6.468148    3.234074   11.617037    ( 0.0000,  0.0000,  0.0000)
  15 Li     0.000000    6.468148   11.617037    ( 0.0000,  0.0000,  0.0000)
  16 Li     3.234074    6.468148   11.617037    ( 0.0000,  0.0000,  0.0000)
  17 Li     6.468148    6.468148   11.617037    ( 0.0000,  0.0000,  0.0000)
  18 Li     1.597416    1.578015   13.523867    ( 0.0000,  0.0000,  0.0000)
  19 Li     4.870126    1.550376   13.550688    ( 0.0000,  0.0000,  0.0000)
  20 Li     8.070997    1.563132   13.509541    ( 0.0000,  0.0000,  0.0000)
  21 Li     1.641050    4.834972   13.471957    ( 0.0000,  0.0000,  0.0000)
  22 Li     4.832334    4.813040   13.460306    ( 0.0000,  0.0000,  0.0000)
  23 Li     8.088640    4.814351   13.473970    ( 0.0000,  0.0000,  0.0000)
  24 Li     1.612272    8.111061   13.508797    ( 0.0000,  0.0000,  0.0000)
  25 Li     4.873517    8.111581   13.537117    ( 0.0000,  0.0000,  0.0000)
  26 Li     8.068106    8.080145   13.456494    ( 0.0000,  0.0000,  0.0000)
  27 Li    -0.036879   -0.034170   15.588056    ( 0.0000,  0.0000,  0.0000)
  28 Li     3.197176   -0.010911   15.519896    ( 0.0000,  0.0000,  0.0000)
  29 Li     6.532729   -0.095544   15.673355    ( 0.0000,  0.0000,  0.0000)
  30 Li     0.007532    3.238102   15.414614    ( 0.0000,  0.0000,  0.0000)
  31 Li     3.237379    3.239245   15.452455    ( 0.0000,  0.0000,  0.0000)
  32 Li     6.459613    3.196574   15.434490    ( 0.0000,  0.0000,  0.0000)
  33 Li     0.043063    6.379450   15.372739    ( 0.0000,  0.0000,  0.0000)
  34 Li     3.252671    6.469058   15.436798    ( 0.0000,  0.0000,  0.0000)
  35 Li     6.437728    6.331206   15.386217    ( 0.0000,  0.0000,  0.0000)
  36 O     10.069953   10.038034   20.859552    ( 0.0000,  0.0000,  0.0000)
  37 C     12.292007    9.404825   19.976359    ( 0.0000,  0.0000,  0.0000)
  38 C     11.311162   10.521650   20.334118    ( 0.0000,  0.0000,  0.0000)
  39 C     13.642440    9.944282   19.498630    ( 0.0000,  0.0000,  0.0000)
  40 H     12.430312    8.764458   20.852362    ( 0.0000,  0.0000,  0.0000)
  41 H     11.841592    8.780216   19.194712    ( 0.0000,  0.0000,  0.0000)
  42 H     11.726656   11.156391   21.120618    ( 0.0000,  0.0000,  0.0000)
  43 H     11.138294   11.159292   19.452921    ( 0.0000,  0.0000,  0.0000)
  44 H     14.132003   10.522350   20.285471    ( 0.0000,  0.0000,  0.0000)
  45 H     14.320990    9.135949   19.214025    ( 0.0000,  0.0000,  0.0000)
  46 H     13.524779   10.602646   18.630982    ( 0.0000,  0.0000,  0.0000)
  47 H      9.640668    9.519541   20.167603    ( 0.0000,  0.0000,  0.0000)
  48 N      8.880675    9.160108   17.704792    ( 0.0000,  0.0000,  0.0000)
  49 N      7.954998    9.313615   17.062095    ( 0.0000,  0.0000,  0.0000)

Unit cell:
           periodic     x           y           z      points  spacing
  1. axis:    yes    9.702222    0.000000    0.000000    60     0.1617
  2. axis:    yes    0.000000    9.702222    0.000000    60     0.1617
  3. axis:    no     0.000000    0.000000   26.601111   168     0.1583

  Lengths:   9.702222   9.702222  26.601111
  Angles:   90.000000  90.000000  90.000000

Effective grid spacing dv^(1/3) = 0.1606

     iter     time        total  log10-change:
                         energy  eigst   dens
iter:   1 03:08:59  -334.317324  -2.30
iter:   2 03:09:07  -334.316048  -2.77  -2.34
iter:   3 03:09:14  -334.314153c -3.69  -2.42
iter:   4 03:09:22  -334.313792c -4.05  -2.83
Writing to output.gpw (mode='')

iter:   5 03:09:29  -334.313502c -3.51  -3.01
iter:   6 03:09:42  -334.313458c -3.75  -3.13
iter:   7 03:09:51  -334.313421c -3.43  -3.40
iter:   8 03:09:58  -334.313466c -4.41  -3.29
iter:   9 03:10:06  -334.313501c -4.47  -3.69
Writing to output.gpw (mode='')

iter:  10 03:10:13  -334.313455c -4.74  -3.65
iter:  11 03:10:21  -334.313491c -4.68  -3.73
iter:  12 03:10:28  -334.313466c -5.56  -3.79
iter:  13 03:10:36  -334.313462c -5.74  -4.18c
iter:  14 03:10:43  -334.313459c -5.65  -4.20c
Writing to output.gpw (mode='')

iter:  15 03:10:51  -334.313466c -6.15  -4.18c
iter:  16 03:10:58  -334.313465c -6.38  -4.32c
iter:  17 03:11:06  -334.313466c -6.52  -4.33c
iter:  18 03:11:13  -334.313469c -6.63  -4.45c
iter:  19 03:11:21  -334.313472c -6.49  -4.63c
Writing to output.gpw (mode='')

iter:  20 03:11:28  -334.313472c -7.15  -4.75c
iter:  21 03:11:36  -334.313470c -7.08  -4.89c
iter:  22 03:11:43  -334.313471c -7.55c -4.90c

Converged after 22 iterations.

Dipole moment: (-7.640159, 7.996479, -0.336615) |e|*Ang

Energy contributions relative to reference atoms: (reference = -15487.462483)

Kinetic:       +165.375443
Potential:     -161.968494
External:        +0.000000
XC:            -338.448568
Entropy (-ST):   -0.151657
Local:           +0.803976
--------------------------
Free energy:   -334.389300
Extrapolated:  -334.313471

Dipole-layer corrected work functions: 3.410610, 4.057699 eV

Showing only first 2 kpts
 Kpt  Band  Eigenvalues  Occupancy
  0    34     -3.96809    1.98159
  0    35     -3.88494    1.90657
  0    36     -3.57891    0.08581
  0    37     -3.50338    0.01960

  1    34     -3.78605    1.47692
  1    35     -3.72113    0.87051
  1    36     -3.69268    0.60751
  1    37     -3.63961    0.26229


Fermi level: -3.73415

No gap
Writing to output.gpw (mode='')


Forces in eV/Ang:
  0 Li    0.01106    0.00109   -0.27718
  1 Li   -0.00795    0.00234   -0.27438
  2 Li   -0.00166    0.02281   -0.26299
  3 Li    0.00058    0.00052   -0.27874
  4 Li    0.00133   -0.00012   -0.28774
  5 Li   -0.00335   -0.00963   -0.27508
  6 Li    0.02065    0.00667   -0.27337
  7 Li   -0.01668    0.00540   -0.26794
  8 Li   -0.00425   -0.00920   -0.26298
  9 Li   -0.00129   -0.00437    0.30026
 10 Li    0.01377   -0.00253    0.25065
 11 Li   -0.01898   -0.00107    0.26316
 12 Li    0.00078   -0.01778    0.27708
 13 Li   -0.00336   -0.07310    0.29179
 14 Li    0.00038   -0.01840    0.27589
 15 Li    0.01435   -0.01323    0.30179
 16 Li    0.01063    0.03849    0.29200
 17 Li   -0.02196   -0.02577    0.28814
 18 Li    0.00133   -0.00187    0.00774
 19 Li    0.00223    0.00526   -0.00379
 20 Li    0.00657    0.00094   -0.00075
 21 Li   -0.00017   -0.00051   -0.00279
 22 Li    0.00226    0.00716    0.00674
 23 Li    0.00043    0.00779   -0.00024
 24 Li   -0.00165    0.00265    0.00435
 25 Li    0.00189   -0.00168   -0.00103
 26 Li    0.00598    0.00202    0.00280
 27 Li    0.00680    0.00080   -0.00262
 28 Li    0.01346   -0.00186   -0.00144
 29 Li    0.01061    0.00407    0.00505
 30 Li   -0.00281    0.00430   -0.00154
 31 Li   -0.00707   -0.00476    0.00050
 32 Li    0.00629    0.00444   -0.00283
 33 Li   -0.00040   -0.00134    0.00312
 34 Li   -0.01264    0.00368    0.00474
 35 Li    0.00332    0.01877    0.00572
 36 O    -0.00746   -0.00410   -0.03331
 37 C    -0.00896   -0.00385   -0.00467
 38 C     0.00116   -0.00150   -0.01121
 39 C     0.00112    0.01740    0.01311
 40 H    -0.00943    0.00359    0.00190
 41 H     0.01138   -0.02401   -0.01086
 42 H     0.01585   -0.00311    0.00603
 43 H    -0.00970   -0.00123    0.01176
 44 H     0.02511    0.03061    0.01002
 45 H    -0.03256   -0.00314   -0.00625
 46 H     0.00233   -0.01564   -0.01292
 47 H    -0.01259    0.00673   -0.00700
 48 N    -0.01486    0.01344    0.04097
 49 N     0.03010    0.00876   -0.02843

Timing:                                      incl.     excl.
-------------------------------------------------------------------
Density initialized from wave functions:     3.809     3.807   0.0% |
 Symmetrize density:                         0.003     0.003   0.0% |
Forces:                                     44.654    44.654   0.2% |
Hamiltonian:                               598.530     0.015   0.0% |
 Atomic:                                     0.025     0.025   0.0% |
  XC Correction:                             0.000     0.000   0.0% |
 Calculate atomic Hamiltonians:              0.045     0.045   0.0% |
 Communicate:                                6.885     6.885   0.0% |
 Hartree integrate/restrict:                 2.326     2.326   0.0% |
 Initialize Hamiltonian:                     0.000     0.000   0.0% |
 Poisson:                                   28.905    10.615   0.0% |
  Communicate from 1D:                       2.885     2.885   0.0% |
  Communicate from 2D:                       2.899     2.899   0.0% |
  Communicate to 1D:                         1.631     1.631   0.0% |
  Communicate to 2D:                         3.482     3.482   0.0% |
  FFT 1D:                                    3.734     3.734   0.0% |
  FFT 2D:                                    3.658     3.658   0.0% |
 XC 3D grid:                               559.860    87.238   0.3% |
  VdW-DF integral:                         472.622     3.999   0.0% |
   Convolution:                             43.284    43.284   0.2% |
   FFT:                                     18.821    18.821   0.1% |
   gather:                                 163.277   163.277   0.6% |
   hmm1:                                    15.903    15.903   0.1% |
   hmm2:                                    20.890    20.890   0.1% |
   iFFT:                                    19.366    19.366   0.1% |
   potential:                              183.477     5.051   0.0% |
    collect:                                28.770    28.770   0.1% |
    p1:                                     85.840    85.840   0.3% |
    p2:                                     32.306    32.306   0.1% |
    sum:                                    31.511    31.511   0.1% |
   splines:                                  3.604     3.604   0.0% |
 vbar:                                       0.470     0.470   0.0% |
LCAO initialization:                         1.216     0.183   0.0% |
 LCAO eigensolver:                           0.283     0.000   0.0% |
  Calculate projections:                     0.000     0.000   0.0% |
  DenseAtomicCorrection:                     0.000     0.000   0.0% |
  Distribute overlap matrix:                 0.172     0.172   0.0% |
  Orbital Layouts:                           0.108     0.108   0.0% |
  Potential matrix:                          0.001     0.001   0.0% |
  Sum over cells:                            0.001     0.001   0.0% |
 LCAO to grid:                               0.639     0.639   0.0% |
 Set positions (LCAO WFS):                   0.111     0.065   0.0% |
  Basic WFS set positions:                   0.001     0.001   0.0% |
  Basis functions set positions:             0.000     0.000   0.0% |
  P tci:                                     0.000     0.000   0.0% |
  ST tci:                                    0.013     0.013   0.0% |
  mktci:                                     0.031     0.031   0.0% |
Redistribute:                                0.067     0.067   0.0% |
SCF-cycle:                               27160.898   447.816   1.6% ||
 Davidson:                                7318.936  2184.517   7.8% |--|
  Apply hamiltonian:                       464.705   464.705   1.7% ||
  Subspace diag:                          1366.731     0.420   0.0% |
   calc_h_matrix:                          676.184   210.067   0.8% |
    Apply hamiltonian:                     466.116   466.116   1.7% ||
   diagonalize:                             70.100    70.100   0.3% |
   rotate_psi:                             620.028   620.028   2.2% ||
  calc. matrices:                         2281.343  1182.140   4.2% |-|
   Apply hamiltonian:                     1099.203  1099.203   3.9% |-|
  diagonalize:                              21.680    21.680   0.1% |
  rotate_psi:                              999.962   999.962   3.6% ||
 Density:                                  133.754     0.090   0.0% |
  Atomic density matrices:                  16.560    16.560   0.1% |
  Mix:                                      56.713    56.713   0.2% |
  Multipole moments:                         6.007     6.007   0.0% |
  Pseudo density:                           54.385    54.310   0.2% |
   Symmetrize density:                       0.075     0.075   0.0% |
 Hamiltonian:                            19239.996     0.462   0.0% |
  Atomic:                                    0.899     0.890   0.0% |
   XC Correction:                            0.009     0.009   0.0% |
  Calculate atomic Hamiltonians:             1.449     1.449   0.0% |
  Communicate:                             276.652   276.652   1.0% |
  Hartree integrate/restrict:               74.484    74.484   0.3% |
  Poisson:                                 921.490   340.575   1.2% |
   Communicate from 1D:                     91.403    91.403   0.3% |
   Communicate from 2D:                     92.864    92.864   0.3% |
   Communicate to 1D:                       52.103    52.103   0.2% |
   Communicate to 2D:                      112.752   112.752   0.4% |
   FFT 1D:                                 117.616   117.616   0.4% |
   FFT 2D:                                 114.178   114.178   0.4% |
  XC 3D grid:                            17949.494  2766.447   9.9% |---|
   VdW-DF integral:                      15183.048   126.340   0.5% |
    Convolution:                          1372.446  1372.446   4.9% |-|
    FFT:                                   596.797   596.797   2.1% ||
    gather:                               5251.676  5251.676  18.8% |-------|
    hmm1:                                  505.971   505.971   1.8% ||
    hmm2:                                  662.694   662.694   2.4% ||
    iFFT:                                  613.988   613.988   2.2% ||
    potential:                            6053.103   158.651   0.6% |
     collect:                              921.613   921.613   3.3% ||
     p1:                                  2712.754  2712.754   9.7% |---|
     p2:                                  1020.732  1020.732   3.7% ||
     sum:                                 1239.353  1239.353   4.4% |-|
    splines:                                 0.032     0.032   0.0% |
  vbar:                                     15.065    15.065   0.1% |
 Orthonormalize:                            20.395     0.015   0.0% |
  calc_s_matrix:                             2.983     2.983   0.0% |
  inverse-cholesky:                          5.693     5.693   0.0% |
  projections:                               0.002     0.002   0.0% |
  rotate_psi_s:                             11.702    11.702   0.0% |
Set symmetry:                                0.003     0.003   0.0% |
Other:                                     115.850   115.850   0.4% |
-------------------------------------------------------------------
Total:                                             27925.027 100.0%

Memory usage: 1.14 GiB
Date: Sat Mar 11 03:11:45 2023
