
  ___ ___ ___ _ _ _  
 |   |   |_  | | | | 
 | | | | | . | | | | 
 |__ |  _|___|_____|  22.8.0
 |___|_|             

User:   vazumah@f002
Date:   Mon Feb 27 11:01:56 2023
Arch:   x86_64
Pid:    34229
CWD:    /home/vazumah/Research_Projects/LiMEAS/LiNRR_proton_donors/N2_with_proton_donor/Li_BCC_100/adsorbates/CH3CH2OH_z/bridge/8.085_1.617/N2_x/1H
Python: 3.10.6
gpaw:   /home/vazumah/anaconda3/envs/NAME/lib/python3.10/site-packages/gpaw
_gpaw:  /home/vazumah/anaconda3/envs/NAME/lib/python3.10/site-packages/
        _gpaw.cpython-310-x86_64-linux-gnu.so
ase:    /home/vazumah/anaconda3/envs/NAME/lib/python3.10/site-packages/ase (version 3.22.1)
numpy:  /home/vazumah/anaconda3/envs/NAME/lib/python3.10/site-packages/numpy (version 1.23.3)
scipy:  /home/vazumah/anaconda3/envs/NAME/lib/python3.10/site-packages/scipy (version 1.9.1)
libxc:  5.2.3
units:  Angstrom and eV
cores: 32
OpenMP: True
OMP_NUM_THREADS: 1

Input parameters:
  h: 0.16
  kpts: {size: [4, 4, 1]}
  occupations: {name: fermi-dirac,
                width: 0.05}
  poissonsolver: {dipolelayer: xy}
  xc: BEEF-vdW

System changes: positions, numbers, cell, pbc, initial_charges, initial_magmoms 

Initialize ...

species:
  Li:
    name: Lithium
    id: 830b4218f175192f93f959cfc0aad614
    Z: 3.0
    valence: 1
    core: 2
    charge: 0.0
    file: /home/vazumah/anaconda3/envs/NAME/share/gpaw/Li.PBE.gz
    compensation charges: {type: gauss,
                           rc: 0.33,
                           lmax: 2}
    cutoffs: {filter: 1.91,
              core: 2.55}
    valence states:
      #              energy  rcut
      - 2s(1.00)    -2.874   1.058
      - 2p(0.00)    -1.090   1.058
      -  s          24.337   1.058
  
    # Using partial waves for Li as LCAO basis

  O:
    name: Oxygen
    id: 32ecd46bf208036f09c70b0ec9a88b78
    Z: 8.0
    valence: 6
    core: 2
    charge: 0.0
    file: /home/vazumah/anaconda3/envs/NAME/share/gpaw/O.PBE.gz
    compensation charges: {type: gauss,
                           rc: 0.21,
                           lmax: 2}
    cutoffs: {filter: 1.17,
              core: 0.83}
    valence states:
      #              energy  rcut
      - 2s(2.00)   -23.961   0.688
      - 2p(4.00)    -9.029   0.598
      -  s           3.251   0.688
      -  p          18.182   0.598
      -  d           0.000   0.619
  
    # Using partial waves for O as LCAO basis

  C:
    name: Carbon
    id: 4aa54d4b901d75f77cc0ea3eec22967b
    Z: 6.0
    valence: 4
    core: 2
    charge: 0.0
    file: /home/vazumah/anaconda3/envs/NAME/share/gpaw/C.PBE.gz
    compensation charges: {type: gauss,
                           rc: 0.20,
                           lmax: 2}
    cutoffs: {filter: 1.14,
              core: 1.14}
    valence states:
      #              energy  rcut
      - 2s(2.00)   -13.751   0.635
      - 2p(2.00)    -5.284   0.635
      -  s          13.461   0.635
      -  p          21.927   0.635
      -  d           0.000   0.635
  
    # Using partial waves for C as LCAO basis

  H:
    name: Hydrogen
    id: d65de229564ff8ea4db303e23b6d1ecf
    Z: 1.0
    valence: 1
    core: 0
    charge: 0.0
    file: /home/vazumah/anaconda3/envs/NAME/share/gpaw/H.PBE.gz
    compensation charges: {type: gauss,
                           rc: 0.15,
                           lmax: 2}
    cutoffs: {filter: 0.85,
              core: 0.53}
    valence states:
      #              energy  rcut
      - 1s(1.00)    -6.494   0.476
      -  s          20.717   0.476
      -  p           0.000   0.476
  
    # Using partial waves for H as LCAO basis

  N:
    name: Nitrogen
    id: f7500608b86eaa90eef8b1d9a670dc53
    Z: 7.0
    valence: 5
    core: 2
    charge: 0.0
    file: /home/vazumah/anaconda3/envs/NAME/share/gpaw/N.PBE.gz
    compensation charges: {type: gauss,
                           rc: 0.18,
                           lmax: 2}
    cutoffs: {filter: 1.11,
              core: 0.96}
    valence states:
      #              energy  rcut
      - 2s(2.00)   -18.583   0.603
      - 2p(3.00)    -7.089   0.529
      -  s           8.629   0.603
      -  p          20.123   0.529
      -  d           0.000   0.577
  
    # Using partial waves for N as LCAO basis

Reference energy: -14447.344205  # eV

Spin-paired calculation

Convergence criteria:
 Maximum [total energy] change in last 3 cyles: 0.0005 eV / electron
 Maximum integral of absolute [dens]ity change: 0.0001 electrons / valence electron
 Maximum integral of absolute [eigenst]ate change: 4e-08 eV^2 / valence electron
 Maximum number of scf [iter]ations: 333
 (Square brackets indicate name in SCF output, whereas a 'c' in
 the SCF output indicates the quantity has converged.)

Symmetries present (total): 1

  ( 1  0  0)
  ( 0  1  0)
  ( 0  0  1)

16 k-points: 4 x 4 x 1 Monkhorst-Pack grid
8 k-points in the irreducible part of the Brillouin zone
       k-points in crystal coordinates                weights
   0:     0.12500000   -0.37500000    0.00000000          2/16
   1:     0.12500000   -0.12500000    0.00000000          2/16
   2:     0.12500000    0.12500000    0.00000000          2/16
   3:     0.12500000    0.37500000    0.00000000          2/16
   4:     0.37500000   -0.37500000    0.00000000          2/16
   5:     0.37500000   -0.12500000    0.00000000          2/16
   6:     0.37500000    0.12500000    0.00000000          2/16
   7:     0.37500000    0.37500000    0.00000000          2/16

Wave functions: Uniform real-space grid
  Kinetic energy operator: 6*3+1=19 point O(h^6) finite-difference Laplacian
  ScaLapack parameters: grid=1x1, blocksize=None
  Wavefunction extrapolation:
    Improved wavefunction reuse through dual PAW basis 

Occupation numbers: Fermi-Dirac:
  width: 0.0500  # eV
 

Eigensolver
   Davidson(niter=2) 

Densities:
  Coarse grid: 60*60*156 grid
  Fine grid: 120*120*312 grid
  Total Charge: 0.000000 

Density mixing:
  Method: separate
  Backend: pulay
  Linear mixing parameter: 0.05
  old densities: 5
  Damping of long wavelength oscillations: 50 

Hamiltonian:
  XC and Coulomb potentials evaluated on a 120*120*312 grid
  Using the BEEF-vdW Exchange-Correlation functional
  Interpolation: tri-quintic (5. degree polynomial)
  Poisson solver: FastPoissonSolver using
    Stencil: 6*3+1=19 point O(h^6) finite-difference Laplacian
    FFT axes: [0, 1]
    FST axes: [2]

Dipole correction along z-axis 

XC parameters: BEEF-vdW with 2 nearest neighbor stencil

Memory estimate:
  Process memory now: 213.11 MiB
  Calculator: 311.68 MiB
    Density: 88.45 MiB
      Arrays: 27.47 MiB
      Localized functions: 50.55 MiB
      Mixer: 10.44 MiB
    Hamiltonian: 21.96 MiB
      Arrays: 17.96 MiB
      XC: 0.00 MiB
      Poisson: 0.00 MiB
      vbar: 4.00 MiB
    Wavefunctions: 201.27 MiB
      Arrays psit_nG: 93.93 MiB
      Eigensolver: 104.68 MiB
      Projections: 0.05 MiB
      Projectors: 2.61 MiB

Total number of cores used: 32
Parallelization over k-points: 8
Domain decomposition: 1 x 1 x 4

Number of atoms: 48
Number of atomic orbitals: 171
Number of bands in calculation: 45
Number of valence electrons: 67
Bands to converge: occupied

... initialized

Initializing position-dependent things.

Density initialized from atomic densities
Creating initial wave functions:
  45 bands from LCAO basis set

       .-----------------------.  
      /|                       |  
     / |                       |  
    /  |                       |  
   /   |                       |  
  /    |                       |  
 *     |                       |  
 |     |                       |  
 |     |                       |  
 |     |                       |  
 |     |           H  H H      |  
 |     |             C         |  
 |     |       Li H    Li      |  
 |     |          H C  H       |  
 |   Li|     Li      Li        |  
 |     |  Li      LiLi  H Li   |  
 |  Li |    Li          N      |  
 |     |Li      Li   N  Li     |  
 |     |                 Li    |  
 |   LLi     LLi     LLi       |  
 |     |  Li      Li      Li   |  
 | Li  |   Li      Li          |  
 |     |Li      Li      Li     |  
 Li    | Li      Li            |  
 |    Li      Li      Li       |  
 |     |                       |  
 |     |                       |  
 |     |                       |  
 |     |                       |  
 |     |                       |  
 |     |                       |  
 |     .-----------------------.  
 |    /                       /   
 |   /                       /    
 |  /                       /     
 | /                       /      
 |/                       /       
 *-----------------------*        

Positions:
   0 Li     1.617037    1.617037   10.000000    ( 0.0000,  0.0000,  0.0000)
   1 Li     4.851111    1.617037   10.000000    ( 0.0000,  0.0000,  0.0000)
   2 Li     8.085185    1.617037   10.000000    ( 0.0000,  0.0000,  0.0000)
   3 Li     1.617037    4.851111   10.000000    ( 0.0000,  0.0000,  0.0000)
   4 Li     4.851111    4.851111   10.000000    ( 0.0000,  0.0000,  0.0000)
   5 Li     8.085185    4.851111   10.000000    ( 0.0000,  0.0000,  0.0000)
   6 Li     1.617037    8.085185   10.000000    ( 0.0000,  0.0000,  0.0000)
   7 Li     4.851111    8.085185   10.000000    ( 0.0000,  0.0000,  0.0000)
   8 Li     8.085185    8.085185   10.000000    ( 0.0000,  0.0000,  0.0000)
   9 Li     0.000000    0.000000   11.617037    ( 0.0000,  0.0000,  0.0000)
  10 Li     3.234074    0.000000   11.617037    ( 0.0000,  0.0000,  0.0000)
  11 Li     6.468148    0.000000   11.617037    ( 0.0000,  0.0000,  0.0000)
  12 Li     0.000000    3.234074   11.617037    ( 0.0000,  0.0000,  0.0000)
  13 Li     3.234074    3.234074   11.617037    ( 0.0000,  0.0000,  0.0000)
  14 Li     6.468148    3.234074   11.617037    ( 0.0000,  0.0000,  0.0000)
  15 Li     0.000000    6.468148   11.617037    ( 0.0000,  0.0000,  0.0000)
  16 Li     3.234074    6.468148   11.617037    ( 0.0000,  0.0000,  0.0000)
  17 Li     6.468148    6.468148   11.617037    ( 0.0000,  0.0000,  0.0000)
  18 Li     1.665476    1.646605   13.478570    ( 0.0000,  0.0000,  0.0000)
  19 Li     4.952245    1.583733   13.556254    ( 0.0000,  0.0000,  0.0000)
  20 Li     8.087999    1.598335   13.562666    ( 0.0000,  0.0000,  0.0000)
  21 Li     1.683062    4.863988   13.497936    ( 0.0000,  0.0000,  0.0000)
  22 Li     4.928552    4.799202   13.483123    ( 0.0000,  0.0000,  0.0000)
  23 Li     8.128551    4.751446   13.530912    ( 0.0000,  0.0000,  0.0000)
  24 Li     1.607727    8.103887   13.481905    ( 0.0000,  0.0000,  0.0000)
  25 Li     4.825819    7.992194   13.493215    ( 0.0000,  0.0000,  0.0000)
  26 Li     8.072457    8.025416   13.499146    ( 0.0000,  0.0000,  0.0000)
  27 Li    -0.095575    0.053597   15.425829    ( 0.0000,  0.0000,  0.0000)
  28 Li     3.187534   -0.030191   15.434694    ( 0.0000,  0.0000,  0.0000)
  29 Li     6.443061   -0.289417   15.450339    ( 0.0000,  0.0000,  0.0000)
  30 Li     0.233239    3.186901   15.475375    ( 0.0000,  0.0000,  0.0000)
  31 Li     3.424301    3.304742   15.450019    ( 0.0000,  0.0000,  0.0000)
  32 Li     6.913998    2.758107   16.081893    ( 0.0000,  0.0000,  0.0000)
  33 Li     0.057705    6.469195   15.410291    ( 0.0000,  0.0000,  0.0000)
  34 Li     3.232747    6.490421   15.473579    ( 0.0000,  0.0000,  0.0000)
  35 Li     6.402890    6.221734   15.485528    ( 0.0000,  0.0000,  0.0000)
  36 O      6.901716    2.759913   18.082228    ( 0.0000,  0.0000,  0.0000)
  37 C      7.442073    1.627911   18.815540    ( 0.0000,  0.0000,  0.0000)
  38 C      7.721131    1.956131   20.270996    ( 0.0000,  0.0000,  0.0000)
  39 H      6.756007    0.777881   18.725103    ( 0.0000,  0.0000,  0.0000)
  40 H      8.363831    1.375588   18.293683    ( 0.0000,  0.0000,  0.0000)
  41 H      8.146456    1.079982   20.767394    ( 0.0000,  0.0000,  0.0000)
  42 H      8.434800    2.777758   20.353999    ( 0.0000,  0.0000,  0.0000)
  43 H      6.805753    2.223131   20.805922    ( 0.0000,  0.0000,  0.0000)
  44 H      6.077583    3.036661   18.504576    ( 0.0000,  0.0000,  0.0000)
  45 N      7.789812    0.950536   15.523051    ( 0.0000,  0.0000,  0.0000)
  46 N      8.679410    1.843558   15.543861    ( 0.0000,  0.0000,  0.0000)
  47 H      8.679000    1.844000   16.805922    ( 0.0000,  0.0000,  0.0000)

Unit cell:
           periodic     x           y           z      points  spacing
  1. axis:    yes    9.702222    0.000000    0.000000    60     0.1617
  2. axis:    yes    0.000000    9.702222    0.000000    60     0.1617
  3. axis:    no     0.000000    0.000000   24.851111   156     0.1593

  Lengths:   9.702222   9.702222  24.851111
  Angles:   90.000000  90.000000  90.000000

Effective grid spacing dv^(1/3) = 0.1609

     iter     time        total  log10-change:
                         energy  eigst   dens
iter:   1 11:03:05  -480.774822
iter:   2 11:03:53  -172.831833  +2.27  -0.12
iter:   3 11:04:40  -132.563282  +3.13  -0.25
iter:   4 11:05:31  -179.574410  +2.72  -0.32
Writing to output.gpw (mode='')

iter:   5 11:06:24  -241.332283  +2.64  -0.54
iter:   6 11:07:05  -313.369472  +2.88  -0.56
iter:   7 11:07:53  -342.429168  +2.39  -0.58
iter:   8 11:08:51  -344.268491  +1.98  -0.54
iter:   9 11:09:42  -330.040347  +1.58  -0.55
Writing to output.gpw (mode='')

iter:  10 11:10:33  -340.329868  +1.44  -0.70
iter:  11 11:11:17  -342.019881  +1.18  -0.67
iter:  12 11:12:12  -448.203412  +2.62  -0.61
iter:  13 11:12:52  -323.361010  +1.20  -0.32
iter:  14 11:13:43  -317.000350  +1.65  -0.72
Writing to output.gpw (mode='')

iter:  15 11:14:31  -316.152736  +1.03  -0.80
iter:  16 11:15:10  -315.496463  +0.75  -0.83
iter:  17 11:15:56  -314.148535  +0.43  -0.88
iter:  18 11:16:40  -313.186744  +0.73  -1.00
iter:  19 11:17:25  -312.997348  +0.00  -1.09
Writing to output.gpw (mode='')

iter:  20 11:18:07  -312.771833  -0.34  -1.13
iter:  21 11:18:57  -312.769500  +0.16  -1.26
iter:  22 11:19:52  -312.633310  -0.40  -1.39
iter:  23 11:20:41  -312.692597  -0.38  -1.52
iter:  24 11:21:26  -312.785709  -0.25  -1.51
Writing to output.gpw (mode='')

iter:  25 11:22:11  -312.615599  -0.97  -1.48
iter:  26 11:22:54  -312.606606  -0.71  -1.76
iter:  27 11:23:43  -312.628147c -1.22  -1.95
iter:  28 11:24:27  -312.602586c -1.12  -1.84
iter:  29 11:25:10  -312.608105c -1.71  -2.30
Writing to output.gpw (mode='')

iter:  30 11:25:58  -312.607935c -1.89  -2.28
iter:  31 11:26:57  -312.609423c -1.80  -2.34
iter:  32 11:27:40  -312.609573c -2.05  -2.38
iter:  33 11:28:28  -312.609753c -2.00  -2.46
iter:  34 11:29:08  -312.609825c -2.11  -2.51
Writing to output.gpw (mode='')

iter:  35 11:29:51  -312.610379c -2.14  -2.60
iter:  36 11:30:35  -312.612021c -2.38  -2.65
iter:  37 11:31:13  -312.612338c -2.63  -2.71
iter:  38 11:31:55  -312.612666c -2.58  -2.97
iter:  39 11:32:34  -312.612876c -2.96  -3.14
Writing to output.gpw (mode='')

iter:  40 11:33:18  -312.613032c -2.94  -3.17
iter:  41 11:34:12  -312.613161c -3.01  -3.28
iter:  42 11:35:04  -312.613293c -3.12  -3.53
iter:  43 11:35:59  -312.613390c -3.31  -3.53
iter:  44 11:36:58  -312.613497c -3.19  -3.60
Writing to output.gpw (mode='')

iter:  45 11:37:41  -312.613625c -3.12  -3.67
iter:  46 11:38:30  -312.613689c -3.58  -3.75
iter:  47 11:39:16  -312.613755c -3.53  -3.82
iter:  48 11:39:52  -312.613802c -3.67  -3.96
iter:  49 11:40:40  -312.613849c -3.68  -4.00
Writing to output.gpw (mode='')

iter:  50 11:41:30  -312.613878c -3.91  -4.00
iter:  51 11:42:17  -312.613913c -3.70  -3.97
iter:  52 11:43:04  -312.613940c -3.90  -3.94
iter:  53 11:43:45  -312.613957c -4.10  -3.91
iter:  54 11:44:29  -312.613969c -4.26  -3.88
Writing to output.gpw (mode='')

iter:  55 11:45:18  -312.613990c -4.38  -3.86
iter:  56 11:45:55  -312.614003c -4.37  -3.92
iter:  57 11:46:42  -312.614014c -4.32  -3.95
iter:  58 11:47:35  -312.614021c -4.58  -3.95
iter:  59 11:48:20  -312.614033c -4.42  -3.93
Writing to output.gpw (mode='')

iter:  60 11:49:01  -312.614041c -4.75  -4.00c
iter:  61 11:49:47  -312.614039c -4.88  -3.99
iter:  62 11:50:40  -312.614049c -5.01  -3.91
iter:  63 11:51:22  -312.614054c -5.04  -4.04c
iter:  64 11:52:17  -312.614056c -4.79  -4.11c
Writing to output.gpw (mode='')

iter:  65 11:53:04  -312.614059c -5.09  -4.12c
iter:  66 11:53:57  -312.614064c -5.23  -4.15c
iter:  67 11:54:39  -312.614057c -5.02  -4.28c
iter:  68 11:55:19  -312.614056c -5.31  -4.30c
iter:  69 11:56:18  -312.614059c -5.42  -4.35c
Writing to output.gpw (mode='')

iter:  70 11:57:20  -312.614067c -5.28  -4.41c
iter:  71 11:58:10  -312.614064c -5.62  -4.55c
iter:  72 11:58:59  -312.614064c -5.73  -4.73c
iter:  73 11:59:39  -312.614064c -5.82  -4.75c
iter:  74 12:00:28  -312.614063c -5.70  -4.84c
Writing to output.gpw (mode='')

iter:  75 12:01:12  -312.614063c -5.76  -5.02c
iter:  76 12:02:12  -312.614063c -5.95  -5.20c
iter:  77 12:03:01  -312.614063c -6.02  -5.20c
iter:  78 12:03:47  -312.614063c -6.17  -5.21c
iter:  79 12:04:35  -312.614064c -6.25  -5.40c
Writing to output.gpw (mode='')

iter:  80 12:05:21  -312.614064c -6.38  -5.48c
iter:  81 12:06:14  -312.614064c -6.45  -5.64c
iter:  82 12:07:06  -312.614064c -6.50  -5.61c
iter:  83 12:08:24  -312.614064c -6.44  -5.63c
iter:  84 12:09:07  -312.614064c -6.54  -5.63c
Writing to output.gpw (mode='')

iter:  85 12:09:56  -312.614064c -6.66  -5.64c
iter:  86 12:10:47  -312.614065c -6.66  -5.69c
iter:  87 12:11:30  -312.614065c -6.81  -5.88c
iter:  88 12:12:16  -312.614065c -6.84  -5.90c
iter:  89 12:13:09  -312.614065c -6.95  -5.89c
Writing to output.gpw (mode='')

iter:  90 12:14:00  -312.614065c -7.00  -5.86c
iter:  91 12:14:48  -312.614065c -7.14  -5.80c
iter:  92 12:15:32  -312.614065c -6.99  -5.75c
iter:  93 12:16:18  -312.614065c -7.21  -5.73c
iter:  94 12:17:05  -312.614065c -7.23  -5.74c
Writing to output.gpw (mode='')

iter:  95 12:17:56  -312.614065c -7.20  -5.84c
iter:  96 12:18:38  -312.614065c -7.35  -5.83c
iter:  97 12:19:22  -312.614065c -7.34  -5.80c
iter:  98 12:20:04  -312.614065c -7.42c -5.90c

Converged after 98 iterations.

Dipole moment: (-3.021891, -1.242193, 0.422329) |e|*Ang

Energy contributions relative to reference atoms: (reference = -14447.344205)

Kinetic:       +155.167374
Potential:     -145.793372
External:        +0.000000
XC:            -322.697451
Entropy (-ST):   -0.151038
Local:           +0.784903
--------------------------
Free energy:   -312.689584
Extrapolated:  -312.614065

Dipole-layer corrected work functions: 3.385715, 2.573853 eV

Showing only first 2 kpts
 Kpt  Band  Eigenvalues  Occupancy
  0    31     -3.23622    1.98822
  0    32     -3.09242    1.80979
  0    33     -2.96139    0.81811
  0    34     -2.87373    0.21412

  1    31     -3.27042    1.99404
  1    32     -3.23288    1.98741
  1    33     -2.93376    0.56976
  1    34     -2.82642    0.08896


Fermi level: -2.97978

No gap
Writing to output.gpw (mode='')


Forces in eV/Ang:
  0 Li   -0.00630    0.00845   -0.28775
  1 Li   -0.00385    0.00573   -0.27257
  2 Li    0.00050    0.00594   -0.22470
  3 Li   -0.00205    0.00860   -0.28289
  4 Li   -0.01561    0.02447   -0.27864
  5 Li   -0.00224    0.00130   -0.28313
  6 Li    0.01023   -0.00144   -0.28153
  7 Li   -0.01509   -0.00524   -0.27877
  8 Li   -0.00461    0.00338   -0.27817
  9 Li    0.00417    0.00577    0.26006
 10 Li    0.05025    0.01572    0.31540
 11 Li    0.00817   -0.02183    0.26332
 12 Li   -0.00015   -0.03093    0.27005
 13 Li    0.04876   -0.03054    0.28519
 14 Li    0.03242   -0.02535    0.21764
 15 Li   -0.00415   -0.02649    0.29751
 16 Li    0.01090   -0.03825    0.26495
 17 Li    0.05073   -0.02088    0.28221
 18 Li    0.07993   -0.03454   -0.02327
 19 Li   -0.02578    0.02201    0.00819
 20 Li   -0.06838   -0.02277    0.18200
 21 Li    0.02270    0.01361   -0.02264
 22 Li   -0.01415   -0.02520    0.01222
 23 Li   -0.02995    0.07138   -0.01059
 24 Li   -0.00237   -0.00353   -0.01109
 25 Li   -0.04021   -0.02361   -0.02991
 26 Li    0.00737    0.01028    0.01294
 27 Li   -0.02101   -0.13550   -0.06978
 28 Li   -0.02105    0.00170   -0.01921
 29 Li    0.21978    0.20543    0.03522
 30 Li    0.09574    0.11466    0.04221
 31 Li   -0.00753    0.01039   -0.01286
 32 Li   -0.24314    0.03318   -0.15485
 33 Li   -0.00443    0.00526    0.00813
 34 Li    0.00278    0.00141   -0.00190
 35 Li    0.00638    0.00420   -0.02191
 36 O     0.03317   -0.01889    0.04214
 37 C    -0.57067   -0.04369    0.31454
 38 C     0.08943   -0.02517   -0.02318
 39 H     0.02187    0.04193    0.00019
 40 H     0.20323   -0.04487    0.00312
 41 H     0.00241   -0.00499   -0.00745
 42 H    -0.02020    0.02855    0.01139
 43 H    -0.00211    0.03127   -0.04065
 44 H    -0.04501    0.00651   -0.01820
 45 N    -3.73427   -3.68580   -2.44408
 46 N     1.76745    1.66626    4.64927
 47 H     2.12889    1.87135   -2.35758

System changes: positions 

Initializing position-dependent things.

Density initialized from wave functions
       .-----------------------.  
      /|                       |  
     / |                       |  
    /  |                       |  
   /   |                       |  
  /    |                       |  
 *     |                       |  
 |     |                       |  
 |     |                       |  
 |     |                       |  
 |     |           H  H H      |  
 |     |             C         |  
 |     |       Li H    Li      |  
 |     |          H C  H       |  
 |   Li|     Li      Li        |  
 |     |  Li      LiLi  H Li   |  
 |  Li |    Li          N      |  
 |     |Li      Li   N  Li     |  
 |     |                 Li    |  
 |   LLi     LLi     LLi       |  
 |     |  Li      Li      Li   |  
 | Li  |   Li      Li          |  
 |     |Li      Li      Li     |  
 Li    | Li      Li            |  
 |    Li      Li      Li       |  
 |     |                       |  
 |     |                       |  
 |     |                       |  
 |     |                       |  
 |     |                       |  
 |     |                       |  
 |     .-----------------------.  
 |    /                       /   
 |   /                       /    
 |  /                       /     
 | /                       /      
 |/                       /       
 *-----------------------*        

Positions:
   0 Li     1.617037    1.617037   10.000000    ( 0.0000,  0.0000,  0.0000)
   1 Li     4.851111    1.617037   10.000000    ( 0.0000,  0.0000,  0.0000)
   2 Li     8.085185    1.617037   10.000000    ( 0.0000,  0.0000,  0.0000)
   3 Li     1.617037    4.851111   10.000000    ( 0.0000,  0.0000,  0.0000)
   4 Li     4.851111    4.851111   10.000000    ( 0.0000,  0.0000,  0.0000)
   5 Li     8.085185    4.851111   10.000000    ( 0.0000,  0.0000,  0.0000)
   6 Li     1.617037    8.085185   10.000000    ( 0.0000,  0.0000,  0.0000)
   7 Li     4.851111    8.085185   10.000000    ( 0.0000,  0.0000,  0.0000)
   8 Li     8.085185    8.085185   10.000000    ( 0.0000,  0.0000,  0.0000)
   9 Li     0.000000    0.000000   11.617037    ( 0.0000,  0.0000,  0.0000)
  10 Li     3.234074    0.000000   11.617037    ( 0.0000,  0.0000,  0.0000)
  11 Li     6.468148    0.000000   11.617037    ( 0.0000,  0.0000,  0.0000)
  12 Li     0.000000    3.234074   11.617037    ( 0.0000,  0.0000,  0.0000)
  13 Li     3.234074    3.234074   11.617037    ( 0.0000,  0.0000,  0.0000)
  14 Li     6.468148    3.234074   11.617037    ( 0.0000,  0.0000,  0.0000)
  15 Li     0.000000    6.468148   11.617037    ( 0.0000,  0.0000,  0.0000)
  16 Li     3.234074    6.468148   11.617037    ( 0.0000,  0.0000,  0.0000)
  17 Li     6.468148    6.468148   11.617037    ( 0.0000,  0.0000,  0.0000)
  18 Li     1.666028    1.646367   13.478410    ( 0.0000,  0.0000,  0.0000)
  19 Li     4.952067    1.583885   13.556310    ( 0.0000,  0.0000,  0.0000)
  20 Li     8.087527    1.598178   13.563924    ( 0.0000,  0.0000,  0.0000)
  21 Li     1.683219    4.864082   13.497779    ( 0.0000,  0.0000,  0.0000)
  22 Li     4.928454    4.799028   13.483207    ( 0.0000,  0.0000,  0.0000)
  23 Li     8.128344    4.751939   13.530838    ( 0.0000,  0.0000,  0.0000)
  24 Li     1.607710    8.103862   13.481828    ( 0.0000,  0.0000,  0.0000)
  25 Li     4.825541    7.992031   13.493009    ( 0.0000,  0.0000,  0.0000)
  26 Li     8.072508    8.025488   13.499236    ( 0.0000,  0.0000,  0.0000)
  27 Li    -0.095720    0.052661   15.425346    ( 0.0000,  0.0000,  0.0000)
  28 Li     3.187389   -0.030179   15.434562    ( 0.0000,  0.0000,  0.0000)
  29 Li     6.444579   -0.287997   15.450583    ( 0.0000,  0.0000,  0.0000)
  30 Li     0.233901    3.187693   15.475667    ( 0.0000,  0.0000,  0.0000)
  31 Li     3.424249    3.304814   15.449931    ( 0.0000,  0.0000,  0.0000)
  32 Li     6.912318    2.758336   16.080823    ( 0.0000,  0.0000,  0.0000)
  33 Li     0.057674    6.469231   15.410347    ( 0.0000,  0.0000,  0.0000)
  34 Li     3.232766    6.490430   15.473566    ( 0.0000,  0.0000,  0.0000)
  35 Li     6.402934    6.221763   15.485377    ( 0.0000,  0.0000,  0.0000)
  36 O      6.901945    2.759783   18.082519    ( 0.0000,  0.0000,  0.0000)
  37 C      7.438130    1.627609   18.817714    ( 0.0000,  0.0000,  0.0000)
  38 C      7.721749    1.955957   20.270836    ( 0.0000,  0.0000,  0.0000)
  39 H      6.756159    0.778171   18.725105    ( 0.0000,  0.0000,  0.0000)
  40 H      8.365235    1.375278   18.293704    ( 0.0000,  0.0000,  0.0000)
  41 H      8.146473    1.079947   20.767342    ( 0.0000,  0.0000,  0.0000)
  42 H      8.434660    2.777955   20.354077    ( 0.0000,  0.0000,  0.0000)
  43 H      6.805738    2.223347   20.805641    ( 0.0000,  0.0000,  0.0000)
  44 H      6.077272    3.036706   18.504450    ( 0.0000,  0.0000,  0.0000)
  45 N      7.764006    0.925065   15.506161    ( 0.0000,  0.0000,  0.0000)
  46 N      8.691624    1.855073   15.575990    ( 0.0000,  0.0000,  0.0000)
  47 H      8.693712    1.856932   16.789629    ( 0.0000,  0.0000,  0.0000)

Unit cell:
           periodic     x           y           z      points  spacing
  1. axis:    yes    9.702222    0.000000    0.000000    60     0.1617
  2. axis:    yes    0.000000    9.702222    0.000000    60     0.1617
  3. axis:    no     0.000000    0.000000   24.851111   156     0.1593

  Lengths:   9.702222   9.702222  24.851111
  Angles:   90.000000  90.000000  90.000000

Effective grid spacing dv^(1/3) = 0.1609

     iter     time        total  log10-change:
                         energy  eigst   dens
iter:   1 12:21:00  -313.215583  -0.35
iter:   2 12:21:46  -313.165384  -1.16  -1.86
iter:   3 12:22:32  -313.176308  -0.48  -1.94
iter:   4 12:23:23  -313.100257  -0.72  -1.75
Writing to output.gpw (mode='')

iter:   5 12:24:11  -313.122528  -0.94  -2.06
iter:   6 12:24:52  -313.063639  -1.38  -2.05
iter:   7 12:25:41  -313.058878  -1.21  -2.19
iter:   8 12:26:35  -313.054848c -2.47  -2.40
iter:   9 12:27:28  -313.054476c -2.67  -2.52
Writing to output.gpw (mode='')

iter:  10 12:28:09  -313.054601c -2.54  -2.62
iter:  11 12:28:56  -313.053892c -3.11  -2.77
iter:  12 12:29:44  -313.053820c -3.17  -2.96
iter:  13 12:30:18  -313.053797c -3.01  -3.10
iter:  14 12:30:59  -313.053775c -3.89  -3.19
Writing to output.gpw (mode='')

iter:  15 12:31:36  -313.053810c -3.85  -3.23
iter:  16 12:32:19  -313.053821c -4.07  -3.30
iter:  17 12:33:00  -313.053826c -4.17  -3.40
iter:  18 12:33:45  -313.053827c -4.60  -3.52
iter:  19 12:34:37  -313.053831c -4.82  -3.62
Writing to output.gpw (mode='')

iter:  20 12:35:26  -313.053827c -5.07  -3.74
iter:  21 12:36:13  -313.053831c -5.24  -3.81
iter:  22 12:36:50  -313.053834c -5.41  -3.86
iter:  23 12:37:33  -313.053841c -5.29  -3.94
iter:  24 12:38:20  -313.053832c -5.60  -4.19c
Writing to output.gpw (mode='')

iter:  25 12:39:13  -313.053831c -5.87  -4.32c
iter:  26 12:39:57  -313.053831c -5.97  -4.38c
iter:  27 12:40:38  -313.053832c -6.09  -4.44c
iter:  28 12:41:21  -313.053832c -6.28  -4.49c
iter:  29 12:42:05  -313.053833c -6.49  -4.67c
Writing to output.gpw (mode='')

iter:  30 12:42:57  -313.053834c -6.51  -4.71c
iter:  31 12:43:39  -313.053834c -6.61  -4.92c
iter:  32 12:44:18  -313.053835c -6.65  -5.06c
iter:  33 12:44:59  -313.053834c -6.84  -5.13c
iter:  34 12:45:47  -313.053834c -6.79  -5.15c
Writing to output.gpw (mode='')

iter:  35 12:46:41  -313.053833c -6.94  -5.24c
iter:  36 12:47:35  -313.053833c -7.22  -5.39c
iter:  37 12:48:19  -313.053833c -7.32  -5.46c
iter:  38 12:49:07  -313.053833c -7.36  -5.51c
iter:  39 12:49:57  -313.053833c -7.55c -5.54c

Converged after 39 iterations.

Dipole moment: (-3.027171, -1.253546, 0.429686) |e|*Ang

Energy contributions relative to reference atoms: (reference = -14447.344205)

Kinetic:       +152.365352
Potential:     -143.716525
External:        +0.000000
XC:            -322.410291
Entropy (-ST):   -0.152074
Local:           +0.783667
--------------------------
Free energy:   -313.129871
Extrapolated:  -313.053833

Dipole-layer corrected work functions: 3.386417, 2.560414 eV

Showing only first 2 kpts
 Kpt  Band  Eigenvalues  Occupancy
  0    31     -3.23115    1.98852
  0    32     -3.08778    1.81563
  0    33     -2.95467    0.81471
  0    34     -2.86937    0.22193

  1    31     -3.26398    1.99403
  1    32     -3.22124    1.98602
  1    33     -2.92635    0.56126
  1    34     -2.82857    0.10461


Fermi level: -2.97342

No gap
Writing to output.gpw (mode='')


Forces in eV/Ang:
  0 Li   -0.00723    0.00833   -0.28849
  1 Li   -0.00348    0.00553   -0.27121
  2 Li    0.00124    0.00748   -0.22514
  3 Li   -0.00305    0.00771   -0.28332
  4 Li   -0.01509    0.02326   -0.27859
  5 Li   -0.00197   -0.00008   -0.28465
  6 Li    0.01006   -0.00189   -0.28109
  7 Li   -0.01601   -0.00615   -0.27667
  8 Li   -0.00440    0.00307   -0.27629
  9 Li    0.00744    0.00538    0.25526
 10 Li    0.05017    0.01743    0.31823
 11 Li    0.00493   -0.02407    0.25725
 12 Li    0.00000   -0.03125    0.26375
 13 Li    0.04909   -0.02912    0.28718
 14 Li    0.03237   -0.02326    0.21212
 15 Li   -0.00373   -0.02633    0.29958
 16 Li    0.01130   -0.03832    0.26288
 17 Li    0.05203   -0.02020    0.28418
 18 Li    0.08319   -0.03220   -0.02225
 19 Li   -0.01271    0.02155    0.01703
 20 Li   -0.05682   -0.03251    0.31447
 21 Li    0.02323    0.01593   -0.02164
 22 Li   -0.01481   -0.02018    0.01127
 23 Li   -0.02887    0.07477   -0.01002
 24 Li    0.00418   -0.00626   -0.01277
 25 Li   -0.04572   -0.02822   -0.03341
 26 Li    0.00744    0.02979    0.02555
 27 Li   -0.13179   -0.05135   -0.06217
 28 Li   -0.02252   -0.00626   -0.02152
 29 Li    0.05709    0.05894    0.02818
 30 Li    0.17211    0.20273   -0.00960
 31 Li   -0.00883    0.01822   -0.01391
 32 Li   -0.19376   -0.06549   -0.19689
 33 Li    0.00323    0.00108    0.00629
 34 Li    0.00077   -0.00046   -0.00006
 35 Li   -0.00035    0.00213   -0.02305
 36 O    -0.01582   -0.00864    0.07967
 37 C    -0.22013   -0.01542    0.13634
 38 C     0.02262   -0.00696    0.02171
 39 H    -0.03025   -0.01461   -0.00479
 40 H     0.00510   -0.04040    0.12914
 41 H     0.00628   -0.01122   -0.00568
 42 H    -0.01638    0.02877    0.00468
 43 H     0.01528    0.02876   -0.03151
 44 H    -0.03322    0.01868   -0.03256
 45 N    -1.85967   -1.85188   -1.88214
 46 N     0.45225    0.30480    4.34091
 47 H     1.69461    1.45182   -2.65646

System changes: positions 

Initializing position-dependent things.

Density initialized from wave functions
       .-----------------------.  
      /|                       |  
     / |                       |  
    /  |                       |  
   /   |                       |  
  /    |                       |  
 *     |                       |  
 |     |                       |  
 |     |                       |  
 |     |                       |  
 |     |           H  H H      |  
 |     |             C         |  
 |     |       Li H    Li      |  
 |     |          H C  H       |  
 |   Li|     Li      Li        |  
 |     |  Li      LiLi  H Li   |  
 |  Li |    Li          N      |  
 |     |Li      Li   N  Li     |  
 |     |                 Li    |  
 |   LLi     LLi     LLi       |  
 |     |  Li      Li      Li   |  
 | Li  |   Li      Li          |  
 |     |Li      Li      Li     |  
 Li    | Li      Li            |  
 |    Li      Li      Li       |  
 |     |                       |  
 |     |                       |  
 |     |                       |  
 |     |                       |  
 |     |                       |  
 |     |                       |  
 |     .-----------------------.  
 |    /                       /   
 |   /                       /    
 |  /                       /     
 | /                       /      
 |/                       /       
 *-----------------------*        

Positions:
   0 Li     1.617037    1.617037   10.000000    ( 0.0000,  0.0000,  0.0000)
   1 Li     4.851111    1.617037   10.000000    ( 0.0000,  0.0000,  0.0000)
   2 Li     8.085185    1.617037   10.000000    ( 0.0000,  0.0000,  0.0000)
   3 Li     1.617037    4.851111   10.000000    ( 0.0000,  0.0000,  0.0000)
   4 Li     4.851111    4.851111   10.000000    ( 0.0000,  0.0000,  0.0000)
   5 Li     8.085185    4.851111   10.000000    ( 0.0000,  0.0000,  0.0000)
   6 Li     1.617037    8.085185   10.000000    ( 0.0000,  0.0000,  0.0000)
   7 Li     4.851111    8.085185   10.000000    ( 0.0000,  0.0000,  0.0000)
   8 Li     8.085185    8.085185   10.000000    ( 0.0000,  0.0000,  0.0000)
   9 Li     0.000000    0.000000   11.617037    ( 0.0000,  0.0000,  0.0000)
  10 Li     3.234074    0.000000   11.617037    ( 0.0000,  0.0000,  0.0000)
  11 Li     6.468148    0.000000   11.617037    ( 0.0000,  0.0000,  0.0000)
  12 Li     0.000000    3.234074   11.617037    ( 0.0000,  0.0000,  0.0000)
  13 Li     3.234074    3.234074   11.617037    ( 0.0000,  0.0000,  0.0000)
  14 Li     6.468148    3.234074   11.617037    ( 0.0000,  0.0000,  0.0000)
  15 Li     0.000000    6.468148   11.617037    ( 0.0000,  0.0000,  0.0000)
  16 Li     3.234074    6.468148   11.617037    ( 0.0000,  0.0000,  0.0000)
  17 Li     6.468148    6.468148   11.617037    ( 0.0000,  0.0000,  0.0000)
  18 Li     1.666808    1.646071   13.478204    ( 0.0000,  0.0000,  0.0000)
  19 Li     4.951968    1.584085   13.556483    ( 0.0000,  0.0000,  0.0000)
  20 Li     8.087016    1.597860   13.567056    ( 0.0000,  0.0000,  0.0000)
  21 Li     1.683436    4.864234   13.497579    ( 0.0000,  0.0000,  0.0000)
  22 Li     4.928315    4.798848   13.483311    ( 0.0000,  0.0000,  0.0000)
  23 Li     8.128077    4.752640   13.530746    ( 0.0000,  0.0000,  0.0000)
  24 Li     1.607759    8.103800   13.481707    ( 0.0000,  0.0000,  0.0000)
  25 Li     4.825107    7.991761   13.492692    ( 0.0000,  0.0000,  0.0000)
  26 Li     8.072578    8.025795   13.499493    ( 0.0000,  0.0000,  0.0000)
  27 Li    -0.097119    0.052313   15.424779    ( 0.0000,  0.0000,  0.0000)
  28 Li     3.187177   -0.030250   15.434358    ( 0.0000,  0.0000,  0.0000)
  29 Li     6.444859   -0.287675   15.450834    ( 0.0000,  0.0000,  0.0000)
  30 Li     0.235621    3.189717   15.475497    ( 0.0000,  0.0000,  0.0000)
  31 Li     3.424165    3.304996   15.449799    ( 0.0000,  0.0000,  0.0000)
  32 Li     6.910590    2.757574   16.078925    ( 0.0000,  0.0000,  0.0000)
  33 Li     0.057716    6.469234   15.410403    ( 0.0000,  0.0000,  0.0000)
  34 Li     3.232770    6.490423   15.473568    ( 0.0000,  0.0000,  0.0000)
  35 Li     6.402921    6.221780   15.485160    ( 0.0000,  0.0000,  0.0000)
  36 O      6.901722    2.759718   18.083319    ( 0.0000,  0.0000,  0.0000)
  37 C      7.436623    1.627509   18.818707    ( 0.0000,  0.0000,  0.0000)
  38 C      7.721856    1.955921   20.271108    ( 0.0000,  0.0000,  0.0000)
  39 H      6.755796    0.777947   18.725052    ( 0.0000,  0.0000,  0.0000)
  40 H      8.364976    1.374909   18.295101    ( 0.0000,  0.0000,  0.0000)
  41 H      8.146537    1.079833   20.767292    ( 0.0000,  0.0000,  0.0000)
  42 H      8.434513    2.778224   20.354111    ( 0.0000,  0.0000,  0.0000)
  43 H      6.805907    2.223611   20.805361    ( 0.0000,  0.0000,  0.0000)
  44 H      6.076981    3.036899   18.504125    ( 0.0000,  0.0000,  0.0000)
  45 N      7.749594    0.910662   15.489509    ( 0.0000,  0.0000,  0.0000)
  46 N      8.693799    1.855804   15.615924    ( 0.0000,  0.0000,  0.0000)
  47 H      8.708816    1.869799   16.764437    ( 0.0000,  0.0000,  0.0000)

Unit cell:
           periodic     x           y           z      points  spacing
  1. axis:    yes    9.702222    0.000000    0.000000    60     0.1617
  2. axis:    yes    0.000000    9.702222    0.000000    60     0.1617
  3. axis:    no     0.000000    0.000000   24.851111   156     0.1593

  Lengths:   9.702222   9.702222  24.851111
  Angles:   90.000000  90.000000  90.000000

Effective grid spacing dv^(1/3) = 0.1609

     iter     time        total  log10-change:
                         energy  eigst   dens
iter:   1 12:50:59  -313.454099  -0.71
iter:   2 12:51:43  -313.427682  -1.33  -1.78
iter:   3 12:52:27  -313.420605c -1.82  -2.03
iter:   4 12:53:06  -313.394599c -1.21  -2.17
Writing to output.gpw (mode='')

iter:   5 12:53:48  -313.394176c -2.13  -2.20
iter:   6 12:54:38  -313.394601c -1.82  -2.43
iter:   7 12:55:29  -313.390515c -1.81  -2.45
iter:   8 12:56:13  -313.390346c -2.47  -2.62
iter:   9 12:56:57  -313.388812c -2.43  -2.63
Writing to output.gpw (mode='')

iter:  10 12:57:40  -313.388968c -2.60  -2.81
iter:  11 12:58:22  -313.388515c -3.41  -2.88
iter:  12 12:59:06  -313.388381c -3.73  -3.06
iter:  13 12:59:50  -313.389130c -3.06  -3.22
iter:  14 13:00:34  -313.388930c -3.90  -2.92
Writing to output.gpw (mode='')

iter:  15 13:01:20  -313.388363c -3.26  -2.98
iter:  16 13:02:02  -313.388370c -3.91  -3.28
iter:  17 13:02:49  -313.388439c -4.75  -3.28
iter:  18 13:03:39  -313.388493c -3.31  -3.25
iter:  19 13:04:29  -313.388471c -3.83  -3.05
Writing to output.gpw (mode='')

iter:  20 13:05:19  -313.388495c -3.83  -3.28
iter:  21 13:06:06  -313.388501c -3.68  -3.41
iter:  22 13:06:55  -313.388461c -4.59  -3.52
iter:  23 13:07:34  -313.388446c -4.47  -3.70
iter:  24 13:08:22  -313.388428c -5.20  -3.73
Writing to output.gpw (mode='')

iter:  25 13:09:12  -313.388419c -5.21  -3.85
iter:  26 13:10:01  -313.388446c -5.51  -4.00
iter:  27 13:10:48  -313.388449c -5.75  -4.10c
iter:  28 13:11:33  -313.388434c -5.80  -4.17c
iter:  29 13:12:22  -313.388451c -5.88  -4.34c
Writing to output.gpw (mode='')

iter:  30 13:13:06  -313.388448c -6.46  -4.48c
iter:  31 13:13:44  -313.388442c -6.59  -4.54c
iter:  32 13:14:23  -313.388440c -6.58  -4.64c
iter:  33 13:15:14  -313.388441c -6.70  -4.76c
iter:  34 13:15:54  -313.388441c -7.05  -4.92c
Writing to output.gpw (mode='')

iter:  35 13:16:35  -313.388441c -7.03  -4.91c
iter:  36 13:17:30  -313.388442c -7.22  -4.96c
iter:  37 13:18:17  -313.388443c -7.19  -5.03c
iter:  38 13:19:06  -313.388443c -7.35  -5.28c
iter:  39 13:19:49  -313.388443c -7.64c -5.30c

Converged after 39 iterations.

Dipole moment: (-3.028426, -1.264526, 0.432225) |e|*Ang

Energy contributions relative to reference atoms: (reference = -14447.344205)

Kinetic:       +152.259927
Potential:     -143.684414
External:        +0.000000
XC:            -322.672430
Entropy (-ST):   -0.152504
Local:           +0.784727
--------------------------
Free energy:   -313.464695
Extrapolated:  -313.388443

Dipole-layer corrected work functions: 3.386458, 2.555574 eV

Showing only first 2 kpts
 Kpt  Band  Eigenvalues  Occupancy
  0    31     -3.22951    1.98869
  0    32     -3.08650    1.81934
  0    33     -2.95223    0.81434
  0    34     -2.86798    0.22595

  1    31     -3.25430    1.99310
  1    32     -3.21652    1.98536
  1    33     -2.92373    0.55953
  1    34     -2.83159    0.11589


Fermi level: -2.97102

No gap
Writing to output.gpw (mode='')


Forces in eV/Ang:
  0 Li   -0.00747    0.00811   -0.28924
  1 Li   -0.00360    0.00527   -0.27013
  2 Li    0.00170    0.00845   -0.22587
  3 Li   -0.00379    0.00704   -0.28402
  4 Li   -0.01509    0.02265   -0.27833
  5 Li   -0.00201   -0.00048   -0.28570
  6 Li    0.00993   -0.00243   -0.28063
  7 Li   -0.01678   -0.00695   -0.27569
  8 Li   -0.00448    0.00252   -0.27503
  9 Li    0.00858    0.00624    0.25520
 10 Li    0.05045    0.01870    0.31932
 11 Li    0.00229   -0.02565    0.25374
 12 Li   -0.00042   -0.03203    0.26186
 13 Li    0.04906   -0.02788    0.28799
 14 Li    0.03312   -0.02272    0.21101
 15 Li   -0.00307   -0.02675    0.30015
 16 Li    0.01161   -0.03826    0.26144
 17 Li    0.05298   -0.01930    0.28492
 18 Li    0.08737   -0.03000   -0.02308
 19 Li   -0.00513    0.02198    0.02181
 20 Li   -0.03987   -0.03022    0.38636
 21 Li    0.02321    0.01693   -0.02054
 22 Li   -0.01449   -0.01734    0.01052
 23 Li   -0.02780    0.07823   -0.01028
 24 Li    0.00736   -0.00670   -0.01348
 25 Li   -0.04815   -0.03039   -0.03529
 26 Li    0.00876    0.04044    0.03177
 27 Li   -0.18128   -0.01452   -0.06367
 28 Li   -0.02449   -0.00956   -0.02235
 29 Li   -0.05826   -0.04424    0.02023
 30 Li    0.18161    0.21602   -0.05883
 31 Li   -0.00999    0.02161   -0.01396
 32 Li   -0.18653   -0.10744   -0.21127
 33 Li    0.00631   -0.00243    0.00571
 34 Li   -0.00112   -0.00247    0.00096
 35 Li   -0.00254    0.00081   -0.02346
 36 O    -0.01322   -0.00486    0.06555
 37 C    -0.08268   -0.01304    0.07249
 38 C     0.00207    0.00003    0.03136
 39 H    -0.03878   -0.02518   -0.00421
 40 H    -0.07120   -0.04792    0.17720
 41 H     0.00712   -0.01182   -0.00308
 42 H    -0.01697    0.02522    0.00348
 43 H     0.01164    0.02983   -0.01765
 44 H    -0.04623    0.02734   -0.02388
 45 N    -1.08760   -1.05495   -1.44124
 46 N     0.14470    0.05685    3.47048
 47 H     1.31544    1.09520   -2.27730

System changes: positions 

Initializing position-dependent things.

Density initialized from wave functions
       .-----------------------.  
      /|                       |  
     / |                       |  
    /  |                       |  
   /   |                       |  
  /    |                       |  
 *     |                       |  
 |     |                       |  
 |     |                       |  
 |     |                       |  
 |     |           H  H H      |  
 |     |             C         |  
 |     |       Li H    Li      |  
 |     |          H C  H       |  
 |   Li|     Li      Li        |  
 |     |  Li      LiLi  H Li   |  
 |  Li |    Li          N      |  
 |     |Li      Li   N  Li     |  
 |     |                 Li    |  
 |   LLi     LLi     LLi       |  
 |     |  Li      Li      Li   |  
 | Li  |   Li      Li          |  
 |     |Li      Li      Li     |  
 Li    | Li      Li            |  
 |    Li      Li      Li       |  
 |     |                       |  
 |     |                       |  
 |     |                       |  
 |     |                       |  
 |     |                       |  
 |     |                       |  
 |     .-----------------------.  
 |    /                       /   
 |   /                       /    
 |  /                       /     
 | /                       /      
 |/                       /       
 *-----------------------*        

Positions:
   0 Li     1.617037    1.617037   10.000000    ( 0.0000,  0.0000,  0.0000)
   1 Li     4.851111    1.617037   10.000000    ( 0.0000,  0.0000,  0.0000)
   2 Li     8.085185    1.617037   10.000000    ( 0.0000,  0.0000,  0.0000)
   3 Li     1.617037    4.851111   10.000000    ( 0.0000,  0.0000,  0.0000)
   4 Li     4.851111    4.851111   10.000000    ( 0.0000,  0.0000,  0.0000)
   5 Li     8.085185    4.851111   10.000000    ( 0.0000,  0.0000,  0.0000)
   6 Li     1.617037    8.085185   10.000000    ( 0.0000,  0.0000,  0.0000)
   7 Li     4.851111    8.085185   10.000000    ( 0.0000,  0.0000,  0.0000)
   8 Li     8.085185    8.085185   10.000000    ( 0.0000,  0.0000,  0.0000)
   9 Li     0.000000    0.000000   11.617037    ( 0.0000,  0.0000,  0.0000)
  10 Li     3.234074    0.000000   11.617037    ( 0.0000,  0.0000,  0.0000)
  11 Li     6.468148    0.000000   11.617037    ( 0.0000,  0.0000,  0.0000)
  12 Li     0.000000    3.234074   11.617037    ( 0.0000,  0.0000,  0.0000)
  13 Li     3.234074    3.234074   11.617037    ( 0.0000,  0.0000,  0.0000)
  14 Li     6.468148    3.234074   11.617037    ( 0.0000,  0.0000,  0.0000)
  15 Li     0.000000    6.468148   11.617037    ( 0.0000,  0.0000,  0.0000)
  16 Li     3.234074    6.468148   11.617037    ( 0.0000,  0.0000,  0.0000)
  17 Li     6.468148    6.468148   11.617037    ( 0.0000,  0.0000,  0.0000)
  18 Li     1.667924    1.645703   13.477910    ( 0.0000,  0.0000,  0.0000)
  19 Li     4.951936    1.584363   13.556777    ( 0.0000,  0.0000,  0.0000)
  20 Li     8.086585    1.597490   13.572215    ( 0.0000,  0.0000,  0.0000)
  21 Li     1.683728    4.864451   13.497326    ( 0.0000,  0.0000,  0.0000)
  22 Li     4.928134    4.798642   13.483440    ( 0.0000,  0.0000,  0.0000)
  23 Li     8.127732    4.753639   13.530616    ( 0.0000,  0.0000,  0.0000)
  24 Li     1.607865    8.103714   13.481534    ( 0.0000,  0.0000,  0.0000)
  25 Li     4.824492    7.991370   13.492240    ( 0.0000,  0.0000,  0.0000)
  26 Li     8.072693    8.026348   13.499918    ( 0.0000,  0.0000,  0.0000)
  27 Li    -0.099604    0.052283   15.423972    ( 0.0000,  0.0000,  0.0000)
  28 Li     3.186861   -0.030383   15.434073    ( 0.0000,  0.0000,  0.0000)
  29 Li     6.443645   -0.288662   15.451055    ( 0.0000,  0.0000,  0.0000)
  30 Li     0.237943    3.192488   15.474551    ( 0.0000,  0.0000,  0.0000)
  31 Li     3.424034    3.305282   15.449624    ( 0.0000,  0.0000,  0.0000)
  32 Li     6.908274    2.756049   16.076208    ( 0.0000,  0.0000,  0.0000)
  33 Li     0.057808    6.469189   15.410472    ( 0.0000,  0.0000,  0.0000)
  34 Li     3.232748    6.490384   15.473585    ( 0.0000,  0.0000,  0.0000)
  35 Li     6.402880    6.221785   15.484863    ( 0.0000,  0.0000,  0.0000)
  36 O      6.901568    2.759673   18.084083    ( 0.0000,  0.0000,  0.0000)
  37 C      7.436153    1.627355   18.819354    ( 0.0000,  0.0000,  0.0000)
  38 C      7.721797    1.955950   20.271542    ( 0.0000,  0.0000,  0.0000)
  39 H      6.755274    0.777587   18.725002    ( 0.0000,  0.0000,  0.0000)
  40 H      8.363764    1.374274   18.297529    ( 0.0000,  0.0000,  0.0000)
  41 H      8.146630    1.079682   20.767264    ( 0.0000,  0.0000,  0.0000)
  42 H      8.434297    2.778526   20.354150    ( 0.0000,  0.0000,  0.0000)
  43 H      6.806038    2.223991   20.805197    ( 0.0000,  0.0000,  0.0000)
  44 H      6.076344    3.037279   18.503861    ( 0.0000,  0.0000,  0.0000)
  45 N      7.739122    0.900706   15.473225    ( 0.0000,  0.0000,  0.0000)
  46 N      8.694353    1.855505   15.655919    ( 0.0000,  0.0000,  0.0000)
  47 H      8.723775    1.882082   16.737396    ( 0.0000,  0.0000,  0.0000)

Unit cell:
           periodic     x           y           z      points  spacing
  1. axis:    yes    9.702222    0.000000    0.000000    60     0.1617
  2. axis:    yes    0.000000    9.702222    0.000000    60     0.1617
  3. axis:    no     0.000000    0.000000   24.851111   156     0.1593

  Lengths:   9.702222   9.702222  24.851111
  Angles:   90.000000  90.000000  90.000000

Effective grid spacing dv^(1/3) = 0.1609

     iter     time        total  log10-change:
                         energy  eigst   dens
iter:   1 13:20:54  -313.696652  -0.77
iter:   2 13:21:39  -313.659295  -1.34  -1.74
iter:   3 13:22:22  -313.650250  -1.89  -1.99
iter:   4 13:23:03  -313.623951  -1.19  -2.20
Writing to output.gpw (mode='')

iter:   5 13:23:45  -313.622523c -2.08  -2.14
iter:   6 13:24:39  -313.621173c -2.09  -2.25
iter:   7 13:25:19  -313.621457c -2.14  -2.69
iter:   8 13:25:56  -313.620873c -2.75  -2.71
iter:   9 13:26:45  -313.620952c -2.40  -2.69
Writing to output.gpw (mode='')

iter:  10 13:27:29  -313.620648c -3.45  -2.96
iter:  11 13:28:14  -313.621063c -3.00  -3.06
iter:  12 13:28:54  -313.620569c -3.48  -2.92
iter:  13 13:29:34  -313.620550c -3.43  -3.19
iter:  14 13:30:20  -313.620626c -3.75  -3.30
Writing to output.gpw (mode='')

iter:  15 13:31:07  -313.620634c -4.33  -3.40
iter:  16 13:31:56  -313.620672c -4.14  -3.51
iter:  17 13:32:48  -313.620607c -4.02  -3.59
iter:  18 13:33:31  -313.620602c -4.86  -3.69
iter:  19 13:34:37  -313.620602c -4.91  -3.75
Writing to output.gpw (mode='')

iter:  20 13:35:24  -313.620606c -5.21  -3.92
iter:  21 13:36:08  -313.620612c -5.09  -3.94
iter:  22 13:37:06  -313.620616c -5.34  -4.07c
iter:  23 13:37:50  -313.620615c -5.55  -4.26c
iter:  24 13:38:34  -313.620614c -5.88  -4.33c
Writing to output.gpw (mode='')

iter:  25 13:39:22  -313.620604c -5.57  -4.37c
iter:  26 13:40:16  -313.620604c -5.83  -4.38c
iter:  27 13:40:57  -313.620605c -6.23  -4.57c
iter:  28 13:41:42  -313.620605c -6.23  -4.63c
iter:  29 13:42:27  -313.620605c -6.40  -4.82c
Writing to output.gpw (mode='')

iter:  30 13:43:13  -313.620605c -6.70  -4.91c
iter:  31 13:43:56  -313.620605c -6.70  -5.02c
iter:  32 13:44:36  -313.620606c -6.67  -5.07c
iter:  33 13:45:26  -313.620606c -6.97  -5.11c
iter:  34 13:46:14  -313.620607c -7.12  -5.20c
Writing to output.gpw (mode='')

iter:  35 13:47:02  -313.620607c -6.99  -5.30c
iter:  36 13:47:43  -313.620606c -7.35  -5.32c
iter:  37 13:48:29  -313.620606c -7.48c -5.39c

Converged after 37 iterations.

Dipole moment: (-3.022786, -1.261367, 0.432247) |e|*Ang

Energy contributions relative to reference atoms: (reference = -14447.344205)

Kinetic:       +153.052879
Potential:     -144.285949
External:        +0.000000
XC:            -323.097393
Entropy (-ST):   -0.152895
Local:           +0.786304
--------------------------
Free energy:   -313.697054
Extrapolated:  -313.620606

Dipole-layer corrected work functions: 3.386409, 2.555481 eV

Showing only first 2 kpts
 Kpt  Band  Eigenvalues  Occupancy
  0    31     -3.23001    1.98882
  0    32     -3.08746    1.82272
  0    33     -2.95222    0.81487
  0    34     -2.86918    0.23108

  1    31     -3.24742    1.99210
  1    32     -3.21449    1.98478
  1    33     -2.92354    0.55856
  1    34     -2.83637    0.12696


Fermi level: -2.97094

No gap
Writing to output.gpw (mode='')


Forces in eV/Ang:
  0 Li   -0.00756    0.00789   -0.29006
  1 Li   -0.00379    0.00500   -0.26924
  2 Li    0.00203    0.00924   -0.22698
  3 Li   -0.00433    0.00649   -0.28478
  4 Li   -0.01516    0.02222   -0.27802
  5 Li   -0.00209   -0.00073   -0.28668
  6 Li    0.00991   -0.00295   -0.28013
  7 Li   -0.01747   -0.00771   -0.27518
  8 Li   -0.00464    0.00200   -0.27404
  9 Li    0.00885    0.00764    0.25675
 10 Li    0.05098    0.01972    0.31996
 11 Li    0.00011   -0.02687    0.25137
 12 Li   -0.00111   -0.03300    0.26178
 13 Li    0.04907   -0.02673    0.28851
 14 Li    0.03428   -0.02283    0.21126
 15 Li   -0.00246   -0.02716    0.30053
 16 Li    0.01192   -0.03819    0.25986
 17 Li    0.05367   -0.01831    0.28552
 18 Li    0.09074   -0.02793   -0.02458
 19 Li    0.00084    0.02233    0.02536
 20 Li   -0.02361   -0.02252    0.42217
 21 Li    0.02319    0.01787   -0.01982
 22 Li   -0.01435   -0.01499    0.00971
 23 Li   -0.02671    0.08099   -0.01132
 24 Li    0.00960   -0.00693   -0.01393
 25 Li   -0.04972   -0.03178   -0.03655
 26 Li    0.01005    0.04799    0.03571
 27 Li   -0.21559    0.01661   -0.06431
 28 Li   -0.02628   -0.01213   -0.02284
 29 Li   -0.14241   -0.11793    0.01496
 30 Li    0.17654    0.21382   -0.10333
 31 Li   -0.01065    0.02422   -0.01387
 32 Li   -0.18240   -0.13513   -0.21645
 33 Li    0.00874   -0.00506    0.00528
 34 Li   -0.00259   -0.00434    0.00166
 35 Li   -0.00421   -0.00015   -0.02368
 36 O    -0.01985    0.00345    0.05166
 37 C    -0.04960   -0.00988    0.05967
 38 C    -0.00596    0.00231    0.03172
 39 H    -0.03225   -0.02027   -0.00119
 40 H    -0.08096   -0.06167    0.17853
 41 H     0.00663   -0.00963    0.00019
 42 H    -0.01759    0.02151    0.00424
 43 H     0.00468    0.03052   -0.00533
 44 H    -0.03958    0.02475   -0.02083
 45 N    -0.58959   -0.57335   -0.95962
 46 N     0.09414   -0.12482    1.99551
 47 H     0.96380    0.76664   -1.23362

System changes: positions 

Initializing position-dependent things.

Density initialized from wave functions
       .-----------------------.  
      /|                       |  
     / |                       |  
    /  |                       |  
   /   |                       |  
  /    |                       |  
 *     |                       |  
 |     |                       |  
 |     |                       |  
 |     |                       |  
 |     |           H  H H      |  
 |     |             C         |  
 |     |       Li H    Li      |  
 |     |          H C  H       |  
 |   Li|     Li      Li        |  
 |     |  Li      LiLi  H Li   |  
 |  Li |    Li          N      |  
 |     |Li      Li   N  Li     |  
 |     |                 Li    |  
 |   LLi     LLi     LLi       |  
 |     |  Li      Li      Li   |  
 | Li  |   Li      Li          |  
 |     |Li      Li      Li     |  
 Li    | Li      Li            |  
 |    Li      Li      Li       |  
 |     |                       |  
 |     |                       |  
 |     |                       |  
 |     |                       |  
 |     |                       |  
 |     |                       |  
 |     .-----------------------.  
 |    /                       /   
 |   /                       /    
 |  /                       /     
 | /                       /      
 |/                       /       
 *-----------------------*        

Positions:
   0 Li     1.617037    1.617037   10.000000    ( 0.0000,  0.0000,  0.0000)
   1 Li     4.851111    1.617037   10.000000    ( 0.0000,  0.0000,  0.0000)
   2 Li     8.085185    1.617037   10.000000    ( 0.0000,  0.0000,  0.0000)
   3 Li     1.617037    4.851111   10.000000    ( 0.0000,  0.0000,  0.0000)
   4 Li     4.851111    4.851111   10.000000    ( 0.0000,  0.0000,  0.0000)
   5 Li     8.085185    4.851111   10.000000    ( 0.0000,  0.0000,  0.0000)
   6 Li     1.617037    8.085185   10.000000    ( 0.0000,  0.0000,  0.0000)
   7 Li     4.851111    8.085185   10.000000    ( 0.0000,  0.0000,  0.0000)
   8 Li     8.085185    8.085185   10.000000    ( 0.0000,  0.0000,  0.0000)
   9 Li     0.000000    0.000000   11.617037    ( 0.0000,  0.0000,  0.0000)
  10 Li     3.234074    0.000000   11.617037    ( 0.0000,  0.0000,  0.0000)
  11 Li     6.468148    0.000000   11.617037    ( 0.0000,  0.0000,  0.0000)
  12 Li     0.000000    3.234074   11.617037    ( 0.0000,  0.0000,  0.0000)
  13 Li     3.234074    3.234074   11.617037    ( 0.0000,  0.0000,  0.0000)
  14 Li     6.468148    3.234074   11.617037    ( 0.0000,  0.0000,  0.0000)
  15 Li     0.000000    6.468148   11.617037    ( 0.0000,  0.0000,  0.0000)
  16 Li     3.234074    6.468148   11.617037    ( 0.0000,  0.0000,  0.0000)
  17 Li     6.468148    6.468148   11.617037    ( 0.0000,  0.0000,  0.0000)
  18 Li     1.669995    1.645082   13.477349    ( 0.0000,  0.0000,  0.0000)
  19 Li     4.951989    1.584870   13.557371    ( 0.0000,  0.0000,  0.0000)
  20 Li     8.086137    1.597003   13.582052    ( 0.0000,  0.0000,  0.0000)
  21 Li     1.684252    4.864859   13.496883    ( 0.0000,  0.0000,  0.0000)
  22 Li     4.927812    4.798316   13.483656    ( 0.0000,  0.0000,  0.0000)
  23 Li     8.127134    4.755486   13.530357    ( 0.0000,  0.0000,  0.0000)
  24 Li     1.608096    8.103556   13.481217    ( 0.0000,  0.0000,  0.0000)
  25 Li     4.823358    7.990642   13.491406    ( 0.0000,  0.0000,  0.0000)
  26 Li     8.072928    8.027479   13.500752    ( 0.0000,  0.0000,  0.0000)
  27 Li    -0.104686    0.052821   15.422509    ( 0.0000,  0.0000,  0.0000)
  28 Li     3.186257   -0.030672   15.433554    ( 0.0000,  0.0000,  0.0000)
  29 Li     6.439904   -0.291793   15.451357    ( 0.0000,  0.0000,  0.0000)
  30 Li     0.241941    3.197344   15.471977    ( 0.0000,  0.0000,  0.0000)
  31 Li     3.423788    3.305843   15.449310    ( 0.0000,  0.0000,  0.0000)
  32 Li     6.904170    2.752821   16.071264    ( 0.0000,  0.0000,  0.0000)
  33 Li     0.058019    6.469059   15.410590    ( 0.0000,  0.0000,  0.0000)
  34 Li     3.232681    6.490276   15.473627    ( 0.0000,  0.0000,  0.0000)
  35 Li     6.402776    6.221775   15.484327    ( 0.0000,  0.0000,  0.0000)
  36 O      6.901137    2.759773   18.085163    ( 0.0000,  0.0000,  0.0000)
  37 C      7.435520    1.627136   18.820485    ( 0.0000,  0.0000,  0.0000)
  38 C      7.721590    1.956028   20.272284    ( 0.0000,  0.0000,  0.0000)
  39 H      6.754535    0.777111   18.724983    ( 0.0000,  0.0000,  0.0000)
  40 H      8.361675    1.372831   18.301722    ( 0.0000,  0.0000,  0.0000)
  41 H      8.146782    1.079467   20.767283    ( 0.0000,  0.0000,  0.0000)
  42 H      8.433896    2.778993   20.354244    ( 0.0000,  0.0000,  0.0000)
  43 H      6.806115    2.224687   20.805146    ( 0.0000,  0.0000,  0.0000)
  44 H      6.075401    3.037866   18.503434    ( 0.0000,  0.0000,  0.0000)
  45 N      7.728955    0.891001   15.453750    ( 0.0000,  0.0000,  0.0000)
  46 N      8.695591    1.851888   15.695736    ( 0.0000,  0.0000,  0.0000)
  47 H      8.743717    1.897683   16.712456    ( 0.0000,  0.0000,  0.0000)

Unit cell:
           periodic     x           y           z      points  spacing
  1. axis:    yes    9.702222    0.000000    0.000000    60     0.1617
  2. axis:    yes    0.000000    9.702222    0.000000    60     0.1617
  3. axis:    no     0.000000    0.000000   24.851111   156     0.1593

  Lengths:   9.702222   9.702222  24.851111
  Angles:   90.000000  90.000000  90.000000

Effective grid spacing dv^(1/3) = 0.1609

     iter     time        total  log10-change:
                         energy  eigst   dens
iter:   1 13:49:28  -313.804665  -0.74
iter:   2 13:50:11  -313.763964  -1.35  -1.72
iter:   3 13:50:59  -313.755098  -1.89  -1.99
iter:   4 13:51:50  -313.729284  -1.21  -2.21
Writing to output.gpw (mode='')

iter:   5 13:52:43  -313.729062c -1.99  -2.21
iter:   6 13:53:33  -313.727318c -2.22  -2.29
iter:   7 13:54:18  -313.727644c -2.25  -2.69
iter:   8 13:55:05  -313.727173c -2.75  -2.74
iter:   9 13:55:47  -313.727438c -2.53  -2.79
Writing to output.gpw (mode='')

iter:  10 13:56:32  -313.727231c -3.48  -2.95
iter:  11 13:57:23  -313.727230c -3.83  -3.03
iter:  12 13:58:09  -313.727430c -3.57  -3.03
iter:  13 13:58:49  -313.727386c -3.60  -2.92
iter:  14 13:59:31  -313.727014c -3.20  -3.04
Writing to output.gpw (mode='')

iter:  15 14:00:18  -313.727144c -3.81  -3.17
iter:  16 14:01:04  -313.727197c -3.52  -3.38
iter:  17 14:01:51  -313.727037c -3.96  -3.42
iter:  18 14:02:34  -313.727125c -4.69  -3.39
iter:  19 14:03:22  -313.727200c -4.23  -3.56
Writing to output.gpw (mode='')

iter:  20 14:04:06  -313.727158c -4.50  -3.69
iter:  21 14:04:52  -313.727151c -4.97  -3.86
iter:  22 14:05:42  -313.727154c -5.31  -3.93
iter:  23 14:06:28  -313.727145c -5.46  -4.06c
iter:  24 14:07:16  -313.727133c -5.49  -4.17c
Writing to output.gpw (mode='')

iter:  25 14:07:57  -313.727132c -5.84  -4.36c
iter:  26 14:08:39  -313.727129c -5.95  -4.44c
iter:  27 14:09:29  -313.727124c -6.05  -4.54c
iter:  28 14:10:16  -313.727122c -6.15  -4.60c
iter:  29 14:10:59  -313.727125c -6.37  -4.63c
Writing to output.gpw (mode='')

iter:  30 14:11:51  -313.727126c -6.56  -4.66c
iter:  31 14:12:37  -313.727132c -6.58  -4.70c
iter:  32 14:13:25  -313.727133c -6.64  -4.94c
iter:  33 14:14:17  -313.727132c -6.83  -5.01c
iter:  34 14:14:59  -313.727131c -6.90  -5.12c
Writing to output.gpw (mode='')

iter:  35 14:15:42  -313.727130c -6.97  -5.24c
iter:  36 14:16:29  -313.727130c -7.10  -5.38c
iter:  37 14:17:13  -313.727130c -7.35  -5.44c
iter:  38 14:17:54  -313.727130c -7.34  -5.44c
iter:  39 14:18:35  -313.727130c -7.50c -5.51c

Converged after 39 iterations.

Dipole moment: (-2.990422, -1.249224, 0.429699) |e|*Ang

Energy contributions relative to reference atoms: (reference = -14447.344205)

Kinetic:       +154.352249
Potential:     -145.196417
External:        +0.000000
XC:            -323.594291
Entropy (-ST):   -0.153369
Local:           +0.788014
--------------------------
Free energy:   -313.803814
Extrapolated:  -313.727130

Dipole-layer corrected work functions: 3.386445, 2.560417 eV

Showing only first 2 kpts
 Kpt  Band  Eigenvalues  Occupancy
  0    31     -3.23300    1.98893
  0    32     -3.09101    1.82613
  0    33     -2.95481    0.81593
  0    34     -2.87369    0.23948

  1    31     -3.24338    1.99100
  1    32     -3.21428    1.98395
  1    33     -2.92578    0.55653
  1    34     -2.84372    0.13902


Fermi level: -2.97343

No gap
Writing to output.gpw (mode='')


Forces in eV/Ang:
  0 Li   -0.00760    0.00767   -0.29091
  1 Li   -0.00390    0.00473   -0.26851
  2 Li    0.00219    0.00979   -0.22856
  3 Li   -0.00475    0.00605   -0.28549
  4 Li   -0.01523    0.02187   -0.27755
  5 Li   -0.00219   -0.00098   -0.28770
  6 Li    0.00996   -0.00342   -0.27949
  7 Li   -0.01811   -0.00836   -0.27496
  8 Li   -0.00485    0.00163   -0.27317
  9 Li    0.00833    0.00966    0.25921
 10 Li    0.05180    0.02052    0.32029
 11 Li   -0.00167   -0.02749    0.24955
 12 Li   -0.00229   -0.03426    0.26355
 13 Li    0.04916   -0.02551    0.28878
 14 Li    0.03614   -0.02381    0.21281
 15 Li   -0.00200   -0.02717    0.30103
 16 Li    0.01227   -0.03835    0.25758
 17 Li    0.05422   -0.01690    0.28633
 18 Li    0.09230   -0.02582   -0.02627
 19 Li    0.00584    0.02222    0.02814
 20 Li   -0.00440   -0.00362    0.41676
 21 Li    0.02339    0.01925   -0.01973
 22 Li   -0.01430   -0.01264    0.00856
 23 Li   -0.02548    0.08280   -0.01338
 24 Li    0.01137   -0.00754   -0.01437
 25 Li   -0.05096   -0.03289   -0.03754
 26 Li    0.01075    0.05399    0.03881
 27 Li   -0.23631    0.03858   -0.06194
 28 Li   -0.02800   -0.01471   -0.02306
 29 Li   -0.21579   -0.17979    0.01292
 30 Li    0.14592    0.18382   -0.13957
 31 Li   -0.01059    0.02680   -0.01383
 32 Li   -0.16194   -0.16449   -0.21105
 33 Li    0.01132   -0.00685    0.00459
 34 Li   -0.00374   -0.00605    0.00226
 35 Li   -0.00605   -0.00139   -0.02374
 36 O    -0.01469    0.00460    0.02630
 37 C    -0.06040   -0.00245    0.06384
 38 C    -0.01294    0.00416    0.03148
 39 H    -0.02778   -0.01219    0.00674
 40 H    -0.05645   -0.07260    0.14414
 41 H     0.00479   -0.00513    0.00518
 42 H    -0.01785    0.01593    0.00465
 43 H    -0.00416    0.03067    0.01109
 44 H    -0.03925    0.02114   -0.01087
 45 N    -0.13909   -0.09484   -0.45849
 46 N    -0.06407   -0.15495   -0.28708
 47 H     0.64202    0.46149    0.58608

System changes: positions 

Initializing position-dependent things.

Density initialized from wave functions
       .-----------------------.  
      /|                       |  
     / |                       |  
    /  |                       |  
   /   |                       |  
  /    |                       |  
 *     |                       |  
 |     |                       |  
 |     |                       |  
 |     |                       |  
 |     |           H  H H      |  
 |     |             C         |  
 |     |       Li H    Li      |  
 |     |          H C  H       |  
 |   Li|     Li      Li        |  
 |     |  Li      LiLi  H Li   |  
 |  Li |    Li          N      |  
 |     |Li      Li   N  Li     |  
 |     |                 Li    |  
 |   LLi     LLi     LLi       |  
 |     |  Li      Li      Li   |  
 | Li  |   Li      Li          |  
 |     |Li      Li      Li     |  
 Li    | Li      Li            |  
 |    Li      Li      Li       |  
 |     |                       |  
 |     |                       |  
 |     |                       |  
 |     |                       |  
 |     |                       |  
 |     |                       |  
 |     .-----------------------.  
 |    /                       /   
 |   /                       /    
 |  /                       /     
 | /                       /      
 |/                       /       
 *-----------------------*        

Positions:
   0 Li     1.617037    1.617037   10.000000    ( 0.0000,  0.0000,  0.0000)
   1 Li     4.851111    1.617037   10.000000    ( 0.0000,  0.0000,  0.0000)
   2 Li     8.085185    1.617037   10.000000    ( 0.0000,  0.0000,  0.0000)
   3 Li     1.617037    4.851111   10.000000    ( 0.0000,  0.0000,  0.0000)
   4 Li     4.851111    4.851111   10.000000    ( 0.0000,  0.0000,  0.0000)
   5 Li     8.085185    4.851111   10.000000    ( 0.0000,  0.0000,  0.0000)
   6 Li     1.617037    8.085185   10.000000    ( 0.0000,  0.0000,  0.0000)
   7 Li     4.851111    8.085185   10.000000    ( 0.0000,  0.0000,  0.0000)
   8 Li     8.085185    8.085185   10.000000    ( 0.0000,  0.0000,  0.0000)
   9 Li     0.000000    0.000000   11.617037    ( 0.0000,  0.0000,  0.0000)
  10 Li     3.234074    0.000000   11.617037    ( 0.0000,  0.0000,  0.0000)
  11 Li     6.468148    0.000000   11.617037    ( 0.0000,  0.0000,  0.0000)
  12 Li     0.000000    3.234074   11.617037    ( 0.0000,  0.0000,  0.0000)
  13 Li     3.234074    3.234074   11.617037    ( 0.0000,  0.0000,  0.0000)
  14 Li     6.468148    3.234074   11.617037    ( 0.0000,  0.0000,  0.0000)
  15 Li     0.000000    6.468148   11.617037    ( 0.0000,  0.0000,  0.0000)
  16 Li     3.234074    6.468148   11.617037    ( 0.0000,  0.0000,  0.0000)
  17 Li     6.468148    6.468148   11.617037    ( 0.0000,  0.0000,  0.0000)
  18 Li     1.671833    1.644559   13.476833    ( 0.0000,  0.0000,  0.0000)
  19 Li     4.952091    1.585314   13.557926    ( 0.0000,  0.0000,  0.0000)
  20 Li     8.085975    1.596845   13.590473    ( 0.0000,  0.0000,  0.0000)
  21 Li     1.684718    4.865239   13.496490    ( 0.0000,  0.0000,  0.0000)
  22 Li     4.927526    4.798056   13.483831    ( 0.0000,  0.0000,  0.0000)
  23 Li     8.126621    4.757132   13.530100    ( 0.0000,  0.0000,  0.0000)
  24 Li     1.608319    8.103406   13.480931    ( 0.0000,  0.0000,  0.0000)
  25 Li     4.822343    7.989988   13.490659    ( 0.0000,  0.0000,  0.0000)
  26 Li     8.073139    8.028542   13.501520    ( 0.0000,  0.0000,  0.0000)
  27 Li    -0.109374    0.053539   15.421266    ( 0.0000,  0.0000,  0.0000)
  28 Li     3.185704   -0.030959   15.433093    ( 0.0000,  0.0000,  0.0000)
  29 Li     6.435810   -0.295208   15.451618    ( 0.0000,  0.0000,  0.0000)
  30 Li     0.245023    3.201185   15.469318    ( 0.0000,  0.0000,  0.0000)
  31 Li     3.423576    3.306371   15.449034    ( 0.0000,  0.0000,  0.0000)
  32 Li     6.900878    2.749607   16.067006    ( 0.0000,  0.0000,  0.0000)
  33 Li     0.058238    6.468927   15.410683    ( 0.0000,  0.0000,  0.0000)
  34 Li     3.232610    6.490161   15.473670    ( 0.0000,  0.0000,  0.0000)
  35 Li     6.402659    6.221752   15.483853    ( 0.0000,  0.0000,  0.0000)
  36 O      6.900810    2.759860   18.085809    ( 0.0000,  0.0000,  0.0000)
  37 C      7.434592    1.627068   18.821625    ( 0.0000,  0.0000,  0.0000)
  38 C      7.721323    1.956115   20.272940    ( 0.0000,  0.0000,  0.0000)
  39 H      6.753927    0.776797   18.725080    ( 0.0000,  0.0000,  0.0000)
  40 H      8.360311    1.371435   18.304830    ( 0.0000,  0.0000,  0.0000)
  41 H      8.146888    1.079341   20.767365    ( 0.0000,  0.0000,  0.0000)
  42 H      8.433542    2.779334   20.354330    ( 0.0000,  0.0000,  0.0000)
  43 H      6.806079    2.225297   20.805304    ( 0.0000,  0.0000,  0.0000)
  44 H      6.074605    3.038317   18.503175    ( 0.0000,  0.0000,  0.0000)
  45 N      7.725324    0.888155   15.442719    ( 0.0000,  0.0000,  0.0000)
  46 N      8.694189    1.848295   15.699824    ( 0.0000,  0.0000,  0.0000)
  47 H      8.757665    1.907965   16.715956    ( 0.0000,  0.0000,  0.0000)

Unit cell:
           periodic     x           y           z      points  spacing
  1. axis:    yes    9.702222    0.000000    0.000000    60     0.1617
  2. axis:    yes    0.000000    9.702222    0.000000    60     0.1617
  3. axis:    no     0.000000    0.000000   24.851111   156     0.1593

  Lengths:   9.702222   9.702222  24.851111
  Angles:   90.000000  90.000000  90.000000

Effective grid spacing dv^(1/3) = 0.1609

     iter     time        total  log10-change:
                         energy  eigst   dens
iter:   1 14:19:34  -313.756038  -1.79
iter:   2 14:20:18  -313.756040  -2.53  -2.56
iter:   3 14:21:08  -313.755608c -2.69  -2.73
iter:   4 14:21:56  -313.755693c -2.88  -2.83
Writing to output.gpw (mode='')

iter:   5 14:22:48  -313.755452c -3.14  -2.96
iter:   6 14:23:31  -313.755197c -3.18  -2.87
iter:   7 14:24:15  -313.755298c -3.49  -3.19
iter:   8 14:25:06  -313.755263c -3.75  -3.34
iter:   9 14:25:50  -313.755288c -3.94  -3.47
Writing to output.gpw (mode='')

iter:  10 14:26:31  -313.755278c -4.42  -3.46
iter:  11 14:27:16  -313.755273c -4.57  -3.62
iter:  12 14:28:00  -313.755260c -4.91  -3.79
iter:  13 14:28:44  -313.755271c -5.04  -3.84
iter:  14 14:29:33  -313.755285c -5.09  -3.94
Writing to output.gpw (mode='')

iter:  15 14:30:21  -313.755281c -5.58  -4.04c
iter:  16 14:31:12  -313.755281c -5.53  -4.19c
iter:  17 14:31:58  -313.755283c -5.77  -4.29c
iter:  18 14:32:42  -313.755275c -5.95  -4.38c
iter:  19 14:33:26  -313.755269c -6.02  -4.55c
Writing to output.gpw (mode='')

iter:  20 14:34:18  -313.755273c -6.48  -4.59c
iter:  21 14:34:58  -313.755275c -6.68  -4.66c
iter:  22 14:35:41  -313.755274c -6.73  -4.86c
iter:  23 14:36:31  -313.755274c -6.99  -4.94c
iter:  24 14:37:11  -313.755273c -7.12  -4.97c
Writing to output.gpw (mode='')

iter:  25 14:37:52  -313.755274c -7.35  -4.97c
iter:  26 14:38:34  -313.755275c -7.44c -5.04c

Converged after 26 iterations.

Dipole moment: (-2.942429, -1.236530, 0.427389) |e|*Ang

Energy contributions relative to reference atoms: (reference = -14447.344205)

Kinetic:       +154.095905
Potential:     -144.997748
External:        +0.000000
XC:            -323.564836
Entropy (-ST):   -0.153518
Local:           +0.788163
--------------------------
Free energy:   -313.832034
Extrapolated:  -313.755275

Dipole-layer corrected work functions: 3.386442, 2.564854 eV

Showing only first 2 kpts
 Kpt  Band  Eigenvalues  Occupancy
  0    31     -3.23531    1.98895
  0    32     -3.09332    1.82643
  0    33     -2.95710    0.81663
  0    34     -2.87666    0.24269

  1    31     -3.24402    1.99071
  1    32     -3.21515    1.98351
  1    33     -2.92777    0.55470
  1    34     -2.84687    0.14145


Fermi level: -2.97565

No gap
Writing to output.gpw (mode='')


Forces in eV/Ang:
  0 Li   -0.00756    0.00755   -0.29097
  1 Li   -0.00382    0.00461   -0.26861
  2 Li    0.00201    0.00958   -0.22915
  3 Li   -0.00474    0.00602   -0.28544
  4 Li   -0.01524    0.02182   -0.27732
  5 Li   -0.00227   -0.00104   -0.28788
  6 Li    0.01003   -0.00348   -0.27926
  7 Li   -0.01817   -0.00840   -0.27508
  8 Li   -0.00498    0.00174   -0.27314
  9 Li    0.00733    0.01075    0.26015
 10 Li    0.05231    0.02057    0.32003
 11 Li   -0.00135   -0.02669    0.24950
 12 Li   -0.00321   -0.03504    0.26560
 13 Li    0.04924   -0.02510    0.28850
 14 Li    0.03726   -0.02487    0.21436
 15 Li   -0.00205   -0.02683    0.30127
 16 Li    0.01230   -0.03875    0.25625
 17 Li    0.05432   -0.01616    0.28678
 18 Li    0.09014   -0.02519   -0.02584
 19 Li    0.00631    0.02153    0.02801
 20 Li    0.00784    0.01731    0.36921
 21 Li    0.02398    0.02042   -0.02055
 22 Li   -0.01426   -0.01198    0.00777
 23 Li   -0.02501    0.08181   -0.01439
 24 Li    0.01104   -0.00780   -0.01419
 25 Li   -0.05121   -0.03330   -0.03754
 26 Li    0.01019    0.05388    0.03867
 27 Li   -0.22597    0.03109   -0.06048
 28 Li   -0.02908   -0.01510   -0.02263
 29 Li   -0.22019   -0.18140    0.01483
 30 Li    0.10410    0.14025   -0.13678
 31 Li   -0.01014    0.02704   -0.01357
 32 Li   -0.14608   -0.17264   -0.19552
 33 Li    0.01199   -0.00636    0.00410
 34 Li   -0.00353   -0.00622    0.00241
 35 Li   -0.00666   -0.00247   -0.02358
 36 O    -0.01581    0.00128    0.01454
 37 C    -0.07720   -0.00305    0.06503
 38 C    -0.01545    0.00510    0.03111
 39 H    -0.03301   -0.00831    0.01531
 40 H    -0.03539   -0.07031    0.11330
 41 H     0.00247   -0.00151    0.00853
 42 H    -0.01774    0.01182    0.00373
 43 H    -0.00957    0.03053    0.02265
 44 H    -0.03407    0.01673   -0.00958
 45 N    -0.00214    0.03999   -0.23471
 46 N    -0.01018   -0.12363   -0.42956
 47 H     0.50786    0.33994    0.54740

System changes: positions 

Initializing position-dependent things.

Density initialized from wave functions
       .-----------------------.  
      /|                       |  
     / |                       |  
    /  |                       |  
   /   |                       |  
  /    |                       |  
 *     |                       |  
 |     |                       |  
 |     |                       |  
 |     |                       |  
 |     |           H CH H      |  
 |     |                       |  
 |     |       Li H    Li      |  
 |     |          H C  H       |  
 |   Li|     Li      Li        |  
 |     |  Li      LiLi  H Li   |  
 |  Li |    Li          N      |  
 |     |Li      Li   N  Li     |  
 |     |                 Li    |  
 |   LLi     LLi     LLi       |  
 |     |  Li      Li      Li   |  
 | Li  |   Li      Li          |  
 |     |Li      Li      Li     |  
 Li    | Li      Li            |  
 |    Li      Li      Li       |  
 |     |                       |  
 |     |                       |  
 |     |                       |  
 |     |                       |  
 |     |                       |  
 |     |                       |  
 |     .-----------------------.  
 |    /                       /   
 |   /                       /    
 |  /                       /     
 | /                       /      
 |/                       /       
 *-----------------------*        

Positions:
   0 Li     1.617037    1.617037   10.000000    ( 0.0000,  0.0000,  0.0000)
   1 Li     4.851111    1.617037   10.000000    ( 0.0000,  0.0000,  0.0000)
   2 Li     8.085185    1.617037   10.000000    ( 0.0000,  0.0000,  0.0000)
   3 Li     1.617037    4.851111   10.000000    ( 0.0000,  0.0000,  0.0000)
   4 Li     4.851111    4.851111   10.000000    ( 0.0000,  0.0000,  0.0000)
   5 Li     8.085185    4.851111   10.000000    ( 0.0000,  0.0000,  0.0000)
   6 Li     1.617037    8.085185   10.000000    ( 0.0000,  0.0000,  0.0000)
   7 Li     4.851111    8.085185   10.000000    ( 0.0000,  0.0000,  0.0000)
   8 Li     8.085185    8.085185   10.000000    ( 0.0000,  0.0000,  0.0000)
   9 Li     0.000000    0.000000   11.617037    ( 0.0000,  0.0000,  0.0000)
  10 Li     3.234074    0.000000   11.617037    ( 0.0000,  0.0000,  0.0000)
  11 Li     6.468148    0.000000   11.617037    ( 0.0000,  0.0000,  0.0000)
  12 Li     0.000000    3.234074   11.617037    ( 0.0000,  0.0000,  0.0000)
  13 Li     3.234074    3.234074   11.617037    ( 0.0000,  0.0000,  0.0000)
  14 Li     6.468148    3.234074   11.617037    ( 0.0000,  0.0000,  0.0000)
  15 Li     0.000000    6.468148   11.617037    ( 0.0000,  0.0000,  0.0000)
  16 Li     3.234074    6.468148   11.617037    ( 0.0000,  0.0000,  0.0000)
  17 Li     6.468148    6.468148   11.617037    ( 0.0000,  0.0000,  0.0000)
  18 Li     1.676512    1.643228   13.475508    ( 0.0000,  0.0000,  0.0000)
  19 Li     4.952371    1.586437   13.559355    ( 0.0000,  0.0000,  0.0000)
  20 Li     8.086013    1.597229   13.610431    ( 0.0000,  0.0000,  0.0000)
  21 Li     1.685947    4.866265   13.495439    ( 0.0000,  0.0000,  0.0000)
  22 Li     4.926787    4.797408   13.484255    ( 0.0000,  0.0000,  0.0000)
  23 Li     8.125309    4.761361   13.529391    ( 0.0000,  0.0000,  0.0000)
  24 Li     1.608883    8.103010   13.480197    ( 0.0000,  0.0000,  0.0000)
  25 Li     4.819707    7.988280   13.488725    ( 0.0000,  0.0000,  0.0000)
  26 Li     8.073667    8.031286   13.503502    ( 0.0000,  0.0000,  0.0000)
  27 Li    -0.121094    0.055106   15.418104    ( 0.0000,  0.0000,  0.0000)
  28 Li     3.184234   -0.031714   15.431917    ( 0.0000,  0.0000,  0.0000)
  29 Li     6.425078   -0.304076   15.452372    ( 0.0000,  0.0000,  0.0000)
  30 Li     0.251396    3.209454   15.462526    ( 0.0000,  0.0000,  0.0000)
  31 Li     3.423044    3.307747   15.448327    ( 0.0000,  0.0000,  0.0000)
  32 Li     6.892944    2.741007   16.056577    ( 0.0000,  0.0000,  0.0000)
  33 Li     0.058828    6.468605   15.410908    ( 0.0000,  0.0000,  0.0000)
  34 Li     3.232434    6.489858   15.473788    ( 0.0000,  0.0000,  0.0000)
  35 Li     6.402337    6.221651   15.482631    ( 0.0000,  0.0000,  0.0000)
  36 O      6.899949    2.759961   18.087005    ( 0.0000,  0.0000,  0.0000)
  37 C      7.431263    1.626876   18.824772    ( 0.0000,  0.0000,  0.0000)
  38 C      7.720571    1.956363   20.274598    ( 0.0000,  0.0000,  0.0000)
  39 H      6.752203    0.776175   18.725661    ( 0.0000,  0.0000,  0.0000)
  40 H      8.357753    1.367885   18.311591    ( 0.0000,  0.0000,  0.0000)
  41 H      8.147072    1.079158   20.767708    ( 0.0000,  0.0000,  0.0000)
  42 H      8.432630    2.780062   20.354526    ( 0.0000,  0.0000,  0.0000)
  43 H      6.805769    2.226874   20.806147    ( 0.0000,  0.0000,  0.0000)
  44 H      6.072741    3.039304   18.502567    ( 0.0000,  0.0000,  0.0000)
  45 N      7.720268    0.885112   15.422588    ( 0.0000,  0.0000,  0.0000)
  46 N      8.692930    1.840824   15.701108    ( 0.0000,  0.0000,  0.0000)
  47 H      8.788870    1.930129   16.727574    ( 0.0000,  0.0000,  0.0000)

Unit cell:
           periodic     x           y           z      points  spacing
  1. axis:    yes    9.702222    0.000000    0.000000    60     0.1617
  2. axis:    yes    0.000000    9.702222    0.000000    60     0.1617
  3. axis:    no     0.000000    0.000000   24.851111   156     0.1593

  Lengths:   9.702222   9.702222  24.851111
  Angles:   90.000000  90.000000  90.000000

Effective grid spacing dv^(1/3) = 0.1609

     iter     time        total  log10-change:
                         energy  eigst   dens
iter:   1 14:39:29  -313.807304  -1.16
iter:   2 14:40:09  -313.804790  -1.94  -2.26
iter:   3 14:41:02  -313.800126c -2.06  -2.31
iter:   4 14:41:44  -313.799701c -2.14  -2.56
Writing to output.gpw (mode='')

iter:   5 14:42:24  -313.799813c -2.60  -2.62
iter:   6 14:43:10  -313.797790c -2.46  -2.53
iter:   7 14:44:01  -313.797931c -2.96  -2.91
iter:   8 14:44:47  -313.797631c -3.03  -3.01
iter:   9 14:45:34  -313.797726c -3.44  -3.05
Writing to output.gpw (mode='')

iter:  10 14:46:25  -313.797717c -3.69  -3.17
iter:  11 14:47:11  -313.797720c -4.05  -3.26
iter:  12 14:48:01  -313.797697c -4.28  -3.31
iter:  13 14:48:38  -313.797830c -3.93  -3.48
iter:  14 14:49:21  -313.797794c -4.31  -3.51
Writing to output.gpw (mode='')

iter:  15 14:50:01  -313.797771c -4.49  -3.56
iter:  16 14:50:44  -313.797767c -4.80  -3.71
iter:  17 14:51:31  -313.797748c -5.14  -3.82
iter:  18 14:52:14  -313.797744c -5.30  -3.97
iter:  19 14:53:02  -313.797742c -5.87  -4.07c
Writing to output.gpw (mode='')

iter:  20 14:53:42  -313.797737c -5.80  -4.08c
iter:  21 14:54:28  -313.797736c -5.91  -4.24c
iter:  22 14:55:15  -313.797737c -5.98  -4.31c
iter:  23 14:56:04  -313.797736c -6.07  -4.51c
iter:  24 14:56:46  -313.797736c -6.37  -4.66c
Writing to output.gpw (mode='')

iter:  25 14:57:39  -313.797735c -6.51  -4.68c
iter:  26 14:58:22  -313.797734c -6.78  -4.92c
iter:  27 14:59:07  -313.797735c -7.03  -4.94c
iter:  28 15:00:02  -313.797735c -7.02  -5.00c
iter:  29 15:00:43  -313.797736c -7.25  -5.10c
Writing to output.gpw (mode='')

iter:  30 15:01:23  -313.797736c -7.32  -5.26c
iter:  31 15:02:07  -313.797736c -7.83c -5.39c

Converged after 31 iterations.

Dipole moment: (-2.801442, -1.191572, 0.421908) |e|*Ang

Energy contributions relative to reference atoms: (reference = -14447.344205)

Kinetic:       +153.202461
Potential:     -144.324249
External:        +0.000000
XC:            -323.386977
Entropy (-ST):   -0.153781
Local:           +0.787919
--------------------------
Free energy:   -313.874627
[...]

Energy contributions relative to reference atoms: (reference = -14447.344205)

Kinetic:       +152.105722
Potential:     -143.624474
External:        +0.000000
XC:            -323.272817
Entropy (-ST):   -0.151210
Local:           +0.793353
--------------------------
Free energy:   -314.149427
Extrapolated:  -314.073822

Dipole-layer corrected work functions: 3.385071, 2.590156 eV

Showing only first 2 kpts
 Kpt  Band  Eigenvalues  Occupancy
  0    31     -3.24007    1.98725
  0    32     -3.10829    1.83571
  0    33     -2.96696    0.79631
  0    34     -2.89626    0.27720

  1    31     -3.28280    1.99456
  1    32     -3.23860    1.98687
  1    33     -2.92807    0.46617
  1    34     -2.84770    0.11483


Fermi level: -2.98761

No gap
Writing to output.gpw (mode='')


Forces in eV/Ang:
  0 Li   -0.00071    0.00361   -0.29499
  1 Li   -0.00704    0.00407   -0.27637
  2 Li    0.00138    0.00321   -0.25981
  3 Li    0.00342    0.01091   -0.27981
  4 Li   -0.01167    0.02389   -0.26932
  5 Li    0.00079    0.00184   -0.29357
  6 Li    0.01725   -0.00391   -0.27333
  7 Li   -0.01333   -0.00456   -0.28076
  8 Li   -0.00194   -0.00333   -0.27411
  9 Li   -0.05273    0.06155    0.31662
 10 Li    0.05828   -0.00580    0.29456
 11 Li    0.02724    0.02340    0.30420
 12 Li   -0.03443   -0.06152    0.35222
 13 Li    0.03009   -0.04707    0.26536
 14 Li    0.06317   -0.07227    0.27418
 15 Li   -0.01436    0.01084    0.26299
 16 Li    0.00946   -0.02839    0.21231
 17 Li    0.01258    0.00800    0.26239
 18 Li   -0.01093   -0.00017    0.00309
 19 Li    0.00757   -0.00175    0.00170
 20 Li   -0.00408   -0.00212    0.00053
 21 Li   -0.01144   -0.00634    0.00498
 22 Li   -0.00170    0.00368    0.00657
 23 Li   -0.00754    0.00167    0.00524
 24 Li    0.00434    0.00550    0.00057
 25 Li   -0.01074    0.00221   -0.00077
 26 Li   -0.00831   -0.00163    0.00543
 27 Li    0.01526   -0.01579    0.00634
 28 Li    0.00429    0.01315    0.00710
 29 Li    0.00455   -0.00033    0.00816
 30 Li    0.01277    0.00187   -0.01000
 31 Li   -0.00956   -0.00189   -0.00583
 32 Li   -0.00932    0.00368   -0.02297
 33 Li    0.00436   -0.00723   -0.00394
 34 Li    0.00471   -0.00006   -0.00558
 35 Li    0.00736    0.00696    0.00426
 36 O     0.01464   -0.00108    0.00377
 37 C     0.00626    0.00282   -0.01837
 38 C    -0.02416    0.01972   -0.01909
 39 H    -0.02533   -0.01451    0.00494
 40 H    -0.00245   -0.03437   -0.02913
 41 H     0.03880    0.03164   -0.00772
 42 H    -0.01367   -0.01929    0.03202
 43 H     0.00239    0.01237    0.00520
 44 H     0.00327    0.01344   -0.01769
 45 N     0.00757   -0.00767    0.01037
 46 N     0.00406   -0.03009    0.00464
 47 H    -0.03152    0.00463   -0.00231

System changes: positions 

Initializing position-dependent things.

Density initialized from wave functions
       .-----------------------.  
      /|                       |  
     / |                       |  
    /  |                       |  
   /   |                       |  
  /    |                       |  
 *     |                       |  
 |     |                       |  
 |     |                       |  
 |     |           H           |  
 |     |            CH H       |  
 |     |                       |  
 |     |       LHHC    Li      |  
 |     |          O H          |  
 |   Li|     Li      Li        |  
 |     |  Li      LLi   H Li   |  
 | Li  |   Li           N      |  
 |     |Li      Li   N  Li     |  
 |     |                Li     |  
 |   LLi     LLi     LLi       |  
 |     |  Li      Li      Li   |  
 | Li  |   Li      Li          |  
 |     |Li      Li      Li     |  
 Li    | Li      Li            |  
 |    Li      Li      Li       |  
 |     |                       |  
 |     |                       |  
 |     |                       |  
 |     |                       |  
 |     |                       |  
 |     |                       |  
 |     .-----------------------.  
 |    /                       /   
 |   /                       /    
 |  /                       /     
 | /                       /      
 |/                       /       
 *-----------------------*        

Positions:
   0 Li     1.617037    1.617037   10.000000    ( 0.0000,  0.0000,  0.0000)
   1 Li     4.851111    1.617037   10.000000    ( 0.0000,  0.0000,  0.0000)
   2 Li     8.085185    1.617037   10.000000    ( 0.0000,  0.0000,  0.0000)
   3 Li     1.617037    4.851111   10.000000    ( 0.0000,  0.0000,  0.0000)
   4 Li     4.851111    4.851111   10.000000    ( 0.0000,  0.0000,  0.0000)
   5 Li     8.085185    4.851111   10.000000    ( 0.0000,  0.0000,  0.0000)
   6 Li     1.617037    8.085185   10.000000    ( 0.0000,  0.0000,  0.0000)
   7 Li     4.851111    8.085185   10.000000    ( 0.0000,  0.0000,  0.0000)
   8 Li     8.085185    8.085185   10.000000    ( 0.0000,  0.0000,  0.0000)
   9 Li     0.000000    0.000000   11.617037    ( 0.0000,  0.0000,  0.0000)
  10 Li     3.234074    0.000000   11.617037    ( 0.0000,  0.0000,  0.0000)
  11 Li     6.468148    0.000000   11.617037    ( 0.0000,  0.0000,  0.0000)
  12 Li     0.000000    3.234074   11.617037    ( 0.0000,  0.0000,  0.0000)
  13 Li     3.234074    3.234074   11.617037    ( 0.0000,  0.0000,  0.0000)
  14 Li     6.468148    3.234074   11.617037    ( 0.0000,  0.0000,  0.0000)
  15 Li     0.000000    6.468148   11.617037    ( 0.0000,  0.0000,  0.0000)
  16 Li     3.234074    6.468148   11.617037    ( 0.0000,  0.0000,  0.0000)
  17 Li     6.468148    6.468148   11.617037    ( 0.0000,  0.0000,  0.0000)
  18 Li     1.698375    1.613318   13.459949    ( 0.0000,  0.0000,  0.0000)
  19 Li     4.899804    1.559593   13.562164    ( 0.0000,  0.0000,  0.0000)
  20 Li     8.057370    1.675870   13.892533    ( 0.0000,  0.0000,  0.0000)
  21 Li     1.688101    4.901726   13.446665    ( 0.0000,  0.0000,  0.0000)
  22 Li     4.887025    4.754330   13.461160    ( 0.0000,  0.0000,  0.0000)
  23 Li     8.091366    4.871657   13.441151    ( 0.0000,  0.0000,  0.0000)
  24 Li     1.581536    8.097390   13.454933    ( 0.0000,  0.0000,  0.0000)
  25 Li     4.800491    7.957397   13.477303    ( 0.0000,  0.0000,  0.0000)
  26 Li     8.054749    8.076506   13.509419    ( 0.0000,  0.0000,  0.0000)
  27 Li    -0.220265    0.050021   15.487460    ( 0.0000,  0.0000,  0.0000)
  28 Li     3.122641   -0.113181   15.397473    ( 0.0000,  0.0000,  0.0000)
  29 Li     6.419392   -0.346242   15.550677    ( 0.0000,  0.0000,  0.0000)
  30 Li     0.113541    3.306246   15.335832    ( 0.0000,  0.0000,  0.0000)
  31 Li     3.329890    3.318148   15.407661    ( 0.0000,  0.0000,  0.0000)
  32 Li     6.709219    2.551097   16.151002    ( 0.0000,  0.0000,  0.0000)
  33 Li     0.067771    6.513357   15.384633    ( 0.0000,  0.0000,  0.0000)
  34 Li     3.221437    6.454711   15.467926    ( 0.0000,  0.0000,  0.0000)
  35 Li     6.372352    6.172665   15.427538    ( 0.0000,  0.0000,  0.0000)
  36 O      6.308284    2.731482   18.086097    ( 0.0000,  0.0000,  0.0000)
  37 C      6.597590    1.700928   19.064236    ( 0.0000,  0.0000,  0.0000)
  38 C      7.282747    2.251432   20.303981    ( 0.0000,  0.0000,  0.0000)
  39 H      5.670177    1.178987   19.320241    ( 0.0000,  0.0000,  0.0000)
  40 H      7.242862    0.999722   18.534554    ( 0.0000,  0.0000,  0.0000)
  41 H      7.528425    1.430014   20.982150    ( 0.0000,  0.0000,  0.0000)
  42 H      8.203276    2.774747   20.035885    ( 0.0000,  0.0000,  0.0000)
  43 H      6.634310    2.944293   20.846428    ( 0.0000,  0.0000,  0.0000)
  44 H      5.617276    3.318629   18.421105    ( 0.0000,  0.0000,  0.0000)
  45 N      7.705190    0.870576   15.697180    ( 0.0000,  0.0000,  0.0000)
  46 N      8.670611    1.883052   15.837733    ( 0.0000,  0.0000,  0.0000)
  47 H      8.949013    1.992589   16.832650    ( 0.0000,  0.0000,  0.0000)

Unit cell:
           periodic     x           y           z      points  spacing
  1. axis:    yes    9.702222    0.000000    0.000000    60     0.1617
  2. axis:    yes    0.000000    9.702222    0.000000    60     0.1617
  3. axis:    no     0.000000    0.000000   24.851111   156     0.1593

  Lengths:   9.702222   9.702222  24.851111
  Angles:   90.000000  90.000000  90.000000

Effective grid spacing dv^(1/3) = 0.1609

     iter     time        total  log10-change:
                         energy  eigst   dens
iter:   1 04:36:55  -314.078799  -1.78
iter:   2 04:37:55  -314.076554  -2.57  -2.30
iter:   3 04:38:43  -314.075877c -3.20  -2.55
iter:   4 04:39:31  -314.075183c -3.63  -2.68
Writing to output.gpw (mode='')

iter:   5 04:40:21  -314.074593c -3.42  -2.82
iter:   6 04:41:19  -314.074285c -3.02  -3.04
iter:   7 04:42:18  -314.074330c -3.85  -3.16
iter:   8 04:43:17  -314.074466c -4.40  -3.24
iter:   9 04:44:06  -314.074450c -4.07  -3.48
Writing to output.gpw (mode='')

iter:  10 04:44:55  -314.074411c -4.48  -3.42
iter:  11 04:45:46  -314.074478c -4.25  -3.64
iter:  12 04:46:34  -314.074454c -5.28  -3.82
iter:  13 04:47:27  -314.074465c -5.52  -3.94
iter:  14 04:48:20  -314.074487c -5.34  -4.05c
Writing to output.gpw (mode='')

iter:  15 04:49:16  -314.074485c -5.75  -4.20c
iter:  16 04:50:08  -314.074467c -5.88  -4.24c
iter:  17 04:51:04  -314.074479c -6.11  -4.37c
iter:  18 04:51:58  -314.074473c -6.38  -4.44c
iter:  19 04:52:45  -314.074476c -6.49  -4.55c
Writing to output.gpw (mode='')

iter:  20 04:53:45  -314.074474c -6.79  -4.72c
iter:  21 04:54:35  -314.074474c -6.69  -4.77c
iter:  22 04:55:31  -314.074470c -6.80  -4.95c
iter:  23 04:56:15  -314.074471c -7.23  -5.04c
iter:  24 04:57:12  -314.074472c -7.28  -5.11c
Writing to output.gpw (mode='')

iter:  25 04:57:59  -314.074474c -7.37  -5.17c
iter:  26 04:59:02  -314.074475c -7.42c -5.25c

Converged after 26 iterations.

Dipole moment: (-1.028925, 0.504698, 0.413549) |e|*Ang

Energy contributions relative to reference atoms: (reference = -14447.344205)

Kinetic:       +152.060354
Potential:     -143.592665
External:        +0.000000
XC:            -323.260119
Entropy (-ST):   -0.151267
Local:           +0.793589
--------------------------
Free energy:   -314.150109
Extrapolated:  -314.074475

Dipole-layer corrected work functions: 3.385061, 2.590077 eV

Showing only first 2 kpts
 Kpt  Band  Eigenvalues  Occupancy
  0    31     -3.23998    1.98724
  0    32     -3.10810    1.83526
  0    33     -2.96686    0.79582
  0    34     -2.89632    0.27769

  1    31     -3.28303    1.99459
  1    32     -3.23864    1.98690
  1    33     -2.92805    0.46641
  1    34     -2.84799    0.11556


Fermi level: -2.98757

No gap
Writing to output.gpw (mode='')


Forces in eV/Ang:
  0 Li   -0.00057    0.00368   -0.29490
  1 Li   -0.00707    0.00404   -0.27625
  2 Li    0.00137    0.00331   -0.25974
  3 Li    0.00351    0.01104   -0.27977
  4 Li   -0.01161    0.02394   -0.26944
  5 Li    0.00068    0.00180   -0.29359
  6 Li    0.01713   -0.00389   -0.27332
  7 Li   -0.01311   -0.00450   -0.28081
  8 Li   -0.00208   -0.00322   -0.27444
  9 Li   -0.05365    0.06043    0.31719
 10 Li    0.05762   -0.00759    0.29388
 11 Li    0.02784    0.02311    0.30439
 12 Li   -0.03471   -0.06147    0.35189
 13 Li    0.02972   -0.04644    0.26488
 14 Li    0.06218   -0.07277    0.27398
 15 Li   -0.01638    0.01103    0.26472
 16 Li    0.01001   -0.02690    0.21324
 17 Li    0.01360    0.00852    0.26382
 18 Li   -0.01161   -0.00026    0.00500
 19 Li    0.00830   -0.00195    0.00244
 20 Li   -0.00287   -0.00600    0.01120
 21 Li   -0.01161   -0.00779    0.00711
 22 Li   -0.00091    0.00290    0.00733
 23 Li   -0.00589    0.00451    0.00558
 24 Li    0.00501    0.00602   -0.00099
 25 Li   -0.01247    0.00178   -0.00270
 26 Li   -0.00758   -0.00168    0.00266
 27 Li    0.01928   -0.01825    0.00580
 28 Li    0.00483    0.01323    0.00627
 29 Li   -0.00225   -0.00677    0.00684
 30 Li    0.01179    0.00041   -0.01300
 31 Li   -0.00868   -0.00114   -0.00626
 32 Li   -0.01022    0.00488   -0.01700
 33 Li    0.00511   -0.00766   -0.00447
 34 Li    0.00283   -0.00067   -0.00519
 35 Li    0.00732    0.00569    0.00405
 36 O    -0.00714    0.02316   -0.02038
 37 C     0.00379    0.00386   -0.01068
 38 C    -0.01543    0.01874   -0.00155
 39 H    -0.00690   -0.02212    0.01010
 40 H    -0.01765   -0.03708   -0.00793
 41 H     0.03312    0.01235   -0.01089
 42 H    -0.01491   -0.01284    0.02181
 43 H    -0.00551    0.01731   -0.00812
 44 H     0.01136   -0.00056   -0.01161
 45 N     0.01939    0.00817    0.00292
 46 N    -0.00466   -0.02110   -0.01577
 47 H    -0.02253    0.00449    0.01687

Timing:                                      incl.     excl.
-------------------------------------------------------------------
Density initialized from wave functions:   187.834   187.830   0.1% |
 Symmetrize density:                         0.005     0.005   0.0% |
Forces:                                    356.645   356.645   0.2% |
Hamiltonian:                              3830.467     0.020   0.0% |
 Atomic:                                     8.561     0.110   0.0% |
  XC Correction:                             8.451     8.451   0.0% |
 Calculate atomic Hamiltonians:              7.229     7.229   0.0% |
 Communicate:                               61.514    61.514   0.0% |
 Hartree integrate/restrict:                 4.520     4.520   0.0% |
 Initialize Hamiltonian:                     0.000     0.000   0.0% |
 Poisson:                                  155.956    80.962   0.1% |
  Communicate from 1D:                       8.974     8.974   0.0% |
  Communicate from 2D:                      17.978    17.978   0.0% |
  Communicate to 1D:                         2.775     2.775   0.0% |
  Communicate to 2D:                        16.835    16.835   0.0% |
  FFT 1D:                                   14.669    14.669   0.0% |
  FFT 2D:                                   13.763    13.763   0.0% |
 XC 3D grid:                              3591.686   400.541   0.3% |
  VdW-DF integral:                        3191.145    10.586   0.0% |
   Convolution:                            141.834   141.834   0.1% |
   FFT:                                     49.255    49.255   0.0% |
   gather:                                2466.516  2466.516   1.6% ||
   hmm1:                                    38.997    38.997   0.0% |
   hmm2:                                    45.262    45.262   0.0% |
   iFFT:                                    54.121    54.121   0.0% |
   potential:                              377.605     5.163   0.0% |
    collect:                                33.509    33.509   0.0% |
    p1:                                    144.384   144.384   0.1% |
    p2:                                     60.173    60.173   0.0% |
    sum:                                   134.377   134.377   0.1% |
   splines:                                  6.969     6.969   0.0% |
 vbar:                                       0.980     0.980   0.0% |
LCAO initialization:                         5.252     0.393   0.0% |
 LCAO eigensolver:                           1.558     0.001   0.0% |
  Calculate projections:                     0.000     0.000   0.0% |
  DenseAtomicCorrection:                     0.000     0.000   0.0% |
  Distribute overlap matrix:                 1.537     1.537   0.0% |
  Orbital Layouts:                           0.019     0.019   0.0% |
  Potential matrix:                          0.001     0.001   0.0% |
  Sum over cells:                            0.001     0.001   0.0% |
 LCAO to grid:                               2.137     2.137   0.0% |
 Set positions (LCAO WFS):                   1.164     0.990   0.0% |
  Basic WFS set positions:                   0.002     0.002   0.0% |
  Basis functions set positions:             0.000     0.000   0.0% |
  P tci:                                     0.001     0.001   0.0% |
  ST tci:                                    0.102     0.102   0.0% |
  mktci:                                     0.069     0.069   0.0% |
Redistribute:                                0.083     0.083   0.0% |
SCF-cycle:                               145939.736  8744.259   5.8% |-|
 Davidson:                               34104.602 13309.971   8.8% |---|
  Apply hamiltonian:                      2676.676  2676.676   1.8% ||
  Subspace diag:                          5030.024     0.941   0.0% |
   calc_h_matrix:                         3188.158   529.472   0.4% |
    Apply hamiltonian:                    2658.686  2658.686   1.8% ||
   diagonalize:                            322.685   322.685   0.2% |
   rotate_psi:                            1518.240  1518.240   1.0% |
  calc. matrices:                        10649.642  4447.350   2.9% ||
   Apply hamiltonian:                     6202.292  6202.292   4.1% |-|
  diagonalize:                              20.798    20.798   0.0% |
  rotate_psi:                             2417.491  2417.491   1.6% ||
 Density:                                  834.042     0.118   0.0% |
  Atomic density matrices:                 227.054   227.054   0.2% |
  Mix:                                     290.634   290.634   0.2% |
  Multipole moments:                         5.140     5.140   0.0% |
  Pseudo density:                          311.096   310.980   0.2% |
   Symmetrize density:                       0.116     0.116   0.0% |
 Hamiltonian:                            102185.008     0.626   0.0% |
  Atomic:                                  232.643     2.848   0.0% |
   XC Correction:                          229.795   229.795   0.2% |
  Calculate atomic Hamiltonians:           191.732   191.732   0.1% |
  Communicate:                            1484.957  1484.957   1.0% |
  Hartree integrate/restrict:              127.937   127.937   0.1% |
  Poisson:                                4206.357  2176.165   1.4% ||
   Communicate from 1D:                    246.186   246.186   0.2% |
   Communicate from 2D:                    499.350   499.350   0.3% |
   Communicate to 1D:                       75.549    75.549   0.1% |
   Communicate to 2D:                      456.098   456.098   0.3% |
   FFT 1D:                                 382.980   382.980   0.3% |
   FFT 2D:                                 370.029   370.029   0.2% |
  XC 3D grid:                            95918.131 10898.606   7.2% |--|
   VdW-DF integral:                      85019.525   278.881   0.2% |
    Convolution:                          3762.617  3762.617   2.5% ||
    FFT:                                  1305.988  1305.988   0.9% |
    gather:                              65622.243 65622.243  43.4% |----------------|
    hmm1:                                  984.243   984.243   0.7% |
    hmm2:                                 1125.536  1125.536   0.7% |
    iFFT:                                 1433.041  1433.041   0.9% |
    potential:                           10506.933   142.692   0.1% |
     collect:                              960.047   960.047   0.6% |
     p1:                                  3891.107  3891.107   2.6% ||
     p2:                                  1569.090  1569.090   1.0% |
     sum:                                 3943.998  3943.998   2.6% ||
    splines:                                 0.043     0.043   0.0% |
  vbar:                                     22.627    22.627   0.0% |
 Orthonormalize:                            71.825     0.037   0.0% |
  calc_s_matrix:                             9.734     9.734   0.0% |
  inverse-cholesky:                         33.988    33.988   0.0% |
  projections:                               0.008     0.008   0.0% |
  rotate_psi_s:                             28.058    28.058   0.0% |
Set symmetry:                                0.002     0.002   0.0% |
Other:                                     709.778   709.778   0.5% |
-------------------------------------------------------------------
Total:                                             151029.799 100.0%

Memory usage: 1.42 GiB
Date: Wed Mar  1 04:59:06 2023
