
  ___ ___ ___ _ _ _  
 |   |   |_  | | | | 
 | | | | | . | | | | 
 |__ |  _|___|_____|  22.8.0
 |___|_|             

User:   vazumah@r124.ib.bridges2.psc.edu
Date:   Fri Mar 10 11:09:09 2023
Arch:   x86_64
Pid:    59972
CWD:    /jet/home/vazumah/Calcs/LiMEAS/proton_donors/methanol_y/bridge/8.085_1.617/N2_y
Python: 3.11.0
gpaw:   /jet/home/vazumah/.conda/envs/GPAW_mpich/lib/python3.11/site-packages/gpaw
_gpaw:  /jet/home/vazumah/.conda/envs/GPAW_mpich/lib/python3.11/site-packages/
        _gpaw.cpython-311-x86_64-linux-gnu.so
ase:    /jet/home/vazumah/.conda/envs/GPAW_mpich/lib/python3.11/site-packages/ase (version 3.22.1)
numpy:  /jet/home/vazumah/.conda/envs/GPAW_mpich/lib/python3.11/site-packages/numpy (version 1.24.2)
scipy:  /jet/home/vazumah/.conda/envs/GPAW_mpich/lib/python3.11/site-packages/scipy (version 1.10.1)
libxc:  5.2.3
units:  Angstrom and eV
cores: 128
OpenMP: True
OMP_NUM_THREADS: 1

Input parameters:
  h: 0.16
  kpts: {size: [4, 4, 1]}
  occupations: {name: fermi-dirac,
                width: 0.05}
  poissonsolver: {dipolelayer: xy}
  xc: BEEF-vdW

System changes: positions, numbers, cell, pbc, initial_charges, initial_magmoms 

Initialize ...

species:
  Li:
    name: Lithium
    id: 830b4218f175192f93f959cfc0aad614
    Z: 3.0
    valence: 1
    core: 2
    charge: 0.0
    file: /jet/home/vazumah/datasets/gpaw-setups-0.9.20000/Li.PBE.gz
    compensation charges: {type: gauss,
                           rc: 0.33,
                           lmax: 2}
    cutoffs: {filter: 1.91,
              core: 2.55}
    valence states:
      #              energy  rcut
      - 2s(1.00)    -2.874   1.058
      - 2p(0.00)    -1.090   1.058
      -  s          24.337   1.058
  
    # Using partial waves for Li as LCAO basis

  O:
    name: Oxygen
    id: 32ecd46bf208036f09c70b0ec9a88b78
    Z: 8.0
    valence: 6
    core: 2
    charge: 0.0
    file: /jet/home/vazumah/datasets/gpaw-setups-0.9.20000/O.PBE.gz
    compensation charges: {type: gauss,
                           rc: 0.21,
                           lmax: 2}
    cutoffs: {filter: 1.17,
              core: 0.83}
    valence states:
      #              energy  rcut
      - 2s(2.00)   -23.961   0.688
      - 2p(4.00)    -9.029   0.598
      -  s           3.251   0.688
      -  p          18.182   0.598
      -  d           0.000   0.619
  
    # Using partial waves for O as LCAO basis

  C:
    name: Carbon
    id: 4aa54d4b901d75f77cc0ea3eec22967b
    Z: 6.0
    valence: 4
    core: 2
    charge: 0.0
    file: /jet/home/vazumah/datasets/gpaw-setups-0.9.20000/C.PBE.gz
    compensation charges: {type: gauss,
                           rc: 0.20,
                           lmax: 2}
    cutoffs: {filter: 1.14,
              core: 1.14}
    valence states:
      #              energy  rcut
      - 2s(2.00)   -13.751   0.635
      - 2p(2.00)    -5.284   0.635
      -  s          13.461   0.635
      -  p          21.927   0.635
      -  d           0.000   0.635
  
    # Using partial waves for C as LCAO basis

  H:
    name: Hydrogen
    id: d65de229564ff8ea4db303e23b6d1ecf
    Z: 1.0
    valence: 1
    core: 0
    charge: 0.0
    file: /jet/home/vazumah/datasets/gpaw-setups-0.9.20000/H.PBE.gz
    compensation charges: {type: gauss,
                           rc: 0.15,
                           lmax: 2}
    cutoffs: {filter: 0.85,
              core: 0.53}
    valence states:
      #              energy  rcut
      - 1s(1.00)    -6.494   0.476
      -  s          20.717   0.476
      -  p           0.000   0.476
  
    # Using partial waves for H as LCAO basis

  N:
    name: Nitrogen
    id: f7500608b86eaa90eef8b1d9a670dc53
    Z: 7.0
    valence: 5
    core: 2
    charge: 0.0
    file: /jet/home/vazumah/datasets/gpaw-setups-0.9.20000/N.PBE.gz
    compensation charges: {type: gauss,
                           rc: 0.18,
                           lmax: 2}
    cutoffs: {filter: 1.11,
              core: 0.96}
    valence states:
      #              energy  rcut
      - 2s(2.00)   -18.583   0.603
      - 2p(3.00)    -7.089   0.529
      -  s           8.629   0.603
      -  p          20.123   0.529
      -  d           0.000   0.577
  
    # Using partial waves for N as LCAO basis

Reference energy: -13382.245603  # eV

Spin-paired calculation

Convergence criteria:
 Maximum [total energy] change in last 3 cyles: 0.0005 eV / electron
 Maximum integral of absolute [dens]ity change: 0.0001 electrons / valence electron
 Maximum integral of absolute [eigenst]ate change: 4e-08 eV^2 / valence electron
 Maximum number of scf [iter]ations: 333
 (Square brackets indicate name in SCF output, whereas a 'c' in
 the SCF output indicates the quantity has converged.)

Symmetries present (total): 1

  ( 1  0  0)
  ( 0  1  0)
  ( 0  0  1)

16 k-points: 4 x 4 x 1 Monkhorst-Pack grid
8 k-points in the irreducible part of the Brillouin zone
       k-points in crystal coordinates                weights
   0:     0.12500000   -0.37500000    0.00000000          2/16
   1:     0.12500000   -0.12500000    0.00000000          2/16
   2:     0.12500000    0.12500000    0.00000000          2/16
   3:     0.12500000    0.37500000    0.00000000          2/16
   4:     0.37500000   -0.37500000    0.00000000          2/16
   5:     0.37500000   -0.12500000    0.00000000          2/16
   6:     0.37500000    0.12500000    0.00000000          2/16
   7:     0.37500000    0.37500000    0.00000000          2/16

Wave functions: Uniform real-space grid
  Kinetic energy operator: 6*3+1=19 point O(h^6) finite-difference Laplacian
  ScaLapack parameters: grid=1x1, blocksize=None
  Wavefunction extrapolation:
    Improved wavefunction reuse through dual PAW basis 

Occupation numbers: Fermi-Dirac:
  width: 0.0500  # eV
 

Eigensolver
   Davidson(niter=2) 

Densities:
  Coarse grid: 60*60*168 grid
  Fine grid: 120*120*336 grid
  Total Charge: 0.000000 

Density mixing:
  Method: separate
  Backend: pulay
  Linear mixing parameter: 0.05
  old densities: 5
  Damping of long wavelength oscillations: 50 

Hamiltonian:
  XC and Coulomb potentials evaluated on a 120*120*336 grid
  Using the BEEF-vdW Exchange-Correlation functional
  Interpolation: tri-quintic (5. degree polynomial)
  Poisson solver: FastPoissonSolver using
    Stencil: 6*3+1=19 point O(h^6) finite-difference Laplacian
    FFT axes: [0, 1]
    FST axes: [2]

Dipole correction along z-axis 

XC parameters: BEEF-vdW with 2 nearest neighbor stencil

Memory estimate:
  Process memory now: 129.47 MiB
  Calculator: 77.36 MiB
    Density: 22.77 MiB
      Arrays: 7.40 MiB
      Localized functions: 12.55 MiB
      Mixer: 2.82 MiB
    Hamiltonian: 5.83 MiB
      Arrays: 4.84 MiB
      XC: 0.00 MiB
      Poisson: 0.00 MiB
      vbar: 0.99 MiB
    Wavefunctions: 48.76 MiB
      Arrays psit_nG: 22.52 MiB
      Eigensolver: 25.58 MiB
      Projections: 0.01 MiB
      Projectors: 0.64 MiB

Total number of cores used: 128
Parallelization over k-points: 8
Domain decomposition: 2 x 2 x 4

Number of atoms: 44
Number of atomic orbitals: 164
Number of bands in calculation: 40
Number of valence electrons: 60
Bands to converge: occupied

... initialized

Initializing position-dependent things.

Density initialized from atomic densities
Creating initial wave functions:
  40 bands from LCAO basis set

       .-----------------------.  
      /|                       |  
     / |                       |  
    /  |                       |  
   /   |                       |  
  /    |                       |  
 *     |                       |  
 |     |                       |  
 |     |                       |  
 |     |                  H    |  
 |     |                       |  
 |     |                 H   H |  
 |     |                       |  
 |     |                       |  
 |     |                       |  
 |     |            H O        |  
 |   Li|     Li      CiN       |  
 |     |  Li      Li  N   Li   |  
 | Li  |   Li      Li          |  
 |     |Li      Li      Li     |  
 Li    | Li      Li            |  
 |   LLi     LLi     LLi       |  
 |     |  Li      Li      Li   |  
 | Li  |   Li      Li          |  
 |     |Li      Li      Li     |  
 Li    | Li      Li            |  
 |    Li      Li      Li       |  
 |     |                       |  
 |     |                       |  
 |     |                       |  
 |     |                       |  
 |     |                       |  
 |     |                       |  
 |     .-----------------------.  
 |    /                       /   
 |   /                       /    
 |  /                       /     
 | /                       /      
 |/                       /       
 *-----------------------*        

Positions:
   0 Li     1.617037    1.617037   10.000000    ( 0.0000,  0.0000,  0.0000)
   1 Li     4.851111    1.617037   10.000000    ( 0.0000,  0.0000,  0.0000)
   2 Li     8.085185    1.617037   10.000000    ( 0.0000,  0.0000,  0.0000)
   3 Li     1.617037    4.851111   10.000000    ( 0.0000,  0.0000,  0.0000)
   4 Li     4.851111    4.851111   10.000000    ( 0.0000,  0.0000,  0.0000)
   5 Li     8.085185    4.851111   10.000000    ( 0.0000,  0.0000,  0.0000)
   6 Li     1.617037    8.085185   10.000000    ( 0.0000,  0.0000,  0.0000)
   7 Li     4.851111    8.085185   10.000000    ( 0.0000,  0.0000,  0.0000)
   8 Li     8.085185    8.085185   10.000000    ( 0.0000,  0.0000,  0.0000)
   9 Li     0.000000    0.000000   11.617037    ( 0.0000,  0.0000,  0.0000)
  10 Li     3.234074    0.000000   11.617037    ( 0.0000,  0.0000,  0.0000)
  11 Li     6.468148    0.000000   11.617037    ( 0.0000,  0.0000,  0.0000)
  12 Li     0.000000    3.234074   11.617037    ( 0.0000,  0.0000,  0.0000)
  13 Li     3.234074    3.234074   11.617037    ( 0.0000,  0.0000,  0.0000)
  14 Li     6.468148    3.234074   11.617037    ( 0.0000,  0.0000,  0.0000)
  15 Li     0.000000    6.468148   11.617037    ( 0.0000,  0.0000,  0.0000)
  16 Li     3.234074    6.468148   11.617037    ( 0.0000,  0.0000,  0.0000)
  17 Li     6.468148    6.468148   11.617037    ( 0.0000,  0.0000,  0.0000)
  18 Li     1.617038    1.617038   13.469728    ( 0.0000,  0.0000,  0.0000)
  19 Li     4.851111    1.617038   13.469729    ( 0.0000,  0.0000,  0.0000)
  20 Li     8.085184    1.617038   13.469728    ( 0.0000,  0.0000,  0.0000)
  21 Li     1.617038    4.851111   13.469729    ( 0.0000,  0.0000,  0.0000)
  22 Li     4.851111    4.851111   13.469730    ( 0.0000,  0.0000,  0.0000)
  23 Li     8.085184    4.851111   13.469729    ( 0.0000,  0.0000,  0.0000)
  24 Li     1.617038    8.085184   13.469728    ( 0.0000,  0.0000,  0.0000)
  25 Li     4.851111    8.085184   13.469729    ( 0.0000,  0.0000,  0.0000)
  26 Li     8.085184    8.085184   13.469728    ( 0.0000,  0.0000,  0.0000)
  27 Li    -0.000000   -0.000000   15.445939    ( 0.0000,  0.0000,  0.0000)
  28 Li     3.234074    0.000000   15.445939    ( 0.0000,  0.0000,  0.0000)
  29 Li     6.468148    0.000000   15.445939    ( 0.0000,  0.0000,  0.0000)
  30 Li     0.000000    3.234074   15.445939    ( 0.0000,  0.0000,  0.0000)
  31 Li     3.234076    3.234076   15.445938    ( 0.0000,  0.0000,  0.0000)
  32 Li     6.468146    3.234076   15.445938    ( 0.0000,  0.0000,  0.0000)
  33 Li     0.000000    6.468148   15.445939    ( 0.0000,  0.0000,  0.0000)
  34 Li     3.234076    6.468146   15.445938    ( 0.0000,  0.0000,  0.0000)
  35 Li     6.468146    6.468146   15.445938    ( 0.0000,  0.0000,  0.0000)
  36 O      8.085185    1.617037   18.445939    ( 0.0000,  0.0000,  0.0000)
  37 C      8.070112    0.187074   18.451439    ( 0.0000,  0.0000,  0.0000)
  38 H      7.320158   -0.217197   17.764289    ( 0.0000,  0.0000,  0.0000)
  39 H      7.891702   -0.216438   19.453228    ( 0.0000,  0.0000,  0.0000)
  40 H      9.055826   -0.132369   18.118510    ( 0.0000,  0.0000,  0.0000)
  41 H      7.222056    1.928692   18.736944    ( 0.0000,  0.0000,  0.0000)
  42 N      8.085000    1.617000   17.195939    ( 0.0000,  0.0000,  0.0000)
  43 N      8.085000    2.713622   17.195939    ( 0.0000,  0.0000,  0.0000)

Unit cell:
           periodic     x           y           z      points  spacing
  1. axis:    yes    9.702222    0.000000    0.000000    60     0.1617
  2. axis:    yes    0.000000    9.702222    0.000000    60     0.1617
  3. axis:    no     0.000000    0.000000   26.601111   168     0.1583

  Lengths:   9.702222   9.702222  26.601111
  Angles:   90.000000  90.000000  90.000000

Effective grid spacing dv^(1/3) = 0.1606

     iter     time        total  log10-change:
                         energy  eigst   dens
iter:   1 11:09:23  -445.358515
iter:   2 11:09:30  -140.527662  +2.42  -0.07
iter:   3 11:09:37  -163.962903  +3.36  -0.22
iter:   4 11:09:45  -212.197101  +2.85  -0.22
Writing to output.gpw (mode='')

iter:   5 11:09:52  -225.247825  +2.68  -0.32
iter:   6 11:09:59  -253.173600  +2.43  -0.53
iter:   7 11:10:06  -293.936112  +2.47  -0.57
iter:   8 11:10:13  -306.408546  +2.09  -0.57
iter:   9 11:10:20  -292.629315  +1.81  -0.53
Writing to output.gpw (mode='')

iter:  10 11:10:28  -295.493007  +1.55  -0.55
iter:  11 11:10:35  -302.739348  +1.58  -0.51
iter:  12 11:10:42  -338.066854  +2.05  -0.60
iter:  13 11:10:49  -305.695787  +1.35  -0.43
iter:  14 11:10:56  -314.409406  +2.00  -0.57
Writing to output.gpw (mode='')

iter:  15 11:11:03  -290.145799  +1.34  -0.38
iter:  16 11:11:10  -283.189032  +1.63  -0.50
iter:  17 11:11:18  -278.422608  +0.81  -0.68
iter:  18 11:11:25  -276.505498  +0.59  -0.76
iter:  19 11:11:32  -275.506288  +0.72  -0.80
Writing to output.gpw (mode='')

iter:  20 11:11:39  -275.326221  +0.33  -0.88
iter:  21 11:11:46  -284.086651  +0.78  -0.88
iter:  22 11:11:54  -276.652568  -0.02  -0.73
iter:  23 11:12:01  -272.519484  +1.05  -0.81
iter:  24 11:12:08  -272.943568  +0.11  -1.08
Writing to output.gpw (mode='')

iter:  25 11:12:15  -273.292095  +0.26  -1.14
iter:  26 11:12:22  -272.758110  +0.40  -1.23
iter:  27 11:12:29  -273.540108  +0.90  -1.19
iter:  28 11:12:43  -272.953131  +0.02  -1.10
iter:  29 11:12:51  -272.814108  -0.08  -1.35
Writing to output.gpw (mode='')

iter:  30 11:12:58  -272.644139  -0.03  -1.47
iter:  31 11:13:06  -272.600115  -0.68  -1.54
iter:  32 11:13:13  -272.599118  -0.76  -1.63
iter:  33 11:13:20  -272.610675c -1.02  -1.67
iter:  34 11:13:27  -272.586392c -1.08  -1.77
Writing to output.gpw (mode='')

iter:  35 11:13:34  -272.586601c -1.06  -1.99
iter:  36 11:13:42  -272.587758c -1.43  -2.05
iter:  37 11:13:49  -272.593300c -1.66  -2.13
iter:  38 11:13:56  -272.590986c -1.87  -2.35
iter:  39 11:14:03  -272.596955c -1.71  -2.38
Writing to output.gpw (mode='')

iter:  40 11:14:10  -272.594141c -1.83  -2.34
iter:  41 11:14:17  -272.596002c -1.93  -2.57
iter:  42 11:14:25  -272.596676c -2.18  -2.62
iter:  43 11:14:32  -272.597353c -2.17  -2.82
iter:  44 11:14:39  -272.598334c -2.43  -2.94
Writing to output.gpw (mode='')

iter:  45 11:14:46  -272.598896c -2.41  -3.00
iter:  46 11:14:53  -272.599492c -2.39  -3.11
iter:  47 11:15:00  -272.599792c -2.55  -3.21
iter:  48 11:15:07  -272.600397c -2.46  -3.21
iter:  49 11:15:15  -272.600734c -2.61  -3.28
Writing to output.gpw (mode='')

iter:  50 11:15:22  -272.600974c -2.52  -3.26
iter:  51 11:15:29  -272.601211c -2.78  -3.17
iter:  52 11:15:36  -272.601460c -2.59  -3.11
iter:  53 11:15:43  -272.601629c -2.88  -2.94
iter:  54 11:15:50  -272.601979c -2.84  -2.90
Writing to output.gpw (mode='')

iter:  55 11:15:58  -272.602056c -2.86  -2.97
iter:  56 11:16:05  -272.602274c -2.91  -2.86
iter:  57 11:16:12  -272.602390c -2.96  -2.92
iter:  58 11:16:19  -272.602702c -2.97  -2.89
iter:  59 11:16:26  -272.602825c -3.17  -3.02
Writing to output.gpw (mode='')

iter:  60 11:16:34  -272.602942c -3.35  -2.94
iter:  61 11:16:41  -272.603222c -3.11  -2.98
iter:  62 11:16:48  -272.603290c -3.42  -2.97
iter:  63 11:16:55  -272.603693c -3.36  -2.99
iter:  64 11:17:03  -272.603471c -3.32  -2.98
Writing to output.gpw (mode='')

iter:  65 11:17:12  -272.603785c -3.52  -3.15
iter:  66 11:17:22  -272.603724c -3.68  -3.24
iter:  67 11:17:29  -272.603865c -3.71  -3.37
iter:  68 11:17:39  -272.603799c -3.62  -3.52
iter:  69 11:17:50  -272.603851c -4.02  -3.42
Writing to output.gpw (mode='')

iter:  70 11:17:57  -272.603857c -3.94  -3.44
iter:  71 11:18:04  -272.603901c -3.62  -3.52
iter:  72 11:18:11  -272.603908c -3.95  -3.80
iter:  73 11:18:18  -272.603985c -3.91  -3.79
iter:  74 11:18:25  -272.603997c -4.14  -3.86
Writing to output.gpw (mode='')

iter:  75 11:18:32  -272.604037c -4.35  -3.91
iter:  76 11:18:39  -272.604003c -4.17  -4.01c
iter:  77 11:18:47  -272.604027c -4.46  -4.14c
iter:  78 11:18:54  -272.604048c -4.23  -4.25c
iter:  79 11:19:01  -272.604052c -4.49  -4.32c
Writing to output.gpw (mode='')

iter:  80 11:19:08  -272.604061c -4.30  -4.37c
iter:  81 11:19:15  -272.604084c -4.61  -4.38c
iter:  82 11:19:22  -272.604054c -4.69  -4.45c
iter:  83 11:19:29  -272.604079c -4.79  -4.39c
iter:  84 11:19:36  -272.604080c -4.82  -4.71c
Writing to output.gpw (mode='')

iter:  85 11:19:43  -272.604083c -4.83  -4.85c
iter:  86 11:19:50  -272.604084c -4.76  -4.89c
iter:  87 11:19:57  -272.604085c -4.77  -4.89c
iter:  88 11:20:05  -272.604088c -4.83  -4.82c
iter:  89 11:20:12  -272.604088c -5.07  -4.81c
Writing to output.gpw (mode='')

iter:  90 11:20:19  -272.604088c -5.05  -4.77c
iter:  91 11:20:26  -272.604090c -5.12  -4.74c
iter:  92 11:20:33  -272.604090c -5.33  -4.74c
iter:  93 11:20:40  -272.604092c -5.30  -4.71c
iter:  94 11:20:47  -272.604092c -5.28  -4.72c
Writing to output.gpw (mode='')

iter:  95 11:20:56  -272.604093c -5.36  -4.70c
iter:  96 11:21:03  -272.604090c -5.27  -4.68c
iter:  97 11:21:10  -272.604092c -5.48  -4.59c
iter:  98 11:21:18  -272.604094c -5.57  -4.64c
iter:  99 11:21:25  -272.604097c -5.41  -4.66c
Writing to output.gpw (mode='')

iter: 100 11:21:32  -272.604094c -5.74  -4.66c
iter: 101 11:21:39  -272.604102c -5.78  -4.59c
iter: 102 11:21:46  -272.604106c -5.68  -4.71c
iter: 103 11:21:54  -272.604100c -5.85  -4.78c
iter: 104 11:22:01  -272.604105c -5.87  -4.61c
Writing to output.gpw (mode='')

iter: 105 11:22:08  -272.604109c -5.90  -4.76c
iter: 106 11:22:15  -272.604110c -5.87  -4.95c
iter: 107 11:22:22  -272.604108c -5.71  -5.02c
iter: 108 11:22:29  -272.604109c -5.75  -5.12c
iter: 109 11:22:42  -272.604110c -6.12  -5.24c
Writing to output.gpw (mode='')

iter: 110 11:22:50  -272.604110c -6.19  -5.26c
iter: 111 11:22:57  -272.604111c -6.24  -5.32c
iter: 112 11:23:05  -272.604111c -6.26  -5.46c
iter: 113 11:23:12  -272.604111c -6.21  -5.49c
iter: 114 11:23:19  -272.604112c -6.26  -5.52c
Writing to output.gpw (mode='')

iter: 115 11:23:26  -272.604111c -6.28  -5.62c
iter: 116 11:23:33  -272.604111c -6.39  -5.69c
iter: 117 11:23:40  -272.604112c -6.34  -5.74c
iter: 118 11:23:48  -272.604112c -6.63  -5.92c
iter: 119 11:23:55  -272.604112c -6.61  -5.92c
Writing to output.gpw (mode='')

iter: 120 11:24:02  -272.604112c -6.67  -5.93c
iter: 121 11:24:09  -272.604112c -6.75  -5.96c
iter: 122 11:24:16  -272.604112c -6.81  -6.16c
iter: 123 11:24:24  -272.604112c -6.89  -6.17c
iter: 124 11:24:31  -272.604112c -6.87  -6.19c
Writing to output.gpw (mode='')

iter: 125 11:24:38  -272.604112c -6.96  -6.49c
iter: 126 11:24:45  -272.604112c -6.92  -6.51c
iter: 127 11:24:52  -272.604112c -7.00  -6.43c
iter: 128 11:24:59  -272.604112c -7.02  -6.29c
iter: 129 11:25:06  -272.604112c -7.10  -6.29c
Writing to output.gpw (mode='')

iter: 130 11:25:14  -272.604112c -7.14  -6.15c
iter: 131 11:25:21  -272.604112c -7.15  -6.19c
iter: 132 11:25:28  -272.604112c -7.22  -6.25c
iter: 133 11:25:35  -272.604112c -7.27  -6.20c
iter: 134 11:25:42  -272.604112c -7.29  -6.19c
Writing to output.gpw (mode='')

iter: 135 11:25:49  -272.604112c -7.26  -6.18c
iter: 136 11:25:57  -272.604112c -7.37  -6.20c
iter: 137 11:26:04  -272.604112c -7.39  -6.05c
iter: 138 11:26:11  -272.604112c -7.43c -6.28c

Converged after 138 iterations.

Dipole moment: (-1.080787, -6.495198, 0.369468) |e|*Ang

Energy contributions relative to reference atoms: (reference = -13382.245603)

Kinetic:       +182.051037
Potential:     -156.943450
External:        +0.000000
XC:            -298.289282
Entropy (-ST):   -0.166093
Local:           +0.660629
--------------------------
Free energy:   -272.687159
Extrapolated:  -272.604112

Dipole-layer corrected work functions: 3.372940, 2.662695 eV

Showing only first 2 kpts
 Kpt  Band  Eigenvalues  Occupancy
  0    28     -3.26418    1.98561
  0    29     -3.17365    1.91515
  0    30     -2.92636    0.27666
  0    31     -2.79589    0.02335

  1    28     -3.08060    1.55656
  1    29     -3.01074    0.92933
  1    30     -2.95370    0.43429
  1    31     -2.93774    0.33553


Fermi level: -3.01782

No gap
Writing to output.gpw (mode='')


Forces in eV/Ang:
  0 Li    0.01706    0.00164   -0.27131
  1 Li   -0.01729    0.00243   -0.27286
  2 Li    0.00056   -0.00698   -0.28011
  3 Li    0.00638   -0.00043   -0.27663
  4 Li   -0.00999   -0.00472   -0.27659
  5 Li    0.00330    0.01922   -0.27878
  6 Li   -0.00548   -0.00341   -0.27382
  7 Li    0.00086   -0.00039   -0.26973
  8 Li    0.00394   -0.00992   -0.26395
  9 Li   -0.00414   -0.01113    0.28556
 10 Li    0.00143    0.01269    0.25018
 11 Li    0.00376   -0.00871    0.29237
 12 Li   -0.00440    0.00251    0.30861
 13 Li    0.00206   -0.00899    0.23797
 14 Li    0.00092    0.00144    0.31124
 15 Li   -0.00289    0.00424    0.24607
 16 Li    0.00163    0.00098    0.28273
 17 Li    0.00177    0.00439    0.25202
 18 Li   -0.01737    0.01031    0.04686
 19 Li    0.01348    0.00577    0.04732
 20 Li    0.00254   -0.02049   -0.19254
 21 Li   -0.01872   -0.02114    0.04988
 22 Li    0.01866   -0.01591    0.04039
 23 Li    0.00089    0.03767   -0.08960
 24 Li   -0.00648    0.01392    0.04685
 25 Li    0.00730    0.01264    0.04506
 26 Li   -0.00139   -0.00651    0.08142
 27 Li    0.05697   -0.07995   -0.14201
 28 Li    0.00864    0.02392    0.00253
 29 Li   -0.09719   -0.06681   -0.18952
 30 Li   -0.28312    0.06239    0.22528
 31 Li    0.01517   -0.01980   -0.00293
 32 Li    0.26814    0.05456    0.21742
 33 Li    0.03361    0.06894   -0.03863
 34 Li   -0.00434   -0.00674   -0.00341
 35 Li   -0.02952    0.06898   -0.02890
 36 O     0.75245   -9.48791   16.12107
 37 C     0.08361   -6.35734    3.75965
 38 H     0.07082    0.04965    0.38771
 39 H     0.05789    0.16293    0.05672
 40 H    -0.07724   -0.04157    0.05210
 41 H    -1.69835    0.98890    1.15501
 42 N     0.95717   -6.10402   -9.71817
 43 N    -0.13711   20.66584  -11.93547

System changes: positions 

Initializing position-dependent things.

Density initialized from wave functions
       .-----------------------.  
      /|                       |  
     / |                       |  
    /  |                       |  
   /   |                       |  
  /    |                       |  
 *     |                       |  
 |     |                       |  
 |     |                       |  
 |     |                  H    |  
 |     |                       |  
 |     |                 H   H |  
 |     |                       |  
 |     |                       |  
 |     Li              Li      |  
 |     |            H O        |  
 |   Li|     Li      CiN       |  
 |     |  Li      Li  N   Li   |  
 |     |   Li      Li      Li  |  
 |     |Li      Li      Li     |  
 |     | Li                    |  
 |   LLi     LLi     LLi       |  
 |     |  Li      Li      Li   |  
 | Li  |   Li      Li          |  
 |     |Li      Li      Li     |  
 Li    | Li      Li            |  
 |    Li      Li      Li       |  
 |     |                       |  
 |     |                       |  
 |     |                       |  
 |     |                       |  
 |     |                       |  
 |     |                       |  
 |     .-----------------------.  
 |    /                       /   
 |   /                       /    
 |  /                       /     
 | /                       /      
 |/                       /       
 *-----------------------*        

Positions:
   0 Li     1.617037    1.617037   10.000000    ( 0.0000,  0.0000,  0.0000)
   1 Li     4.851111    1.617037   10.000000    ( 0.0000,  0.0000,  0.0000)
   2 Li     8.085185    1.617037   10.000000    ( 0.0000,  0.0000,  0.0000)
   3 Li     1.617037    4.851111   10.000000    ( 0.0000,  0.0000,  0.0000)
   4 Li     4.851111    4.851111   10.000000    ( 0.0000,  0.0000,  0.0000)
   5 Li     8.085185    4.851111   10.000000    ( 0.0000,  0.0000,  0.0000)
   6 Li     1.617037    8.085185   10.000000    ( 0.0000,  0.0000,  0.0000)
   7 Li     4.851111    8.085185   10.000000    ( 0.0000,  0.0000,  0.0000)
   8 Li     8.085185    8.085185   10.000000    ( 0.0000,  0.0000,  0.0000)
   9 Li     0.000000    0.000000   11.617037    ( 0.0000,  0.0000,  0.0000)
  10 Li     3.234074    0.000000   11.617037    ( 0.0000,  0.0000,  0.0000)
  11 Li     6.468148    0.000000   11.617037    ( 0.0000,  0.0000,  0.0000)
  12 Li     0.000000    3.234074   11.617037    ( 0.0000,  0.0000,  0.0000)
  13 Li     3.234074    3.234074   11.617037    ( 0.0000,  0.0000,  0.0000)
  14 Li     6.468148    3.234074   11.617037    ( 0.0000,  0.0000,  0.0000)
  15 Li     0.000000    6.468148   11.617037    ( 0.0000,  0.0000,  0.0000)
  16 Li     3.234074    6.468148   11.617037    ( 0.0000,  0.0000,  0.0000)
  17 Li     6.468148    6.468148   11.617037    ( 0.0000,  0.0000,  0.0000)
  18 Li     1.617009    1.617055   13.469806    ( 0.0000,  0.0000,  0.0000)
  19 Li     4.851134    1.617048   13.469809    ( 0.0000,  0.0000,  0.0000)
  20 Li     8.085188    1.617004   13.469405    ( 0.0000,  0.0000,  0.0000)
  21 Li     1.617007    4.851076   13.469813    ( 0.0000,  0.0000,  0.0000)
  22 Li     4.851142    4.851084   13.469798    ( 0.0000,  0.0000,  0.0000)
  23 Li     8.085185    4.851174   13.469579    ( 0.0000,  0.0000,  0.0000)
  24 Li     1.617027    8.085207   13.469806    ( 0.0000,  0.0000,  0.0000)
  25 Li     4.851123    8.085205   13.469805    ( 0.0000,  0.0000,  0.0000)
  26 Li     8.085182    8.085173   13.469864    ( 0.0000,  0.0000,  0.0000)
  27 Li     0.000095   -0.000134   15.445701    ( 0.0000,  0.0000,  0.0000)
  28 Li     3.234088    0.000040   15.445943    ( 0.0000,  0.0000,  0.0000)
  29 Li     6.467985   -0.000112   15.445621    ( 0.0000,  0.0000,  0.0000)
  30 Li    -0.000475    3.234178   15.446316    ( 0.0000,  0.0000,  0.0000)
  31 Li     3.234102    3.234043   15.445933    ( 0.0000,  0.0000,  0.0000)
  32 Li     6.468595    3.234168   15.446302    ( 0.0000,  0.0000,  0.0000)
  33 Li     0.000056    6.468264   15.445874    ( 0.0000,  0.0000,  0.0000)
  34 Li     3.234069    6.468134   15.445932    ( 0.0000,  0.0000,  0.0000)
  35 Li     6.468096    6.468261   15.445890    ( 0.0000,  0.0000,  0.0000)
  36 O      8.086446    1.601134   18.472959    ( 0.0000,  0.0000,  0.0000)
  37 C      8.070252    0.176419   18.457740    ( 0.0000,  0.0000,  0.0000)
  38 H      7.320277   -0.217114   17.764939    ( 0.0000,  0.0000,  0.0000)
  39 H      7.891800   -0.216165   19.453323    ( 0.0000,  0.0000,  0.0000)
  40 H      9.055697   -0.132439   18.118598    ( 0.0000,  0.0000,  0.0000)
  41 H      7.219210    1.930350   18.738880    ( 0.0000,  0.0000,  0.0000)
  42 N      8.086604    1.606769   17.179651    ( 0.0000,  0.0000,  0.0000)
  43 N      8.084770    2.748259   17.175935    ( 0.0000,  0.0000,  0.0000)

Unit cell:
           periodic     x           y           z      points  spacing
  1. axis:    yes    9.702222    0.000000    0.000000    60     0.1617
  2. axis:    yes    0.000000    9.702222    0.000000    60     0.1617
  3. axis:    no     0.000000    0.000000   26.601111   168     0.1583

  Lengths:   9.702222   9.702222  26.601111
  Angles:   90.000000  90.000000  90.000000

Effective grid spacing dv^(1/3) = 0.1606

     iter     time        total  log10-change:
                         energy  eigst   dens
iter:   1 11:26:19  -275.460216  -0.14
iter:   2 11:26:27  -274.727658  -0.03  -1.22
iter:   3 11:26:34  -274.374121  -0.71  -1.22
iter:   4 11:26:41  -274.362477  -0.51  -1.45
Writing to output.gpw (mode='')

iter:   5 11:26:48  -274.224997  -1.23  -1.64
iter:   6 11:26:56  -274.792654  -0.39  -2.02
iter:   7 11:27:03  -274.200311  -1.05  -1.30
iter:   8 11:27:10  -274.217556  -1.25  -2.12
iter:   9 11:27:17  -274.201768c -1.77  -2.05
Writing to output.gpw (mode='')

iter:  10 11:27:24  -274.201935c -1.88  -2.40
iter:  11 11:27:31  -274.200594c -2.15  -2.40
iter:  12 11:27:44  -274.203686c -2.35  -2.44
iter:  13 11:27:52  -274.200776c -2.94  -2.52
iter:  14 11:27:59  -274.200342c -2.74  -2.61
Writing to output.gpw (mode='')

iter:  15 11:28:06  -274.200590c -3.01  -2.91
iter:  16 11:28:13  -274.200411c -3.17  -2.93
iter:  17 11:28:21  -274.200679c -3.42  -3.02
iter:  18 11:28:28  -274.200493c -3.63  -3.13
iter:  19 11:28:35  -274.200444c -3.72  -3.24
Writing to output.gpw (mode='')

iter:  20 11:28:42  -274.200563c -3.83  -3.27
iter:  21 11:28:49  -274.200567c -4.33  -3.45
iter:  22 11:28:56  -274.200648c -4.00  -3.52
iter:  23 11:29:04  -274.200585c -4.57  -3.65
iter:  24 11:29:11  -274.200599c -4.40  -3.73
Writing to output.gpw (mode='')

iter:  25 11:29:18  -274.200602c -4.46  -3.75
iter:  26 11:29:25  -274.200618c -4.61  -3.77
iter:  27 11:29:32  -274.200631c -4.75  -3.80
iter:  28 11:29:39  -274.200636c -4.94  -3.96
iter:  29 11:29:46  -274.200600c -4.91  -4.06c
Writing to output.gpw (mode='')

iter:  30 11:29:54  -274.200612c -5.27  -4.17c
iter:  31 11:30:01  -274.200635c -5.17  -4.27c
iter:  32 11:30:08  -274.200632c -5.29  -4.41c
iter:  33 11:30:15  -274.200630c -5.36  -4.42c
iter:  34 11:30:22  -274.200632c -5.48  -4.47c
Writing to output.gpw (mode='')

iter:  35 11:30:29  -274.200631c -5.48  -4.44c
iter:  36 11:30:37  -274.200636c -5.72  -4.43c
iter:  37 11:30:44  -274.200638c -5.73  -4.39c
iter:  38 11:30:51  -274.200636c -5.82  -4.34c
iter:  39 11:30:58  -274.200638c -5.84  -4.40c
Writing to output.gpw (mode='')

iter:  40 11:31:05  -274.200633c -6.09  -4.29c
iter:  41 11:31:12  -274.200629c -5.94  -4.27c
iter:  42 11:31:19  -274.200628c -6.22  -4.25c
iter:  43 11:31:27  -274.200631c -6.26  -4.39c
iter:  44 11:31:34  -274.200632c -6.28  -4.40c
Writing to output.gpw (mode='')

iter:  45 11:31:41  -274.200624c -6.23  -4.39c
iter:  46 11:31:48  -274.200619c -6.47  -4.43c
iter:  47 11:31:55  -274.200629c -6.62  -4.47c
iter:  48 11:32:02  -274.200620c -6.73  -4.53c
iter:  49 11:32:09  -274.200625c -6.50  -4.59c
Writing to output.gpw (mode='')

iter:  50 11:32:17  -274.200624c -6.82  -4.80c
iter:  51 11:32:24  -274.200624c -6.91  -4.95c
iter:  52 11:32:31  -274.200621c -7.08  -4.96c
iter:  53 11:32:43  -274.200623c -7.25  -5.04c
iter:  54 11:32:51  -274.200623c -7.24  -5.08c
Writing to output.gpw (mode='')

iter:  55 11:32:58  -274.200622c -7.21  -5.21c
iter:  56 11:33:05  -274.200622c -7.19  -5.31c
iter:  57 11:33:13  -274.200622c -7.23  -5.38c
iter:  58 11:33:20  -274.200621c -7.50c -5.37c

Converged after 58 iterations.

Dipole moment: (-1.182032, -6.476198, 0.362481) |e|*Ang

Energy contributions relative to reference atoms: (reference = -13382.245603)

Kinetic:       +170.500961
Potential:     -148.781463
External:        +0.000000
XC:            -296.498757
Entropy (-ST):   -0.170704
Local:           +0.663990
--------------------------
Free energy:   -274.285973
Extrapolated:  -274.200621

Dipole-layer corrected work functions: 3.374748, 2.677934 eV

Showing only first 2 kpts
 Kpt  Band  Eigenvalues  Occupancy
  0    28     -3.27099    1.98511
  0    29     -3.17846    1.90890
  0    30     -2.94829    0.34698
  0    31     -2.80250    0.02248

  1    28     -3.08747    1.54502
  1    29     -3.02126    0.94920
  1    30     -2.95956    0.41646
  1    31     -2.94323    0.31891


Fermi level: -3.02634

No gap
Writing to output.gpw (mode='')


Forces in eV/Ang:
  0 Li    0.01806    0.00205   -0.27222
  1 Li   -0.01762    0.00265   -0.27384
  2 Li    0.00000   -0.00697   -0.28105
  3 Li    0.00811   -0.00059   -0.27718
  4 Li   -0.01119   -0.00489   -0.27706
  5 Li    0.00290    0.01838   -0.27861
  6 Li   -0.00429   -0.00346   -0.27355
  7 Li    0.00035   -0.00026   -0.27037
  8 Li    0.00341   -0.00905   -0.26395
  9 Li   -0.00514   -0.01018    0.28894
 10 Li    0.00160    0.01203    0.24771
 11 Li    0.00449   -0.00794    0.29362
 12 Li   -0.00424    0.00210    0.31190
 13 Li    0.00217   -0.00888    0.23626
 14 Li    0.00065    0.00110    0.31298
 15 Li   -0.00324    0.00373    0.24653
 16 Li    0.00104    0.00164    0.28252
 17 Li    0.00251    0.00409    0.25241
 18 Li   -0.01377    0.00977    0.04152
 19 Li    0.01000    0.00579    0.04363
 20 Li    0.00187   -0.01841   -0.19485
 21 Li   -0.01942   -0.02168    0.04842
 22 Li    0.01924   -0.01755    0.04062
 23 Li    0.00090    0.03947   -0.09673
 24 Li   -0.00792    0.01476    0.04770
 25 Li    0.00800    0.01382    0.04643
 26 Li   -0.00099   -0.00893    0.07908
 27 Li    0.04391   -0.06331   -0.11642
 28 Li    0.00829    0.02025   -0.00307
 29 Li   -0.08413   -0.05336   -0.16957
 30 Li   -0.31168    0.04148    0.27484
 31 Li    0.01446   -0.01627   -0.00915
 32 Li    0.29765    0.03700    0.26203
 33 Li    0.03608    0.06812   -0.03748
 34 Li   -0.00377   -0.00649   -0.00395
 35 Li   -0.03241    0.06888   -0.02891
 36 O     0.60480   -7.99254   12.58214
 37 C     0.05915   -5.53802    3.36017
 38 H     0.05958    0.02286    0.40451
 39 H     0.01953   -0.05650    0.30280
 40 H    -0.04536   -0.09761    0.08381
 41 H    -1.43849    0.89330    1.03115
 42 N     0.96184   -0.64765   -8.04876
 43 N    -0.20694   13.24704   -9.91155

System changes: positions 

Initializing position-dependent things.

Density initialized from wave functions
       .-----------------------.  
      /|                       |  
     / |                       |  
    /  |                       |  
   /   |                       |  
  /    |                       |  
 *     |                       |  
 |     |                       |  
 |     |                       |  
 |     |                  H    |  
 |     |                       |  
 |     |                 H   H |  
 |     |                       |  
 |     |                       |  
 |     Li              Li      |  
 |     |            H O        |  
 |   Li|     Li      CiN       |  
 |     |  Li      Li  N   Li   |  
 |     |   Li      Li      Li  |  
 |     |Li      Li      Li     |  
 |     | Li                    |  
 |   LLi     LLi     LLi       |  
 |     |  Li      Li      Li   |  
 | Li  |   Li      Li          |  
 |     |Li      Li      Li     |  
 Li    | Li      Li            |  
 |    Li      Li      Li       |  
 |     |                       |  
 |     |                       |  
 |     |                       |  
 |     |                       |  
 |     |                       |  
 |     |                       |  
 |     .-----------------------.  
 |    /                       /   
 |   /                       /    
 |  /                       /     
 | /                       /      
 |/                       /       
 *-----------------------*        

Positions:
   0 Li     1.617037    1.617037   10.000000    ( 0.0000,  0.0000,  0.0000)
   1 Li     4.851111    1.617037   10.000000    ( 0.0000,  0.0000,  0.0000)
   2 Li     8.085185    1.617037   10.000000    ( 0.0000,  0.0000,  0.0000)
   3 Li     1.617037    4.851111   10.000000    ( 0.0000,  0.0000,  0.0000)
   4 Li     4.851111    4.851111   10.000000    ( 0.0000,  0.0000,  0.0000)
   5 Li     8.085185    4.851111   10.000000    ( 0.0000,  0.0000,  0.0000)
   6 Li     1.617037    8.085185   10.000000    ( 0.0000,  0.0000,  0.0000)
   7 Li     4.851111    8.085185   10.000000    ( 0.0000,  0.0000,  0.0000)
   8 Li     8.085185    8.085185   10.000000    ( 0.0000,  0.0000,  0.0000)
   9 Li     0.000000    0.000000   11.617037    ( 0.0000,  0.0000,  0.0000)
  10 Li     3.234074    0.000000   11.617037    ( 0.0000,  0.0000,  0.0000)
  11 Li     6.468148    0.000000   11.617037    ( 0.0000,  0.0000,  0.0000)
  12 Li     0.000000    3.234074   11.617037    ( 0.0000,  0.0000,  0.0000)
  13 Li     3.234074    3.234074   11.617037    ( 0.0000,  0.0000,  0.0000)
  14 Li     6.468148    3.234074   11.617037    ( 0.0000,  0.0000,  0.0000)
  15 Li     0.000000    6.468148   11.617037    ( 0.0000,  0.0000,  0.0000)
  16 Li     3.234074    6.468148   11.617037    ( 0.0000,  0.0000,  0.0000)
  17 Li     6.468148    6.468148   11.617037    ( 0.0000,  0.0000,  0.0000)
  18 Li     1.616973    1.617091   13.469944    ( 0.0000,  0.0000,  0.0000)
  19 Li     4.851156    1.617071   13.469963    ( 0.0000,  0.0000,  0.0000)
  20 Li     8.085192    1.616941   13.468619    ( 0.0000,  0.0000,  0.0000)
  21 Li     1.616926    4.850987   13.469998    ( 0.0000,  0.0000,  0.0000)
  22 Li     4.851222    4.851006   13.469961    ( 0.0000,  0.0000,  0.0000)
  23 Li     8.085189    4.851340   13.469158    ( 0.0000,  0.0000,  0.0000)
  24 Li     1.616988    8.085270   13.470000    ( 0.0000,  0.0000,  0.0000)
  25 Li     4.851159    8.085266   13.469996    ( 0.0000,  0.0000,  0.0000)
  26 Li     8.085180    8.085125   13.470167    ( 0.0000,  0.0000,  0.0000)
  27 Li     0.000203   -0.000300   15.445370    ( 0.0000,  0.0000,  0.0000)
  28 Li     3.234119    0.000102   15.445902    ( 0.0000,  0.0000,  0.0000)
  29 Li     6.467718   -0.000255   15.445049    ( 0.0000,  0.0000,  0.0000)
  30 Li    -0.001860    3.234236   15.447663    ( 0.0000,  0.0000,  0.0000)
  31 Li     3.234156    3.233997   15.445865    ( 0.0000,  0.0000,  0.0000)
  32 Li     6.469929    3.234225   15.447573    ( 0.0000,  0.0000,  0.0000)
  33 Li     0.000212    6.468530   15.445731    ( 0.0000,  0.0000,  0.0000)
  34 Li     3.234057    6.468110   15.445914    ( 0.0000,  0.0000,  0.0000)
  35 Li     6.467952    6.468534   15.445775    ( 0.0000,  0.0000,  0.0000)
  36 O      8.088094    1.577028   18.504837    ( 0.0000,  0.0000,  0.0000)
  37 C      8.070362    0.158604   18.469049    ( 0.0000,  0.0000,  0.0000)
  38 H      7.320456   -0.217160   17.766633    ( 0.0000,  0.0000,  0.0000)
  39 H      7.891681   -0.217514   19.455787    ( 0.0000,  0.0000,  0.0000)
  40 H      9.055680   -0.133114   18.119093    ( 0.0000,  0.0000,  0.0000)
  41 H      7.214824    1.933410   18.742344    ( 0.0000,  0.0000,  0.0000)
  42 N      8.090451    1.632158   17.156213    ( 0.0000,  0.0000,  0.0000)
  43 N      8.083590    2.762896   17.146909    ( 0.0000,  0.0000,  0.0000)

Unit cell:
           periodic     x           y           z      points  spacing
  1. axis:    yes    9.702222    0.000000    0.000000    60     0.1617
  2. axis:    yes    0.000000    9.702222    0.000000    60     0.1617
  3. axis:    no     0.000000    0.000000   26.601111   168     0.1583

  Lengths:   9.702222   9.702222  26.601111
  Angles:   90.000000  90.000000  90.000000

Effective grid spacing dv^(1/3) = 0.1606

     iter     time        total  log10-change:
                         energy  eigst   dens
iter:   1 11:33:28  -275.623169  -0.46
iter:   2 11:33:35  -275.532969  -0.62  -1.54
iter:   3 11:33:42  -275.513681  -1.18  -1.65
iter:   4 11:33:50  -275.514811c -1.33  -1.96
Writing to output.gpw (mode='')

iter:   5 11:33:57  -275.521314c -1.45  -1.99
iter:   6 11:34:04  -275.660047  -0.82  -1.98
iter:   7 11:34:11  -275.556695  -1.33  -1.45
iter:   8 11:34:18  -275.490808  -1.23  -1.70
iter:   9 11:34:25  -275.491014  -1.62  -2.16
Writing to output.gpw (mode='')

iter:  10 11:34:32  -275.486201c -2.06  -2.21
iter:  11 11:34:39  -275.485397c -1.93  -2.32
iter:  12 11:34:47  -275.485706c -2.03  -2.27
iter:  13 11:34:54  -275.486359c -2.42  -2.50
iter:  14 11:35:01  -275.485570c -2.71  -2.54
Writing to output.gpw (mode='')

iter:  15 11:35:08  -275.486208c -2.87  -2.72
iter:  16 11:35:15  -275.485867c -3.02  -2.80
iter:  17 11:35:22  -275.485822c -3.40  -3.06
iter:  18 11:35:29  -275.485359c -3.37  -3.05
iter:  19 11:35:37  -275.485938c -3.69  -3.07
Writing to output.gpw (mode='')

iter:  20 11:35:44  -275.485784c -3.76  -3.11
iter:  21 11:35:51  -275.485618c -4.13  -3.28
iter:  22 11:35:58  -275.485612c -4.18  -3.37
iter:  23 11:36:05  -275.485699c -4.45  -3.44
iter:  24 11:36:12  -275.485679c -4.77  -3.57
Writing to output.gpw (mode='')

iter:  25 11:36:19  -275.485756c -4.63  -3.61
iter:  26 11:36:27  -275.485695c -4.88  -3.73
iter:  27 11:36:34  -275.485707c -5.10  -3.87
iter:  28 11:36:41  -275.485703c -5.11  -3.94
iter:  29 11:36:51  -275.485706c -5.51  -3.99
Writing to output.gpw (mode='')

iter:  30 11:36:58  -275.485718c -5.48  -4.06c
iter:  31 11:37:06  -275.485697c -5.49  -4.16c
iter:  32 11:37:13  -275.485708c -5.58  -4.22c
iter:  33 11:37:20  -275.485708c -5.93  -4.25c
iter:  34 11:37:27  -275.485712c -5.99  -4.33c
Writing to output.gpw (mode='')

iter:  35 11:37:34  -275.485712c -6.02  -4.53c
iter:  36 11:37:47  -275.485717c -6.25  -4.53c
iter:  37 11:37:54  -275.485722c -5.96  -4.56c
iter:  38 11:38:01  -275.485718c -6.33  -4.63c
iter:  39 11:38:08  -275.485716c -6.45  -4.86c
Writing to output.gpw (mode='')

iter:  40 11:38:15  -275.485715c -6.58  -4.91c
iter:  41 11:38:22  -275.485714c -6.54  -5.01c
iter:  42 11:38:29  -275.485712c -6.60  -5.09c
iter:  43 11:38:36  -275.485713c -7.00  -5.18c
iter:  44 11:38:44  -275.485715c -6.86  -5.22c
Writing to output.gpw (mode='')

iter:  45 11:38:51  -275.485713c -6.91  -5.30c
iter:  46 11:38:58  -275.485714c -6.97  -5.33c
iter:  47 11:39:05  -275.485714c -6.98  -5.48c
iter:  48 11:39:12  -275.485714c -7.24  -5.52c
iter:  49 11:39:19  -275.485714c -7.27  -5.66c
Writing to output.gpw (mode='')

iter:  50 11:39:27  -275.485714c -7.20  -5.71c
iter:  51 11:39:34  -275.485714c -7.36  -5.73c
iter:  52 11:39:41  -275.485714c -7.59c -5.76c

Converged after 52 iterations.

Dipole moment: (-1.104196, -6.385336, 0.389702) |e|*Ang

Energy contributions relative to reference atoms: (reference = -13382.245603)

Kinetic:       +166.913582
Potential:     -147.091665
External:        +0.000000
XC:            -295.894534
Entropy (-ST):   -0.166789
Local:           +0.670297
--------------------------
Free energy:   -275.569108
Extrapolated:  -275.485714

Dipole-layer corrected work functions: 3.373156, 2.624015 eV

Showing only first 2 kpts
 Kpt  Band  Eigenvalues  Occupancy
  0    28     -3.24636    1.98601
  0    29     -3.15484    1.91583
  0    30     -2.90577    0.27028
  0    31     -2.77797    0.02397

  1    28     -3.06045    1.55022
  1    29     -2.99565    0.97068
  1    30     -2.93260    0.42172
  1    31     -2.91992    0.34349


Fermi level: -2.99859

No gap
Writing to output.gpw (mode='')


Forces in eV/Ang:
  0 Li    0.01854    0.00244   -0.27160
  1 Li   -0.01797    0.00317   -0.27329
  2 Li   -0.00025   -0.00783   -0.28036
  3 Li    0.00800   -0.00065   -0.27682
  4 Li   -0.01101   -0.00525   -0.27665
  5 Li    0.00309    0.01972   -0.27830
  6 Li   -0.00492   -0.00369   -0.27343
  7 Li    0.00093   -0.00018   -0.27051
  8 Li    0.00354   -0.00986   -0.26415
  9 Li   -0.00515   -0.01110    0.28855
 10 Li    0.00212    0.01340    0.24818
 11 Li    0.00418   -0.00859    0.29280
 12 Li   -0.00514    0.00191    0.31317
 13 Li    0.00226   -0.00962    0.23589
 14 Li    0.00144    0.00099    0.31393
 15 Li   -0.00284    0.00550    0.24417
 16 Li    0.00060    0.00089    0.28364
 17 Li    0.00227    0.00518    0.25092
 18 Li   -0.01662    0.01012    0.04449
 19 Li    0.01323    0.00683    0.04803
 20 Li    0.00202   -0.02164   -0.20344
 21 Li   -0.02226   -0.02240    0.05118
 22 Li    0.02160   -0.01883    0.04418
 23 Li    0.00126    0.04229   -0.09637
 24 Li   -0.00691    0.01470    0.04648
 25 Li    0.00672    0.01380    0.04492
 26 Li   -0.00083   -0.00805    0.07823
 27 Li    0.04861   -0.06950   -0.12447
 28 Li    0.00845    0.02208   -0.00060
 29 Li   -0.09105   -0.06327   -0.17923
 30 Li   -0.26566    0.04474    0.22408
 31 Li    0.01504   -0.01713   -0.00834
 32 Li    0.25553    0.04643    0.20947
 33 Li    0.03412    0.06567   -0.03949
 34 Li   -0.00351   -0.00724   -0.00294
 35 Li   -0.03047    0.06770   -0.03181
 36 O     0.19302   -6.47458   10.68419
 37 C    -0.00311   -4.26451    2.55215
 38 H     0.04683   -0.01148    0.38682
 39 H    -0.03658   -0.37427    0.62820
 40 H     0.00615   -0.17569    0.10504
 41 H    -0.89878    0.53740    0.87494
 42 N     0.98230   -1.00065   -7.05845
 43 N    -0.25896   11.67183   -8.29887

System changes: positions 

Initializing position-dependent things.

Density initialized from wave functions
       .-----------------------.  
      /|                       |  
     / |                       |  
    /  |                       |  
   /   |                       |  
  /    |                       |  
 *     |                       |  
 |     |                       |  
 |     |                       |  
 |     |                  H    |  
 |     |                       |  
 |     |                 H   H |  
 |     |                       |  
 |     |                       |  
 |     Li              Li      |  
 |     |            H O        |  
 |   Li|     Li      CiN       |  
 |     |  Li      Li  N   Li   |  
 |     |   Li      Li      Li  |  
 |     |Li      Li      Li     |  
 |     | Li                    |  
 |   LLi     LLi     LLi       |  
 |     |  Li      Li      Li   |  
 | Li  |   Li      Li          |  
 |     |Li      Li      Li     |  
 Li    | Li      Li            |  
 |    Li      Li      Li       |  
 |     |                       |  
 |     |                       |  
 |     |                       |  
 |     |                       |  
 |     |                       |  
 |     |                       |  
 |     .-----------------------.  
 |    /                       /   
 |   /                       /    
 |  /                       /     
 | /                       /      
 |/                       /       
 *-----------------------*        

Positions:
   0 Li     1.617037    1.617037   10.000000    ( 0.0000,  0.0000,  0.0000)
   1 Li     4.851111    1.617037   10.000000    ( 0.0000,  0.0000,  0.0000)
   2 Li     8.085185    1.617037   10.000000    ( 0.0000,  0.0000,  0.0000)
   3 Li     1.617037    4.851111   10.000000    ( 0.0000,  0.0000,  0.0000)
   4 Li     4.851111    4.851111   10.000000    ( 0.0000,  0.0000,  0.0000)
   5 Li     8.085185    4.851111   10.000000    ( 0.0000,  0.0000,  0.0000)
   6 Li     1.617037    8.085185   10.000000    ( 0.0000,  0.0000,  0.0000)
   7 Li     4.851111    8.085185   10.000000    ( 0.0000,  0.0000,  0.0000)
   8 Li     8.085185    8.085185   10.000000    ( 0.0000,  0.0000,  0.0000)
   9 Li     0.000000    0.000000   11.617037    ( 0.0000,  0.0000,  0.0000)
  10 Li     3.234074    0.000000   11.617037    ( 0.0000,  0.0000,  0.0000)
  11 Li     6.468148    0.000000   11.617037    ( 0.0000,  0.0000,  0.0000)
  12 Li     0.000000    3.234074   11.617037    ( 0.0000,  0.0000,  0.0000)
  13 Li     3.234074    3.234074   11.617037    ( 0.0000,  0.0000,  0.0000)
  14 Li     6.468148    3.234074   11.617037    ( 0.0000,  0.0000,  0.0000)
  15 Li     0.000000    6.468148   11.617037    ( 0.0000,  0.0000,  0.0000)
  16 Li     3.234074    6.468148   11.617037    ( 0.0000,  0.0000,  0.0000)
  17 Li     6.468148    6.468148   11.617037    ( 0.0000,  0.0000,  0.0000)
  18 Li     1.616852    1.617162   13.470248    ( 0.0000,  0.0000,  0.0000)
  19 Li     4.851257    1.617129   13.470316    ( 0.0000,  0.0000,  0.0000)
  20 Li     8.085204    1.616773   13.467107    ( 0.0000,  0.0000,  0.0000)
  21 Li     1.616740    4.850821   13.470371    ( 0.0000,  0.0000,  0.0000)
  22 Li     4.851398    4.850853   13.470303    ( 0.0000,  0.0000,  0.0000)
  23 Li     8.085201    4.851673   13.468447    ( 0.0000,  0.0000,  0.0000)
  24 Li     1.616941    8.085377   13.470317    ( 0.0000,  0.0000,  0.0000)
  25 Li     4.851197    8.085369   13.470303    ( 0.0000,  0.0000,  0.0000)
  26 Li     8.085178    8.085062   13.470688    ( 0.0000,  0.0000,  0.0000)
  27 Li     0.000504   -0.000739   15.444588    ( 0.0000,  0.0000,  0.0000)
  28 Li     3.234177    0.000250   15.445887    ( 0.0000,  0.0000,  0.0000)
  29 Li     6.467100   -0.000706   15.443836    ( 0.0000,  0.0000,  0.0000)
  30 Li    -0.003444    3.234447   15.449044    ( 0.0000,  0.0000,  0.0000)
  31 Li     3.234261    3.233892   15.445776    ( 0.0000,  0.0000,  0.0000)
  32 Li     6.471487    3.234528   15.448804    ( 0.0000,  0.0000,  0.0000)
  33 Li     0.000446    6.468958   15.445444    ( 0.0000,  0.0000,  0.0000)
  34 Li     3.234039    6.468054   15.445900    ( 0.0000,  0.0000,  0.0000)
  35 Li     6.467741    6.468993   15.445526    ( 0.0000,  0.0000,  0.0000)
  36 O      8.084553    1.555984   18.538669    ( 0.0000,  0.0000,  0.0000)
  37 C      8.069588    0.146333   18.476523    ( 0.0000,  0.0000,  0.0000)
  38 H      7.320589   -0.217738   17.769258    ( 0.0000,  0.0000,  0.0000)
  39 H      7.890646   -0.224546   19.464825    ( 0.0000,  0.0000,  0.0000)
  40 H      9.056418   -0.135438   18.120227    ( 0.0000,  0.0000,  0.0000)
  41 H      7.215391    1.933128   18.746149    ( 0.0000,  0.0000,  0.0000)
  42 N      8.097507    1.656062   17.127133    ( 0.0000,  0.0000,  0.0000)
  43 N      8.080851    2.782339   17.117409    ( 0.0000,  0.0000,  0.0000)

Unit cell:
           periodic     x           y           z      points  spacing
  1. axis:    yes    9.702222    0.000000    0.000000    60     0.1617
  2. axis:    yes    0.000000    9.702222    0.000000    60     0.1617
  3. axis:    no     0.000000    0.000000   26.601111   168     0.1583

  Lengths:   9.702222   9.702222  26.601111
  Angles:   90.000000  90.000000  90.000000

Effective grid spacing dv^(1/3) = 0.1606

     iter     time        total  log10-change:
                         energy  eigst   dens
iter:   1 11:39:49  -276.707734  -0.46
iter:   2 11:39:57  -276.667062  -0.77  -1.65
iter:   3 11:40:04  -276.658360  -1.21  -1.75
iter:   4 11:40:11  -276.672241c -1.35  -2.06
Writing to output.gpw (mode='')

iter:   5 11:40:18  -276.655799c -1.18  -2.02
iter:   6 11:40:25  -276.671817c -1.62  -1.80
iter:   7 11:40:32  -276.640955  -1.85  -1.72
iter:   8 11:40:39  -276.638286  -2.08  -2.02
iter:   9 11:40:47  -276.637079c -1.89  -2.09
Writing to output.gpw (mode='')

iter:  10 11:40:54  -276.637169c -2.02  -2.41
iter:  11 11:41:01  -276.635430c -2.41  -2.47
iter:  12 11:41:08  -276.636665c -2.84  -2.68
iter:  13 11:41:15  -276.636812c -2.99  -2.66
iter:  14 11:41:22  -276.636381c -2.92  -2.68
Writing to output.gpw (mode='')

iter:  15 11:41:30  -276.636997c -3.30  -2.62
iter:  16 11:41:37  -276.636758c -3.35  -2.61
iter:  17 11:41:44  -276.636704c -2.92  -2.64
iter:  18 11:41:51  -276.636465c -3.07  -2.57
iter:  19 11:41:58  -276.636858c -2.87  -2.52
Writing to output.gpw (mode='')

iter:  20 11:42:05  -276.636178c -3.24  -2.55
iter:  21 11:42:13  -276.636042c -3.14  -2.68
iter:  22 11:42:20  -276.635842c -3.35  -2.77
iter:  23 11:42:27  -276.636677c -2.67  -2.95
iter:  24 11:42:34  -276.635870c -3.46  -2.76
Writing to output.gpw (mode='')

iter:  25 11:42:46  -276.636002c -3.24  -3.00
iter:  26 11:42:53  -276.635985c -2.99  -3.32
iter:  27 11:43:00  -276.635906c -3.56  -3.05
iter:  28 11:43:08  -276.635907c -4.63  -3.46
iter:  29 11:43:15  -276.635862c -4.79  -3.56
Writing to output.gpw (mode='')

iter:  30 11:43:22  -276.635916c -4.53  -3.62
iter:  31 11:43:29  -276.635921c -5.02  -3.49
iter:  32 11:43:36  -276.635842c -4.49  -3.62
iter:  33 11:43:44  -276.635885c -4.60  -3.75
iter:  34 11:43:51  -276.635878c -5.12  -3.79
Writing to output.gpw (mode='')

iter:  35 11:43:58  -276.635855c -5.05  -3.91
iter:  36 11:44:05  -276.635887c -5.58  -4.06c
iter:  37 11:44:12  -276.635900c -5.51  -4.09c
iter:  38 11:44:19  -276.635889c -5.62  -4.10c
iter:  39 11:44:27  -276.635849c -5.87  -4.09c
Writing to output.gpw (mode='')

iter:  40 11:44:34  -276.635875c -6.22  -4.17c
iter:  41 11:44:41  -276.635871c -6.34  -4.24c
iter:  42 11:44:48  -276.635880c -6.13  -4.32c
iter:  43 11:44:55  -276.635876c -6.14  -4.66c
iter:  44 11:45:02  -276.635883c -6.48  -4.77c
Writing to output.gpw (mode='')

iter:  45 11:45:09  -276.635881c -6.60  -4.80c
iter:  46 11:45:17  -276.635876c -6.70  -4.81c
iter:  47 11:45:24  -276.635879c -6.99  -4.89c
iter:  48 11:45:31  -276.635878c -6.92  -5.09c
iter:  49 11:45:38  -276.635878c -6.93  -5.30c
Writing to output.gpw (mode='')

iter:  50 11:45:45  -276.635879c -7.07  -5.51c
iter:  51 11:45:52  -276.635879c -7.22  -5.53c
iter:  52 11:46:00  -276.635878c -7.28  -5.58c
iter:  53 11:46:07  -276.635879c -7.39  -5.68c
iter:  54 11:46:14  -276.635879c -7.44c -5.70c

Converged after 54 iterations.

Dipole moment: (-1.067953, -6.221635, 0.403717) |e|*Ang

Energy contributions relative to reference atoms: (reference = -13382.245603)

Kinetic:       +163.326020
Potential:     -145.248469
External:        +0.000000
XC:            -295.305200
Entropy (-ST):   -0.164274
Local:           +0.673907
--------------------------
Free energy:   -276.718015
Extrapolated:  -276.635879

Dipole-layer corrected work functions: 3.372862, 2.596780 eV

Showing only first 2 kpts
 Kpt  Band  Eigenvalues  Occupancy
  0    28     -3.23446    1.98652
  0    29     -3.14441    1.92104
  0    30     -2.88133    0.22411
  0    31     -2.76368    0.02371

  1    28     -3.04525    1.54012
  1    29     -2.98474    0.99917
  1    30     -2.91985    0.42850
  1    31     -2.90813    0.35488


Fermi level: -2.98482

No gap
Writing to output.gpw (mode='')


Forces in eV/Ang:
  0 Li    0.01931    0.00290   -0.27133
  1 Li   -0.01866    0.00374   -0.27286
  2 Li   -0.00051   -0.00860   -0.27982
  3 Li    0.00840   -0.00085   -0.27666
  4 Li   -0.01105   -0.00552   -0.27638
  5 Li    0.00309    0.02086   -0.27772
  6 Li   -0.00510   -0.00363   -0.27339
  7 Li    0.00135   -0.00003   -0.27103
  8 Li    0.00345   -0.01058   -0.26452
  9 Li   -0.00508   -0.01194    0.28850
 10 Li    0.00265    0.01460    0.24809
 11 Li    0.00378   -0.00922    0.29184
 12 Li   -0.00571    0.00175    0.31457
 13 Li    0.00213   -0.01026    0.23532
 14 Li    0.00221    0.00096    0.31484
 15 Li   -0.00247    0.00726    0.24211
 16 Li    0.00003   -0.00011    0.28421
 17 Li    0.00204    0.00632    0.24956
 18 Li   -0.01862    0.01021    0.04637
 19 Li    0.01586    0.00794    0.05186
 20 Li    0.00190   -0.02356   -0.20835
 21 Li   -0.02482   -0.02293    0.05292
 22 Li    0.02351   -0.02030    0.04767
 23 Li    0.00173    0.04371   -0.09368
 24 Li   -0.00586    0.01438    0.04532
 25 Li    0.00525    0.01356    0.04330
 26 Li   -0.00057   -0.00792    0.07472
 27 Li    0.05081   -0.07105   -0.12398
 28 Li    0.00838    0.02342    0.00018
 29 Li   -0.09504   -0.07088   -0.18267
 30 Li   -0.21207    0.04521    0.17757
 31 Li    0.01540   -0.01709   -0.00899
 32 Li    0.20783    0.05316    0.16034
 33 Li    0.03238    0.06101   -0.04121
 34 Li   -0.00295   -0.00817   -0.00237
 35 Li   -0.02894    0.06422   -0.03458
 36 O     0.21470   -5.01504    9.32381
 37 C    -0.08576   -3.42655    2.21994
 38 H     0.00203   -0.05772    0.32978
 39 H    -0.03222   -0.54705    0.56266
 40 H    -0.00063   -0.18675    0.13152
 41 H    -0.74464    0.27724    0.77781
 42 N     0.93715   -0.74086   -6.57002
 43 N    -0.26795    9.59678   -6.76722

System changes: positions 

Initializing position-dependent things.

Density initialized from wave functions
       .-----------------------.  
      /|                       |  
     / |                       |  
    /  |                       |  
   /   |                       |  
  /    |                       |  
 *     |                       |  
 |     |                       |  
 |     |                       |  
 |     |                  H    |  
 |     |                       |  
 |     |                 H   H |  
 |     |                       |  
 |     |                       |  
 |     Li              Li      |  
 |     |            H O        |  
 |   Li|     Li      CiN       |  
 |     |  Li      Li  N   Li   |  
 |     |   Li      Li      Li  |  
 |     |Li      Li      Li     |  
 |     | Li                    |  
 |   LLi     LLi     LLi       |  
 |     |  Li      Li      Li   |  
 | Li  |   Li      Li          |  
 |     |Li      Li      Li     |  
 Li    | Li      Li            |  
 |    Li      Li      Li       |  
 |     |                       |  
 |     |                       |  
 |     |                       |  
 |     |                       |  
 |     |                       |  
 |     |                       |  
 |     .-----------------------.  
 |    /                       /   
 |   /                       /    
 |  /                       /     
 | /                       /      
 |/                       /       
 *-----------------------*        

Positions:
   0 Li     1.617037    1.617037   10.000000    ( 0.0000,  0.0000,  0.0000)
   1 Li     4.851111    1.617037   10.000000    ( 0.0000,  0.0000,  0.0000)
   2 Li     8.085185    1.617037   10.000000    ( 0.0000,  0.0000,  0.0000)
   3 Li     1.617037    4.851111   10.000000    ( 0.0000,  0.0000,  0.0000)
   4 Li     4.851111    4.851111   10.000000    ( 0.0000,  0.0000,  0.0000)
   5 Li     8.085185    4.851111   10.000000    ( 0.0000,  0.0000,  0.0000)
   6 Li     1.617037    8.085185   10.000000    ( 0.0000,  0.0000,  0.0000)
   7 Li     4.851111    8.085185   10.000000    ( 0.0000,  0.0000,  0.0000)
   8 Li     8.085185    8.085185   10.000000    ( 0.0000,  0.0000,  0.0000)
   9 Li     0.000000    0.000000   11.617037    ( 0.0000,  0.0000,  0.0000)
  10 Li     3.234074    0.000000   11.617037    ( 0.0000,  0.0000,  0.0000)
  11 Li     6.468148    0.000000   11.617037    ( 0.0000,  0.0000,  0.0000)
  12 Li     0.000000    3.234074   11.617037    ( 0.0000,  0.0000,  0.0000)
  13 Li     3.234074    3.234074   11.617037    ( 0.0000,  0.0000,  0.0000)
  14 Li     6.468148    3.234074   11.617037    ( 0.0000,  0.0000,  0.0000)
  15 Li     0.000000    6.468148   11.617037    ( 0.0000,  0.0000,  0.0000)
  16 Li     3.234074    6.468148   11.617037    ( 0.0000,  0.0000,  0.0000)
  17 Li     6.468148    6.468148   11.617037    ( 0.0000,  0.0000,  0.0000)
  18 Li     1.616689    1.617244   13.470625    ( 0.0000,  0.0000,  0.0000)
  19 Li     4.851405    1.617207   13.470767    ( 0.0000,  0.0000,  0.0000)
  20 Li     8.085216    1.616559   13.465337    ( 0.0000,  0.0000,  0.0000)
  21 Li     1.616501    4.850626   13.470818    ( 0.0000,  0.0000,  0.0000)
  22 Li     4.851618    4.850664   13.470733    ( 0.0000,  0.0000,  0.0000)
  23 Li     8.085220    4.852061   13.467680    ( 0.0000,  0.0000,  0.0000)
  24 Li     1.616900    8.085494   13.470667    ( 0.0000,  0.0000,  0.0000)
  25 Li     4.851225    8.085482   13.470635    ( 0.0000,  0.0000,  0.0000)
  26 Li     8.085178    8.084994   13.471246    ( 0.0000,  0.0000,  0.0000)
  27 Li     0.000892   -0.001277   15.443669    ( 0.0000,  0.0000,  0.0000)
  28 Li     3.234243    0.000440   15.445883    ( 0.0000,  0.0000,  0.0000)
  29 Li     6.466332   -0.001322   15.442385    ( 0.0000,  0.0000,  0.0000)
  30 Li    -0.004627    3.234728   15.450061    ( 0.0000,  0.0000,  0.0000)
  31 Li     3.234387    3.233767   15.445674    ( 0.0000,  0.0000,  0.0000)
  32 Li     6.472704    3.234973   15.449629    ( 0.0000,  0.0000,  0.0000)
  33 Li     0.000692    6.469396   15.445096    ( 0.0000,  0.0000,  0.0000)
  34 Li     3.234023    6.467979   15.445889    ( 0.0000,  0.0000,  0.0000)
  35 Li     6.467519    6.469477   15.445211    ( 0.0000,  0.0000,  0.0000)
  36 O      8.082332    1.543738   18.572224    ( 0.0000,  0.0000,  0.0000)
  37 C      8.067831    0.137938   18.483922    ( 0.0000,  0.0000,  0.0000)
  38 H      7.320201   -0.218863   17.771527    ( 0.0000,  0.0000,  0.0000)
  39 H      7.889766   -0.233526   19.472836    ( 0.0000,  0.0000,  0.0000)
  40 H      9.056952   -0.137903   18.121754    ( 0.0000,  0.0000,  0.0000)
  41 H      7.215938    1.930592   18.749943    ( 0.0000,  0.0000,  0.0000)
  42 N      8.104931    1.677035   17.093892    ( 0.0000,  0.0000,  0.0000)
  43 N      8.077886    2.796649   17.095062    ( 0.0000,  0.0000,  0.0000)

Unit cell:
           periodic     x           y           z      points  spacing
  1. axis:    yes    9.702222    0.000000    0.000000    60     0.1617
  2. axis:    yes    0.000000    9.702222    0.000000    60     0.1617
  3. axis:    no     0.000000    0.000000   26.601111   168     0.1583

  Lengths:   9.702222   9.702222  26.601111
  Angles:   90.000000  90.000000  90.000000

Effective grid spacing dv^(1/3) = 0.1606

     iter     time        total  log10-change:
                         energy  eigst   dens
iter:   1 11:46:22  -277.590595  -0.48
iter:   2 11:46:29  -277.558299  -0.83  -1.70
iter:   3 11:46:37  -277.550418  -1.25  -1.80
iter:   4 11:46:44  -277.544920c -1.35  -2.09
Writing to output.gpw (mode='')

iter:   5 11:46:51  -277.584599  -1.23  -2.18
iter:   6 11:46:58  -277.585574  -1.50  -1.89
iter:   7 11:47:07  -277.536122  -1.89  -1.89
iter:   8 11:47:15  -277.518269  -1.36  -2.11
iter:   9 11:47:23  -277.525898c -2.31  -2.26
Writing to output.gpw (mode='')

iter:  10 11:47:30  -277.530395c -2.04  -2.32
iter:  11 11:47:44  -277.518439c -2.09  -2.30
iter:  12 11:47:51  -277.519000c -1.89  -2.77
iter:  13 11:47:59  -277.519032c -2.88  -2.78
iter:  14 11:48:06  -277.518583c -3.01  -2.91
Writing to output.gpw (mode='')

iter:  15 11:48:13  -277.519791c -3.01  -2.86
iter:  16 11:48:20  -277.519162c -2.89  -2.91
iter:  17 11:48:27  -277.519016c -3.74  -2.99
iter:  18 11:48:34  -277.518726c -3.43  -3.13
iter:  19 11:48:41  -277.518928c -3.66  -3.31
Writing to output.gpw (mode='')

iter:  20 11:48:49  -277.518843c -4.01  -3.39
iter:  21 11:48:56  -277.519032c -4.10  -3.47
iter:  22 11:49:03  -277.518926c -4.25  -3.56
iter:  23 11:49:10  -277.518891c -4.14  -3.65
iter:  24 11:49:17  -277.518940c -4.38  -3.73
Writing to output.gpw (mode='')

iter:  25 11:49:24  -277.518952c -4.40  -3.77
iter:  26 11:49:32  -277.518957c -4.66  -3.83
iter:  27 11:49:39  -277.518946c -4.83  -3.89
iter:  28 11:49:46  -277.518967c -5.02  -3.98
iter:  29 11:49:53  -277.518964c -5.03  -4.11c
Writing to output.gpw (mode='')

iter:  30 11:50:00  -277.518971c -5.18  -4.18c
iter:  31 11:50:07  -277.518962c -5.24  -4.18c
iter:  32 11:50:15  -277.518973c -5.33  -4.30c
iter:  33 11:50:22  -277.518970c -5.69  -4.33c
iter:  34 11:50:29  -277.518969c -5.38  -4.37c
Writing to output.gpw (mode='')

iter:  35 11:50:36  -277.518984c -5.65  -4.42c
iter:  36 11:50:43  -277.518973c -6.00  -4.53c
iter:  37 11:50:50  -277.518976c -5.79  -4.53c
iter:  38 11:50:58  -277.518975c -5.91  -4.70c
iter:  39 11:51:05  -277.518978c -5.88  -4.75c
Writing to output.gpw (mode='')

iter:  40 11:51:12  -277.518976c -5.85  -4.86c
iter:  41 11:51:19  -277.518977c -6.09  -4.92c
iter:  42 11:51:26  -277.518975c -6.33  -4.92c
iter:  43 11:51:33  -277.518979c -6.23  -4.89c
iter:  44 11:51:41  -277.518977c -6.42  -4.99c
Writing to output.gpw (mode='')

iter:  45 11:51:48  -277.518976c -6.54  -5.00c
iter:  46 11:51:55  -277.518981c -6.71  -4.93c
iter:  47 11:52:02  -277.518981c -6.47  -5.12c
iter:  48 11:52:09  -277.518983c -6.95  -5.21c
iter:  49 11:52:17  -277.518980c -6.70  -5.30c
Writing to output.gpw (mode='')

iter:  50 11:52:24  -277.518982c -6.99  -5.34c
iter:  51 11:52:31  -277.518982c -6.86  -5.49c
iter:  52 11:52:43  -277.518982c -7.16  -5.60c
iter:  53 11:52:52  -277.518983c -7.01  -5.59c
iter:  54 11:52:59  -277.518983c -7.25  -5.60c
Writing to output.gpw (mode='')

iter:  55 11:53:06  -277.518983c -7.13  -5.72c
iter:  56 11:53:13  -277.518983c -7.41c -5.72c

Converged after 56 iterations.

Dipole moment: (-1.066044, -6.053875, 0.398839) |e|*Ang

Energy contributions relative to reference atoms: (reference = -13382.245603)

Kinetic:       +161.024637
Potential:     -144.232415
External:        +0.000000
XC:            -294.906959
Entropy (-ST):   -0.162315
Local:           +0.676912
--------------------------
Free energy:   -277.600140
Extrapolated:  -277.518983

Dipole-layer corrected work functions: 3.373708, 2.607002 eV

Showing only first 2 kpts
 Kpt  Band  Eigenvalues  Occupancy
  0    28     -3.24137    1.98688
  0    29     -3.15329    1.92597
  0    30     -2.87818    0.19181
  0    31     -2.76621    0.02235

  1    28     -3.04754    1.51671
  1    29     -2.99286    1.02503
  1    30     -2.92864    0.45085
  1    31     -2.91289    0.35036


Fermi level: -2.99035

Gap: 0.025 eV
Transition (v -> c):
  (s=0, k=1, n=29, [0.12, -0.12, 0.00]) -> (s=0, k=4, n=30, [0.38, -0.38, 0.00])
Writing to output.gpw (mode='')


Forces in eV/Ang:
  0 Li    0.02009    0.00331   -0.27113
  1 Li   -0.01949    0.00424   -0.27238
  2 Li   -0.00068   -0.00921   -0.27926
  3 Li    0.00881   -0.00106   -0.27647
  4 Li   -0.01094   -0.00557   -0.27620
  5 Li    0.00294    0.02188   -0.27703
  6 Li   -0.00503   -0.00331   -0.27344
  7 Li    0.00170    0.00015   -0.27170
  8 Li    0.00322   -0.01150   -0.26491
  9 Li   -0.00480   -0.01269    0.28807
 10 Li    0.00310    0.01561    0.24801
 11 Li    0.00323   -0.00984    0.29043
 12 Li   -0.00608    0.00166    0.31546
 13 Li    0.00187   -0.01081    0.23488
 14 Li    0.00304    0.00105    0.31537
 15 Li   -0.00202    0.00912    0.24031
 16 Li   -0.00055   -0.00140    0.28391
 17 Li    0.00167    0.00756    0.24816
 18 Li   -0.02048    0.01011    0.04835
 19 Li    0.01845    0.00890    0.05538
 20 Li    0.00177   -0.02442   -0.20918
 21 Li   -0.02680   -0.02319    0.05417
 22 Li    0.02479   -0.02152    0.05070
 23 Li    0.00222    0.04359   -0.08768
 24 Li   -0.00462    0.01372    0.04415
 25 Li    0.00363    0.01298    0.04172
 26 Li   -0.00038   -0.00765    0.07007
 27 Li    0.05310   -0.07179   -0.12140
 28 Li    0.00800    0.02479    0.00018
 29 Li   -0.09839   -0.07792   -0.18379
 30 Li   -0.15237    0.04624    0.13053
 31 Li    0.01537   -0.01692   -0.00997
 32 Li    0.15378    0.06026    0.11091
 33 Li    0.03010    0.05467   -0.04279
 34 Li   -0.00228   -0.00903   -0.00235
 35 Li   -0.02695    0.05891   -0.03713
 36 O     0.34705   -4.12669    8.40806
 37 C    -0.10468   -2.75048    1.97463
 38 H    -0.02135   -0.06841    0.30373
 39 H    -0.03296   -0.67879    0.47829
 40 H    -0.05257   -0.16780    0.16770
 41 H    -0.70489    0.08952    0.68878
 42 N     0.90179   -0.73340   -6.27012
 43 N    -0.24529    8.29053   -5.70033

System changes: positions 

Initializing position-dependent things.

Density initialized from wave functions
       .-----------------------.  
      /|                       |  
     / |                       |  
    /  |                       |  
   /   |                       |  
  /    |                       |  
 *     |                       |  
 |     |                       |  
 |     |                       |  
 |     |                  H    |  
 |     |                       |  
 |     |                 H   H |  
 |     |                       |  
 |     |                       |  
 |     Li              Li      |  
 |     |            H O        |  
 |   Li|     Li      CiN       |  
 |     |  Li      Li  N   Li   |  
 |     |   Li      Li      Li  |  
 |     |Li      Li      Li     |  
 |     | Li                    |  
 |   LLi     LLi     LLi       |  
 |     |  Li      Li      Li   |  
 | Li  |   Li      Li          |  
 |     |Li      Li      Li     |  
 Li    | Li      Li            |  
 |    Li      Li      Li       |  
 |     |                       |  
 |     |                       |  
 |     |                       |  
 |     |                       |  
 |     |                       |  
 |     |                       |  
 |     .-----------------------.  
 |    /                       /   
 |   /                       /    
 |  /                       /     
 | /                       /      
 |/                       /       
 *-----------------------*        

Positions:
   0 Li     1.617037    1.617037   10.000000    ( 0.0000,  0.0000,  0.0000)
   1 Li     4.851111    1.617037   10.000000    ( 0.0000,  0.0000,  0.0000)
   2 Li     8.085185    1.617037   10.000000    ( 0.0000,  0.0000,  0.0000)
   3 Li     1.617037    4.851111   10.000000    ( 0.0000,  0.0000,  0.0000)
   4 Li     4.851111    4.851111   10.000000    ( 0.0000,  0.0000,  0.0000)
   5 Li     8.085185    4.851111   10.000000    ( 0.0000,  0.0000,  0.0000)
   6 Li     1.617037    8.085185   10.000000    ( 0.0000,  0.0000,  0.0000)
   7 Li     4.851111    8.085185   10.000000    ( 0.0000,  0.0000,  0.0000)
   8 Li     8.085185    8.085185   10.000000    ( 0.0000,  0.0000,  0.0000)
   9 Li     0.000000    0.000000   11.617037    ( 0.0000,  0.0000,  0.0000)
  10 Li     3.234074    0.000000   11.617037    ( 0.0000,  0.0000,  0.0000)
  11 Li     6.468148    0.000000   11.617037    ( 0.0000,  0.0000,  0.0000)
  12 Li     0.000000    3.234074   11.617037    ( 0.0000,  0.0000,  0.0000)
  13 Li     3.234074    3.234074   11.617037    ( 0.0000,  0.0000,  0.0000)
  14 Li     6.468148    3.234074   11.617037    ( 0.0000,  0.0000,  0.0000)
  15 Li     0.000000    6.468148   11.617037    ( 0.0000,  0.0000,  0.0000)
  16 Li     3.234074    6.468148   11.617037    ( 0.0000,  0.0000,  0.0000)
  17 Li     6.468148    6.468148   11.617037    ( 0.0000,  0.0000,  0.0000)
  18 Li     1.616496    1.617329   13.471045    ( 0.0000,  0.0000,  0.0000)
  19 Li     4.851590    1.617298   13.471279    ( 0.0000,  0.0000,  0.0000)
  20 Li     8.085228    1.616329   13.463479    ( 0.0000,  0.0000,  0.0000)
  21 Li     1.616233    4.850420   13.471300    ( 0.0000,  0.0000,  0.0000)
  22 Li     4.851860    4.850455   13.471214    ( 0.0000,  0.0000,  0.0000)
  23 Li     8.085246    4.852462   13.466948    ( 0.0000,  0.0000,  0.0000)
  24 Li     1.616872    8.085609   13.471025    ( 0.0000,  0.0000,  0.0000)
  25 Li     4.851237    8.085593   13.470969    ( 0.0000,  0.0000,  0.0000)
  26 Li     8.085180    8.084927   13.471785    ( 0.0000,  0.0000,  0.0000)
  27 Li     0.001331   -0.001859   15.442721    ( 0.0000,  0.0000,  0.0000)
  28 Li     3.234308    0.000656   15.445879    ( 0.0000,  0.0000,  0.0000)
  29 Li     6.465483   -0.002049   15.440841    ( 0.0000,  0.0000,  0.0000)
  30 Li    -0.005238    3.235052   15.450639    ( 0.0000,  0.0000,  0.0000)
  31 Li     3.234519    3.233635   15.445560    ( 0.0000,  0.0000,  0.0000)
  32 Li     6.473408    3.235525   15.449985    ( 0.0000,  0.0000,  0.0000)
  33 Li     0.000927    6.469789   15.444712    ( 0.0000,  0.0000,  0.0000)
  34 Li     3.234014    6.467891   15.445876    ( 0.0000,  0.0000,  0.0000)
  35 Li     6.467307    6.469927   15.444855    ( 0.0000,  0.0000,  0.0000)
  36 O      8.082509    1.536060   18.604419    ( 0.0000,  0.0000,  0.0000)
  37 C      8.065990    0.133609   18.490820    ( 0.0000,  0.0000,  0.0000)
  38 H      7.319593   -0.220033   17.773693    ( 0.0000,  0.0000,  0.0000)
  39 H      7.888949   -0.243713   19.479531    ( 0.0000,  0.0000,  0.0000)
  40 H      9.056735   -0.140059   18.123733    ( 0.0000,  0.0000,  0.0000)
  41 H      7.215631    1.926579   18.753327    ( 0.0000,  0.0000,  0.0000)
  42 N      8.112352    1.694476   17.058668    ( 0.0000,  0.0000,  0.0000)
  43 N      8.075214    2.807584   17.078275    ( 0.0000,  0.0000,  0.0000)

Unit cell:
           periodic     x           y           z      points  spacing
  1. axis:    yes    9.702222    0.000000    0.000000    60     0.1617
  2. axis:    yes    0.000000    9.702222    0.000000    60     0.1617
  3. axis:    no     0.000000    0.000000   26.601111   168     0.1583

  Lengths:   9.702222   9.702222  26.601111
  Angles:   90.000000  90.000000  90.000000

Effective grid spacing dv^(1/3) = 0.1606

     iter     time        total  log10-change:
                         energy  eigst   dens
iter:   1 11:53:22  -278.292622  -0.55
iter:   2 11:53:29  -278.268042  -0.93  -1.75
iter:   3 11:53:36  -278.261114  -1.34  -1.86
iter:   4 11:53:44  -278.251399c -1.43  -2.14
Writing to output.gpw (mode='')

iter:   5 11:53:51  -278.290561  -1.30  -2.26
iter:   6 11:53:58  -278.308483  -1.46  -1.94
iter:   7 11:54:05  -278.241762  -1.62  -1.86
iter:   8 11:54:12  -278.230848  -1.43  -2.20
iter:   9 11:54:20  -278.242164c -1.82  -2.30
Writing to output.gpw (mode='')

iter:  10 11:54:27  -278.265003  -1.75  -2.28
iter:  11 11:54:34  -278.235276c -2.15  -2.01
iter:  12 11:54:41  -278.231367  -1.48  -2.33
iter:  13 11:54:48  -278.230474c -2.41  -2.35
iter:  14 11:54:55  -278.230528c -2.79  -2.59
Writing to output.gpw (mode='')

iter:  15 11:55:03  -278.232246c -3.07  -2.68
iter:  16 11:55:10  -278.231556c -2.80  -2.78
iter:  17 11:55:17  -278.231305c -3.22  -2.91
iter:  18 11:55:24  -278.230883c -3.33  -2.98
iter:  19 11:55:31  -278.231236c -3.49  -3.23
Writing to output.gpw (mode='')

iter:  20 11:55:38  -278.231245c -3.85  -3.33
iter:  21 11:55:46  -278.231317c -4.02  -3.39
iter:  22 11:55:53  -278.231213c -4.00  -3.50
iter:  23 11:56:00  -278.231245c -4.32  -3.81
iter:  24 11:56:07  -278.231275c -4.34  -3.87
Writing to output.gpw (mode='')

iter:  25 11:56:14  -278.231284c -4.39  -4.03c
iter:  26 11:56:22  -278.231278c -4.67  -4.08c
iter:  27 11:56:29  -278.231290c -4.73  -4.13c
iter:  28 11:56:36  -278.231295c -4.63  -4.14c
iter:  29 11:56:43  -278.231311c -4.77  -4.28c
Writing to output.gpw (mode='')

iter:  30 11:56:50  -278.231306c -4.91  -4.39c
iter:  31 11:56:58  -278.231307c -5.15  -4.43c
iter:  32 11:57:05  -278.231325c -5.00  -4.50c
iter:  33 11:57:12  -278.231325c -5.08  -4.51c
iter:  34 11:57:19  -278.231326c -5.10  -4.53c
Writing to output.gpw (mode='')

iter:  35 11:57:26  -278.231329c -5.38  -4.58c
iter:  36 11:57:34  -278.231330c -5.46  -4.71c
iter:  37 11:57:46  -278.231330c -5.46  -4.83c
iter:  38 11:57:54  -278.231336c -5.52  -4.89c
iter:  39 11:58:01  -278.231338c -5.60  -4.88c
Writing to output.gpw (mode='')

iter:  40 11:58:08  -278.231338c -5.71  -4.97c
iter:  41 11:58:15  -278.231335c -5.92  -4.99c
iter:  42 11:58:22  -278.231341c -6.01  -5.13c
iter:  43 11:58:29  -278.231340c -5.99  -5.18c
iter:  44 11:58:37  -278.231340c -5.93  -5.33c
Writing to output.gpw (mode='')

iter:  45 11:58:44  -278.231341c -6.26  -5.36c
iter:  46 11:58:51  -278.231340c -6.26  -5.34c
iter:  47 11:58:58  -278.231340c -6.39  -5.26c
iter:  48 11:59:05  -278.231341c -6.38  -5.28c
iter:  49 11:59:13  -278.231341c -6.25  -5.29c
Writing to output.gpw (mode='')

iter:  50 11:59:20  -278.231341c -6.38  -5.25c
iter:  51 11:59:27  -278.231341c -6.57  -5.23c
iter:  52 11:59:34  -278.231341c -6.59  -5.18c
iter:  53 11:59:41  -278.231341c -6.68  -5.15c
iter:  54 11:59:48  -278.231342c -6.53  -5.15c
Writing to output.gpw (mode='')

iter:  55 11:59:55  -278.231341c -6.66  -5.12c
iter:  56 12:00:03  -278.231340c -6.96  -5.07c
iter:  57 12:00:10  -278.231341c -7.10  -5.00c
iter:  58 12:00:17  -278.231341c -7.17  -5.09c
iter:  59 12:00:24  -278.231343c -7.04  -5.08c
Writing to output.gpw (mode='')

iter:  60 12:00:31  -278.231343c -7.12  -5.03c
iter:  61 12:00:38  -278.231346c -7.17  -5.09c
iter:  62 12:00:46  -278.231345c -7.35  -5.06c
iter:  63 12:00:53  -278.231346c -7.38  -5.15c
iter:  64 12:01:00  -278.231347c -7.43c -5.20c

Converged after 64 iterations.

Dipole moment: (-1.102137, -5.938744, 0.375578) |e|*Ang

Energy contributions relative to reference atoms: (reference = -13382.245603)

Kinetic:       +159.218654
Potential:     -143.432261
External:        +0.000000
XC:            -294.614900
Entropy (-ST):   -0.161055
Local:           +0.677688
--------------------------
Free energy:   -278.311874
Extrapolated:  -278.231347

Dipole-layer corrected work functions: 3.375717, 2.653728 eV

Showing only first 2 kpts
 Kpt  Band  Eigenvalues  Occupancy
  0    28     -3.26662    1.98711
  0    29     -3.18071    1.93020
  0    30     -2.89655    0.17202
  0    31     -2.78788    0.02119

  1    28     -3.06795    1.48711
  1    29     -3.01910    1.04374
  1    30     -2.95730    0.48154
  1    31     -2.93438    0.33408


Fermi level: -3.01472

Gap: 0.024 eV
Transition (v -> c):
  (s=0, k=1, n=29, [0.12, -0.12, 0.00]) -> (s=0, k=4, n=30, [0.38, -0.38, 0.00])
Writing to output.gpw (mode='')


Forces in eV/Ang:
  0 Li    0.02076    0.00361   -0.27104
  1 Li   -0.02028    0.00463   -0.27204
  2 Li   -0.00078   -0.00956   -0.27883
  3 Li    0.00905   -0.00112   -0.27633
  4 Li   -0.01066   -0.00538   -0.27617
  5 Li    0.00276    0.02260   -0.27648
  6 Li   -0.00474   -0.00287   -0.27373
  7 Li    0.00190    0.00039   -0.27252
  8 Li    0.00297   -0.01254   -0.26524
  9 Li   -0.00444   -0.01319    0.28744
 10 Li    0.00350    0.01637    0.24801
 11 Li    0.00265   -0.01033    0.28887
 12 Li   -0.00637    0.00161    0.31598
 13 Li    0.00164   -0.01127    0.23458
 14 Li    0.00385    0.00123    0.31568
 15 Li   -0.00158    0.01094    0.23886
 16 Li   -0.00108   -0.00288    0.28279
 17 Li    0.00126    0.00886    0.24684
 18 Li   -0.02190    0.00991    0.04993
 19 Li    0.02052    0.00956    0.05782
 20 Li    0.00175   -0.02441   -0.20645
 21 Li   -0.02807   -0.02334    0.05492
 22 Li    0.02538   -0.02243    0.05289
 23 Li    0.00268    0.04267   -0.08017
 24 Li   -0.00350    0.01284    0.04308
 25 Li    0.00217    0.01216    0.04053
 26 Li   -0.00028   -0.00723    0.06490
 27 Li    0.05343   -0.07022   -0.11547
 28 Li    0.00732    0.02573   -0.00065
 29 Li   -0.09951   -0.08277   -0.18086
 30 Li   -0.09819    0.04596    0.09116
 31 Li    0.01498   -0.01657   -0.01136
 32 Li    0.10395    0.06594    0.06961
 33 Li    0.02761    0.04741   -0.04401
 34 Li   -0.00164   -0.00942   -0.00291
 35 Li   -0.02472    0.05272   -0.03931
 36 O     0.40908   -3.42809    7.68652
 37 C    -0.09772   -2.26437    1.78970
 38 H    -0.02389   -0.04744    0.30152
 39 H    -0.03367   -0.76762    0.37944
 40 H    -0.10395   -0.14584    0.19803
 41 H    -0.66040   -0.04197    0.60424
 42 N     0.79555   -0.87288   -5.88024
 43 N    -0.28176    7.52114   -4.90984

System changes: positions 

Initializing position-dependent things.

Density initialized from wave functions
       .-----------------------.  
      /|                       |  
     / |                       |  
    /  |                       |  
   /   |                       |  
  /    |                       |  
 *     |                       |  
 |     |                       |  
 |     |                       |  
 |     |                  H    |  
 |     |                       |  
 |     |                 H   H |  
 |     |                       |  
 |     |                       |  
 |     Li              Li      |  
 |     |            H O        |  
 |   Li|     Li      CiN       |  
 |     |  Li      Li  N   Li   |  
 |     |   Li      Li      Li  |  
 |     |Li      Li      Li     |  
 |     | Li                    |  
 |   LLi     LLi     LLi       |  
 |     |  Li      Li      Li   |  
 | Li  |   Li      Li          |  
 |     |Li      Li      Li     |  
 Li    | Li      Li            |  
 |    Li      Li      Li       |  
 |     |                       |  
 |     |                       |  
 |     |                       |  
 |     |                       |  
 |     |                       |  
 |     |                       |  
 |     .-----------------------.  
 |    /                       /   
 |   /                       /    
 |  /                       /     
 | /                       /      
 |/                       /       
 *-----------------------*        

Positions:
   0 Li     1.617037    1.617037   10.000000    ( 0.0000,  0.0000,  0.0000)
   1 Li     4.851111    1.617037   10.000000    ( 0.0000,  0.0000,  0.0000)
   2 Li     8.085185    1.617037   10.000000    ( 0.0000,  0.0000,  0.0000)
   3 Li     1.617037    4.851111   10.000000    ( 0.0000,  0.0000,  0.0000)
   4 Li     4.851111    4.851111   10.000000    ( 0.0000,  0.0000,  0.0000)
   5 Li     8.085185    4.851111   10.000000    ( 0.0000,  0.0000,  0.0000)
   6 Li     1.617037    8.085185   10.000000    ( 0.0000,  0.0000,  0.0000)
[...]

iter:  15 20:42:11  -284.400207c -6.14  -4.15c
iter:  16 20:42:18  -284.400208c -6.36  -4.19c
iter:  17 20:42:25  -284.400216c -5.90  -4.27c
iter:  18 20:42:32  -284.400213c -6.50  -4.43c
iter:  19 20:42:46  -284.400213c -6.84  -4.62c
Writing to output.gpw (mode='')

iter:  20 20:42:53  -284.400210c -6.60  -4.65c
iter:  21 20:43:00  -284.400209c -6.82  -4.93c
iter:  22 20:43:07  -284.400208c -7.12  -5.02c
iter:  23 20:43:14  -284.400209c -7.22  -5.08c
iter:  24 20:43:24  -284.400209c -7.52c -5.14c

Converged after 24 iterations.

Dipole moment: (-2.076879, 3.147092, -0.219979) |e|*Ang

Energy contributions relative to reference atoms: (reference = -13382.245603)

Kinetic:       +129.981815
Potential:     -121.041627
External:        +0.000000
XC:            -293.985279
Entropy (-ST):   -0.161561
Local:           +0.725662
--------------------------
Free energy:   -284.480990
Extrapolated:  -284.400209

Dipole-layer corrected work functions: 3.405771, 3.828646 eV

Showing only first 2 kpts
 Kpt  Band  Eigenvalues  Occupancy
  0    28     -3.81543    1.96275
  0    29     -3.63384    1.16481
  0    30     -3.60676    0.89587
  0    31     -3.51431    0.22648

  1    28     -3.93253    1.99636
  1    29     -3.56789    0.54325
  1    30     -3.50534    0.19288
  1    31     -3.49918    0.17245


Fermi level: -3.61721

No gap
Writing to output.gpw (mode='')


Forces in eV/Ang:
  0 Li   -0.00746   -0.00993   -0.29461
  1 Li    0.00587    0.01225   -0.29384
  2 Li    0.00066    0.00105   -0.25333
  3 Li    0.01380    0.01776   -0.28645
  4 Li   -0.00882    0.00962   -0.29214
  5 Li   -0.01233   -0.00520   -0.29147
  6 Li    0.00847   -0.00826   -0.29183
  7 Li   -0.01716   -0.01278   -0.28309
  8 Li    0.01073    0.00752   -0.29742
  9 Li   -0.02401    0.02330    0.34247
 10 Li    0.00006    0.01279    0.27581
 11 Li    0.03406    0.02317    0.27894
 12 Li   -0.02376   -0.03773    0.27324
 13 Li   -0.01115   -0.01341    0.28535
 14 Li    0.02975   -0.03887    0.32774
 15 Li   -0.00876   -0.01927    0.28286
 16 Li    0.01598   -0.02216    0.26687
 17 Li    0.00808   -0.00116    0.28029
 18 Li    0.01525   -0.00417   -0.02244
 19 Li    0.01164    0.01423    0.01159
 20 Li    0.00691    0.00730    0.01235
 21 Li    0.00580   -0.00789    0.00265
 22 Li   -0.02942    0.01518   -0.01859
 23 Li    0.00691    0.00539   -0.00512
 24 Li   -0.01186    0.01065    0.00272
 25 Li    0.02509    0.00128    0.00608
 26 Li    0.01303    0.00574   -0.00287
 27 Li    0.01372    0.00192    0.01496
 28 Li   -0.00987    0.00601   -0.01168
 29 Li   -0.00376    0.02773    0.01886
 30 Li   -0.00921   -0.00527    0.01834
 31 Li   -0.01823   -0.00128    0.00251
 32 Li    0.03010   -0.02162    0.02119
 33 Li   -0.00685    0.00388   -0.00953
 34 Li    0.00577   -0.01500   -0.01281
 35 Li   -0.00347    0.02428    0.00709
 36 O    -0.03768   -0.02830   -0.01971
 37 C     0.03860   -0.02989   -0.00807
 38 H     0.00244    0.04973    0.05489
 39 H    -0.05733    0.04377    0.01883
 40 H     0.03532    0.00533   -0.04987
 41 H     0.01169   -0.03510   -0.02449
 42 N    -0.03631    0.06146   -0.01996
 43 N    -0.01033   -0.05850    0.06877

System changes: positions 

Initializing position-dependent things.

Density initialized from wave functions
       .-----------------------.  
      /|                       |  
     / |                       |  
    /  |                       |  
   /   |                       |  
  /    |                       |  
 *     |                       |  
 |     |                       |  
 |     |                       |  
 |     |                  H    |  
 |     |                   C H |  
 |     |                H      |  
 |     |                       |  
 |     |                       |  
 |     Li      Li    O         |  
 |     |             H         |  
 |   Li|     Li      Li        |  
 |     |  Li      Li      Li   |  
 |     |   Li      LiN    Li   |  
 |     |Li      Li     NLi     |  
 |     |          Li           |  
 |   LLi     LLi     LLi       |  
 |     |  Li      Li      Li   |  
 | Li  |   Li      Li          |  
 |     |Li      Li      Li     |  
 Li    | Li      Li            |  
 |    Li      Li      Li       |  
 |     |                       |  
 |     |                       |  
 |     |                       |  
 |     |                       |  
 |     |                       |  
 |     |                       |  
 |     .-----------------------.  
 |    /                       /   
 |   /                       /    
 |  /                       /     
 | /                       /      
 |/                       /       
 *-----------------------*        

Positions:
   0 Li     1.617037    1.617037   10.000000    ( 0.0000,  0.0000,  0.0000)
   1 Li     4.851111    1.617037   10.000000    ( 0.0000,  0.0000,  0.0000)
   2 Li     8.085185    1.617037   10.000000    ( 0.0000,  0.0000,  0.0000)
   3 Li     1.617037    4.851111   10.000000    ( 0.0000,  0.0000,  0.0000)
   4 Li     4.851111    4.851111   10.000000    ( 0.0000,  0.0000,  0.0000)
   5 Li     8.085185    4.851111   10.000000    ( 0.0000,  0.0000,  0.0000)
   6 Li     1.617037    8.085185   10.000000    ( 0.0000,  0.0000,  0.0000)
   7 Li     4.851111    8.085185   10.000000    ( 0.0000,  0.0000,  0.0000)
   8 Li     8.085185    8.085185   10.000000    ( 0.0000,  0.0000,  0.0000)
   9 Li     0.000000    0.000000   11.617037    ( 0.0000,  0.0000,  0.0000)
  10 Li     3.234074    0.000000   11.617037    ( 0.0000,  0.0000,  0.0000)
  11 Li     6.468148    0.000000   11.617037    ( 0.0000,  0.0000,  0.0000)
  12 Li     0.000000    3.234074   11.617037    ( 0.0000,  0.0000,  0.0000)
  13 Li     3.234074    3.234074   11.617037    ( 0.0000,  0.0000,  0.0000)
  14 Li     6.468148    3.234074   11.617037    ( 0.0000,  0.0000,  0.0000)
  15 Li     0.000000    6.468148   11.617037    ( 0.0000,  0.0000,  0.0000)
  16 Li     3.234074    6.468148   11.617037    ( 0.0000,  0.0000,  0.0000)
  17 Li     6.468148    6.468148   11.617037    ( 0.0000,  0.0000,  0.0000)
  18 Li     1.616368    1.577383   13.517687    ( 0.0000,  0.0000,  0.0000)
  19 Li     4.850608    1.642029   13.485682    ( 0.0000,  0.0000,  0.0000)
  20 Li     8.090106    1.614886   13.575019    ( 0.0000,  0.0000,  0.0000)
  21 Li     1.563653    4.789507   13.494050    ( 0.0000,  0.0000,  0.0000)
  22 Li     4.827911    4.879398   13.493774    ( 0.0000,  0.0000,  0.0000)
  23 Li     8.048182    4.828871   13.498723    ( 0.0000,  0.0000,  0.0000)
  24 Li     1.680871    8.029418   13.481450    ( 0.0000,  0.0000,  0.0000)
  25 Li     4.902005    8.138905   13.493658    ( 0.0000,  0.0000,  0.0000)
  26 Li     8.119820    8.065653   13.491073    ( 0.0000,  0.0000,  0.0000)
  27 Li     0.143381   -0.156896   15.435256    ( 0.0000,  0.0000,  0.0000)
  28 Li     3.414550   -0.047574   15.464945    ( 0.0000,  0.0000,  0.0000)
  29 Li     6.752208    0.219075   15.523196    ( 0.0000,  0.0000,  0.0000)
  30 Li    -0.212980    2.970622   15.555011    ( 0.0000,  0.0000,  0.0000)
  31 Li     3.131447    3.300459   15.440400    ( 0.0000,  0.0000,  0.0000)
  32 Li     6.363405    3.320955   15.470782    ( 0.0000,  0.0000,  0.0000)
  33 Li     0.055970    6.296632   15.442699    ( 0.0000,  0.0000,  0.0000)
  34 Li     3.228826    6.485284   15.464910    ( 0.0000,  0.0000,  0.0000)
  35 Li     6.413236    6.563660   15.425281    ( 0.0000,  0.0000,  0.0000)
  36 O      7.728818    1.319852   19.277164    ( 0.0000,  0.0000,  0.0000)
  37 C      7.965493   -0.049168   18.949936    ( 0.0000,  0.0000,  0.0000)
  38 H      7.166673   -0.471425   18.324510    ( 0.0000,  0.0000,  0.0000)
  39 H      7.991452   -0.597111   19.890689    ( 0.0000,  0.0000,  0.0000)
  40 H      8.924121   -0.190517   18.436775    ( 0.0000,  0.0000,  0.0000)
  41 H      7.678097    1.823152   18.454792    ( 0.0000,  0.0000,  0.0000)
  42 N      8.567656    1.149825   15.588512    ( 0.0000,  0.0000,  0.0000)
  43 N      7.675565    2.042253   15.623034    ( 0.0000,  0.0000,  0.0000)

Unit cell:
           periodic     x           y           z      points  spacing
  1. axis:    yes    9.702222    0.000000    0.000000    60     0.1617
  2. axis:    yes    0.000000    9.702222    0.000000    60     0.1617
  3. axis:    no     0.000000    0.000000   26.601111   168     0.1583

  Lengths:   9.702222   9.702222  26.601111
  Angles:   90.000000  90.000000  90.000000

Effective grid spacing dv^(1/3) = 0.1606

     iter     time        total  log10-change:
                         energy  eigst   dens
iter:   1 20:43:33  -284.400992  -1.38
iter:   2 20:43:40  -284.401696  -2.15  -2.51
iter:   3 20:43:47  -284.401555c -2.63  -2.57
iter:   4 20:43:54  -284.401363c -2.85  -2.70
Writing to output.gpw (mode='')

iter:   5 20:44:01  -284.401056c -2.88  -2.81
iter:   6 20:44:08  -284.401203c -2.76  -2.96
iter:   7 20:44:16  -284.401076c -3.61  -2.90
iter:   8 20:44:23  -284.401108c -3.57  -3.16
iter:   9 20:44:30  -284.401103c -3.87  -3.13
Writing to output.gpw (mode='')

iter:  10 20:44:37  -284.401079c -4.35  -3.38
iter:  11 20:44:44  -284.401088c -4.27  -3.45
iter:  12 20:44:51  -284.401083c -5.11  -3.62
iter:  13 20:44:58  -284.401077c -4.65  -3.66
iter:  14 20:45:05  -284.401079c -4.62  -3.61
Writing to output.gpw (mode='')

iter:  15 20:45:13  -284.401081c -5.36  -3.76
iter:  16 20:45:20  -284.401080c -5.42  -3.87
iter:  17 20:45:27  -284.401083c -5.35  -4.10c
iter:  18 20:45:34  -284.401080c -5.95  -4.15c
iter:  19 20:45:41  -284.401079c -6.26  -4.28c
Writing to output.gpw (mode='')

iter:  20 20:45:48  -284.401080c -6.10  -4.37c
iter:  21 20:45:55  -284.401080c -6.52  -4.53c
iter:  22 20:46:03  -284.401081c -6.58  -4.66c
iter:  23 20:46:10  -284.401080c -6.58  -4.82c
iter:  24 20:46:17  -284.401080c -7.17  -4.84c
Writing to output.gpw (mode='')

iter:  25 20:46:24  -284.401080c -7.18  -4.95c
iter:  26 20:46:31  -284.401080c -7.46c -5.03c

Converged after 26 iterations.

Dipole moment: (-2.060215, 2.971418, -0.220453) |e|*Ang

Energy contributions relative to reference atoms: (reference = -13382.245603)

Kinetic:       +130.126896
Potential:     -121.161502
External:        +0.000000
XC:            -294.011853
Entropy (-ST):   -0.161473
Local:           +0.726116
--------------------------
Free energy:   -284.481816
Extrapolated:  -284.401080

Dipole-layer corrected work functions: 3.405734, 3.829520 eV

Showing only first 2 kpts
 Kpt  Band  Eigenvalues  Occupancy
  0    28     -3.81566    1.96261
  0    29     -3.63457    1.16779
  0    30     -3.60720    0.89610
  0    31     -3.51477    0.22668

  1    28     -3.93376    1.99642
  1    29     -3.56748    0.53674
  1    30     -3.50534    0.19145
  1    31     -3.49936    0.17172


Fermi level: -3.61763

No gap
Writing to output.gpw (mode='')


Forces in eV/Ang:
  0 Li   -0.00737   -0.01025   -0.29456
  1 Li    0.00556    0.01182   -0.29387
  2 Li    0.00052    0.00085   -0.25367
  3 Li    0.01378    0.01736   -0.28659
  4 Li   -0.00889    0.00923   -0.29194
  5 Li   -0.01204   -0.00537   -0.29198
  6 Li    0.00827   -0.00848   -0.29192
  7 Li   -0.01708   -0.01312   -0.28328
  8 Li    0.01070    0.00702   -0.29687
  9 Li   -0.02410    0.02547    0.34128
 10 Li    0.00255    0.01302    0.27590
 11 Li    0.03532    0.02594    0.27964
 12 Li   -0.02408   -0.03686    0.27462
 13 Li   -0.01043   -0.01258    0.28395
 14 Li    0.03066   -0.03746    0.32883
 15 Li   -0.00807   -0.01769    0.28315
 16 Li    0.01469   -0.01816    0.26809
 17 Li    0.00845    0.00097    0.27933
 18 Li    0.01125   -0.00293   -0.01952
 19 Li    0.01136    0.01261    0.01140
 20 Li    0.00284    0.00952    0.01310
 21 Li    0.00346   -0.00787    0.00257
 22 Li   -0.02371    0.01190   -0.01461
 23 Li    0.00528    0.00388   -0.00320
 24 Li   -0.00951    0.00791    0.00183
 25 Li    0.02147    0.00170    0.00551
 26 Li    0.01085    0.00735   -0.00171
 27 Li    0.00678    0.00959    0.01042
 28 Li   -0.01027    0.00521   -0.01073
 29 Li   -0.01110    0.01458    0.01601
 30 Li   -0.00943   -0.00205    0.01844
 31 Li   -0.01527   -0.00085    0.00110
 32 Li    0.00960   -0.00292    0.01960
 33 Li   -0.00628    0.00292   -0.00936
 34 Li    0.00474   -0.01279   -0.01156
 35 Li   -0.00276    0.01909    0.00520
 36 O    -0.01045    0.02307   -0.03328
 37 C     0.03458    0.01301   -0.00423
 38 H    -0.00690    0.00290    0.01345
 39 H    -0.02048   -0.00056    0.01262
 40 H     0.00014    0.00539   -0.01237
 41 H     0.00577   -0.02698   -0.03080
 42 N    -0.00021    0.00687   -0.00312
 43 N     0.00375   -0.04521    0.00135

Timing:                                      incl.     excl.
-------------------------------------------------------------------
Density initialized from wave functions:     5.217     5.214   0.0% |
 Symmetrize density:                         0.002     0.002   0.0% |
Forces:                                     43.809    43.809   0.1% |
Hamiltonian:                               680.935     0.015   0.0% |
 Atomic:                                     0.025     0.025   0.0% |
  XC Correction:                             0.000     0.000   0.0% |
 Calculate atomic Hamiltonians:              0.042     0.042   0.0% |
 Communicate:                                6.676     6.676   0.0% |
 Hartree integrate/restrict:                 2.671     2.671   0.0% |
 Initialize Hamiltonian:                     0.000     0.000   0.0% |
 Poisson:                                   32.729    12.061   0.0% |
  Communicate from 1D:                       3.266     3.266   0.0% |
  Communicate from 2D:                       3.240     3.240   0.0% |
  Communicate to 1D:                         1.840     1.840   0.0% |
  Communicate to 2D:                         3.911     3.911   0.0% |
  FFT 1D:                                    4.235     4.235   0.0% |
  FFT 2D:                                    4.176     4.176   0.0% |
 XC 3D grid:                               638.210   101.248   0.3% |
  VdW-DF integral:                         536.962     4.503   0.0% |
   Convolution:                             49.907    49.907   0.1% |
   FFT:                                     21.062    21.062   0.1% |
   gather:                                 186.721   186.721   0.5% |
   hmm1:                                    17.767    17.767   0.1% |
   hmm2:                                    23.349    23.349   0.1% |
   iFFT:                                    22.109    22.109   0.1% |
   potential:                              208.052     5.551   0.0% |
    collect:                                33.178    33.178   0.1% |
    p1:                                     95.879    95.879   0.3% |
    p2:                                     35.961    35.961   0.1% |
    sum:                                    37.482    37.482   0.1% |
   splines:                                  3.493     3.493   0.0% |
 vbar:                                       0.566     0.566   0.0% |
LCAO initialization:                         1.017     0.183   0.0% |
 LCAO eigensolver:                           0.199     0.000   0.0% |
  Calculate projections:                     0.000     0.000   0.0% |
  DenseAtomicCorrection:                     0.000     0.000   0.0% |
  Distribute overlap matrix:                 0.178     0.178   0.0% |
  Orbital Layouts:                           0.018     0.018   0.0% |
  Potential matrix:                          0.001     0.001   0.0% |
  Sum over cells:                            0.001     0.001   0.0% |
 LCAO to grid:                               0.527     0.527   0.0% |
 Set positions (LCAO WFS):                   0.108     0.060   0.0% |
  Basic WFS set positions:                   0.001     0.001   0.0% |
  Basis functions set positions:             0.000     0.000   0.0% |
  P tci:                                     0.000     0.000   0.0% |
  ST tci:                                    0.018     0.018   0.0% |
  mktci:                                     0.029     0.029   0.0% |
Redistribute:                                0.075     0.075   0.0% |
SCF-cycle:                               33800.669   443.160   1.3% ||
 Davidson:                                7949.123  2373.509   6.9% |--|
  Apply hamiltonian:                       505.786   505.786   1.5% ||
  Subspace diag:                          1511.785     0.553   0.0% |
   calc_h_matrix:                          735.871   209.076   0.6% |
    Apply hamiltonian:                     526.795   526.795   1.5% ||
   diagonalize:                             94.570    94.570   0.3% |
   rotate_psi:                             680.792   680.792   2.0% ||
  calc. matrices:                         2457.015  1225.765   3.5% ||
   Apply hamiltonian:                     1231.250  1231.250   3.6% ||
  diagonalize:                              19.723    19.723   0.1% |
  rotate_psi:                             1081.304  1081.304   3.1% ||
 Density:                                  161.718     0.117   0.0% |
  Atomic density matrices:                  17.171    17.171   0.0% |
  Mix:                                      74.532    74.532   0.2% |
  Multipole moments:                         7.717     7.717   0.0% |
  Pseudo density:                           62.181    62.088   0.2% |
   Symmetrize density:                       0.093     0.093   0.0% |
 Hamiltonian:                            25226.550     0.555   0.0% |
  Atomic:                                    1.061     1.050   0.0% |
   XC Correction:                            0.012     0.012   0.0% |
  Calculate atomic Hamiltonians:             1.583     1.583   0.0% |
  Communicate:                             344.370   344.370   1.0% |
  Hartree integrate/restrict:               98.901    98.901   0.3% |
  Poisson:                                1209.509   448.432   1.3% ||
   Communicate from 1D:                    119.979   119.979   0.3% |
   Communicate from 2D:                    122.271   122.271   0.4% |
   Communicate to 1D:                       68.769    68.769   0.2% |
   Communicate to 2D:                      145.856   145.856   0.4% |
   FFT 1D:                                 154.271   154.271   0.4% |
   FFT 2D:                                 149.931   149.931   0.4% |
  XC 3D grid:                            23549.747  3669.322  10.6% |---|
   VdW-DF integral:                      19880.424   167.332   0.5% |
    Convolution:                          1848.904  1848.904   5.3% |-|
    FFT:                                   782.143   782.143   2.3% ||
    gather:                               6848.881  6848.881  19.8% |-------|
    hmm1:                                  657.519   657.519   1.9% ||
    hmm2:                                  864.709   864.709   2.5% ||
    iFFT:                                  808.365   808.365   2.3% ||
    potential:                            7902.528   206.530   0.6% |
     collect:                             1225.394  1225.394   3.5% ||
     p1:                                  3548.268  3548.268  10.2% |---|
     p2:                                  1329.692  1329.692   3.8% |-|
     sum:                                 1592.644  1592.644   4.6% |-|
    splines:                                 0.044     0.044   0.0% |
  vbar:                                     20.824    20.824   0.1% |
 Orthonormalize:                            20.119     0.017   0.0% |
  calc_s_matrix:                             2.680     2.680   0.0% |
  inverse-cholesky:                          6.568     6.568   0.0% |
  projections:                               0.003     0.003   0.0% |
  rotate_psi_s:                             10.852    10.852   0.0% |
Set symmetry:                                0.003     0.003   0.0% |
Other:                                     110.630   110.630   0.3% |
-------------------------------------------------------------------
Total:                                             34642.355 100.0%

Memory usage: 1.13 GiB
Date: Fri Mar 10 20:46:31 2023
