
  ___ ___ ___ _ _ _  
 |   |   |_  | | | | 
 | | | | | . | | | | 
 |__ |  _|___|_____|  22.8.0
 |___|_|             

User:   vazumah@c03.hercules
Date:   Fri Feb 17 09:43:32 2023
Arch:   x86_64
Pid:    18389
CWD:    /home/vazumah/Python_projects/LiNRR/Li_adsorb_studies/proton_donors/ethanol_N2/Li_BCC_100/adsorbates/CH3CH2OH_z/bridge/8.085_1.617/N2_x
Python: 3.10.8
gpaw:   /home/vazumah/.conda/envs/GPAW/lib/python3.10/site-packages/gpaw
_gpaw:  /home/vazumah/.conda/envs/GPAW/lib/python3.10/site-packages/
        _gpaw.cpython-310-x86_64-linux-gnu.so
ase:    /home/vazumah/.conda/envs/GPAW/lib/python3.10/site-packages/ase (version 3.22.1)
numpy:  /home/vazumah/.conda/envs/GPAW/lib/python3.10/site-packages/numpy (version 1.24.1)
scipy:  /home/vazumah/.conda/envs/GPAW/lib/python3.10/site-packages/scipy (version 1.10.0)
libxc:  5.2.3
units:  Angstrom and eV
cores: 24
OpenMP: True
OMP_NUM_THREADS: 1

Reading from output.gpw
Reading input parameters:
  h: 0.16
  kpts: {size: [4, 4, 1]}
  occupations: {name: fermi-dirac,
                width: 0.05}
  poissonsolver: {dipolelayer: xy}
  xc: BEEF-vdW

Initialize ...

species:
  Li:
    name: Lithium
    id: 830b4218f175192f93f959cfc0aad614
    Z: 3.0
    valence: 1
    core: 2
    charge: 0.0
    file: /home/vazumah/.conda/envs/GPAW/share/gpaw/Li.PBE.gz
    compensation charges: {type: gauss,
                           rc: 0.33,
                           lmax: 2}
    cutoffs: {filter: 1.91,
              core: 2.55}
    valence states:
      #              energy  rcut
      - 2s(1.00)    -2.874   1.058
      - 2p(0.00)    -1.090   1.058
      -  s          24.337   1.058
  
    # Using partial waves for Li as LCAO basis

  O:
    name: Oxygen
    id: 32ecd46bf208036f09c70b0ec9a88b78
    Z: 8.0
    valence: 6
    core: 2
    charge: 0.0
    file: /home/vazumah/.conda/envs/GPAW/share/gpaw/O.PBE.gz
    compensation charges: {type: gauss,
                           rc: 0.21,
                           lmax: 2}
    cutoffs: {filter: 1.17,
              core: 0.83}
    valence states:
      #              energy  rcut
      - 2s(2.00)   -23.961   0.688
      - 2p(4.00)    -9.029   0.598
      -  s           3.251   0.688
      -  p          18.182   0.598
      -  d           0.000   0.619
  
    # Using partial waves for O as LCAO basis

  C:
    name: Carbon
    id: 4aa54d4b901d75f77cc0ea3eec22967b
    Z: 6.0
    valence: 4
    core: 2
    charge: 0.0
    file: /home/vazumah/.conda/envs/GPAW/share/gpaw/C.PBE.gz
    compensation charges: {type: gauss,
                           rc: 0.20,
                           lmax: 2}
    cutoffs: {filter: 1.14,
              core: 1.14}
    valence states:
      #              energy  rcut
      - 2s(2.00)   -13.751   0.635
      - 2p(2.00)    -5.284   0.635
      -  s          13.461   0.635
      -  p          21.927   0.635
      -  d           0.000   0.635
  
    # Using partial waves for C as LCAO basis

  H:
    name: Hydrogen
    id: d65de229564ff8ea4db303e23b6d1ecf
    Z: 1.0
    valence: 1
    core: 0
    charge: 0.0
    file: /home/vazumah/.conda/envs/GPAW/share/gpaw/H.PBE.gz
    compensation charges: {type: gauss,
                           rc: 0.15,
                           lmax: 2}
    cutoffs: {filter: 0.85,
              core: 0.53}
    valence states:
      #              energy  rcut
      - 1s(1.00)    -6.494   0.476
      -  s          20.717   0.476
      -  p           0.000   0.476
  
    # Using partial waves for H as LCAO basis

  N:
    name: Nitrogen
    id: f7500608b86eaa90eef8b1d9a670dc53
    Z: 7.0
    valence: 5
    core: 2
    charge: 0.0
    file: /home/vazumah/.conda/envs/GPAW/share/gpaw/N.PBE.gz
    compensation charges: {type: gauss,
                           rc: 0.18,
                           lmax: 2}
    cutoffs: {filter: 1.11,
              core: 0.96}
    valence states:
      #              energy  rcut
      - 2s(2.00)   -18.583   0.603
      - 2p(3.00)    -7.089   0.529
      -  s           8.629   0.603
      -  p          20.123   0.529
      -  d           0.000   0.577
  
    # Using partial waves for N as LCAO basis

Reference energy: -14434.854043  # eV

Spin-paired calculation

Convergence criteria:
 Maximum [total energy] change in last 3 cyles: 0.0005 eV / electron
 Maximum integral of absolute [dens]ity change: 0.0001 electrons / valence electron
 Maximum integral of absolute [eigenst]ate change: 4e-08 eV^2 / valence electron
 Maximum number of scf [iter]ations: 333
 (Square brackets indicate name in SCF output, whereas a 'c' in
 the SCF output indicates the quantity has converged.)

Symmetries present (total): 1

  ( 1  0  0)
  ( 0  1  0)
  ( 0  0  1)

16 k-points: 4 x 4 x 1 Monkhorst-Pack grid
8 k-points in the irreducible part of the Brillouin zone
       k-points in crystal coordinates                weights
   0:     0.12500000   -0.37500000    0.00000000          2/16
   1:     0.12500000   -0.12500000    0.00000000          2/16
   2:     0.12500000    0.12500000    0.00000000          2/16
   3:     0.12500000    0.37500000    0.00000000          2/16
   4:     0.37500000   -0.37500000    0.00000000          2/16
   5:     0.37500000   -0.12500000    0.00000000          2/16
   6:     0.37500000    0.12500000    0.00000000          2/16
   7:     0.37500000    0.37500000    0.00000000          2/16

Wave functions: Uniform real-space grid
  Kinetic energy operator: 6*3+1=19 point O(h^6) finite-difference Laplacian
  ScaLapack parameters: grid=1x1, blocksize=None
  Wavefunction extrapolation:
    Improved wavefunction reuse through dual PAW basis 

Occupation numbers: Fermi-Dirac:
  width: 0.0500  # eV
 

Eigensolver
   Davidson(niter=2) 

Densities:
  Coarse grid: 60*60*156 grid
  Fine grid: 120*120*312 grid
  Total Charge: 0.000000 

Density mixing:
  Method: separate
  Backend: pulay
  Linear mixing parameter: 0.05
  old densities: 5
  Damping of long wavelength oscillations: 50 

Hamiltonian:
  XC and Coulomb potentials evaluated on a 120*120*312 grid
  Using the BEEF-vdW Exchange-Correlation functional
  Interpolation: tri-quintic (5. degree polynomial)
  Poisson solver: FastPoissonSolver using
    Stencil: 6*3+1=19 point O(h^6) finite-difference Laplacian
    FFT axes: [0, 1]
    FST axes: [2]

Dipole correction along z-axis 

XC parameters: BEEF-vdW with 2 nearest neighbor stencil

Memory estimate:
  Process memory now: 216.98 MiB
  Calculator: 411.72 MiB
    Density: 118.00 MiB
      Arrays: 36.75 MiB
      Localized functions: 67.24 MiB
      Mixer: 14.01 MiB
    Hamiltonian: 29.35 MiB
      Arrays: 24.03 MiB
      XC: 0.00 MiB
      Poisson: 0.00 MiB
      vbar: 5.32 MiB
    Wavefunctions: 264.37 MiB
      Arrays psit_nG: 123.27 MiB
      Eigensolver: 137.57 MiB
      Projections: 0.06 MiB
      Projectors: 3.47 MiB

Total number of cores used: 24
Parallelization over k-points: 8
Domain decomposition: 1 x 1 x 3

Number of atoms: 47
Number of atomic orbitals: 170
Number of bands in calculation: 44
Number of valence electrons: 66
Bands to converge: occupied

... initialized

Initializing position-dependent things.

Creating initial wave functions:
  44 bands from LCAO basis set

       .-----------------------.  
      /|                       |  
     / |                       |  
    /  |                       |  
   /   |                       |  
  /    |                       |  
 *     |                       |  
 |     |                       |  
 |     |             H         |  
 |     |              CH H     |  
 |     |                       |  
 |     |          H  C         |  
 |     |Li      LiH O  Hi      |  
 |     |                       |  
 |   Li|     Li      Li        |  
 |  Li |  Li      LLi     Li   |  
 |     |   Li           N      |  
 |     |Li      Li    N Li     |  
 |     |                       |  
 |   LLi     LLi     LLi       |  
 |     |  Li      Li      Li   |  
 | Li  |   Li      Li          |  
 |     |Li      Li      Li     |  
 Li    | Li      Li            |  
 |    Li      Li      Li       |  
 |     |                       |  
 |     |                       |  
 |     |                       |  
 |     |                       |  
 |     |                       |  
 |     |                       |  
 |     .-----------------------.  
 |    /                       /   
 |   /                       /    
 |  /                       /     
 | /                       /      
 |/                       /       
 *-----------------------*        

Positions:
   0 Li     1.617037    1.617037   10.000000    ( 0.0000,  0.0000,  0.0000)
   1 Li     4.851111    1.617037   10.000000    ( 0.0000,  0.0000,  0.0000)
   2 Li     8.085185    1.617037   10.000000    ( 0.0000,  0.0000,  0.0000)
   3 Li     1.617037    4.851111   10.000000    ( 0.0000,  0.0000,  0.0000)
   4 Li     4.851111    4.851111   10.000000    ( 0.0000,  0.0000,  0.0000)
   5 Li     8.085185    4.851111   10.000000    ( 0.0000,  0.0000,  0.0000)
   6 Li     1.617037    8.085185   10.000000    ( 0.0000,  0.0000,  0.0000)
   7 Li     4.851111    8.085185   10.000000    ( 0.0000,  0.0000,  0.0000)
   8 Li     8.085185    8.085185   10.000000    ( 0.0000,  0.0000,  0.0000)
   9 Li     0.000000    0.000000   11.617037    ( 0.0000,  0.0000,  0.0000)
  10 Li     3.234074    0.000000   11.617037    ( 0.0000,  0.0000,  0.0000)
  11 Li     6.468148    0.000000   11.617037    ( 0.0000,  0.0000,  0.0000)
  12 Li     0.000000    3.234074   11.617037    ( 0.0000,  0.0000,  0.0000)
  13 Li     3.234074    3.234074   11.617037    ( 0.0000,  0.0000,  0.0000)
  14 Li     6.468148    3.234074   11.617037    ( 0.0000,  0.0000,  0.0000)
  15 Li     0.000000    6.468148   11.617037    ( 0.0000,  0.0000,  0.0000)
  16 Li     3.234074    6.468148   11.617037    ( 0.0000,  0.0000,  0.0000)
  17 Li     6.468148    6.468148   11.617037    ( 0.0000,  0.0000,  0.0000)
  18 Li     1.764742    1.615742   13.430508    ( 0.0000,  0.0000,  0.0000)
  19 Li     5.034218    1.612418   13.546243    ( 0.0000,  0.0000,  0.0000)
  20 Li     8.187994    1.619610   13.576471    ( 0.0000,  0.0000,  0.0000)
  21 Li     1.602341    4.832249   13.441474    ( 0.0000,  0.0000,  0.0000)
  22 Li     4.899581    4.868125   13.478696    ( 0.0000,  0.0000,  0.0000)
  23 Li     8.061875    4.895069   13.472410    ( 0.0000,  0.0000,  0.0000)
  24 Li     1.722698    8.051605   13.419447    ( 0.0000,  0.0000,  0.0000)
  25 Li     4.986655    8.151512   13.496112    ( 0.0000,  0.0000,  0.0000)
  26 Li     8.144690    8.164344   13.507968    ( 0.0000,  0.0000,  0.0000)
  27 Li     0.255496   -0.075916   15.635801    ( 0.0000,  0.0000,  0.0000)
  28 Li     3.512198   -0.038097   15.486788    ( 0.0000,  0.0000,  0.0000)
  29 Li     6.547639   -0.138989   15.613162    ( 0.0000,  0.0000,  0.0000)
  30 Li     0.328864    3.390612   15.886190    ( 0.0000,  0.0000,  0.0000)
  31 Li     3.355826    3.275949   15.355976    ( 0.0000,  0.0000,  0.0000)
  32 Li     6.541018    3.213788   15.719181    ( 0.0000,  0.0000,  0.0000)
  33 Li     0.008071    6.483218   15.397058    ( 0.0000,  0.0000,  0.0000)
  34 Li     3.166038    6.455531   15.422743    ( 0.0000,  0.0000,  0.0000)
  35 Li     6.471862    6.516075   15.462035    ( 0.0000,  0.0000,  0.0000)
  36 O      7.065086    2.105066   19.223810    ( 0.0000,  0.0000,  0.0000)
  37 C      7.687852    1.025510   19.986673    ( 0.0000,  0.0000,  0.0000)
  38 C      8.220086    1.456314   21.359418    ( 0.0000,  0.0000,  0.0000)
  39 H      7.005824    0.161245   20.072433    ( 0.0000,  0.0000,  0.0000)
  40 H      8.555519    0.690990   19.419834    ( 0.0000,  0.0000,  0.0000)
  41 H      8.651234    0.553247   21.814255    ( 0.0000,  0.0000,  0.0000)
  42 H      8.980887    2.240862   21.278867    ( 0.0000,  0.0000,  0.0000)
  43 H      7.432389    1.842534   22.005726    ( 0.0000,  0.0000,  0.0000)
  44 H      6.300193    2.385985   19.738500    ( 0.0000,  0.0000,  0.0000)
  45 N      8.081993    0.984563   15.868429    ( 0.0000,  0.0000,  0.0000)
  46 N      8.938955    1.804355   16.058194    ( 0.0000,  0.0000,  0.0000)

Unit cell:
           periodic     x           y           z      points  spacing
  1. axis:    yes    9.702222    0.000000    0.000000    60     0.1617
  2. axis:    yes    0.000000    9.702222    0.000000    60     0.1617
  3. axis:    no     0.000000    0.000000   24.851111   156     0.1593

  Lengths:   9.702222   9.702222  24.851111
  Angles:   90.000000  90.000000  90.000000

Effective grid spacing dv^(1/3) = 0.1609

     iter     time        total  log10-change:
                         energy  eigst   dens
iter:   1 09:47:06  -308.314504  +1.08
iter:   2 09:49:46  -308.953912  +0.39  -1.74
iter:   3 09:52:17  -309.106498  -0.10  -2.03
iter:   4 09:54:55  -309.165285  -0.50  -2.28
Writing to output.gpw (mode='')

iter:   5 09:57:22  -309.191507  -0.85  -2.47
iter:   6 09:59:50  -309.203954  -1.18  -2.58
iter:   7 10:02:22  -309.211575c -1.43  -2.66
iter:   8 10:04:58  -309.215396c -1.72  -2.59
iter:   9 10:07:31  -309.217239c -1.95  -2.63
Writing to output.gpw (mode='')

iter:  10 10:10:05  -309.218590c -2.00  -2.75
iter:  11 10:12:37  -309.219906c -2.07  -2.97
iter:  12 10:15:11  -309.221712c -2.01  -3.13
iter:  13 10:17:49  -309.222353c -2.31  -2.79
iter:  14 10:20:28  -309.222110c -2.51  -2.84
Writing to output.gpw (mode='')

iter:  15 10:22:58  -309.222404c -2.73  -3.03
iter:  16 10:25:38  -309.222594c -2.89  -3.09
iter:  17 10:28:22  -309.222911c -2.98  -3.25
iter:  18 10:30:59  -309.223042c -3.19  -3.33
iter:  19 10:33:32  -309.223097c -3.38  -3.38
Writing to output.gpw (mode='')

iter:  20 10:36:13  -309.223135c -3.54  -3.43
iter:  21 10:38:41  -309.223135c -3.62  -3.45
iter:  22 10:41:11  -309.223168c -3.86  -3.49
iter:  23 10:43:37  -309.223210c -3.96  -3.74
iter:  24 10:46:12  -309.223215c -4.14  -3.77
Writing to output.gpw (mode='')

iter:  25 10:48:49  -309.223232c -4.26  -3.75
iter:  26 10:51:17  -309.223249c -4.33  -3.70
iter:  27 10:53:50  -309.223257c -4.46  -3.70
iter:  28 10:56:23  -309.223258c -4.53  -3.70
iter:  29 10:58:57  -309.223248c -4.45  -3.78
Writing to output.gpw (mode='')

iter:  30 11:01:33  -309.223280c -4.70  -3.75
iter:  31 11:04:04  -309.223307c -4.66  -3.79
iter:  32 11:06:36  -309.223302c -4.87  -3.90
iter:  33 11:09:15  -309.223293c -5.01  -4.05c
iter:  34 11:11:53  -309.223297c -5.16  -4.00
Writing to output.gpw (mode='')

iter:  35 11:14:27  -309.223298c -5.12  -4.16c
iter:  36 11:17:09  -309.223296c -5.16  -4.23c
iter:  37 11:19:52  -309.223298c -5.39  -4.33c
iter:  38 11:22:27  -309.223304c -5.31  -4.38c
iter:  39 11:25:01  -309.223304c -5.60  -4.48c
Writing to output.gpw (mode='')

iter:  40 11:27:38  -309.223304c -5.73  -4.63c
iter:  41 11:30:17  -309.223305c -5.82  -4.64c
iter:  42 11:32:47  -309.223305c -5.83  -4.64c
iter:  43 11:35:13  -309.223304c -5.89  -4.60c
iter:  44 11:37:44  -309.223307c -6.06  -4.55c
Writing to output.gpw (mode='')

iter:  45 11:40:15  -309.223311c -6.04  -4.62c
iter:  46 11:42:50  -309.223310c -6.29  -4.77c
iter:  47 11:45:20  -309.223311c -6.25  -4.89c
iter:  48 11:47:51  -309.223312c -6.31  -5.05c
iter:  49 11:50:25  -309.223310c -6.36  -5.10c
Writing to output.gpw (mode='')

iter:  50 11:53:14  -309.223310c -6.66  -5.29c
iter:  51 11:55:50  -309.223311c -6.51  -5.33c
iter:  52 11:58:19  -309.223311c -6.64  -5.38c
iter:  53 12:00:52  -309.223311c -6.79  -5.48c
iter:  54 12:03:25  -309.223311c -6.94  -5.58c
Writing to output.gpw (mode='')

iter:  55 12:05:58  -309.223311c -7.01  -5.60c
iter:  56 12:08:38  -309.223311c -7.09  -5.71c
iter:  57 12:11:06  -309.223311c -7.13  -5.83c
iter:  58 12:13:41  -309.223311c -7.24  -5.82c
iter:  59 12:16:17  -309.223311c -7.31  -5.76c
Writing to output.gpw (mode='')

iter:  60 12:18:50  -309.223311c -7.39  -5.66c
iter:  61 12:21:28  -309.223311c -7.33  -5.67c
iter:  62 12:24:01  -309.223311c -7.53c -5.58c

Converged after 62 iterations.

Dipole moment: (-4.065744, -4.170251, 0.332403) |e|*Ang

Energy contributions relative to reference atoms: (reference = -14434.854043)

Kinetic:       +141.925283
Potential:     -137.132776
External:        +0.000000
XC:            -314.712070
Entropy (-ST):   -0.159459
Local:           +0.775982
--------------------------
Free energy:   -309.303040
Extrapolated:  -309.223311

Dipole-layer corrected work functions: 3.377232, 2.738240 eV

Showing only first 2 kpts
 Kpt  Band  Eigenvalues  Occupancy
  0    31     -3.29466    1.98265
  0    32     -3.10347    1.42791
  0    33     -3.02286    0.66476
  0    34     -2.84683    0.02902

  1    31     -3.26742    1.97027
  1    32     -3.11409    1.51058
  1    33     -3.00619    0.52579
  1    34     -2.89518    0.07458


Fermi level: -3.05774

No gap
Writing to output.gpw (mode='')


Forces in eV/Ang:
  0 Li   -0.01211    0.00980   -0.29236
  1 Li   -0.01938   -0.01206   -0.28120
  2 Li   -0.00788   -0.00624   -0.25120
  3 Li   -0.00631    0.01243   -0.28210
  4 Li   -0.01505    0.01088   -0.28859
  5 Li    0.00223    0.00490   -0.28765
  6 Li   -0.00202   -0.00853   -0.29088
  7 Li   -0.02408   -0.00683   -0.27834
  8 Li   -0.01795   -0.00371   -0.29350
  9 Li    0.03304    0.02529    0.26642
 10 Li    0.10402    0.02216    0.24542
 11 Li    0.10683    0.07188    0.28672
 12 Li   -0.02580   -0.04036    0.29364
 13 Li    0.09229   -0.00875    0.25678
 14 Li    0.06348   -0.02898    0.30697
 15 Li   -0.01842    0.02326    0.25373
 16 Li    0.08852   -0.02596    0.27425
 17 Li    0.04926    0.04377    0.24715
 18 Li   -0.07855   -0.01593    0.14336
 19 Li   -0.05208    0.01717   -0.03758
 20 Li    0.03476    0.01295    0.28781
 21 Li   -0.01156   -0.03676    0.10412
 22 Li    0.02858   -0.03682    0.05431
 23 Li    0.03943   -0.08655    0.09156
 24 Li   -0.08828    0.09000    0.12148
 25 Li   -0.07457   -0.09041   -0.00884
 26 Li   -0.00247   -0.06201   -0.00844
 27 Li   -0.19498    0.23976   -0.03911
 28 Li   -0.14774    0.01068   -0.04528
 29 Li    0.29428    0.16924   -0.01918
 30 Li   -0.10688   -0.21809   -0.11213
 31 Li    0.04482   -0.01281   -0.00227
 32 Li    0.25706   -0.21967    0.02007
 33 Li    0.01176    0.00572   -0.03304
 34 Li    0.03180    0.01294    0.01649
 35 Li   -0.05037   -0.10413   -0.02130
 36 O     0.39831   -0.59748    0.35237
 37 C     0.07720    0.38221    0.02006
 38 C    -0.18562   -0.18956   -0.20795
 39 H     0.03373    0.29239    0.03019
 40 H    -0.10449    0.06536   -0.42234
 41 H     0.02016    0.31972    0.14980
 42 H    -0.03300   -0.21181   -0.11538
 43 H    -0.13429   -0.09233    0.09386
 44 H    -0.10338    0.08852   -0.01644
 45 N    -0.26104   -0.00234    0.06354
 46 N    -0.05866    0.18599   -0.36021

System changes: positions 

Initializing position-dependent things.

Density initialized from wave functions
       .-----------------------.  
      /|                       |  
     / |                       |  
    /  |                       |  
   /   |                       |  
  /    |                       |  
 *     |                       |  
 |     |                       |  
 |     |             H         |  
 |     |              CH H     |  
 |     |                       |  
 |     |          H  C         |  
 |     |Li      LiH O  Hi      |  
 |     |                       |  
 |   Li|     Li      Li        |  
 |  Li |  Li      LLi     Li   |  
 |     |   Li           N      |  
 |     |Li      Li    N Li     |  
 |     |                       |  
 |   LLi     LLi     LLi       |  
 |     |  Li      Li      Li   |  
 | Li  |   Li      Li          |  
 |     |Li      Li      Li     |  
 Li    | Li      Li            |  
 |    Li      Li      Li       |  
 |     |                       |  
 |     |                       |  
 |     |                       |  
 |     |                       |  
 |     |                       |  
 |     |                       |  
 |     .-----------------------.  
 |    /                       /   
 |   /                       /    
 |  /                       /     
 | /                       /      
 |/                       /       
 *-----------------------*        

Positions:
   0 Li     1.617037    1.617037   10.000000    ( 0.0000,  0.0000,  0.0000)
   1 Li     4.851111    1.617037   10.000000    ( 0.0000,  0.0000,  0.0000)
   2 Li     8.085185    1.617037   10.000000    ( 0.0000,  0.0000,  0.0000)
   3 Li     1.617037    4.851111   10.000000    ( 0.0000,  0.0000,  0.0000)
   4 Li     4.851111    4.851111   10.000000    ( 0.0000,  0.0000,  0.0000)
   5 Li     8.085185    4.851111   10.000000    ( 0.0000,  0.0000,  0.0000)
   6 Li     1.617037    8.085185   10.000000    ( 0.0000,  0.0000,  0.0000)
   7 Li     4.851111    8.085185   10.000000    ( 0.0000,  0.0000,  0.0000)
   8 Li     8.085185    8.085185   10.000000    ( 0.0000,  0.0000,  0.0000)
   9 Li     0.000000    0.000000   11.617037    ( 0.0000,  0.0000,  0.0000)
  10 Li     3.234074    0.000000   11.617037    ( 0.0000,  0.0000,  0.0000)
  11 Li     6.468148    0.000000   11.617037    ( 0.0000,  0.0000,  0.0000)
  12 Li     0.000000    3.234074   11.617037    ( 0.0000,  0.0000,  0.0000)
  13 Li     3.234074    3.234074   11.617037    ( 0.0000,  0.0000,  0.0000)
  14 Li     6.468148    3.234074   11.617037    ( 0.0000,  0.0000,  0.0000)
  15 Li     0.000000    6.468148   11.617037    ( 0.0000,  0.0000,  0.0000)
  16 Li     3.234074    6.468148   11.617037    ( 0.0000,  0.0000,  0.0000)
  17 Li     6.468148    6.468148   11.617037    ( 0.0000,  0.0000,  0.0000)
  18 Li     1.764387    1.615028   13.437504    ( 0.0000,  0.0000,  0.0000)
  19 Li     5.036695    1.613146   13.547472    ( 0.0000,  0.0000,  0.0000)
  20 Li     8.191995    1.619290   13.593148    ( 0.0000,  0.0000,  0.0000)
  21 Li     1.601933    4.830985   13.444186    ( 0.0000,  0.0000,  0.0000)
  22 Li     4.902150    4.866588   13.481925    ( 0.0000,  0.0000,  0.0000)
  23 Li     8.061846    4.893465   13.476415    ( 0.0000,  0.0000,  0.0000)
  24 Li     1.721994    8.053440   13.423088    ( 0.0000,  0.0000,  0.0000)
  25 Li     4.986967    8.149179   13.496791    ( 0.0000,  0.0000,  0.0000)
  26 Li     8.146089    8.164404   13.509890    ( 0.0000,  0.0000,  0.0000)
  27 Li     0.248200   -0.068077   15.641303    ( 0.0000,  0.0000,  0.0000)
  28 Li     3.513083   -0.038672   15.486514    ( 0.0000,  0.0000,  0.0000)
  29 Li     6.542648   -0.145454   15.607844    ( 0.0000,  0.0000,  0.0000)
  30 Li     0.334173    3.384606   15.895929    ( 0.0000,  0.0000,  0.0000)
  31 Li     3.360060    3.277163   15.353650    ( 0.0000,  0.0000,  0.0000)
  32 Li     6.550699    3.204801   15.726784    ( 0.0000,  0.0000,  0.0000)
  33 Li     0.008809    6.484094   15.394756    ( 0.0000,  0.0000,  0.0000)
  34 Li     3.165753    6.456029   15.423022    ( 0.0000,  0.0000,  0.0000)
  35 Li     6.470105    6.512466   15.461888    ( 0.0000,  0.0000,  0.0000)
  36 O      7.058044    2.110671   19.221602    ( 0.0000,  0.0000,  0.0000)
  37 C      7.683671    1.028048   19.976253    ( 0.0000,  0.0000,  0.0000)
  38 C      8.221842    1.455281   21.346778    ( 0.0000,  0.0000,  0.0000)
  39 H      7.005343    0.163073   20.068655    ( 0.0000,  0.0000,  0.0000)
  40 H      8.547185    0.692742   19.405884    ( 0.0000,  0.0000,  0.0000)
  41 H      8.649785    0.546427   21.792731    ( 0.0000,  0.0000,  0.0000)
  42 H      8.976428    2.244881   21.270505    ( 0.0000,  0.0000,  0.0000)
  43 H      7.438168    1.839548   21.997761    ( 0.0000,  0.0000,  0.0000)
  44 H      6.294340    2.381510   19.741070    ( 0.0000,  0.0000,  0.0000)
  45 N      8.074414    0.980937   15.841344    ( 0.0000,  0.0000,  0.0000)
  46 N      8.924486    1.813474   16.022035    ( 0.0000,  0.0000,  0.0000)

Unit cell:
           periodic     x           y           z      points  spacing
  1. axis:    yes    9.702222    0.000000    0.000000    60     0.1617
  2. axis:    yes    0.000000    9.702222    0.000000    60     0.1617
  3. axis:    no     0.000000    0.000000   24.851111   156     0.1593

  Lengths:   9.702222   9.702222  24.851111
  Angles:   90.000000  90.000000  90.000000

Effective grid spacing dv^(1/3) = 0.1609

     iter     time        total  log10-change:
                         energy  eigst   dens
iter:   1 12:27:17  -309.296027  -0.93
iter:   2 12:29:57  -309.272880  -1.54  -1.71
iter:   3 12:32:33  -309.254090  -2.25  -1.93
iter:   4 12:35:14  -309.251838c -2.60  -2.30
Writing to output.gpw (mode='')

iter:   5 12:37:47  -309.248339c -1.98  -2.38
iter:   6 12:40:14  -309.247816c -3.07  -2.62
iter:   7 12:43:03  -309.247584c -2.91  -2.76
iter:   8 12:45:44  -309.247732c -3.05  -2.91
iter:   9 12:48:16  -309.247573c -3.72  -2.96
Writing to output.gpw (mode='')

iter:  10 12:50:50  -309.247556c -3.99  -3.05
iter:  11 12:53:24  -309.247582c -3.78  -3.20
iter:  12 12:56:03  -309.247546c -4.13  -3.31
iter:  13 12:58:48  -309.247550c -4.61  -3.52
iter:  14 13:01:25  -309.247565c -4.61  -3.56
Writing to output.gpw (mode='')

iter:  15 13:04:06  -309.247575c -4.75  -3.66
iter:  16 13:06:45  -309.247563c -5.15  -3.75
iter:  17 13:09:21  -309.247561c -4.95  -3.89
iter:  18 13:12:00  -309.247576c -5.23  -3.89
iter:  19 13:14:45  -309.247574c -5.60  -4.00c
Writing to output.gpw (mode='')

iter:  20 13:17:29  -309.247574c -5.71  -4.09c
iter:  21 13:20:12  -309.247577c -5.72  -4.21c
iter:  22 13:22:57  -309.247574c -5.88  -4.37c
iter:  23 13:25:28  -309.247574c -6.12  -4.57c
iter:  24 13:28:02  -309.247574c -6.40  -4.64c
Writing to output.gpw (mode='')

iter:  25 13:30:40  -309.247574c -6.40  -4.66c
iter:  26 13:33:20  -309.247573c -6.36  -4.72c
iter:  27 13:35:55  -309.247574c -6.57  -4.77c
iter:  28 13:38:31  -309.247574c -6.58  -5.00c
iter:  29 13:41:05  -309.247574c -6.91  -5.06c
Writing to output.gpw (mode='')

iter:  30 13:43:43  -309.247575c -7.01  -5.17c
iter:  31 13:46:13  -309.247575c -7.24  -5.51c
iter:  32 13:48:49  -309.247575c -7.32  -5.55c
iter:  33 13:51:20  -309.247575c -7.39  -5.55c
iter:  34 13:53:58  -309.247575c -7.36  -5.50c
Writing to output.gpw (mode='')

iter:  35 13:56:28  -309.247575c -7.58c -5.77c

Converged after 35 iterations.

Dipole moment: (-4.223416, -4.190412, 0.333835) |e|*Ang

Energy contributions relative to reference atoms: (reference = -14434.854043)

Kinetic:       +142.126947
Potential:     -137.224145
External:        +0.000000
XC:            -314.845981
Entropy (-ST):   -0.160306
Local:           +0.775758
--------------------------
Free energy:   -309.327728
Extrapolated:  -309.247575

Dipole-layer corrected work functions: 3.377710, 2.735964 eV

Showing only first 2 kpts
 Kpt  Band  Eigenvalues  Occupancy
  0    31     -3.29173    1.98193
  0    32     -3.09915    1.39955
  0    33     -3.02443    0.68677
  0    34     -2.84748    0.02992

  1    31     -3.27075    1.97265
  1    32     -3.11854    1.54904
  1    33     -3.00547    0.52723
  1    34     -2.89110    0.07014


Fermi level: -3.05684

No gap

Forces in eV/Ang:
  0 Li   -0.01277    0.01023   -0.29247
  1 Li   -0.01838   -0.01220   -0.28257
  2 Li   -0.00784   -0.00599   -0.25081
  3 Li   -0.00638    0.01224   -0.28268
  4 Li   -0.01505    0.01112   -0.28837
  5 Li    0.00256    0.00421   -0.28811
  6 Li   -0.00190   -0.00830   -0.29073
  7 Li   -0.02413   -0.00655   -0.27856
  8 Li   -0.01848   -0.00265   -0.29459
  9 Li    0.03193    0.02789    0.26668
 10 Li    0.10291    0.02324    0.24915
 11 Li    0.10953    0.07298    0.28999
 12 Li   -0.02820   -0.04374    0.29675
 13 Li    0.09084   -0.00997    0.26066
 14 Li    0.06666   -0.03060    0.30798
 15 Li   -0.01832    0.02252    0.25795
 16 Li    0.08737   -0.02726    0.27784
 17 Li    0.05103    0.04259    0.24972
 18 Li   -0.07874   -0.01392    0.13846
 19 Li   -0.05365    0.01517   -0.04053
 20 Li    0.03764    0.01515    0.28546
 21 Li   -0.01020   -0.03531    0.10046
 22 Li    0.02792   -0.03672    0.04965
 23 Li    0.04030   -0.08760    0.08796
 24 Li   -0.08751    0.08845    0.11675
 25 Li   -0.07768   -0.09118   -0.01282
 26 Li   -0.00425   -0.06088   -0.01017
 27 Li   -0.18831    0.23535   -0.04486
 28 Li   -0.15266    0.01117   -0.04307
 29 Li    0.29818    0.16852   -0.01926
 30 Li   -0.12449   -0.22173   -0.13264
 31 Li    0.04527   -0.01322    0.00375
 32 Li    0.27081   -0.23022    0.02021
 33 Li    0.01279    0.00588   -0.02755
 34 Li    0.03236    0.01248    0.01803
 35 Li   -0.05061   -0.10505   -0.01889
 36 O     0.42563   -0.64002    0.31127
 37 C     0.10209    0.41853    0.04690
 38 C    -0.20229   -0.20352   -0.20116
 39 H    -0.01199    0.27617    0.00638
 40 H    -0.07984    0.06899   -0.45274
 41 H     0.05925    0.35010    0.18300
 42 H     0.02663   -0.22953   -0.13355
 43 H    -0.17690   -0.10759    0.11127
 44 H    -0.16218    0.12564   -0.00210
 45 N    -0.29867   -0.00948    0.09809
 46 N    -0.00853    0.22263   -0.32689

System changes: positions 

Initializing position-dependent things.

Density initialized from wave functions
       .-----------------------.  
      /|                       |  
     / |                       |  
    /  |                       |  
   /   |                       |  
  /    |                       |  
 *     |                       |  
 |     |                       |  
 |     |             H         |  
 |     |              C  H     |  
 |     |               H       |  
 |     |          H  C         |  
 |     |Li      LiH O  Hi      |  
 |     |                       |  
 |   Li|     Li      Li        |  
 |  Li |  Li      LLi     Li   |  
 |     |   Li           N      |  
 |     |Li      Li    N Li     |  
 |     |                       |  
 |   LLi     LLi     LLi       |  
 |     |  Li      Li      Li   |  
 | Li  |   Li      Li          |  
 |     |Li      Li      Li     |  
 Li    | Li      Li            |  
 |    Li      Li      Li       |  
 |     |                       |  
 |     |                       |  
 |     |                       |  
 |     |                       |  
 |     |                       |  
 |     |                       |  
 |     .-----------------------.  
 |    /                       /   
 |   /                       /    
 |  /                       /     
 | /                       /      
 |/                       /       
 *-----------------------*        

Positions:
   0 Li     1.617037    1.617037   10.000000    ( 0.0000,  0.0000,  0.0000)
   1 Li     4.851111    1.617037   10.000000    ( 0.0000,  0.0000,  0.0000)
   2 Li     8.085185    1.617037   10.000000    ( 0.0000,  0.0000,  0.0000)
   3 Li     1.617037    4.851111   10.000000    ( 0.0000,  0.0000,  0.0000)
   4 Li     4.851111    4.851111   10.000000    ( 0.0000,  0.0000,  0.0000)
   5 Li     8.085185    4.851111   10.000000    ( 0.0000,  0.0000,  0.0000)
   6 Li     1.617037    8.085185   10.000000    ( 0.0000,  0.0000,  0.0000)
   7 Li     4.851111    8.085185   10.000000    ( 0.0000,  0.0000,  0.0000)
   8 Li     8.085185    8.085185   10.000000    ( 0.0000,  0.0000,  0.0000)
   9 Li     0.000000    0.000000   11.617037    ( 0.0000,  0.0000,  0.0000)
  10 Li     3.234074    0.000000   11.617037    ( 0.0000,  0.0000,  0.0000)
  11 Li     6.468148    0.000000   11.617037    ( 0.0000,  0.0000,  0.0000)
  12 Li     0.000000    3.234074   11.617037    ( 0.0000,  0.0000,  0.0000)
  13 Li     3.234074    3.234074   11.617037    ( 0.0000,  0.0000,  0.0000)
  14 Li     6.468148    3.234074   11.617037    ( 0.0000,  0.0000,  0.0000)
  15 Li     0.000000    6.468148   11.617037    ( 0.0000,  0.0000,  0.0000)
  16 Li     3.234074    6.468148   11.617037    ( 0.0000,  0.0000,  0.0000)
  17 Li     6.468148    6.468148   11.617037    ( 0.0000,  0.0000,  0.0000)
  18 Li     1.762578    1.614075   13.446588    ( 0.0000,  0.0000,  0.0000)
  19 Li     5.038301    1.614016   13.548462    ( 0.0000,  0.0000,  0.0000)
  20 Li     8.196008    1.619298   13.612560    ( 0.0000,  0.0000,  0.0000)
  21 Li     1.601111    4.829152   13.448608    ( 0.0000,  0.0000,  0.0000)
  22 Li     4.904943    4.864667   13.486076    ( 0.0000,  0.0000,  0.0000)
  23 Li     8.062593    4.890445   13.481918    ( 0.0000,  0.0000,  0.0000)
  24 Li     1.719660    8.056807   13.428823    ( 0.0000,  0.0000,  0.0000)
  25 Li     4.986401    8.145946   13.497931    ( 0.0000,  0.0000,  0.0000)
  26 Li     8.147444    8.163731   13.512059    ( 0.0000,  0.0000,  0.0000)
  27 Li     0.237807   -0.056795   15.645913    ( 0.0000,  0.0000,  0.0000)
  28 Li     3.511675   -0.038898   15.485282    ( 0.0000,  0.0000,  0.0000)
  29 Li     6.541150   -0.148674   15.601678    ( 0.0000,  0.0000,  0.0000)
  30 Li     0.336990    3.374536   15.903479    ( 0.0000,  0.0000,  0.0000)
  31 Li     3.364313    3.277885   15.351343    ( 0.0000,  0.0000,  0.0000)
  32 Li     6.562368    3.194232   15.732815    ( 0.0000,  0.0000,  0.0000)
  33 Li     0.009507    6.485178   15.391913    ( 0.0000,  0.0000,  0.0000)
  34 Li     3.166215    6.456644   15.423115    ( 0.0000,  0.0000,  0.0000)
  35 Li     6.467756    6.507929   15.461222    ( 0.0000,  0.0000,  0.0000)
  36 O      7.052652    2.115702   19.221740    ( 0.0000,  0.0000,  0.0000)
  37 C      7.680326    1.030566   19.967156    ( 0.0000,  0.0000,  0.0000)
  38 C      8.223610    1.454364   21.334641    ( 0.0000,  0.0000,  0.0000)
  39 H      7.004961    0.166083   20.067442    ( 0.0000,  0.0000,  0.0000)
  40 H      8.537882    0.693262   19.392217    ( 0.0000,  0.0000,  0.0000)
  41 H      8.646924    0.540162   21.772225    ( 0.0000,  0.0000,  0.0000)
  42 H      8.971078    2.249489   21.264325    ( 0.0000,  0.0000,  0.0000)
  43 H      7.443924    1.836674   21.990365    ( 0.0000,  0.0000,  0.0000)
  44 H      6.289878    2.375579   19.745506    ( 0.0000,  0.0000,  0.0000)
  45 N      8.069268    0.978119   15.815624    ( 0.0000,  0.0000,  0.0000)
  46 N      8.912678    1.823589   15.985181    ( 0.0000,  0.0000,  0.0000)

Unit cell:
           periodic     x           y           z      points  spacing
  1. axis:    yes    9.702222    0.000000    0.000000    60     0.1617
  2. axis:    yes    0.000000    9.702222    0.000000    60     0.1617
  3. axis:    no     0.000000    0.000000   24.851111   156     0.1593

  Lengths:   9.702222   9.702222  24.851111
  Angles:   90.000000  90.000000  90.000000

Effective grid spacing dv^(1/3) = 0.1609

     iter     time        total  log10-change:
                         energy  eigst   dens
iter:   1 13:59:50  -309.360094  -0.86
iter:   2 14:02:35  -309.317632  -1.40  -1.60
iter:   3 14:05:08  -309.285134  -2.20  -1.82
iter:   4 14:07:58  -309.282259  -2.53  -2.23
Writing to output.gpw (mode='')

iter:   5 14:10:35  -309.277997c -1.89  -2.31
iter:   6 14:13:06  -309.277204c -3.02  -2.55
iter:   7 14:15:35  -309.276873c -2.80  -2.72
iter:   8 14:18:08  -309.277155c -2.85  -2.87
iter:   9 14:20:46  -309.276997c -3.64  -2.87
Writing to output.gpw (mode='')

iter:  10 14:23:34  -309.276907c -3.91  -2.94
iter:  11 14:26:15  -309.276853c -3.49  -3.07
iter:  12 14:28:47  -309.276864c -4.21  -3.22
iter:  13 14:31:15  -309.276859c -4.49  -3.34
iter:  14 14:33:49  -309.276839c -4.01  -3.45
Writing to output.gpw (mode='')

iter:  15 14:36:27  -309.276836c -4.61  -3.44
iter:  16 14:39:08  -309.276838c -4.80  -3.49
iter:  17 14:41:44  -309.276840c -5.01  -3.69
iter:  18 14:44:20  -309.276851c -5.05  -3.82
iter:  19 14:46:57  -309.276853c -5.16  -3.96
Writing to output.gpw (mode='')

iter:  20 14:49:34  -309.276844c -5.31  -4.02c
iter:  21 14:52:09  -309.276849c -5.70  -4.09c
iter:  22 14:54:49  -309.276855c -5.65  -4.25c
iter:  23 14:57:21  -309.276851c -5.94  -4.33c
iter:  24 14:59:59  -309.276854c -6.13  -4.50c
Writing to output.gpw (mode='')

iter:  25 15:02:37  -309.276854c -6.26  -4.63c
iter:  26 15:05:12  -309.276854c -6.45  -4.67c
iter:  27 15:07:44  -309.276853c -6.54  -4.70c
iter:  28 15:10:28  -309.276854c -6.56  -4.84c
iter:  29 15:13:08  -309.276853c -6.98  -4.91c
Writing to output.gpw (mode='')

iter:  30 15:15:43  -309.276853c -6.95  -4.98c
iter:  31 15:18:17  -309.276853c -7.07  -4.97c
iter:  32 15:20:49  -309.276853c -7.02  -5.02c
iter:  33 15:23:23  -309.276854c -7.21  -5.19c
iter:  34 15:26:02  -309.276854c -7.44c -5.30c

Converged after 34 iterations.

Dipole moment: (-4.334939, -4.296292, 0.334660) |e|*Ang

Energy contributions relative to reference atoms: (reference = -14434.854043)

Kinetic:       +142.611823
Potential:     -137.515556
External:        +0.000000
XC:            -315.069229
Entropy (-ST):   -0.161095
Local:           +0.776656
--------------------------
Free energy:   -309.357401
Extrapolated:  -309.276854

Dipole-layer corrected work functions: 3.378544, 2.735213 eV

Showing only first 2 kpts
 Kpt  Band  Eigenvalues  Occupancy
  0    31     -3.28936    1.98105
  0    32     -3.09630    1.37498
  0    33     -3.02698    0.70958
  0    34     -2.84876    0.03066

  1    31     -3.27536    1.97500
  1    32     -3.12466    1.59011
  1    33     -3.00550    0.52713
  1    34     -2.88768    0.06560


Fermi level: -3.05688

No gap
Writing to output.gpw (mode='')


Forces in eV/Ang:
  0 Li   -0.01331    0.01060   -0.29276
  1 Li   -0.01745   -0.01229   -0.28412
  2 Li   -0.00770   -0.00564   -0.25087
  3 Li   -0.00647    0.01199   -0.28349
  4 Li   -0.01503    0.01136   -0.28824
  5 Li    0.00294    0.00365   -0.28875
  6 Li   -0.00176   -0.00801   -0.29071
  7 Li   -0.02411   -0.00631   -0.27887
  8 Li   -0.01887   -0.00169   -0.29585
  9 Li    0.03007    0.03090    0.26778
 10 Li    0.10063    0.02454    0.25427
 11 Li    0.11216    0.07386    0.29463
 12 Li   -0.03066   -0.04757    0.30093
 13 Li    0.08839   -0.01159    0.26594
 14 Li    0.07010   -0.03220    0.30961
 15 Li   -0.01793    0.02132    0.26340
 16 Li    0.08474   -0.02815    0.28334
 17 Li    0.05320    0.04046    0.25344
 18 Li   -0.07760   -0.01095    0.13024
 19 Li   -0.05433    0.01249   -0.04352
 20 Li    0.04103    0.01835    0.27363
 21 Li   -0.00819   -0.03299    0.09401
 22 Li    0.02727   -0.03670    0.04333
 23 Li    0.04058   -0.08736    0.08201
 24 Li   -0.08477    0.08479    0.10867
 25 Li   -0.07946   -0.08986   -0.01686
 26 Li   -0.00646   -0.05872   -0.01258
 27 Li   -0.17295    0.22265   -0.04958
 28 Li   -0.15449    0.01139   -0.03976
 29 Li    0.29224    0.15917   -0.01873
 30 Li   -0.12450   -0.20253   -0.15273
 31 Li    0.04554   -0.01321    0.01091
 32 Li    0.28438   -0.24084    0.02131
 33 Li    0.01384    0.00596   -0.02012
 34 Li    0.03230    0.01175    0.01950
 35 Li   -0.04998   -0.10408   -0.01557
 36 O     0.42784   -0.65332    0.23960
 37 C     0.10914    0.45024    0.08624
 38 C    -0.23525   -0.20891   -0.17183
 39 H    -0.06288    0.24666   -0.01854
 40 H    -0.03375    0.05554   -0.47493
 41 H     0.10936    0.35995    0.20497
 42 H     0.10124   -0.24219   -0.15752
 43 H    -0.22240   -0.12445    0.12379
 44 H    -0.22770    0.16640    0.01626
 45 N    -0.38217   -0.02750    0.06739
 46 N     0.01889    0.26962   -0.27675

System changes: positions 

Initializing position-dependent things.

Density initialized from wave functions
       .-----------------------.  
      /|                       |  
     / |                       |  
    /  |                       |  
   /   |                       |  
  /    |                       |  
 *     |                       |  
 |     |                       |  
 |     |             H         |  
 |     |                 H     |  
 |     |              CH       |  
 |     |          H  C         |  
 |     |Li      LiH O  Hi      |  
 |     |                       |  
 |   Li|     Li      Li        |  
 |  Li |  Li      LLi     Li   |  
 |     |   Li           N      |  
 |     |Li      Li    N Li     |  
 |     |                       |  
 |   LLi     LLi     LLi       |  
 |     |  Li      Li      Li   |  
 | Li  |   Li      Li          |  
 |     |Li      Li      Li     |  
 Li    | Li      Li            |  
 |    Li      Li      Li       |  
 |     |                       |  
 |     |                       |  
 |     |                       |  
 |     |                       |  
 |     |                       |  
 |     |                       |  
 |     .-----------------------.  
 |    /                       /   
 |   /                       /    
 |  /                       /     
 | /                       /      
 |/                       /       
 *-----------------------*        

Positions:
   0 Li     1.617037    1.617037   10.000000    ( 0.0000,  0.0000,  0.0000)
   1 Li     4.851111    1.617037   10.000000    ( 0.0000,  0.0000,  0.0000)
   2 Li     8.085185    1.617037   10.000000    ( 0.0000,  0.0000,  0.0000)
   3 Li     1.617037    4.851111   10.000000    ( 0.0000,  0.0000,  0.0000)
   4 Li     4.851111    4.851111   10.000000    ( 0.0000,  0.0000,  0.0000)
   5 Li     8.085185    4.851111   10.000000    ( 0.0000,  0.0000,  0.0000)
   6 Li     1.617037    8.085185   10.000000    ( 0.0000,  0.0000,  0.0000)
   7 Li     4.851111    8.085185   10.000000    ( 0.0000,  0.0000,  0.0000)
   8 Li     8.085185    8.085185   10.000000    ( 0.0000,  0.0000,  0.0000)
   9 Li     0.000000    0.000000   11.617037    ( 0.0000,  0.0000,  0.0000)
  10 Li     3.234074    0.000000   11.617037    ( 0.0000,  0.0000,  0.0000)
  11 Li     6.468148    0.000000   11.617037    ( 0.0000,  0.0000,  0.0000)
  12 Li     0.000000    3.234074   11.617037    ( 0.0000,  0.0000,  0.0000)
  13 Li     3.234074    3.234074   11.617037    ( 0.0000,  0.0000,  0.0000)
  14 Li     6.468148    3.234074   11.617037    ( 0.0000,  0.0000,  0.0000)
  15 Li     0.000000    6.468148   11.617037    ( 0.0000,  0.0000,  0.0000)
  16 Li     3.234074    6.468148   11.617037    ( 0.0000,  0.0000,  0.0000)
  17 Li     6.468148    6.468148   11.617037    ( 0.0000,  0.0000,  0.0000)
  18 Li     1.761207    1.613216   13.455096    ( 0.0000,  0.0000,  0.0000)
  19 Li     5.040142    1.614838   13.549430    ( 0.0000,  0.0000,  0.0000)
  20 Li     8.200176    1.619245   13.631414    ( 0.0000,  0.0000,  0.0000)
  21 Li     1.600471    4.827520   13.452453    ( 0.0000,  0.0000,  0.0000)
  22 Li     4.907727    4.862797   13.489906    ( 0.0000,  0.0000,  0.0000)
  23 Li     8.063090    4.887806   13.486963    ( 0.0000,  0.0000,  0.0000)
  24 Li     1.717830    8.059689   13.433875    ( 0.0000,  0.0000,  0.0000)
  25 Li     4.985999    8.142862   13.498796    ( 0.0000,  0.0000,  0.0000)
  26 Li     8.148794    8.163265   13.514106    ( 0.0000,  0.0000,  0.0000)
  27 Li     0.228367   -0.046626   15.650815    ( 0.0000,  0.0000,  0.0000)
  28 Li     3.510856   -0.039240   15.484440    ( 0.0000,  0.0000,  0.0000)
  29 Li     6.538221   -0.153355   15.595573    ( 0.0000,  0.0000,  0.0000)
  30 Li     0.340700    3.365867   15.911587    ( 0.0000,  0.0000,  0.0000)
  31 Li     3.368690    3.278799   15.349148    ( 0.0000,  0.0000,  0.0000)
  32 Li     6.573989    3.183603   15.739642    ( 0.0000,  0.0000,  0.0000)
  33 Li     0.010268    6.486218   15.389361    ( 0.0000,  0.0000,  0.0000)
  34 Li     3.166456    6.457241   15.423341    ( 0.0000,  0.0000,  0.0000)
  35 Li     6.465533    6.503510   15.460798    ( 0.0000,  0.0000,  0.0000)
  36 O      7.046760    2.120455   19.221628    ( 0.0000,  0.0000,  0.0000)
  37 C      7.676923    1.033339   19.958338    ( 0.0000,  0.0000,  0.0000)
  38 C      8.224930    1.453499   21.323081    ( 0.0000,  0.0000,  0.0000)
  39 H      7.004599    0.169207   20.065523    ( 0.0000,  0.0000,  0.0000)
  40 H      8.529078    0.694293   19.378477    ( 0.0000,  0.0000,  0.0000)
  41 H      8.645038    0.534570   21.752514    ( 0.0000,  0.0000,  0.0000)
  42 H      8.966465    2.252980   21.257910    ( 0.0000,  0.0000,  0.0000)
  43 H      7.449112    1.833528   21.983611    ( 0.0000,  0.0000,  0.0000)
  44 H      6.284861    2.370430   19.749216    ( 0.0000,  0.0000,  0.0000)
  45 N      8.062661    0.974824   15.789657    ( 0.0000,  0.0000,  0.0000)
  46 N      8.899309    1.833911   15.948922    ( 0.0000,  0.0000,  0.0000)

Unit cell:
           periodic     x           y           z      points  spacing
  1. axis:    yes    9.702222    0.000000    0.000000    60     0.1617
  2. axis:    yes    0.000000    9.702222    0.000000    60     0.1617
  3. axis:    no     0.000000    0.000000   24.851111   156     0.1593

  Lengths:   9.702222   9.702222  24.851111
  Angles:   90.000000  90.000000  90.000000

Effective grid spacing dv^(1/3) = 0.1609

     iter     time        total  log10-change:
                         energy  eigst   dens
iter:   1 15:29:18  -309.362936  -0.90
iter:   2 15:31:54  -309.333686  -1.49  -1.67
iter:   3 15:34:30  -309.310636  -2.20  -1.89
iter:   4 15:37:03  -309.307149c -2.48  -2.25
Writing to output.gpw (mode='')

iter:   5 15:39:40  -309.303061c -2.06  -2.35
iter:   6 15:42:15  -309.302681c -2.58  -2.61
iter:   7 15:44:47  -309.302792c -2.58  -2.74
iter:   8 15:47:16  -309.302391c -3.30  -2.79
iter:   9 15:49:59  -309.302359c -3.47  -2.96
Writing to output.gpw (mode='')

iter:  10 15:52:37  -309.302358c -3.99  -3.00
iter:  11 15:55:04  -309.302428c -3.72  -3.14
iter:  12 15:57:29  -309.302391c -3.71  -3.27
iter:  13 16:00:00  -309.302381c -4.46  -3.25
iter:  14 16:02:36  -309.302393c -4.65  -3.44
Writing to output.gpw (mode='')

iter:  15 16:05:08  -309.302413c -4.50  -3.49
iter:  16 16:07:32  -309.302384c -4.81  -3.58
iter:  17 16:10:08  -309.302394c -5.02  -3.71
iter:  18 16:12:41  -309.302392c -5.22  -3.89
iter:  19 16:15:12  -309.302392c -5.45  -4.02c
Writing to output.gpw (mode='')

iter:  20 16:17:41  -309.302391c -5.53  -4.05c
iter:  21 16:20:09  -309.302398c -5.69  -4.11c
iter:  22 16:22:34  -309.302399c -5.97  -4.45c
iter:  23 16:25:07  -309.302400c -5.92  -4.49c
iter:  24 16:27:35  -309.302400c -6.25  -4.58c
Writing to output.gpw (mode='')

iter:  25 16:30:11  -309.302398c -6.39  -4.62c
iter:  26 16:32:41  -309.302399c -6.61  -4.80c
iter:  27 16:35:14  -309.302399c -6.61  -4.85c
iter:  28 16:37:48  -309.302399c -6.73  -4.87c
iter:  29 16:40:28  -309.302399c -6.86  -4.92c
Writing to output.gpw (mode='')

iter:  30 16:43:01  -309.302399c -6.98  -5.19c
iter:  31 16:45:33  -309.302399c -7.09  -5.30c
iter:  32 16:48:09  -309.302399c -7.23  -5.30c
iter:  33 16:50:48  -309.302399c -7.33  -5.29c
iter:  34 16:53:20  -309.302399c -7.41c -5.31c

Converged after 34 iterations.

Dipole moment: (-4.456421, -4.366137, 0.335381) |e|*Ang

Energy contributions relative to reference atoms: (reference = -14434.854043)

Kinetic:       +142.940231
Potential:     -137.685035
External:        +0.000000
XC:            -315.253677
Entropy (-ST):   -0.161916
Local:           +0.777040
--------------------------
Free energy:   -309.383357
Extrapolated:  -309.302399

Dipole-layer corrected work functions: 3.379321, 2.734604 eV

Showing only first 2 kpts
 Kpt  Band  Eigenvalues  Occupancy
  0    31     -3.28715    1.98017
  0    32     -3.09333    1.34849
  0    33     -3.02939    0.73106
  0    34     -2.85029    0.03155

  1    31     -3.27985    1.97709
  1    32     -3.13092    1.62887
  1    33     -3.00546    0.52614
  1    34     -2.88407    0.06107


Fermi level: -3.05696

No gap
Writing to output.gpw (mode='')


Forces in eV/Ang:
  0 Li   -0.01383    0.01097   -0.29291
  1 Li   -0.01646   -0.01237   -0.28549
  2 Li   -0.00759   -0.00530   -0.25085
  3 Li   -0.00645    0.01181   -0.28422
  4 Li   -0.01505    0.01165   -0.28810
  5 Li    0.00330    0.00304   -0.28925
  6 Li   -0.00153   -0.00778   -0.29066
  7 Li   -0.02417   -0.00615   -0.27916
  8 Li   -0.01928   -0.00072   -0.29697
  9 Li    0.02858    0.03368    0.26853
 10 Li    0.09870    0.02575    0.25884
 11 Li    0.11454    0.07450    0.29855
 12 Li   -0.03299   -0.05108    0.30462
 13 Li    0.08630   -0.01303    0.27070
 14 Li    0.07324   -0.03349    0.31058
 15 Li   -0.01763    0.02021    0.26841
 16 Li    0.08256   -0.02919    0.28791
 17 Li    0.05520    0.03858    0.25671
 18 Li   -0.07725   -0.00818    0.12317
 19 Li   -0.05527    0.00989   -0.04608
 20 Li    0.04306    0.02321    0.25355
 21 Li   -0.00621   -0.03079    0.08848
 22 Li    0.02634   -0.03646    0.03742
 23 Li    0.04105   -0.08772    0.07707
 24 Li   -0.08253    0.08174    0.10177
 25 Li   -0.08200   -0.08936   -0.02086
 26 Li   -0.00851   -0.05637   -0.01427
 27 Li   -0.16221    0.21499   -0.05374
 28 Li   -0.15723    0.01172   -0.03681
 29 Li    0.29051    0.15370   -0.01788
 30 Li   -0.13499   -0.19487   -0.17321
 31 Li    0.04601   -0.01338    0.01777
 32 Li    0.29928   -0.25292    0.02128
 33 Li    0.01483    0.00625   -0.01331
 34 Li    0.03245    0.01108    0.02092
 35 Li   -0.04956   -0.10379   -0.01246
 36 O     0.43677   -0.66371    0.17722
 37 C     0.13056    0.46805    0.12109
 38 C    -0.25073   -0.21839   -0.14773
 39 H    -0.11116    0.21547   -0.03942
 40 H     0.01141    0.06259   -0.49065
 41 H     0.15347    0.36631    0.24248
 42 H     0.16274   -0.24599   -0.17994
 43 H    -0.26504   -0.13973    0.13411
 44 H    -0.28432    0.20010    0.03301
 45 N    -0.43234    0.01225    0.10214
 46 N     0.06053    0.24106   -0.20939

System changes: positions 

Initializing position-dependent things.

Density initialized from wave functions
       .-----------------------.  
      /|                       |  
     / |                       |  
    /  |                       |  
   /   |                       |  
  /    |                       |  
 *     |                       |  
 |     |                       |  
 |     |             H         |  
 |     |                 H     |  
 |     |              CH       |  
 |     |Li        H  C         |  
 |     |        LiH O HLi      |  
 |     |                       |  
 |   Li|     Li      Li        |  
 |  Li |  Li      LLi     Li   |  
 |     |   Li           N      |  
 |     |Li      Li    N Li     |  
 |     |                       |  
 |   LLi     LLi     LLi       |  
 |     |  Li      Li      Li   |  
 | Li  |   Li      Li          |  
 |     |Li      Li      Li     |  
 Li    | Li      Li            |  
 |    Li      Li      Li       |  
 |     |                       |  
 |     |                       |  
 |     |                       |  
 |     |                       |  
 |     |                       |  
 |     |                       |  
 |     .-----------------------.  
 |    /                       /   
 |   /                       /    
 |  /                       /     
 | /                       /      
 |/                       /       
 *-----------------------*        

Positions:
   0 Li     1.617037    1.617037   10.000000    ( 0.0000,  0.0000,  0.0000)
   1 Li     4.851111    1.617037   10.000000    ( 0.0000,  0.0000,  0.0000)
   2 Li     8.085185    1.617037   10.000000    ( 0.0000,  0.0000,  0.0000)
   3 Li     1.617037    4.851111   10.000000    ( 0.0000,  0.0000,  0.0000)
   4 Li     4.851111    4.851111   10.000000    ( 0.0000,  0.0000,  0.0000)
   5 Li     8.085185    4.851111   10.000000    ( 0.0000,  0.0000,  0.0000)
   6 Li     1.617037    8.085185   10.000000    ( 0.0000,  0.0000,  0.0000)
   7 Li     4.851111    8.085185   10.000000    ( 0.0000,  0.0000,  0.0000)
   8 Li     8.085185    8.085185   10.000000    ( 0.0000,  0.0000,  0.0000)
   9 Li     0.000000    0.000000   11.617037    ( 0.0000,  0.0000,  0.0000)
  10 Li     3.234074    0.000000   11.617037    ( 0.0000,  0.0000,  0.0000)
  11 Li     6.468148    0.000000   11.617037    ( 0.0000,  0.0000,  0.0000)
  12 Li     0.000000    3.234074   11.617037    ( 0.0000,  0.0000,  0.0000)
  13 Li     3.234074    3.234074   11.617037    ( 0.0000,  0.0000,  0.0000)
  14 Li     6.468148    3.234074   11.617037    ( 0.0000,  0.0000,  0.0000)
  15 Li     0.000000    6.468148   11.617037    ( 0.0000,  0.0000,  0.0000)
  16 Li     3.234074    6.468148   11.617037    ( 0.0000,  0.0000,  0.0000)
  17 Li     6.468148    6.468148   11.617037    ( 0.0000,  0.0000,  0.0000)
  18 Li     1.756549    1.611946   13.469881    ( 0.0000,  0.0000,  0.0000)
  19 Li     5.041296    1.616078   13.551056    ( 0.0000,  0.0000,  0.0000)
  20 Li     8.204991    1.619737   13.657930    ( 0.0000,  0.0000,  0.0000)
  21 Li     1.598893    4.824416   13.460472    ( 0.0000,  0.0000,  0.0000)
  22 Li     4.911303    4.859788   13.496396    ( 0.0000,  0.0000,  0.0000)
  23 Li     8.065015    4.882390   13.496002    ( 0.0000,  0.0000,  0.0000)
  24 Li     1.712968    8.065572   13.443748    ( 0.0000,  0.0000,  0.0000)
  25 Li     4.983980    8.138036   13.501007    ( 0.0000,  0.0000,  0.0000)
  26 Li     8.150308    8.161850   13.517761    ( 0.0000,  0.0000,  0.0000)
  27 Li     0.212791   -0.028722   15.654215    ( 0.0000,  0.0000,  0.0000)
  28 Li     3.506055   -0.039066   15.481334    ( 0.0000,  0.0000,  0.0000)
  29 Li     6.541764   -0.152991   15.587568    ( 0.0000,  0.0000,  0.0000)
  30 Li     0.341095    3.350397   15.915242    ( 0.0000,  0.0000,  0.0000)
  31 Li     3.373581    3.279048   15.346093    ( 0.0000,  0.0000,  0.0000)
  32 Li     6.590912    3.168484   15.743981    ( 0.0000,  0.0000,  0.0000)
  33 Li     0.011028    6.487583   15.385039    ( 0.0000,  0.0000,  0.0000)
  34 Li     3.167929    6.458099   15.423106    ( 0.0000,  0.0000,  0.0000)
  35 Li     6.462097    6.497029   15.459128    ( 0.0000,  0.0000,  0.0000)
  36 O      7.045179    2.126687   19.226455    ( 0.0000,  0.0000,  0.0000)
  37 C      7.674716    1.035844   19.950191    ( 0.0000,  0.0000,  0.0000)
  38 C      8.226083    1.452113   21.310805    ( 0.0000,  0.0000,  0.0000)
  39 H      7.003634    0.175042   20.066831    ( 0.0000,  0.0000,  0.0000)
  40 H      8.517613    0.693651   19.361443    ( 0.0000,  0.0000,  0.0000)
  41 H      8.641901    0.530547   21.734722    ( 0.0000,  0.0000,  0.0000)
  42 H      8.959136    2.258191   21.251112    ( 0.0000,  0.0000,  0.0000)
  43 H      7.453594    1.829207   21.974638    ( 0.0000,  0.0000,  0.0000)
  44 H      6.282039    2.361256   19.755314    ( 0.0000,  0.0000,  0.0000)
  45 N      8.057692    0.974262   15.768253    ( 0.0000,  0.0000,  0.0000)
  46 N      8.889208    1.845062   15.911859    ( 0.0000,  0.0000,  0.0000)

Unit cell:
           periodic     x           y           z      points  spacing
  1. axis:    yes    9.702222    0.000000    0.000000    60     0.1617
  2. axis:    yes    0.000000    9.702222    0.000000    60     0.1617
  3. axis:    no     0.000000    0.000000   24.851111   156     0.1593

  Lengths:   9.702222   9.702222  24.851111
  Angles:   90.000000  90.000000  90.000000

Effective grid spacing dv^(1/3) = 0.1609

     iter     time        total  log10-change:
                         energy  eigst   dens
iter:   1 16:56:34  -309.549329  -0.66
iter:   2 16:59:05  -309.435118  -1.09  -1.41
iter:   3 17:01:40  -309.355232  -2.04  -1.64
iter:   4 17:04:11  -309.350501  -2.36  -2.09
Writing to output.gpw (mode='')

iter:   5 17:06:50  -309.342361c -1.79  -2.17
iter:   6 17:09:17  -309.341596c -2.61  -2.44
iter:   7 17:11:54  -309.341258c -2.43  -2.61
iter:   8 17:14:32  -309.341210c -2.82  -2.74
iter:   9 17:17:12  -309.341151c -3.31  -2.85
Writing to output.gpw (mode='')

iter:  10 17:19:50  -309.341082c -3.69  -2.89
iter:  11 17:22:27  -309.341036c -3.57  -2.97
iter:  12 17:25:01  -309.341056c -3.95  -3.18
iter:  13 17:27:38  -309.341030c -4.34  -3.28
iter:  14 17:30:29  -309.341026c -4.54  -3.39
Writing to output.gpw (mode='')

iter:  15 17:33:03  -309.341010c -4.41  -3.51
iter:  16 17:35:34  -309.341019c -4.67  -3.60
iter:  17 17:38:12  -309.341022c -4.75  -3.66
iter:  18 17:40:50  -309.341026c -5.00  -3.89
iter:  19 17:43:29  -309.341032c -5.35  -3.92
Writing to output.gpw (mode='')

iter:  20 17:45:56  -309.341037c -5.15  -4.03c
iter:  21 17:48:28  -309.341035c -5.59  -4.13c
iter:  22 17:51:05  -309.341038c -5.60  -4.22c
iter:  23 17:53:49  -309.341039c -5.77  -4.41c
iter:  24 17:56:25  -309.341039c -6.05  -4.45c
Writing to output.gpw (mode='')

iter:  25 17:58:59  -309.341039c -5.99  -4.47c
iter:  26 18:01:35  -309.341039c -6.15  -4.61c
iter:  27 18:04:22  -309.341040c -6.18  -4.68c
iter:  28 18:06:56  -309.341040c -6.48  -4.75c
iter:  29 18:09:37  -309.341040c -6.42  -4.90c
Writing to output.gpw (mode='')

iter:  30 18:12:14  -309.341040c -6.69  -4.98c
iter:  31 18:14:49  -309.341040c -6.82  -5.01c
iter:  32 18:17:24  -309.341040c -6.87  -5.35c
iter:  33 18:19:59  -309.341040c -6.83  -5.37c
iter:  34 18:22:40  -309.341040c -7.15  -5.39c
Writing to output.gpw (mode='')

iter:  35 18:25:13  -309.341040c -7.19  -5.39c
iter:  36 18:27:55  -309.341040c -7.36  -5.40c
iter:  37 18:30:40  -309.341040c -7.44c -5.59c

Converged after 37 iterations.

Dipole moment: (-4.516207, -4.590589, 0.334357) |e|*Ang

Energy contributions relative to reference atoms: (reference = -14434.854043)

Kinetic:       +143.967203
Potential:     -138.366407
External:        +0.000000
XC:            -315.638333
Entropy (-ST):   -0.162538
Local:           +0.777766
--------------------------
Free energy:   -309.422309
Extrapolated:  -309.341040

Dipole-layer corrected work functions: 3.380738, 2.737988 eV

Showing only first 2 kpts
 Kpt  Band  Eigenvalues  Occupancy
  0    31     -3.28624    1.97883
  0    32     -3.09407    1.33377
  0    33     -3.03400    0.75164
  0    34     -2.85340    0.03199

  1    31     -3.28757    1.97938
  1    32     -3.14072    1.67155
  1    33     -3.00761    0.52418
  1    34     -2.88237    0.05640


Fermi level: -3.05936

No gap
Writing to output.gpw (mode='')


Forces in eV/Ang:
  0 Li   -0.01417    0.01132   -0.29377
  1 Li   -0.01560   -0.01237   -0.28754
  2 Li   -0.00731   -0.00480   -0.25203
  3 Li   -0.00648    0.01150   -0.28569
  4 Li   -0.01507    0.01195   -0.28823
  5 Li    0.00391    0.00268   -0.29034
  6 Li   -0.00131   -0.00747   -0.29102
  7 Li   -0.02406   -0.00604   -0.27980
  8 Li   -0.01939    0.00002   -0.29864
  9 Li    0.02560    0.03788    0.27229
 10 Li    0.09445    0.02806    0.26730
 11 Li    0.11730    0.07511    0.30634
 12 Li   -0.03568   -0.05607    0.31162
 13 Li    0.08214   -0.01582    0.27936
 14 Li    0.07731   -0.03513    0.31381
 15 Li   -0.01696    0.01814    0.27670
 16 Li    0.07750   -0.02973    0.29691
 17 Li    0.05820    0.03486    0.26280
 18 Li   -0.07392   -0.00394    0.10643
 19 Li   -0.05493    0.00579   -0.05031
 20 Li    0.04464    0.03048    0.20499
 21 Li   -0.00298   -0.02677    0.07613
 22 Li    0.02578   -0.03604    0.02683
 23 Li    0.04043   -0.08606    0.06600
 24 Li   -0.07721    0.07545    0.08769
 25 Li   -0.08161   -0.08494   -0.02585
 26 Li   -0.01169   -0.05304   -0.01937
 27 Li   -0.13276    0.18628   -0.05473
 28 Li   -0.15447    0.01183   -0.03086
 29 Li    0.26436    0.12987   -0.01442
 30 Li   -0.11466   -0.14945   -0.18972
 31 Li    0.04667   -0.01308    0.02821
 32 Li    0.31353   -0.26543    0.02520
 33 Li    0.01557    0.00723   -0.00173
 34 Li    0.03164    0.00967    0.02268
 35 Li   -0.04723   -0.09997   -0.00692
 36 O     0.43824   -0.64534    0.06281
 37 C     0.15566    0.48756    0.13726
 38 C    -0.23935   -0.19991   -0.09179
 39 H    -0.17712    0.15225   -0.07037
 40 H     0.05947    0.05812   -0.49705
 41 H     0.22078    0.34891    0.28698
 42 H     0.23802   -0.25721   -0.19844
 43 H    -0.33433   -0.14157    0.15982
 44 H    -0.38988    0.25735    0.07118
 45 N    -0.53841   -0.04774    0.05763
 46 N     0.09703    0.30027   -0.20961

System changes: positions 

Initializing position-dependent things.

Density initialized from wave functions
       .-----------------------.  
      /|                       |  
     / |                       |  
    /  |                       |  
   /   |                       |  
  /    |                       |  
 *     |                       |  
 |     |                       |  
 |     |             H         |  
 |     |                 H     |  
 |     |              CH       |  
 |     Li         H  C         |  
 |     |        LiH O HLi      |  
 |     |                       |  
 |   Li|     Li      Li        |  
 |  Li |  Li      LLi     Li   |  
 |     |   Li           N      |  
 |     |Li      Li    N Li     |  
 |     |                       |  
 |   LLi     LLi     LLi       |  
 |     |  Li      Li      Li   |  
 | Li  |   Li      Li          |  
 |     |Li      Li      Li     |  
 Li    | Li      Li            |  
 |    Li      Li      Li       |  
 |     |                       |  
 |     |                       |  
 |     |                       |  
 |     |                       |  
 |     |                       |  
 |     |                       |  
 |     .-----------------------.  
 |    /                       /   
 |   /                       /    
 |  /                       /     
 | /                       /      
 |/                       /       
 *-----------------------*        

Positions:
   0 Li     1.617037    1.617037   10.000000    ( 0.0000,  0.0000,  0.0000)
   1 Li     4.851111    1.617037   10.000000    ( 0.0000,  0.0000,  0.0000)
   2 Li     8.085185    1.617037   10.000000    ( 0.0000,  0.0000,  0.0000)
   3 Li     1.617037    4.851111   10.000000    ( 0.0000,  0.0000,  0.0000)
   4 Li     4.851111    4.851111   10.000000    ( 0.0000,  0.0000,  0.0000)
   5 Li     8.085185    4.851111   10.000000    ( 0.0000,  0.0000,  0.0000)
   6 Li     1.617037    8.085185   10.000000    ( 0.0000,  0.0000,  0.0000)
   7 Li     4.851111    8.085185   10.000000    ( 0.0000,  0.0000,  0.0000)
   8 Li     8.085185    8.085185   10.000000    ( 0.0000,  0.0000,  0.0000)
   9 Li     0.000000    0.000000   11.617037    ( 0.0000,  0.0000,  0.0000)
  10 Li     3.234074    0.000000   11.617037    ( 0.0000,  0.0000,  0.0000)
  11 Li     6.468148    0.000000   11.617037    ( 0.0000,  0.0000,  0.0000)
  12 Li     0.000000    3.234074   11.617037    ( 0.0000,  0.0000,  0.0000)
  13 Li     3.234074    3.234074   11.617037    ( 0.0000,  0.0000,  0.0000)
  14 Li     6.468148    3.234074   11.617037    ( 0.0000,  0.0000,  0.0000)
  15 Li     0.000000    6.468148   11.617037    ( 0.0000,  0.0000,  0.0000)
  16 Li     3.234074    6.468148   11.617037    ( 0.0000,  0.0000,  0.0000)
  17 Li     6.468148    6.468148   11.617037    ( 0.0000,  0.0000,  0.0000)
  18 Li     1.753487    1.610939   13.482047    ( 0.0000,  0.0000,  0.0000)
  19 Li     5.043121    1.617125   13.552617    ( 0.0000,  0.0000,  0.0000)
  20 Li     8.209789    1.620039   13.680983    ( 0.0000,  0.0000,  0.0000)
  21 Li     1.597791    4.821993   13.466475    ( 0.0000,  0.0000,  0.0000)
  22 Li     4.914611    4.857192   13.501648    ( 0.0000,  0.0000,  0.0000)
  23 Li     8.066173    4.878378   13.503249    ( 0.0000,  0.0000,  0.0000)
  24 Li     1.709764    8.069863   13.451217    ( 0.0000,  0.0000,  0.0000)
  25 Li     4.982780    8.134105   13.502500    ( 0.0000,  0.0000,  0.0000)
  26 Li     8.151806    8.161065   13.520834    ( 0.0000,  0.0000,  0.0000)
  27 Li     0.200732   -0.014826   15.658644    ( 0.0000,  0.0000,  0.0000)
  28 Li     3.503456   -0.039230   15.479504    ( 0.0000,  0.0000,  0.0000)
  29 Li     6.541780   -0.155991   15.580695    ( 0.0000,  0.0000,  0.0000)
  30 Li     0.343954    3.339361   15.921148    ( 0.0000,  0.0000,  0.0000)
  31 Li     3.378444    3.279759   15.343446    ( 0.0000,  0.0000,  0.0000)
  32 Li     6.605975    3.154832   15.750220    ( 0.0000,  0.0000,  0.0000)
  33 Li     0.011858    6.488763   15.381686    ( 0.0000,  0.0000,  0.0000)
  34 Li     3.168721    6.458830   15.423097    ( 0.0000,  0.0000,  0.0000)
  35 Li     6.459217    6.491479   15.458156    ( 0.0000,  0.0000,  0.0000)
  36 O      7.041742    2.132365   19.229076    ( 0.0000,  0.0000,  0.0000)
  37 C      7.672155    1.038609   19.941770    ( 0.0000,  0.0000,  0.0000)
  38 C      8.227424    1.451000   21.299480    ( 0.0000,  0.0000,  0.0000)
  39 H      7.002429    0.179717   20.065814    ( 0.0000,  0.0000,  0.0000)
  40 H      8.507544    0.694808   19.344943    ( 0.0000,  0.0000,  0.0000)
  41 H      8.640512    0.526806   21.717912    ( 0.0000,  0.0000,  0.0000)
  42 H      8.953556    2.261826   21.244128    ( 0.0000,  0.0000,  0.0000)
  43 H      7.457566    1.824979   21.967203    ( 0.0000,  0.0000,  0.0000)
  44 H      6.277513    2.354149   19.760009    ( 0.0000,  0.0000,  0.0000)
  45 N      8.050010    0.971875   15.745453    ( 0.0000,  0.0000,  0.0000)
  46 N      8.876036    1.855568   15.875581    ( 0.0000,  0.0000,  0.0000)

Unit cell:
           periodic     x           y           z      points  spacing
  1. axis:    yes    9.702222    0.000000    0.000000    60     0.1617
  2. axis:    yes    0.000000    9.702222    0.000000    60     0.1617
  3. axis:    no     0.000000    0.000000   24.851111   156     0.1593

  Lengths:   9.702222   9.702222  24.851111
  Angles:   90.000000  90.000000  90.000000

Effective grid spacing dv^(1/3) = 0.1609

     iter     time        total  log10-change:
                         energy  eigst   dens
iter:   1 18:33:58  -309.478114  -0.80
iter:   2 18:36:30  -309.421406  -1.31  -1.54
iter:   3 18:39:02  -309.378947  -2.11  -1.77
iter:   4 18:41:38  -309.373909  -2.36  -2.16
Writing to output.gpw (mode='')

iter:   5 18:44:13  -309.368490c -2.05  -2.26
iter:   6 18:46:48  -309.367930c -2.24  -2.53
iter:   7 18:49:23  -309.368023c -2.47  -2.65
iter:   8 18:52:04  -309.367534c -3.17  -2.72
iter:   9 18:54:41  -309.367516c -3.40  -2.89
Writing to output.gpw (mode='')

iter:  10 18:57:21  -309.367451c -3.88  -2.93
iter:  11 19:00:00  -309.367489c -3.65  -3.02
iter:  12 19:02:39  -309.367479c -3.68  -3.24
iter:  13 19:05:19  -309.367463c -4.45  -3.24
iter:  14 19:07:59  -309.367465c -4.58  -3.38
Writing to output.gpw (mode='')

iter:  15 19:10:41  -309.367472c -4.62  -3.46
iter:  16 19:13:20  -309.367469c -4.62  -3.58
iter:  17 19:15:59  -309.367472c -4.96  -3.66
iter:  18 19:18:43  -309.367471c -5.12  -3.80
iter:  19 19:21:20  -309.367474c -5.20  -3.91
Writing to output.gpw (mode='')

iter:  20 19:24:00  -309.367477c -5.48  -4.15c
iter:  21 19:26:36  -309.367477c -5.83  -4.18c
iter:  22 19:29:10  -309.367477c -5.88  -4.26c
iter:  23 19:31:48  -309.367478c -6.03  -4.43c
iter:  24 19:34:25  -309.367479c -6.06  -4.64c
Writing to output.gpw (mode='')

iter:  25 19:36:56  -309.367479c -6.38  -4.70c
iter:  26 19:39:38  -309.367478c -6.29  -4.73c
iter:  27 19:42:24  -309.367478c -6.55  -4.78c
iter:  28 19:45:07  -309.367478c -6.71  -4.84c
iter:  29 19:47:43  -309.367478c -6.78  -4.88c
Writing to output.gpw (mode='')

iter:  30 19:50:16  -309.367479c -6.76  -4.97c
iter:  31 19:52:58  -309.367479c -7.02  -5.10c
iter:  32 19:55:35  -309.367479c -7.29  -5.16c
iter:  33 19:58:07  -309.367479c -7.11  -5.19c
iter:  34 20:00:38  -309.367479c -7.44c -5.35c

Converged after 34 iterations.

Dipole moment: (-4.606516, -4.718289, 0.333712) |e|*Ang

Energy contributions relative to reference atoms: (reference = -14434.854043)

Kinetic:       +144.523709
Potential:     -138.696231
External:        +0.000000
XC:            -315.891649
Entropy (-ST):   -0.163271
Local:           +0.778327
--------------------------
Free energy:   -309.449115
Extrapolated:  -309.367479

Dipole-layer corrected work functions: 3.381754, 2.740245 eV

Showing only first 2 kpts
 Kpt  Band  Eigenvalues  Occupancy
  0    31     -3.28507    1.97762
  0    32     -3.09349    1.31389
  0    33     -3.03751    0.76934
  0    34     -2.85630    0.03280

  1    31     -3.29398    1.98124
  1    32     -3.14938    1.70831
  1    33     -3.00894    0.52182
  1    34     -2.87981    0.05198


Fermi level: -3.06100

No gap
Writing to output.gpw (mode='')


Forces in eV/Ang:
  0 Li   -0.01453    0.01169   -0.29421
  1 Li   -0.01466   -0.01237   -0.28905
  2 Li   -0.00714   -0.00442   -0.25279
  3 Li   -0.00643    0.01130   -0.28676
  4 Li   -0.01508    0.01221   -0.28822
  5 Li    0.00446    0.00221   -0.29098
  6 Li   -0.00110   -0.00725   -0.29116
  7 Li   -0.02404   -0.00592   -0.28018
  8 Li   -0.01956    0.00083   -0.29987
  9 Li    0.02374    0.04119    0.27447
 10 Li    0.09143    0.02995    0.27383
 11 Li    0.11957    0.07536    0.31182
 12 Li   -0.03792   -0.06000    0.31664
 13 Li    0.07915   -0.01800    0.28614
 14 Li    0.08054   -0.03613    0.31529
 15 Li   -0.01659    0.01656    0.28338
 16 Li    0.07401   -0.03060    0.30343
 17 Li    0.06065    0.03212    0.26744
 18 Li   -0.07273   -0.00060    0.09453
 19 Li   -0.05533    0.00222   -0.05351
 20 Li    0.04323    0.04011    0.14255
 21 Li   -0.00007   -0.02338    0.06707
 22 Li    0.02480   -0.03527    0.01813
 23 Li    0.04023   -0.08586    0.05805
 24 Li   -0.07354    0.07101    0.07737
 25 Li   -0.08315   -0.08298   -0.03046
 26 Li   -0.01441   -0.04966   -0.02240
 27 Li   -0.11625    0.17079   -0.05509
 28 Li   -0.15450    0.01213   -0.02625
 29 Li    0.24703    0.11338   -0.01179
 30 Li   -0.12138   -0.13568   -0.20840
 31 Li    0.04755   -0.01312    0.03716
 32 Li    0.32925   -0.27948    0.02639
 33 Li    0.01636    0.00834    0.00754
 34 Li    0.03135    0.00855    0.02436
 35 Li   -0.04576   -0.09808   -0.00233
 36 O     0.42365   -0.63259   -0.00949
 37 C     0.16871    0.49015    0.15483
 38 C    -0.24243   -0.20557   -0.05381
 39 H    -0.22233    0.10988   -0.09398
 40 H     0.09766    0.05442   -0.49218
 41 H     0.26051    0.33926    0.31664
 42 H     0.30736   -0.25030   -0.21186
 43 H    -0.36984   -0.15058    0.16470
 44 H    -0.44142    0.29693    0.08150
 45 N    -0.47471   -0.00910    0.08907
 46 N     0.09525    0.27271   -0.13234

System changes: positions 

Initializing position-dependent things.

Density initialized from wave functions
       .-----------------------.  
      /|                       |  
     / |                       |  
    /  |                       |  
   /   |                       |  
  /    |                       |  
 *     |                       |  
 |     |                       |  
 |     |             H         |  
 |     |                 H     |  
 |     |              CH       |  
 |     |          H  C         |  
 |     |        LiH O HLi      |  
 |     |                       |  
 |   Li|     Li      Li        |  
 |  Li |  Li      LLi     Li   |  
 |     |   Li           N      |  
 Li    |Li      Li    N Li     |  
 |     |                       |  
 |   LLi     LLi     LLi       |  
 |     |  Li      Li      Li   |  
 | Li  |   Li      Li          |  
 |     |Li      Li      Li     |  
 Li    | Li      Li            |  
 |    Li      Li      Li       |  
 |     |                       |  
 |     |                       |  
 |     |                       |  
 |     |                       |  
 |     |                       |  
 |     |                       |  
 |     .-----------------------.  
 |    /                       /   
 |   /                       /    
 |  /                       /     
 | /                       /      
 |/                       /       
 *-----------------------*        

Positions:
   0 Li     1.617037    1.617037   10.000000    ( 0.0000,  0.0000,  0.0000)
   1 Li     4.851111    1.617037   10.000000    ( 0.0000,  0.0000,  0.0000)
   2 Li     8.085185    1.617037   10.000000    ( 0.0000,  0.0000,  0.0000)
   3 Li     1.617037    4.851111   10.000000    ( 0.0000,  0.0000,  0.0000)
   4 Li     4.851111    4.851111   10.000000    ( 0.0000,  0.0000,  0.0000)
   5 Li     8.085185    4.851111   10.000000    ( 0.0000,  0.0000,  0.0000)
   6 Li     1.617037    8.085185   10.000000    ( 0.0000,  0.0000,  0.0000)
   7 Li     4.851111    8.085185   10.000000    ( 0.0000,  0.0000,  0.0000)
   8 Li     8.085185    8.085185   10.000000    ( 0.0000,  0.0000,  0.0000)
   9 Li     0.000000    0.000000   11.617037    ( 0.0000,  0.0000,  0.0000)
  10 Li     3.234074    0.000000   11.617037    ( 0.0000,  0.0000,  0.0000)
  11 Li     6.468148    0.000000   11.617037    ( 0.0000,  0.0000,  0.0000)
  12 Li     0.000000    3.234074   11.617037    ( 0.0000,  0.0000,  0.0000)
  13 Li     3.234074    3.234074   11.617037    ( 0.0000,  0.0000,  0.0000)
  14 Li     6.468148    3.234074   11.617037    ( 0.0000,  0.0000,  0.0000)
  15 Li     0.000000    6.468148   11.617037    ( 0.0000,  0.0000,  0.0000)
  16 Li     3.234074    6.468148   11.617037    ( 0.0000,  0.0000,  0.0000)
  17 Li     6.468148    6.468148   11.617037    ( 0.0000,  0.0000,  0.0000)
  18 Li     1.747203    1.609502   13.499173    ( 0.0000,  0.0000,  0.0000)
  19 Li     5.043324    1.618488   13.553581    ( 0.0000,  0.0000,  0.0000)
  20 Li     8.215038    1.621364   13.709321    ( 0.0000,  0.0000,  0.0000)
  21 Li     1.595933    4.818288   13.476185    ( 0.0000,  0.0000,  0.0000)
  22 Li     4.918679    4.853537   13.508916    ( 0.0000,  0.0000,  0.0000)
  23 Li     8.068980    4.871133   13.513868    ( 0.0000,  0.0000,  0.0000)
  24 Li     1.703139    8.077449   13.463191    ( 0.0000,  0.0000,  0.0000)
  25 Li     4.979482    8.127922   13.504731    ( 0.0000,  0.0000,  0.0000)
  26 Li     8.153204    8.158800   13.524478    ( 0.0000,  0.0000,  0.0000)
  27 Li     0.181965    0.007005   15.661507    ( 0.0000,  0.0000,  0.0000)
  28 Li     3.495938   -0.038708   15.475594    ( 0.0000,  0.0000,  0.0000)
  29 Li     6.548559   -0.153501   15.571915    ( 0.0000,  0.0000,  0.0000)
  30 Li     0.342701    3.320634   15.921993    ( 0.0000,  0.0000,  0.0000)
  31 Li     3.383946    3.279567   15.340766    ( 0.0000,  0.0000,  0.0000)
  32 Li     6.627524    3.135737   15.753979    ( 0.0000,  0.0000,  0.0000)
  33 Li     0.012730    6.490455   15.377145    ( 0.0000,  0.0000,  0.0000)
  34 Li     3.170990    6.459841   15.422943    ( 0.0000,  0.0000,  0.0000)
  35 Li     6.454960    6.483497   15.456215    ( 0.0000,  0.0000,  0.0000)
  36 O      7.041311    2.137613   19.234839    ( 0.0000,  0.0000,  0.0000)
  37 C      7.671079    1.041772   19.933441    ( 0.0000,  0.0000,  0.0000)
  38 C      8.228527    1.449610   21.288341    ( 0.0000,  0.0000,  0.0000)
  39 H      7.000684    0.187525   20.067028    ( 0.0000,  0.0000,  0.0000)
  40 H      8.495037    0.695685   19.323580    ( 0.0000,  0.0000,  0.0000)
  41 H      8.639272    0.525538   21.704569    ( 0.0000,  0.0000,  0.0000)
  42 H      8.946746    2.265227   21.237852    ( 0.0000,  0.0000,  0.0000)
  43 H      7.459959    1.819178   21.959662    ( 0.0000,  0.0000,  0.0000)
  44 H      6.274904    2.345136   19.764564    ( 0.0000,  0.0000,  0.0000)
  45 N      8.045813    0.971165   15.726397    ( 0.0000,  0.0000,  0.0000)
  46 N      8.866673    1.867886   15.838694    ( 0.0000,  0.0000,  0.0000)

Unit cell:
           periodic     x           y           z      points  spacing
  1. axis:    yes    9.702222    0.000000    0.000000    60     0.1617
  2. axis:    yes    0.000000    9.702222    0.000000    60     0.1617
  3. axis:    no     0.000000    0.000000   24.851111   156     0.1593

  Lengths:   9.702222   9.702222  24.851111
  Angles:   90.000000  90.000000  90.000000

Effective grid spacing dv^(1/3) = 0.1609

     iter     time        total  log10-change:
                         energy  eigst   dens
iter:   1 20:03:54  -309.634053  -0.62
iter:   2 20:06:24  -309.509901  -1.04  -1.39
iter:   3 20:08:55  -309.421800  -1.95  -1.61
iter:   4 20:11:29  -309.414842  -2.23  -2.03
Writing to output.gpw (mode='')

iter:   5 20:13:58  -309.405244c -1.84  -2.12
iter:   6 20:16:28  -309.404273c -2.16  -2.40
iter:   7 20:19:08  -309.404333c -2.17  -2.55
iter:   8 20:21:42  -309.403682c -3.00  -2.62
iter:   9 20:24:17  -309.403643c -3.25  -2.80
Writing to output.gpw (mode='')

iter:  10 20:26:56  -309.403533c -3.68  -2.84
iter:  11 20:29:27  -309.403532c -3.44  -2.97
iter:  12 20:32:07  -309.403494c -3.68  -3.14
iter:  13 20:34:47  -309.403492c -4.20  -3.21
iter:  14 20:37:17  -309.403497c -4.54  -3.36
Writing to output.gpw (mode='')

iter:  15 20:39:51  -309.403512c -4.18  -3.37
iter:  16 20:42:29  -309.403495c -4.55  -3.47
iter:  17 20:45:00  -309.403496c -4.85  -3.75
iter:  18 20:47:39  -309.403501c -4.96  -3.80
iter:  19 20:50:10  -309.403501c -5.13  -3.83
Writing to output.gpw (mode='')

iter:  20 20:52:43  -309.403509c -5.22  -3.85
iter:  21 20:55:23  -309.403516c -5.40  -3.96
iter:  22 20:57:58  -309.403516c -5.52  -4.14c
iter:  23 21:00:28  -309.403515c -5.61  -4.31c
iter:  24 21:03:03  -309.403514c -5.98  -4.37c
Writing to output.gpw (mode='')

iter:  25 21:05:46  -309.403514c -5.99  -4.54c
iter:  26 21:08:26  -309.403514c -6.31  -4.65c
iter:  27 21:11:04  -309.403514c -6.29  -4.67c
iter:  28 21:13:32  -309.403515c -6.49  -4.83c
iter:  29 21:16:03  -309.403515c -6.62  -4.89c
Writing to output.gpw (mode='')

iter:  30 21:18:36  -309.403515c -6.62  -5.00c
iter:  31 21:21:09  -309.403515c -6.77  -5.11c
iter:  32 21:23:48  -309.403515c -6.83  -5.21c
iter:  33 21:26:23  -309.403516c -7.10  -5.32c
iter:  34 21:28:54  -309.403516c -7.22  -5.34c
Writing to output.gpw (mode='')

iter:  35 21:31:26  -309.403516c -7.26  -5.31c
iter:  36 21:34:02  -309.403516c -7.31  -5.35c
iter:  37 21:36:42  -309.403516c -7.53c -5.42c

Converged after 37 iterations.

Dipole moment: (-4.618679, -4.996525, 0.331216) |e|*Ang

Energy contributions relative to reference atoms: (reference = -14434.854043)

Kinetic:       +145.709248
Potential:     -139.472900
External:        +0.000000
XC:            -316.336502
Entropy (-ST):   -0.163804
Local:           +0.778540
--------------------------
Free energy:   -309.485418
Extrapolated:  -309.403516

Dipole-layer corrected work functions: 3.383384, 2.746674 eV

Showing only first 2 kpts
 Kpt  Band  Eigenvalues  Occupancy
  0    31     -3.28560    1.97602
  0    32     -3.09680    1.30745
  0    33     -3.04318    0.78492
  0    34     -2.86085    0.03313

  1    31     -3.30444    1.98348
  1    32     -3.16183    1.74783
  1    33     -3.01224    0.51625
  1    34     -2.87928    0.04755


Fermi level: -3.06503

No gap
Writing to output.gpw (mode='')


Forces in eV/Ang:
  0 Li   -0.01477    0.01199   -0.29523
  1 Li   -0.01388   -0.01225   -0.29105
  2 Li   -0.00674   -0.00381   -0.25461
  3 Li   -0.00640    0.01098   -0.28854
  4 Li   -0.01514    0.01252   -0.28839
  5 Li    0.00519    0.00186   -0.29212
  6 Li   -0.00081   -0.00690   -0.29169
  7 Li   -0.02391   -0.00587   -0.28082
  8 Li   -0.01942    0.00145   -0.30155
  9 Li    0.02055    0.04536    0.27852
 10 Li    0.08608    0.03236    0.28340
 11 Li    0.12187    0.07520    0.32025
 12 Li   -0.03997   -0.06461    0.32349
 13 Li    0.07414   -0.02103    0.29581
 14 Li    0.08442   -0.03714    0.31810
 15 Li   -0.01569    0.01390    0.29283
 16 Li    0.06765   -0.03096    0.31349
 17 Li    0.06393    0.02742    0.27430
 18 Li   -0.06905    0.00462    0.07514
 19 Li   -0.05381   -0.00277   -0.05653
 20 Li    0.03964    0.05170    0.04063
 21 Li    0.00428   -0.01841    0.05235
 22 Li    0.02395   -0.03482    0.00584
 23 Li    0.03879   -0.08298    0.04536
 24 Li   -0.06658    0.06299    0.06067
 25 Li   -0.08157   -0.07636   -0.03448
 26 Li   -0.01808   -0.04473   -0.02732
 27 Li   -0.07242    0.13013   -0.05120
 28 Li   -0.14802    0.01189   -0.01935
 29 Li    0.20425    0.07582   -0.00754
 30 Li   -0.08468   -0.06905   -0.21975
 31 Li    0.04828   -0.01247    0.04858
 32 Li    0.34534   -0.29485    0.03107
 33 Li    0.01686    0.00955    0.02077
 34 Li    0.02963    0.00679    0.02578
 35 Li   -0.04218   -0.09282    0.00403
 36 O     0.40916   -0.56685   -0.16086
 37 C     0.18054    0.45237    0.20168
 38 C    -0.23910   -0.21184    0.01653
 39 H    -0.27102    0.03831   -0.12591
 40 H     0.15455    0.04159   -0.45258
 41 H     0.31126    0.29894    0.33278
 42 H     0.38519   -0.22512   -0.22085
 43 H    -0.39908   -0.15270    0.15668
 44 H    -0.54227    0.34688    0.12321
 45 N    -0.59022    0.00256    0.09677
 46 N     0.12689    0.28672   -0.08278

System changes: positions 

Initializing position-dependent things.

Density initialized from wave functions
       .-----------------------.  
      /|                       |  
     / |                       |  
    /  |                       |  
   /   |                       |  
  /    |                       |  
 *     |                       |  
 |     |                       |  
 |     |             H         |  
[...]
iter:   8 09:14:56  -310.104543c -3.25  -2.89
iter:   9 09:17:36  -310.104612c -3.42  -2.99
Writing to output.gpw (mode='')

iter:  10 09:20:13  -310.104564c -3.90  -3.04
iter:  11 09:22:48  -310.104524c -4.11  -3.09
iter:  12 09:25:25  -310.104391c -3.94  -3.15
iter:  13 09:28:06  -310.104361c -4.25  -3.44
iter:  14 09:30:47  -310.104351c -4.50  -3.53
Writing to output.gpw (mode='')

iter:  15 09:33:22  -310.104372c -4.74  -3.56
iter:  16 09:35:51  -310.104391c -4.84  -3.68
iter:  17 09:38:18  -310.104396c -5.27  -3.94
iter:  18 09:40:55  -310.104397c -5.36  -3.98
iter:  19 09:43:27  -310.104406c -5.37  -4.09c
Writing to output.gpw (mode='')

iter:  20 09:46:08  -310.104411c -5.53  -4.22c
iter:  21 09:48:47  -310.104407c -5.89  -4.26c
iter:  22 09:51:16  -310.104406c -6.08  -4.39c
iter:  23 09:53:45  -310.104404c -6.04  -4.44c
iter:  24 09:56:19  -310.104401c -6.22  -4.51c
Writing to output.gpw (mode='')

iter:  25 09:59:04  -310.104400c -6.36  -4.62c
iter:  26 10:01:40  -310.104400c -6.70  -4.69c
iter:  27 10:04:07  -310.104402c -6.77  -4.73c
iter:  28 10:06:47  -310.104405c -6.74  -4.86c
iter:  29 10:09:25  -310.104405c -7.10  -5.00c
Writing to output.gpw (mode='')

iter:  30 10:12:04  -310.104404c -7.01  -5.06c
iter:  31 10:14:39  -310.104404c -7.38  -5.16c
iter:  32 10:17:09  -310.104404c -7.32  -5.20c
iter:  33 10:19:38  -310.104404c -7.45c -5.29c

Converged after 33 iterations.

Dipole moment: (-0.703431, -3.370380, 0.483198) |e|*Ang

Energy contributions relative to reference atoms: (reference = -14434.854043)

Kinetic:       +145.253768
Potential:     -138.761911
External:        +0.000000
XC:            -317.300175
Entropy (-ST):   -0.164730
Local:           +0.786280
--------------------------
Free energy:   -310.186769
Extrapolated:  -310.104404

Dipole-layer corrected work functions: 3.375251, 2.446378 eV

Showing only first 2 kpts
 Kpt  Band  Eigenvalues  Occupancy
  0    31     -3.12812    1.97442
  0    32     -2.94106    1.29352
  0    33     -2.87670    0.67147
  0    34     -2.72253    0.04526

  1    31     -3.15492    1.98495
  1    32     -3.07245    1.92409
  1    33     -2.85807    0.51657
  1    34     -2.66311    0.01401


Fermi level: -2.91081

No gap
Writing to output.gpw (mode='')


Forces in eV/Ang:
  0 Li    0.00466    0.01559   -0.28987
  1 Li    0.01413   -0.00413   -0.29500
  2 Li    0.00173    0.00221   -0.25431
  3 Li    0.01238    0.01178   -0.28514
  4 Li   -0.00780    0.01432   -0.29394
  5 Li    0.00726   -0.00774   -0.29168
  6 Li    0.01763   -0.00559   -0.28557
  7 Li   -0.00111   -0.00412   -0.28812
  8 Li   -0.00923    0.00422   -0.29443
  9 Li   -0.09999    0.02213    0.34598
 10 Li   -0.01654   -0.00574    0.29743
 11 Li   -0.00963    0.06043    0.36806
 12 Li   -0.09125   -0.02416    0.35728
 13 Li    0.01214   -0.00518    0.29161
 14 Li   -0.03125   -0.01513    0.21238
 15 Li   -0.03340   -0.01399    0.32668
 16 Li   -0.00957   -0.04312    0.31458
 17 Li   -0.02397   -0.03575    0.28477
 18 Li   -0.00434    0.02802    0.02976
 19 Li    0.08784   -0.00882    0.01646
 20 Li    0.03029   -0.09060    0.08546
 21 Li    0.04780    0.07506   -0.06575
 22 Li   -0.02177   -0.00692   -0.02134
 23 Li    0.02446   -0.01674   -0.00981
 24 Li    0.01403   -0.01316   -0.03262
 25 Li   -0.00325   -0.01307   -0.02926
 26 Li    0.00952   -0.00583   -0.01493
 27 Li    0.00130    0.05487    0.09341
 28 Li    0.05319    0.01263    0.01080
 29 Li    0.02201   -0.01375   -0.05314
 30 Li   -0.03791   -0.07801    0.03017
 31 Li    0.06020   -0.01485    0.01005
 32 Li    0.00364    0.05988    0.10793
 33 Li    0.00089    0.03212    0.02865
 34 Li   -0.03285   -0.02464   -0.01893
 35 Li    0.02443   -0.01114   -0.01223
 36 O     0.00105    0.21403   -0.05785
 37 C    -0.09988   -0.04793   -0.07551
 38 C    -0.04964   -0.03567   -0.03805
 39 H     0.03909   -0.13575   -0.14622
 40 H    -0.05601    0.03187    0.02769
 41 H     0.14895   -0.00874    0.02521
 42 H    -0.07157   -0.04918   -0.07177
 43 H    -0.01378    0.17640    0.04745
 44 H     0.01853   -0.01913   -0.02228
 45 N     0.03366   -0.06204   -0.07751
 46 N     0.01002   -0.03219   -0.00797

System changes: positions 

Initializing position-dependent things.

Density initialized from wave functions
       .-----------------------.  
      /|                       |  
     / |                       |  
    /  |                       |  
   /   |                       |  
  /    |                       |  
 *     |                       |  
 |     |                       |  
 |     |                       |  
 |     |            H          |  
 |     |              CHH      |  
 |     |          H            |  
 |     |      Li    OCLi       |  
 |     |          H    H       |  
 |   Li|     Li      Li        |  
 |     |  Li      LiLi    Li   |  
 | Li  |   Li          N       |  
 |     |Li      Li  N   Li     |  
 |     |                Li     |  
 |   LLi     LLi     LLi       |  
 |     |  Li      Li      Li   |  
 | Li  |   Li      Li          |  
 |     |Li      Li      Li     |  
 Li    | Li      Li            |  
 |    Li      Li      Li       |  
 |     |                       |  
 |     |                       |  
 |     |                       |  
 |     |                       |  
 |     |                       |  
 |     |                       |  
 |     .-----------------------.  
 |    /                       /   
 |   /                       /    
 |  /                       /     
 | /                       /      
 |/                       /       
 *-----------------------*        

Positions:
   0 Li     1.617037    1.617037   10.000000    ( 0.0000,  0.0000,  0.0000)
   1 Li     4.851111    1.617037   10.000000    ( 0.0000,  0.0000,  0.0000)
   2 Li     8.085185    1.617037   10.000000    ( 0.0000,  0.0000,  0.0000)
   3 Li     1.617037    4.851111   10.000000    ( 0.0000,  0.0000,  0.0000)
   4 Li     4.851111    4.851111   10.000000    ( 0.0000,  0.0000,  0.0000)
   5 Li     8.085185    4.851111   10.000000    ( 0.0000,  0.0000,  0.0000)
   6 Li     1.617037    8.085185   10.000000    ( 0.0000,  0.0000,  0.0000)
   7 Li     4.851111    8.085185   10.000000    ( 0.0000,  0.0000,  0.0000)
   8 Li     8.085185    8.085185   10.000000    ( 0.0000,  0.0000,  0.0000)
   9 Li     0.000000    0.000000   11.617037    ( 0.0000,  0.0000,  0.0000)
  10 Li     3.234074    0.000000   11.617037    ( 0.0000,  0.0000,  0.0000)
  11 Li     6.468148    0.000000   11.617037    ( 0.0000,  0.0000,  0.0000)
  12 Li     0.000000    3.234074   11.617037    ( 0.0000,  0.0000,  0.0000)
  13 Li     3.234074    3.234074   11.617037    ( 0.0000,  0.0000,  0.0000)
  14 Li     6.468148    3.234074   11.617037    ( 0.0000,  0.0000,  0.0000)
  15 Li     0.000000    6.468148   11.617037    ( 0.0000,  0.0000,  0.0000)
  16 Li     3.234074    6.468148   11.617037    ( 0.0000,  0.0000,  0.0000)
  17 Li     6.468148    6.468148   11.617037    ( 0.0000,  0.0000,  0.0000)
  18 Li     1.564325    1.637602   13.474305    ( 0.0000,  0.0000,  0.0000)
  19 Li     4.742668    1.590867   13.586373    ( 0.0000,  0.0000,  0.0000)
  20 Li     7.872644    1.759732   13.683731    ( 0.0000,  0.0000,  0.0000)
  21 Li     1.631038    4.803519   13.551045    ( 0.0000,  0.0000,  0.0000)
  22 Li     4.904830    4.786495   13.564672    ( 0.0000,  0.0000,  0.0000)
  23 Li     8.071541    4.837378   13.554049    ( 0.0000,  0.0000,  0.0000)
  24 Li     1.551007    8.093205   13.491851    ( 0.0000,  0.0000,  0.0000)
  25 Li     4.787839    8.040314   13.538744    ( 0.0000,  0.0000,  0.0000)
  26 Li     7.958266    8.045096   13.535481    ( 0.0000,  0.0000,  0.0000)
  27 Li    -0.273710    0.088403   15.302813    ( 0.0000,  0.0000,  0.0000)
  28 Li     2.955172   -0.030931   15.460299    ( 0.0000,  0.0000,  0.0000)
  29 Li     6.267661   -0.231461   15.573803    ( 0.0000,  0.0000,  0.0000)
  30 Li     0.064446    3.245010   15.491154    ( 0.0000,  0.0000,  0.0000)
  31 Li     3.245312    3.326738   15.523177    ( 0.0000,  0.0000,  0.0000)
  32 Li     6.843826    2.622244   16.560280    ( 0.0000,  0.0000,  0.0000)
  33 Li     0.059497    6.493368   15.412789    ( 0.0000,  0.0000,  0.0000)
  34 Li     3.260807    6.534250   15.521393    ( 0.0000,  0.0000,  0.0000)
  35 Li     6.397682    6.264354   15.568542    ( 0.0000,  0.0000,  0.0000)
  36 O      7.020600    2.385345   18.595386    ( 0.0000,  0.0000,  0.0000)
  37 C      7.648881    1.266640   19.276927    ( 0.0000,  0.0000,  0.0000)
  38 C      8.104385    1.592093   20.692837    ( 0.0000,  0.0000,  0.0000)
  39 H      6.935291    0.438055   19.318240    ( 0.0000,  0.0000,  0.0000)
  40 H      8.483275    0.971549   18.638200    ( 0.0000,  0.0000,  0.0000)
  41 H      8.541621    0.691790   21.129693    ( 0.0000,  0.0000,  0.0000)
  42 H      8.833322    2.407527   20.738370    ( 0.0000,  0.0000,  0.0000)
  43 H      7.245178    1.830387   21.323915    ( 0.0000,  0.0000,  0.0000)
  44 H      6.312031    2.733359   19.154665    ( 0.0000,  0.0000,  0.0000)
  45 N      7.624311    1.002514   15.648282    ( 0.0000,  0.0000,  0.0000)
  46 N      8.524215    1.887285   15.654403    ( 0.0000,  0.0000,  0.0000)

Unit cell:
           periodic     x           y           z      points  spacing
  1. axis:    yes    9.702222    0.000000    0.000000    60     0.1617
  2. axis:    yes    0.000000    9.702222    0.000000    60     0.1617
  3. axis:    no     0.000000    0.000000   24.851111   156     0.1593

  Lengths:   9.702222   9.702222  24.851111
  Angles:   90.000000  90.000000  90.000000

Effective grid spacing dv^(1/3) = 0.1609

     iter     time        total  log10-change:
                         energy  eigst   dens
iter:   1 10:22:46  -310.146874  -1.00
iter:   2 10:25:19  -310.131366  -1.70  -1.77
iter:   3 10:27:52  -310.118341c -2.42  -1.96
iter:   4 10:30:24  -310.117022c -2.89  -2.28
Writing to output.gpw (mode='')

iter:   5 10:32:58  -310.113383c -2.38  -2.34
iter:   6 10:35:30  -310.112597c -2.48  -2.61
iter:   7 10:38:00  -310.112704c -2.62  -2.79
iter:   8 10:40:28  -310.112486c -3.50  -2.78
iter:   9 10:42:59  -310.112437c -3.93  -2.87
Writing to output.gpw (mode='')

iter:  10 10:45:32  -310.112369c -3.47  -2.94
iter:  11 10:48:02  -310.112401c -3.96  -3.13
iter:  12 10:50:35  -310.112386c -4.48  -3.28
iter:  13 10:53:05  -310.112402c -3.96  -3.38
iter:  14 10:55:42  -310.112387c -4.04  -3.30
Writing to output.gpw (mode='')

iter:  15 10:58:14  -310.112376c -4.88  -3.45
iter:  16 11:00:54  -310.112399c -4.15  -3.58
iter:  17 11:03:26  -310.112382c -5.05  -3.49
iter:  18 11:05:52  -310.112373c -4.58  -3.74
iter:  19 11:08:17  -310.112375c -5.35  -3.90
Writing to output.gpw (mode='')

iter:  20 11:10:50  -310.112373c -5.55  -4.26c
iter:  21 11:13:16  -310.112374c -5.84  -4.32c
iter:  22 11:15:45  -310.112373c -5.90  -4.41c
iter:  23 11:18:17  -310.112375c -6.19  -4.40c
iter:  24 11:20:59  -310.112374c -6.39  -4.57c
Writing to output.gpw (mode='')

iter:  25 11:23:40  -310.112374c -6.17  -4.64c
iter:  26 11:26:22  -310.112375c -6.69  -4.66c
iter:  27 11:28:57  -310.112374c -6.79  -4.90c
iter:  28 11:31:28  -310.112375c -6.90  -5.03c
iter:  29 11:34:08  -310.112374c -6.90  -5.05c
Writing to output.gpw (mode='')

iter:  30 11:36:36  -310.112375c -7.10  -5.04c
iter:  31 11:39:09  -310.112375c -7.08  -5.19c
iter:  32 11:41:44  -310.112375c -7.37  -5.31c
iter:  33 11:44:21  -310.112375c -7.51c -5.44c

Converged after 33 iterations.

Dipole moment: (-0.714659, -3.277921, 0.486977) |e|*Ang

Energy contributions relative to reference atoms: (reference = -14434.854043)

Kinetic:       +144.896567
Potential:     -138.488489
External:        +0.000000
XC:            -317.224051
Entropy (-ST):   -0.165295
Local:           +0.786246
--------------------------
Free energy:   -310.195022
Extrapolated:  -310.112375

Dipole-layer corrected work functions: 3.374924, 2.438786 eV

Showing only first 2 kpts
 Kpt  Band  Eigenvalues  Occupancy
  0    31     -3.12292    1.97378
  0    32     -2.93617    1.28506
  0    33     -2.87308    0.67454
  0    34     -2.71956    0.04614

  1    31     -3.14987    1.98462
  1    32     -3.07060    1.92712
  1    33     -2.85440    0.51876
  1    34     -2.65923    0.01403


Fermi level: -2.90685

No gap
Writing to output.gpw (mode='')


Forces in eV/Ang:
  0 Li    0.00445    0.01581   -0.29030
  1 Li    0.01416   -0.00406   -0.29601
  2 Li    0.00191    0.00204   -0.25516
  3 Li    0.01258    0.01190   -0.28552
  4 Li   -0.00770    0.01408   -0.29466
  5 Li    0.00709   -0.00752   -0.29234
  6 Li    0.01757   -0.00542   -0.28610
  7 Li   -0.00106   -0.00410   -0.28813
  8 Li   -0.00889    0.00431   -0.29466
  9 Li   -0.09958    0.02177    0.34771
 10 Li   -0.01948   -0.00296    0.30178
 11 Li   -0.00901    0.06173    0.37194
 12 Li   -0.09281   -0.02514    0.36044
 13 Li    0.01177   -0.00829    0.29638
 14 Li   -0.02893   -0.01693    0.21769
 15 Li   -0.03410   -0.01455    0.33048
 16 Li   -0.01104   -0.04316    0.31814
 17 Li   -0.02343   -0.03545    0.29055
 18 Li    0.00212    0.02868    0.01728
 19 Li    0.08781   -0.00687    0.01190
 20 Li    0.01772   -0.08537    0.03731
 21 Li    0.04785    0.08076   -0.07203
 22 Li   -0.02204   -0.00401   -0.02542
 23 Li    0.02228   -0.01447   -0.02126
 24 Li    0.01854   -0.01552   -0.04072
 25 Li   -0.00224   -0.01934   -0.03658
 26 Li    0.00982   -0.00827   -0.02238
 27 Li   -0.04843    0.08154    0.11036
 28 Li    0.05828    0.00962    0.01571
 29 Li    0.00837   -0.01535   -0.05019
 30 Li   -0.03427   -0.09004    0.04060
 31 Li    0.05978   -0.01502    0.01642
 32 Li    0.03077    0.05958    0.03778
 33 Li    0.00042    0.03505    0.03379
 34 Li   -0.03232   -0.02415   -0.01658
 35 Li    0.02255   -0.01373   -0.00915
 36 O    -0.02502    0.14517   -0.04132
 37 C    -0.08336   -0.03740    0.05603
 38 C    -0.05741   -0.04596   -0.04567
 39 H    -0.00552   -0.09442   -0.10960
 40 H    -0.04372    0.07843    0.01887
 41 H     0.16393    0.00108   -0.02475
 42 H    -0.11132   -0.10002   -0.07624
 43 H    -0.02718    0.18836   -0.00043
 44 H     0.04692   -0.05117   -0.02909
 45 N     0.12533   -0.02630   -0.05282
 46 N    -0.01231   -0.06554    0.00085

System changes: positions 

Initializing position-dependent things.

Density initialized from wave functions
       .-----------------------.  
      /|                       |  
     / |                       |  
    /  |                       |  
   /   |                       |  
  /    |                       |  
 *     |                       |  
 |     |                       |  
 |     |                       |  
 |     |            H          |  
 |     |              CHH      |  
 |     |          H            |  
 |     |      Li    OCLi       |  
 |     |          H    H       |  
 |   Li|     Li      Li        |  
 |     |  Li      LiLi    Li   |  
 | Li  |   Li          N       |  
 |     |Li      Li  N   Li     |  
 |     |                Li     |  
 |   LLi     LLi     LLi       |  
 |     |  Li      Li      Li   |  
 | Li  |   Li      Li          |  
 |     |Li      Li      Li     |  
 Li    | Li      Li            |  
 |    Li      Li      Li       |  
 |     |                       |  
 |     |                       |  
 |     |                       |  
 |     |                       |  
 |     |                       |  
 |     |                       |  
 |     .-----------------------.  
 |    /                       /   
 |   /                       /    
 |  /                       /     
 | /                       /      
 |/                       /       
 *-----------------------*        

Positions:
   0 Li     1.617037    1.617037   10.000000    ( 0.0000,  0.0000,  0.0000)
   1 Li     4.851111    1.617037   10.000000    ( 0.0000,  0.0000,  0.0000)
   2 Li     8.085185    1.617037   10.000000    ( 0.0000,  0.0000,  0.0000)
   3 Li     1.617037    4.851111   10.000000    ( 0.0000,  0.0000,  0.0000)
   4 Li     4.851111    4.851111   10.000000    ( 0.0000,  0.0000,  0.0000)
   5 Li     8.085185    4.851111   10.000000    ( 0.0000,  0.0000,  0.0000)
   6 Li     1.617037    8.085185   10.000000    ( 0.0000,  0.0000,  0.0000)
   7 Li     4.851111    8.085185   10.000000    ( 0.0000,  0.0000,  0.0000)
   8 Li     8.085185    8.085185   10.000000    ( 0.0000,  0.0000,  0.0000)
   9 Li     0.000000    0.000000   11.617037    ( 0.0000,  0.0000,  0.0000)
  10 Li     3.234074    0.000000   11.617037    ( 0.0000,  0.0000,  0.0000)
  11 Li     6.468148    0.000000   11.617037    ( 0.0000,  0.0000,  0.0000)
  12 Li     0.000000    3.234074   11.617037    ( 0.0000,  0.0000,  0.0000)
  13 Li     3.234074    3.234074   11.617037    ( 0.0000,  0.0000,  0.0000)
  14 Li     6.468148    3.234074   11.617037    ( 0.0000,  0.0000,  0.0000)
  15 Li     0.000000    6.468148   11.617037    ( 0.0000,  0.0000,  0.0000)
  16 Li     3.234074    6.468148   11.617037    ( 0.0000,  0.0000,  0.0000)
  17 Li     6.468148    6.468148   11.617037    ( 0.0000,  0.0000,  0.0000)
  18 Li     1.562481    1.641010   13.482302    ( 0.0000,  0.0000,  0.0000)
  19 Li     4.752192    1.590391   13.593270    ( 0.0000,  0.0000,  0.0000)
  20 Li     7.872268    1.751929   13.693171    ( 0.0000,  0.0000,  0.0000)
  21 Li     1.635415    4.810425   13.546915    ( 0.0000,  0.0000,  0.0000)
  22 Li     4.902480    4.785226   13.566278    ( 0.0000,  0.0000,  0.0000)
  23 Li     8.072429    4.837835   13.556435    ( 0.0000,  0.0000,  0.0000)
  24 Li     1.553160    8.090010   13.489949    ( 0.0000,  0.0000,  0.0000)
  25 Li     4.787878    8.039958   13.537848    ( 0.0000,  0.0000,  0.0000)
  26 Li     7.958877    8.046237   13.539012    ( 0.0000,  0.0000,  0.0000)
  27 Li    -0.267310    0.083788   15.303472    ( 0.0000,  0.0000,  0.0000)
  28 Li     2.960005   -0.030166   15.460803    ( 0.0000,  0.0000,  0.0000)
  29 Li     6.271030   -0.229788   15.567615    ( 0.0000,  0.0000,  0.0000)
  30 Li     0.064512    3.243210   15.489383    ( 0.0000,  0.0000,  0.0000)
  31 Li     3.248762    3.326378   15.522049    ( 0.0000,  0.0000,  0.0000)
  32 Li     6.844855    2.626628   16.564127    ( 0.0000,  0.0000,  0.0000)
  33 Li     0.059139    6.495932   15.414080    ( 0.0000,  0.0000,  0.0000)
  34 Li     3.257668    6.532398   15.518847    ( 0.0000,  0.0000,  0.0000)
  35 Li     6.400558    6.262596   15.566492    ( 0.0000,  0.0000,  0.0000)
  36 O      7.022280    2.392523   18.600322    ( 0.0000,  0.0000,  0.0000)
  37 C      7.645976    1.263838   19.273879    ( 0.0000,  0.0000,  0.0000)
  38 C      8.101714    1.591203   20.692063    ( 0.0000,  0.0000,  0.0000)
  39 H      6.936544    0.431244   19.303789    ( 0.0000,  0.0000,  0.0000)
  40 H      8.481769    0.968661   18.638172    ( 0.0000,  0.0000,  0.0000)
  41 H      8.543006    0.696284   21.140407    ( 0.0000,  0.0000,  0.0000)
  42 H      8.826892    2.410107   20.730214    ( 0.0000,  0.0000,  0.0000)
  43 H      7.245185    1.836468   21.326601    ( 0.0000,  0.0000,  0.0000)
  44 H      6.311138    2.732203   19.160140    ( 0.0000,  0.0000,  0.0000)
  45 N      7.624610    1.004165   15.639885    ( 0.0000,  0.0000,  0.0000)
  46 N      8.526882    1.886512   15.652949    ( 0.0000,  0.0000,  0.0000)

Unit cell:
           periodic     x           y           z      points  spacing
  1. axis:    yes    9.702222    0.000000    0.000000    60     0.1617
  2. axis:    yes    0.000000    9.702222    0.000000    60     0.1617
  3. axis:    no     0.000000    0.000000   24.851111   156     0.1593

  Lengths:   9.702222   9.702222  24.851111
  Angles:   90.000000  90.000000  90.000000

Effective grid spacing dv^(1/3) = 0.1609

     iter     time        total  log10-change:
                         energy  eigst   dens
iter:   1 11:47:35  -310.129222  -1.56
iter:   2 11:50:13  -310.125466  -2.19  -2.05
iter:   3 11:52:38  -310.122028c -2.81  -2.23
iter:   4 11:55:18  -310.120722c -2.94  -2.45
Writing to output.gpw (mode='')

iter:   5 11:57:57  -310.120404c -2.90  -2.66
