
  ___ ___ ___ _ _ _  
 |   |   |_  | | | | 
 | | | | | . | | | | 
 |__ |  _|___|_____|  22.8.0
 |___|_|             

User:   vazumah@r452.ib.bridges2.psc.edu
Date:   Fri Mar 10 20:14:48 2023
Arch:   x86_64
Pid:    32318
CWD:    /jet/home/vazumah/Calcs/LiMEAS/proton_donors/propanediol13_x/bridge/0.0_1.617/N2_y
Python: 3.11.0
gpaw:   /jet/home/vazumah/.conda/envs/GPAW_mpich/lib/python3.11/site-packages/gpaw
_gpaw:  /jet/home/vazumah/.conda/envs/GPAW_mpich/lib/python3.11/site-packages/
        _gpaw.cpython-311-x86_64-linux-gnu.so
ase:    /jet/home/vazumah/.conda/envs/GPAW_mpich/lib/python3.11/site-packages/ase (version 3.22.1)
numpy:  /jet/home/vazumah/.conda/envs/GPAW_mpich/lib/python3.11/site-packages/numpy (version 1.24.2)
scipy:  /jet/home/vazumah/.conda/envs/GPAW_mpich/lib/python3.11/site-packages/scipy (version 1.10.1)
libxc:  5.2.3
units:  Angstrom and eV
cores: 128
OpenMP: True
OMP_NUM_THREADS: 1

Input parameters:
  h: 0.16
  kpts: {size: [4, 4, 1]}
  occupations: {name: fermi-dirac,
                width: 0.05}
  poissonsolver: {dipolelayer: xy}
  xc: BEEF-vdW

System changes: positions, numbers, cell, pbc, initial_charges, initial_magmoms 

Initialize ...

species:
  Li:
    name: Lithium
    id: 830b4218f175192f93f959cfc0aad614
    Z: 3.0
    valence: 1
    core: 2
    charge: 0.0
    file: /jet/home/vazumah/datasets/gpaw-setups-0.9.20000/Li.PBE.gz
    compensation charges: {type: gauss,
                           rc: 0.33,
                           lmax: 2}
    cutoffs: {filter: 1.91,
              core: 2.55}
    valence states:
      #              energy  rcut
      - 2s(1.00)    -2.874   1.058
      - 2p(0.00)    -1.090   1.058
      -  s          24.337   1.058
  
    # Using partial waves for Li as LCAO basis

  O:
    name: Oxygen
    id: 32ecd46bf208036f09c70b0ec9a88b78
    Z: 8.0
    valence: 6
    core: 2
    charge: 0.0
    file: /jet/home/vazumah/datasets/gpaw-setups-0.9.20000/O.PBE.gz
    compensation charges: {type: gauss,
                           rc: 0.21,
                           lmax: 2}
    cutoffs: {filter: 1.17,
              core: 0.83}
    valence states:
      #              energy  rcut
      - 2s(2.00)   -23.961   0.688
      - 2p(4.00)    -9.029   0.598
      -  s           3.251   0.688
      -  p          18.182   0.598
      -  d           0.000   0.619
  
    # Using partial waves for O as LCAO basis

  C:
    name: Carbon
    id: 4aa54d4b901d75f77cc0ea3eec22967b
    Z: 6.0
    valence: 4
    core: 2
    charge: 0.0
    file: /jet/home/vazumah/datasets/gpaw-setups-0.9.20000/C.PBE.gz
    compensation charges: {type: gauss,
                           rc: 0.20,
                           lmax: 2}
    cutoffs: {filter: 1.14,
              core: 1.14}
    valence states:
      #              energy  rcut
      - 2s(2.00)   -13.751   0.635
      - 2p(2.00)    -5.284   0.635
      -  s          13.461   0.635
      -  p          21.927   0.635
      -  d           0.000   0.635
  
    # Using partial waves for C as LCAO basis

  H:
    name: Hydrogen
    id: d65de229564ff8ea4db303e23b6d1ecf
    Z: 1.0
    valence: 1
    core: 0
    charge: 0.0
    file: /jet/home/vazumah/datasets/gpaw-setups-0.9.20000/H.PBE.gz
    compensation charges: {type: gauss,
                           rc: 0.15,
                           lmax: 2}
    cutoffs: {filter: 0.85,
              core: 0.53}
    valence states:
      #              energy  rcut
      - 1s(1.00)    -6.494   0.476
      -  s          20.717   0.476
      -  p           0.000   0.476
  
    # Using partial waves for H as LCAO basis

  N:
    name: Nitrogen
    id: f7500608b86eaa90eef8b1d9a670dc53
    Z: 7.0
    valence: 5
    core: 2
    charge: 0.0
    file: /jet/home/vazumah/datasets/gpaw-setups-0.9.20000/N.PBE.gz
    compensation charges: {type: gauss,
                           rc: 0.18,
                           lmax: 2}
    cutoffs: {filter: 1.11,
              core: 0.96}
    valence states:
      #              energy  rcut
      - 2s(2.00)   -18.583   0.603
      - 2p(3.00)    -7.089   0.529
      -  s           8.629   0.603
      -  p          20.123   0.529
      -  d           0.000   0.577
  
    # Using partial waves for N as LCAO basis

Reference energy: -17528.314784  # eV

Spin-paired calculation

Convergence criteria:
 Maximum [total energy] change in last 3 cyles: 0.0005 eV / electron
 Maximum integral of absolute [dens]ity change: 0.0001 electrons / valence electron
 Maximum integral of absolute [eigenst]ate change: 4e-08 eV^2 / valence electron
 Maximum number of scf [iter]ations: 333
 (Square brackets indicate name in SCF output, whereas a 'c' in
 the SCF output indicates the quantity has converged.)

Symmetries present (total): 1

  ( 1  0  0)
  ( 0  1  0)
  ( 0  0  1)

16 k-points: 4 x 4 x 1 Monkhorst-Pack grid
8 k-points in the irreducible part of the Brillouin zone
       k-points in crystal coordinates                weights
   0:     0.12500000   -0.37500000    0.00000000          2/16
   1:     0.12500000   -0.12500000    0.00000000          2/16
   2:     0.12500000    0.12500000    0.00000000          2/16
   3:     0.12500000    0.37500000    0.00000000          2/16
   4:     0.37500000   -0.37500000    0.00000000          2/16
   5:     0.37500000   -0.12500000    0.00000000          2/16
   6:     0.37500000    0.12500000    0.00000000          2/16
   7:     0.37500000    0.37500000    0.00000000          2/16

Wave functions: Uniform real-space grid
  Kinetic energy operator: 6*3+1=19 point O(h^6) finite-difference Laplacian
  ScaLapack parameters: grid=1x1, blocksize=None
  Wavefunction extrapolation:
    Improved wavefunction reuse through dual PAW basis 

Occupation numbers: Fermi-Dirac:
  width: 0.0500  # eV
 

Eigensolver
   Davidson(niter=2) 

Densities:
  Coarse grid: 60*60*176 grid
  Fine grid: 120*120*352 grid
  Total Charge: 0.000000 

Density mixing:
  Method: separate
  Backend: pulay
  Linear mixing parameter: 0.05
  old densities: 5
  Damping of long wavelength oscillations: 50 

Hamiltonian:
  XC and Coulomb potentials evaluated on a 120*120*352 grid
  Using the BEEF-vdW Exchange-Correlation functional
  Interpolation: tri-quintic (5. degree polynomial)
  Poisson solver: FastPoissonSolver using
    Stencil: 6*3+1=19 point O(h^6) finite-difference Laplacian
    FFT axes: [0, 1]
    FST axes: [2]

Dipole correction along z-axis 

XC parameters: BEEF-vdW with 2 nearest neighbor stencil

Memory estimate:
  Process memory now: 134.54 MiB
  Calculator: 93.74 MiB
    Density: 23.40 MiB
      Arrays: 7.76 MiB
      Localized functions: 12.69 MiB
      Mixer: 2.95 MiB
    Hamiltonian: 6.08 MiB
      Arrays: 5.07 MiB
      XC: 0.00 MiB
      Poisson: 0.00 MiB
      vbar: 1.00 MiB
    Wavefunctions: 64.26 MiB
      Arrays psit_nG: 30.12 MiB
      Eigensolver: 33.47 MiB
      Projections: 0.02 MiB
      Projectors: 0.67 MiB

Total number of cores used: 128
Parallelization over k-points: 8
Domain decomposition: 2 x 2 x 4

Number of atoms: 51
Number of atomic orbitals: 180
Number of bands in calculation: 51
Number of valence electrons: 78
Bands to converge: occupied

... initialized

Initializing position-dependent things.

Density initialized from atomic densities
Creating initial wave functions:
  51 bands from LCAO basis set

       .-----------------------.  
      /|                       |  
     / |                       |  
    /  |                       |  
   /   |                       |  
  /    |                       |  
 *     |                       |  
 |     |                       |  
 |     |                       |  
 |     |                       |  
 |     |                       |  
 |     |                       |  
 |     |                       |  
 |     |                       |  
 |     |                       |  
 |     |                       |  
 |     |H                      |  
 |O H  |C H   O                |  
 | NCLi|H  C LH      Li H      |  
 |N H  |  Hi      Li      Li   |  
 | Li  |   Li      Li          |  
 |     |Li      Li      Li     |  
 Li    | Li      Li            |  
 |   LLi     LLi     LLi       |  
 |     |  Li      Li      Li   |  
 | Li  |   Li      Li          |  
 |     |Li      Li      Li     |  
 Li    | Li      Li            |  
 |    Li      Li      Li       |  
 |     |                       |  
 |     |                       |  
 |     |                       |  
 |     |                       |  
 |     |                       |  
 |     |                       |  
 |     .-----------------------.  
 |    /                       /   
 |   /                       /    
 |  /                       /     
 | /                       /      
 |/                       /       
 *-----------------------*        

Positions:
   0 Li     1.617037    1.617037   10.000000    ( 0.0000,  0.0000,  0.0000)
   1 Li     4.851111    1.617037   10.000000    ( 0.0000,  0.0000,  0.0000)
   2 Li     8.085185    1.617037   10.000000    ( 0.0000,  0.0000,  0.0000)
   3 Li     1.617037    4.851111   10.000000    ( 0.0000,  0.0000,  0.0000)
   4 Li     4.851111    4.851111   10.000000    ( 0.0000,  0.0000,  0.0000)
   5 Li     8.085185    4.851111   10.000000    ( 0.0000,  0.0000,  0.0000)
   6 Li     1.617037    8.085185   10.000000    ( 0.0000,  0.0000,  0.0000)
   7 Li     4.851111    8.085185   10.000000    ( 0.0000,  0.0000,  0.0000)
   8 Li     8.085185    8.085185   10.000000    ( 0.0000,  0.0000,  0.0000)
   9 Li     0.000000    0.000000   11.617037    ( 0.0000,  0.0000,  0.0000)
  10 Li     3.234074    0.000000   11.617037    ( 0.0000,  0.0000,  0.0000)
  11 Li     6.468148    0.000000   11.617037    ( 0.0000,  0.0000,  0.0000)
  12 Li     0.000000    3.234074   11.617037    ( 0.0000,  0.0000,  0.0000)
  13 Li     3.234074    3.234074   11.617037    ( 0.0000,  0.0000,  0.0000)
  14 Li     6.468148    3.234074   11.617037    ( 0.0000,  0.0000,  0.0000)
  15 Li     0.000000    6.468148   11.617037    ( 0.0000,  0.0000,  0.0000)
  16 Li     3.234074    6.468148   11.617037    ( 0.0000,  0.0000,  0.0000)
  17 Li     6.468148    6.468148   11.617037    ( 0.0000,  0.0000,  0.0000)
  18 Li     1.617038    1.617038   13.469728    ( 0.0000,  0.0000,  0.0000)
  19 Li     4.851111    1.617038   13.469729    ( 0.0000,  0.0000,  0.0000)
  20 Li     8.085184    1.617038   13.469728    ( 0.0000,  0.0000,  0.0000)
  21 Li     1.617038    4.851111   13.469729    ( 0.0000,  0.0000,  0.0000)
  22 Li     4.851111    4.851111   13.469730    ( 0.0000,  0.0000,  0.0000)
  23 Li     8.085184    4.851111   13.469729    ( 0.0000,  0.0000,  0.0000)
  24 Li     1.617038    8.085184   13.469728    ( 0.0000,  0.0000,  0.0000)
  25 Li     4.851111    8.085184   13.469729    ( 0.0000,  0.0000,  0.0000)
  26 Li     8.085184    8.085184   13.469728    ( 0.0000,  0.0000,  0.0000)
  27 Li    -0.000000   -0.000000   15.445939    ( 0.0000,  0.0000,  0.0000)
  28 Li     3.234074    0.000000   15.445939    ( 0.0000,  0.0000,  0.0000)
  29 Li     6.468148    0.000000   15.445939    ( 0.0000,  0.0000,  0.0000)
  30 Li     0.000000    3.234074   15.445939    ( 0.0000,  0.0000,  0.0000)
  31 Li     3.234076    3.234076   15.445938    ( 0.0000,  0.0000,  0.0000)
  32 Li     6.468146    3.234076   15.445938    ( 0.0000,  0.0000,  0.0000)
  33 Li     0.000000    6.468148   15.445939    ( 0.0000,  0.0000,  0.0000)
  34 Li     3.234076    6.468146   15.445938    ( 0.0000,  0.0000,  0.0000)
  35 Li     6.468146    6.468146   15.445938    ( 0.0000,  0.0000,  0.0000)
  36 O      0.000000    1.617037   18.445939    ( 0.0000,  0.0000,  0.0000)
  37 O      4.862342    1.596708   18.439829    ( 0.0000,  0.0000,  0.0000)
  38 C      2.395915    1.615492   18.460386    ( 0.0000,  0.0000,  0.0000)
  39 C      1.144870    0.749217   18.448818    ( 0.0000,  0.0000,  0.0000)
  40 C      3.678531    0.785225   18.436457    ( 0.0000,  0.0000,  0.0000)
  41 H      2.373832    2.275999   17.585726    ( 0.0000,  0.0000,  0.0000)
  42 H      2.395773    2.252603   19.348391    ( 0.0000,  0.0000,  0.0000)
  43 H      1.139940    0.108959   17.555271    ( 0.0000,  0.0000,  0.0000)
  44 H      1.131328    0.100540   19.335503    ( 0.0000,  0.0000,  0.0000)
  45 H      3.679232    0.109659   17.569134    ( 0.0000,  0.0000,  0.0000)
  46 H      3.755380    0.169134   19.336560    ( 0.0000,  0.0000,  0.0000)
  47 H     -0.795525    1.072680   18.441073    ( 0.0000,  0.0000,  0.0000)
  48 H      4.829759    2.171748   17.665312    ( 0.0000,  0.0000,  0.0000)
  49 N      0.000000    1.617000   16.945939    ( 0.0000,  0.0000,  0.0000)
  50 N      0.000000    2.713622   16.945939    ( 0.0000,  0.0000,  0.0000)

Unit cell:
           periodic     x           y           z      points  spacing
  1. axis:    yes    9.702222    0.000000    0.000000    60     0.1617
  2. axis:    yes    0.000000    9.702222    0.000000    60     0.1617
  3. axis:    no     0.000000    0.000000   28.351111   176     0.1611

  Lengths:   9.702222   9.702222  28.351111
  Angles:   90.000000  90.000000  90.000000

Effective grid spacing dv^(1/3) = 0.1615

     iter     time        total  log10-change:
                         energy  eigst   dens
iter:   1 20:15:04  -667.061617
iter:   2 20:15:12   -67.613756  +2.75  +0.02
iter:   3 20:15:20  -119.969920  +3.11  -0.22
iter:   4 20:15:28  -256.552954  +3.03  -0.34
Writing to output.gpw (mode='')

iter:   5 20:15:36  -314.663113  +2.67  -0.44
iter:   6 20:15:43  -361.476924  +2.36  -0.65
iter:   7 20:15:51  -377.752404  +1.96  -0.65
iter:   8 20:15:59  -381.006261  +1.59  -0.59
iter:   9 20:16:07  -388.720523  +1.61  -0.57
Writing to output.gpw (mode='')

iter:  10 20:16:15  -362.785344  +0.99  -0.59
iter:  11 20:16:23  -356.220098  +0.92  -0.65
iter:  12 20:16:31  -354.581444  +0.60  -0.75
iter:  13 20:16:39  -348.926128  +1.18  -0.76
iter:  14 20:16:47  -348.198797  +0.66  -0.88
Writing to output.gpw (mode='')

iter:  15 20:16:54  -348.093431  +0.67  -0.91
iter:  16 20:17:02  -349.559723  +0.63  -0.92
iter:  17 20:17:10  -348.771222  +0.32  -0.90
iter:  18 20:17:18  -347.178010  +0.10  -0.94
iter:  19 20:17:26  -346.421471  +0.10  -1.04
Writing to output.gpw (mode='')

iter:  20 20:17:34  -345.445408  -0.01  -1.19
iter:  21 20:17:42  -345.166243  +0.38  -1.26
iter:  22 20:17:50  -345.276157  -0.04  -1.42
iter:  23 20:17:58  -345.289158  -0.35  -1.46
iter:  24 20:18:06  -345.211461  -0.81  -1.53
Writing to output.gpw (mode='')

iter:  25 20:18:13  -345.257794  -0.80  -1.70
iter:  26 20:18:21  -345.220803  -1.27  -1.75
iter:  27 20:18:29  -345.239263c -0.74  -1.87
iter:  28 20:18:37  -345.233836c -1.46  -1.92
iter:  29 20:18:45  -345.239131c -1.54  -2.02
Writing to output.gpw (mode='')

iter:  30 20:18:53  -345.245354c -1.50  -2.06
iter:  31 20:19:01  -345.259132c -1.50  -2.01
iter:  32 20:19:09  -345.248563c -1.82  -2.14
iter:  33 20:19:17  -345.250667c -1.93  -2.36
iter:  34 20:19:25  -345.253287c -2.05  -2.53
Writing to output.gpw (mode='')

iter:  35 20:19:33  -345.254467c -2.31  -2.65
iter:  36 20:19:47  -345.255368c -2.37  -2.79
iter:  37 20:19:55  -345.256128c -2.52  -2.93
iter:  38 20:20:03  -345.256712c -2.67  -2.99
iter:  39 20:20:10  -345.257044c -2.81  -3.15
Writing to output.gpw (mode='')

iter:  40 20:20:18  -345.257388c -2.79  -3.19
iter:  41 20:20:26  -345.257626c -3.01  -3.19
iter:  42 20:20:34  -345.257947c -3.02  -3.13
iter:  43 20:20:42  -345.258156c -3.23  -3.29
iter:  44 20:20:50  -345.258363c -3.24  -3.34
Writing to output.gpw (mode='')

iter:  45 20:20:58  -345.258582c -3.14  -3.44
iter:  46 20:21:06  -345.258743c -3.22  -3.51
iter:  47 20:21:14  -345.258864c -3.29  -3.55
iter:  48 20:21:22  -345.259007c -3.47  -3.57
iter:  49 20:21:30  -345.259103c -3.49  -3.68
Writing to output.gpw (mode='')

iter:  50 20:21:37  -345.259150c -3.68  -3.77
iter:  51 20:21:45  -345.259206c -3.68  -3.76
iter:  52 20:21:53  -345.259250c -3.66  -3.77
iter:  53 20:22:01  -345.259301c -4.07  -3.70
iter:  54 20:22:09  -345.259338c -3.86  -3.75
Writing to output.gpw (mode='')

iter:  55 20:22:17  -345.259350c -4.04  -3.74
iter:  56 20:22:25  -345.259369c -4.18  -3.62
iter:  57 20:22:33  -345.259391c -3.94  -3.65
iter:  58 20:22:41  -345.259424c -4.16  -3.62
iter:  59 20:22:48  -345.259470c -4.16  -3.73
Writing to output.gpw (mode='')

iter:  60 20:22:56  -345.259488c -4.21  -3.87
iter:  61 20:23:04  -345.259491c -4.45  -3.89
iter:  62 20:23:12  -345.259502c -4.69  -4.06c
iter:  63 20:23:20  -345.259498c -4.39  -4.13c
iter:  64 20:23:28  -345.259511c -4.37  -4.20c
Writing to output.gpw (mode='')

iter:  65 20:23:36  -345.259515c -4.87  -4.26c
iter:  66 20:23:44  -345.259519c -4.76  -4.33c
iter:  67 20:23:52  -345.259527c -4.80  -4.41c
iter:  68 20:24:00  -345.259530c -5.02  -4.56c
iter:  69 20:24:07  -345.259534c -4.82  -4.63c
Writing to output.gpw (mode='')

iter:  70 20:24:15  -345.259536c -5.11  -4.71c
iter:  71 20:24:23  -345.259537c -5.10  -4.73c
iter:  72 20:24:31  -345.259539c -5.23  -4.74c
iter:  73 20:24:45  -345.259541c -5.26  -4.71c
iter:  74 20:24:53  -345.259541c -5.45  -4.77c
Writing to output.gpw (mode='')

iter:  75 20:25:01  -345.259542c -5.55  -4.78c
iter:  76 20:25:09  -345.259542c -5.49  -4.77c
iter:  77 20:25:17  -345.259544c -5.50  -4.75c
iter:  78 20:25:25  -345.259544c -5.77  -4.64c
iter:  79 20:25:33  -345.259544c -5.74  -4.68c
Writing to output.gpw (mode='')

iter:  80 20:25:41  -345.259543c -5.64  -4.68c
iter:  81 20:25:48  -345.259544c -5.70  -4.63c
iter:  82 20:25:56  -345.259547c -5.98  -4.63c
iter:  83 20:26:04  -345.259548c -6.11  -4.70c
iter:  84 20:26:12  -345.259550c -5.92  -4.74c
Writing to output.gpw (mode='')

iter:  85 20:26:20  -345.259552c -5.99  -4.77c
iter:  86 20:26:28  -345.259551c -6.10  -4.90c
iter:  87 20:26:36  -345.259552c -6.30  -5.01c
iter:  88 20:26:44  -345.259552c -6.27  -5.22c
iter:  89 20:26:52  -345.259552c -6.25  -5.33c
Writing to output.gpw (mode='')

iter:  90 20:27:01  -345.259552c -6.35  -5.41c
iter:  91 20:27:10  -345.259552c -6.55  -5.44c
iter:  92 20:27:24  -345.259552c -6.64  -5.47c
iter:  93 20:27:32  -345.259552c -6.65  -5.60c
iter:  94 20:27:40  -345.259552c -6.92  -5.67c
Writing to output.gpw (mode='')

iter:  95 20:27:48  -345.259552c -6.82  -5.82c
iter:  96 20:27:55  -345.259552c -7.00  -5.90c
iter:  97 20:28:06  -345.259552c -7.03  -5.95c
iter:  98 20:28:14  -345.259552c -6.91  -5.93c
iter:  99 20:28:22  -345.259553c -7.04  -5.86c
Writing to output.gpw (mode='')

iter: 100 20:28:30  -345.259553c -7.18  -5.90c
iter: 101 20:28:38  -345.259553c -7.12  -5.91c
iter: 102 20:28:46  -345.259553c -7.27  -5.88c
iter: 103 20:28:54  -345.259553c -7.30  -5.82c
iter: 104 20:29:02  -345.259553c -7.14  -5.84c
Writing to output.gpw (mode='')

iter: 105 20:29:10  -345.259553c -7.25  -5.90c
iter: 106 20:29:17  -345.259553c -7.33  -5.98c
iter: 107 20:29:25  -345.259553c -7.45c -6.09c

Converged after 107 iterations.

Dipole moment: (-15.119063, -17.569493, 0.285372) |e|*Ang

Energy contributions relative to reference atoms: (reference = -17528.314784)

Kinetic:       +223.083804
Potential:     -203.750940
External:        +0.000000
XC:            -365.675775
Entropy (-ST):   -0.149934
Local:           +1.158325
--------------------------
Free energy:   -345.334520
Extrapolated:  -345.259553

Dipole-layer corrected work functions: 3.387272, 2.838689 eV

Showing only first 2 kpts
 Kpt  Band  Eigenvalues  Occupancy
  0    37     -3.36365    1.98679
  0    38     -3.25632    1.89235
  0    39     -2.96299    0.09486
  0    40     -2.89003    0.02288

  1    37     -3.18967    1.64510
  1    38     -3.14132    1.27606
  1    39     -3.04286    0.39489
  1    40     -3.02052    0.27193


Fermi level: -3.11298

Gap: 0.016 eV
Transition (v -> c):
  (s=0, k=2, n=38, [0.12, 0.12, 0.00]) -> (s=0, k=7, n=39, [0.38, 0.38, 0.00])
Writing to output.gpw (mode='')


Forces in eV/Ang:
  0 Li    0.02090   -0.00332   -0.27423
  1 Li    0.00048    0.00563   -0.26584
  2 Li   -0.02176   -0.00448   -0.27942
  3 Li    0.00290    0.01631   -0.27762
  4 Li   -0.00083   -0.01218   -0.26737
  5 Li   -0.00276    0.01626   -0.27877
  6 Li   -0.00824   -0.01292   -0.26406
  7 Li    0.00044    0.00336   -0.27702
  8 Li    0.00760   -0.00984   -0.26773
  9 Li    0.00067   -0.00763    0.28486
 10 Li    0.01075   -0.00049    0.26648
 11 Li   -0.01165   -0.00075    0.26113
 12 Li   -0.00062   -0.00951    0.33792
 13 Li    0.01794    0.00582    0.24906
 14 Li   -0.01676   -0.00287    0.24835
 15 Li    0.00196    0.01190    0.24358
 16 Li   -0.00469    0.00059    0.24917
 17 Li    0.00270    0.00520    0.26536
 18 Li    0.04502   -0.01092   -0.09665
 19 Li   -0.00638    0.01383    0.10750
 20 Li   -0.03836   -0.01090   -0.11084
 21 Li    0.00078   -0.00902   -0.00134
 22 Li    0.00396    0.00169    0.05880
 23 Li   -0.00364   -0.00970   -0.01081
 24 Li   -0.00881    0.02621    0.09124
 25 Li   -0.00623   -0.01560    0.01234
 26 Li    0.01606    0.02205    0.08084
 27 Li   -0.07722   -0.00071    0.00650
 28 Li    0.08570   -0.10021   -0.29854
 29 Li   -0.06005   -0.04759   -0.02347
 30 Li    0.00117    2.17516   -4.57187
 31 Li    0.09968    0.11457   -0.21813
 32 Li   -0.07691    0.05852   -0.09528
 33 Li    0.00641    0.06415   -0.02074
 34 Li   -0.00863    0.00815   -0.02058
 35 Li    0.00232    0.01386   -0.00598
 36 O     0.05772   -5.83839   11.22481
 37 O    -0.28376   -0.46185    0.51234
 38 C    -0.04253    0.17162    0.18147
 39 C     2.16864   -1.66278    2.49444
 40 C     0.26455    0.26354    0.30351
 41 H     0.12363    0.02475    0.05743
 42 H     0.02060    0.04829   -0.03966
 43 H    -0.04452   -0.12622    0.40477
 44 H    -0.03256    0.06643   -0.08906
 45 H     0.05113   -0.16490   -0.01949
 46 H    -0.03152   -0.07836   -0.09528
 47 H    -0.89329   -0.71362    1.41125
 48 H     0.05948    0.21023   -0.50280
 49 N    -1.31955   -3.19087   -6.82992
 50 N    -0.05837    9.13532   -3.82501

System changes: positions 

Initializing position-dependent things.

Density initialized from wave functions
       .-----------------------.  
      /|                       |  
     / |                       |  
    /  |                       |  
   /   |                       |  
  /    |                       |  
 *     |                       |  
 |     |                       |  
 |     |                       |  
 |     |                       |  
 |     |                       |  
 |     |                       |  
 |     |                       |  
 |     |                       |  
 |     |                       |  
 |     |                       |  
 |     |H      Li      Li      Li 
 |O H  |C H   O                |  
 |  CLi|H  C LH      Li H  N   |  
 |  H  |  Hi      Li      Ni   |  
 | Li  |   Li      Li          |  
 |     |Li      Li      Li     |  
 |     |                       |  
 |   LLi     LLi     LLi       |  
 |     |  Li      Li      Li   |  
 | Li  |   Li      Li          |  
 |     |Li      Li      Li     |  
 Li    | Li      Li            |  
 |    Li      Li      Li       |  
 |     |                       |  
 |     |                       |  
 |     |                       |  
 |     |                       |  
 |     |                       |  
 |     |                       |  
 |     .-----------------------.  
 |    /                       /   
 |   /                       /    
 |  /                       /     
 | /                       /      
 |/                       /       
 *-----------------------*        

Positions:
   0 Li     1.617037    1.617037   10.000000    ( 0.0000,  0.0000,  0.0000)
   1 Li     4.851111    1.617037   10.000000    ( 0.0000,  0.0000,  0.0000)
   2 Li     8.085185    1.617037   10.000000    ( 0.0000,  0.0000,  0.0000)
   3 Li     1.617037    4.851111   10.000000    ( 0.0000,  0.0000,  0.0000)
   4 Li     4.851111    4.851111   10.000000    ( 0.0000,  0.0000,  0.0000)
   5 Li     8.085185    4.851111   10.000000    ( 0.0000,  0.0000,  0.0000)
   6 Li     1.617037    8.085185   10.000000    ( 0.0000,  0.0000,  0.0000)
   7 Li     4.851111    8.085185   10.000000    ( 0.0000,  0.0000,  0.0000)
   8 Li     8.085185    8.085185   10.000000    ( 0.0000,  0.0000,  0.0000)
   9 Li     0.000000    0.000000   11.617037    ( 0.0000,  0.0000,  0.0000)
  10 Li     3.234074    0.000000   11.617037    ( 0.0000,  0.0000,  0.0000)
  11 Li     6.468148    0.000000   11.617037    ( 0.0000,  0.0000,  0.0000)
  12 Li     0.000000    3.234074   11.617037    ( 0.0000,  0.0000,  0.0000)
  13 Li     3.234074    3.234074   11.617037    ( 0.0000,  0.0000,  0.0000)
  14 Li     6.468148    3.234074   11.617037    ( 0.0000,  0.0000,  0.0000)
  15 Li     0.000000    6.468148   11.617037    ( 0.0000,  0.0000,  0.0000)
  16 Li     3.234074    6.468148   11.617037    ( 0.0000,  0.0000,  0.0000)
  17 Li     6.468148    6.468148   11.617037    ( 0.0000,  0.0000,  0.0000)
  18 Li     1.617180    1.617004   13.469422    ( 0.0000,  0.0000,  0.0000)
  19 Li     4.851091    1.617082   13.470069    ( 0.0000,  0.0000,  0.0000)
  20 Li     8.085063    1.617004   13.469377    ( 0.0000,  0.0000,  0.0000)
  21 Li     1.617041    4.851082   13.469725    ( 0.0000,  0.0000,  0.0000)
  22 Li     4.851124    4.851116   13.469916    ( 0.0000,  0.0000,  0.0000)
  23 Li     8.085172    4.851080   13.469695    ( 0.0000,  0.0000,  0.0000)
  24 Li     1.617010    8.085267   13.470016    ( 0.0000,  0.0000,  0.0000)
  25 Li     4.851091    8.085134   13.469768    ( 0.0000,  0.0000,  0.0000)
  26 Li     8.085235    8.085254   13.469983    ( 0.0000,  0.0000,  0.0000)
  27 Li    -0.000244   -0.000002   15.445960    ( 0.0000,  0.0000,  0.0000)
  28 Li     3.234345   -0.000317   15.444995    ( 0.0000,  0.0000,  0.0000)
  29 Li     6.467958   -0.000150   15.445865    ( 0.0000,  0.0000,  0.0000)
  30 Li     0.000004    3.240950   15.431485    ( 0.0000,  0.0000,  0.0000)
  31 Li     3.234392    3.234439   15.445248    ( 0.0000,  0.0000,  0.0000)
  32 Li     6.467902    3.234261   15.445637    ( 0.0000,  0.0000,  0.0000)
  33 Li     0.000020    6.468351   15.445873    ( 0.0000,  0.0000,  0.0000)
  34 Li     3.234049    6.468171   15.445873    ( 0.0000,  0.0000,  0.0000)
  35 Li     6.468153    6.468189   15.445919    ( 0.0000,  0.0000,  0.0000)
  36 O      0.000182    1.598579   18.481426    ( 0.0000,  0.0000,  0.0000)
  37 O      4.861445    1.595248   18.441449    ( 0.0000,  0.0000,  0.0000)
  38 C      2.395780    1.616035   18.460960    ( 0.0000,  0.0000,  0.0000)
  39 C      1.151726    0.743961   18.456704    ( 0.0000,  0.0000,  0.0000)
  40 C      3.679368    0.786058   18.437417    ( 0.0000,  0.0000,  0.0000)
  41 H      2.374223    2.276077   17.585908    ( 0.0000,  0.0000,  0.0000)
  42 H      2.395839    2.252756   19.348266    ( 0.0000,  0.0000,  0.0000)
  43 H      1.139799    0.108560   17.556550    ( 0.0000,  0.0000,  0.0000)
  44 H      1.131225    0.100750   19.335222    ( 0.0000,  0.0000,  0.0000)
  45 H      3.679394    0.109138   17.569073    ( 0.0000,  0.0000,  0.0000)
  46 H      3.755280    0.168886   19.336259    ( 0.0000,  0.0000,  0.0000)
  47 H     -0.798349    1.070424   18.445534    ( 0.0000,  0.0000,  0.0000)
  48 H      4.829947    2.172412   17.663723    ( 0.0000,  0.0000,  0.0000)
  49 N     -0.004172    1.606912   16.924347    ( 0.0000,  0.0000,  0.0000)
  50 N     -0.000185    2.742502   16.933847    ( 0.0000,  0.0000,  0.0000)

Unit cell:
           periodic     x           y           z      points  spacing
  1. axis:    yes    9.702222    0.000000    0.000000    60     0.1617
  2. axis:    yes    0.000000    9.702222    0.000000    60     0.1617
  3. axis:    no     0.000000    0.000000   28.351111   176     0.1611

  Lengths:   9.702222   9.702222  28.351111
  Angles:   90.000000  90.000000  90.000000

Effective grid spacing dv^(1/3) = 0.1615

     iter     time        total  log10-change:
                         energy  eigst   dens
iter:   1 20:29:35  -346.836542  -0.36
iter:   2 20:29:48  -346.482977  -0.75  -1.44
iter:   3 20:29:56  -346.327746  -1.02  -1.44
iter:   4 20:30:04  -346.233474  -1.35  -1.67
Writing to output.gpw (mode='')

iter:   5 20:30:12  -346.222211  -1.56  -2.12
iter:   6 20:30:20  -346.223701c -1.31  -2.39
iter:   7 20:30:28  -346.223411c -1.92  -2.26
iter:   8 20:30:36  -346.220820c -2.44  -2.48
iter:   9 20:30:44  -346.219202c -2.60  -2.63
Writing to output.gpw (mode='')

iter:  10 20:30:52  -346.219423c -2.91  -2.75
iter:  11 20:31:00  -346.219043c -3.13  -2.77
iter:  12 20:31:08  -346.218896c -3.15  -2.91
iter:  13 20:31:16  -346.219136c -3.12  -3.08
iter:  14 20:31:24  -346.219231c -3.66  -3.09
Writing to output.gpw (mode='')

iter:  15 20:31:32  -346.219183c -3.73  -3.16
iter:  16 20:31:40  -346.219308c -4.02  -3.51
iter:  17 20:31:48  -346.219272c -4.13  -3.53
iter:  18 20:31:56  -346.219264c -4.40  -3.53
iter:  19 20:32:04  -346.219236c -4.23  -3.65
Writing to output.gpw (mode='')

iter:  20 20:32:12  -346.219251c -4.71  -3.86
iter:  21 20:32:20  -346.219247c -4.73  -3.95
iter:  22 20:32:28  -346.219248c -4.81  -3.98
iter:  23 20:32:36  -346.219237c -4.87  -4.08c
iter:  24 20:32:44  -346.219242c -5.05  -4.29c
Writing to output.gpw (mode='')

iter:  25 20:32:52  -346.219244c -5.13  -4.32c
iter:  26 20:33:00  -346.219242c -5.04  -4.35c
iter:  27 20:33:08  -346.219241c -5.38  -4.43c
iter:  28 20:33:16  -346.219245c -5.43  -4.55c
iter:  29 20:33:24  -346.219244c -5.55  -4.59c
Writing to output.gpw (mode='')

iter:  30 20:33:32  -346.219245c -5.66  -4.60c
iter:  31 20:33:40  -346.219244c -5.89  -4.53c
iter:  32 20:33:48  -346.219244c -5.70  -4.55c
iter:  33 20:33:56  -346.219245c -6.17  -4.60c
iter:  34 20:34:04  -346.219246c -6.30  -4.58c
Writing to output.gpw (mode='')

iter:  35 20:34:12  -346.219247c -6.31  -4.66c
iter:  36 20:34:20  -346.219247c -6.20  -4.72c
iter:  37 20:34:28  -346.219249c -6.05  -4.84c
iter:  38 20:34:45  -346.219247c -6.26  -4.77c
iter:  39 20:34:54  -346.219246c -6.26  -4.76c
Writing to output.gpw (mode='')

iter:  40 20:35:02  -346.219246c -6.83  -4.83c
iter:  41 20:35:10  -346.219244c -6.87  -4.79c
iter:  42 20:35:18  -346.219244c -6.93  -5.02c
iter:  43 20:35:26  -346.219244c -6.98  -5.04c
iter:  44 20:35:34  -346.219244c -6.84  -5.03c
Writing to output.gpw (mode='')

iter:  45 20:35:42  -346.219243c -6.75  -5.11c
iter:  46 20:35:50  -346.219242c -6.95  -5.13c
iter:  47 20:35:58  -346.219244c -7.00  -5.19c
iter:  48 20:36:06  -346.219243c -7.37  -5.37c
iter:  49 20:36:14  -346.219243c -7.24  -5.42c
Writing to output.gpw (mode='')

iter:  50 20:36:22  -346.219243c -7.43c -5.48c

Converged after 50 iterations.

Dipole moment: (-14.721409, -17.499157, 0.239574) |e|*Ang

Energy contributions relative to reference atoms: (reference = -17528.314784)

Kinetic:       +214.587405
Potential:     -197.492629
External:        +0.000000
XC:            -364.401580
Entropy (-ST):   -0.151507
Local:           +1.163315
--------------------------
Free energy:   -346.294996
Extrapolated:  -346.219243

Dipole-layer corrected work functions: 3.390508, 2.929965 eV

Showing only first 2 kpts
 Kpt  Band  Eigenvalues  Occupancy
  0    37     -3.41116    1.98686
  0    38     -3.30081    1.88659
  0    39     -3.02752    0.13145
  0    40     -2.93658    0.02257

  1    37     -3.24239    1.67590
  1    38     -3.18871    1.27724
  1    39     -3.08083    0.33929
  1    40     -3.06057    0.23979


Fermi level: -3.16024

Gap: 0.017 eV
Transition (v -> c):
  (s=0, k=2, n=38, [0.12, 0.12, 0.00]) -> (s=0, k=7, n=39, [0.38, 0.38, 0.00])

Forces in eV/Ang:
  0 Li    0.02164   -0.00337   -0.27606
  1 Li    0.00038    0.00551   -0.26657
  2 Li   -0.02235   -0.00444   -0.28077
  3 Li    0.00257    0.01728   -0.27861
  4 Li   -0.00061   -0.01245   -0.26627
  5 Li   -0.00272    0.01728   -0.27974
  6 Li   -0.00855   -0.01343   -0.26420
  7 Li    0.00037    0.00385   -0.27741
  8 Li    0.00782   -0.01063   -0.26750
  9 Li    0.00049   -0.00916    0.28526
 10 Li    0.01059   -0.00004    0.26794
 11 Li   -0.01116   -0.00032    0.26210
 12 Li   -0.00058   -0.00793    0.34187
 13 Li    0.01669    0.00518    0.25096
 14 Li   -0.01577   -0.00286    0.25017
 15 Li    0.00157    0.01122    0.24423
 16 Li   -0.00279    0.00111    0.24786
 17 Li    0.00129    0.00504    0.26389
 18 Li    0.04239   -0.01301   -0.10299
 19 Li   -0.00554    0.01481    0.10805
 20 Li   -0.03664   -0.01283   -0.11720
 21 Li    0.00555   -0.00428   -0.01062
 22 Li    0.00407   -0.00059    0.05900
 23 Li   -0.00823   -0.00577   -0.01899
 24 Li   -0.00898    0.02428    0.08758
 25 Li   -0.00621   -0.01578    0.01333
 26 Li    0.01634    0.02090    0.07921
 27 Li   -0.07513    0.02379    0.04162
 28 Li    0.08535   -0.09955   -0.28216
 29 Li   -0.06124   -0.04982   -0.02173
 30 Li    0.00493    2.09269   -4.58476
 31 Li    0.08689    0.11242   -0.20013
 32 Li   -0.06403    0.05992   -0.08286
 33 Li    0.00548    0.05970   -0.01948
 34 Li   -0.00623    0.00778   -0.02224
 35 Li    0.00085    0.01277   -0.00731
 36 O     0.28391   -4.59322    9.26977
 37 O    -0.21828   -0.31568    0.34621
 38 C     0.02994    0.11781    0.19097
 39 C     1.69413   -1.41789    2.01946
 40 C     0.19760    0.23283    0.27046
 41 H     0.07817    0.00999    0.06570
 42 H     0.02490    0.06739   -0.02097
 43 H    -0.00127   -0.10830    0.49087
 44 H     0.11515   -0.17014    0.14707
 45 H     0.05093   -0.14297    0.00326
 46 H    -0.03028   -0.08586   -0.08000
 47 H    -0.91605   -0.81991    1.24287
 48 H     0.06234    0.10299   -0.34719
 49 N    -1.25231    1.34149   -6.15452
 50 N    -0.10691    3.43048   -2.28521

System changes: positions 

Initializing position-dependent things.

Density initialized from wave functions
       .-----------------------.  
      /|                       |  
     / |                       |  
    /  |                       |  
   /   |                       |  
  /    |                       |  
 *     |                       |  
 |     |                       |  
 |     |                       |  
 |     |                       |  
 |     |                       |  
 |     |                       |  
 |     |                       |  
 |     |                       |  
 |     |                       |  
 |     |                       |  
 |     |H      Li      Li      |  
 |O H  |C H   O                |  
 |  CLi|H  C LH      Li H  N   |  
 |  H  |  Hi      Li      Ni   |  
 | Li  |   Li      Li          |  
 |     |Li      Li      Li     |  
 |     |                 Li    |  
 |   LLi     LLi     LLi       |  
 |     |  Li      Li      Li   |  
 | Li  |   Li      Li          |  
 |     |Li      Li      Li     |  
 Li    | Li      Li            |  
 |    Li      Li      Li       |  
 |     |                       |  
 |     |                       |  
 |     |                       |  
 |     |                       |  
 |     |                       |  
 |     |                       |  
 |     .-----------------------.  
 |    /                       /   
 |   /                       /    
 |  /                       /     
 | /                       /      
 |/                       /       
 *-----------------------*        

Positions:
   0 Li     1.617037    1.617037   10.000000    ( 0.0000,  0.0000,  0.0000)
   1 Li     4.851111    1.617037   10.000000    ( 0.0000,  0.0000,  0.0000)
   2 Li     8.085185    1.617037   10.000000    ( 0.0000,  0.0000,  0.0000)
   3 Li     1.617037    4.851111   10.000000    ( 0.0000,  0.0000,  0.0000)
   4 Li     4.851111    4.851111   10.000000    ( 0.0000,  0.0000,  0.0000)
   5 Li     8.085185    4.851111   10.000000    ( 0.0000,  0.0000,  0.0000)
   6 Li     1.617037    8.085185   10.000000    ( 0.0000,  0.0000,  0.0000)
   7 Li     4.851111    8.085185   10.000000    ( 0.0000,  0.0000,  0.0000)
   8 Li     8.085185    8.085185   10.000000    ( 0.0000,  0.0000,  0.0000)
   9 Li     0.000000    0.000000   11.617037    ( 0.0000,  0.0000,  0.0000)
  10 Li     3.234074    0.000000   11.617037    ( 0.0000,  0.0000,  0.0000)
  11 Li     6.468148    0.000000   11.617037    ( 0.0000,  0.0000,  0.0000)
  12 Li     0.000000    3.234074   11.617037    ( 0.0000,  0.0000,  0.0000)
  13 Li     3.234074    3.234074   11.617037    ( 0.0000,  0.0000,  0.0000)
  14 Li     6.468148    3.234074   11.617037    ( 0.0000,  0.0000,  0.0000)
  15 Li     0.000000    6.468148   11.617037    ( 0.0000,  0.0000,  0.0000)
  16 Li     3.234074    6.468148   11.617037    ( 0.0000,  0.0000,  0.0000)
  17 Li     6.468148    6.468148   11.617037    ( 0.0000,  0.0000,  0.0000)
  18 Li     1.617355    1.616945   13.468977    ( 0.0000,  0.0000,  0.0000)
  19 Li     4.851069    1.617146   13.470527    ( 0.0000,  0.0000,  0.0000)
  20 Li     8.084911    1.616946   13.468872    ( 0.0000,  0.0000,  0.0000)
  21 Li     1.617072    4.851072   13.469665    ( 0.0000,  0.0000,  0.0000)
  22 Li     4.851141    4.851110   13.470166    ( 0.0000,  0.0000,  0.0000)
  23 Li     8.085130    4.851062   13.469602    ( 0.0000,  0.0000,  0.0000)
  24 Li     1.616972    8.085366   13.470381    ( 0.0000,  0.0000,  0.0000)
  25 Li     4.851065    8.085067   13.469826    ( 0.0000,  0.0000,  0.0000)
  26 Li     8.085304    8.085340   13.470316    ( 0.0000,  0.0000,  0.0000)
  27 Li    -0.000558    0.000138   15.446193    ( 0.0000,  0.0000,  0.0000)
  28 Li     3.234705   -0.000737   15.443829    ( 0.0000,  0.0000,  0.0000)
  29 Li     6.467698   -0.000365   15.445776    ( 0.0000,  0.0000,  0.0000)
  30 Li     0.000031    3.249662   15.412083    ( 0.0000,  0.0000,  0.0000)
  31 Li     3.234738    3.234910   15.444432    ( 0.0000,  0.0000,  0.0000)
  32 Li     6.467653    3.234517   15.445307    ( 0.0000,  0.0000,  0.0000)
  33 Li     0.000042    6.468596   15.445793    ( 0.0000,  0.0000,  0.0000)
  34 Li     3.234027    6.468204   15.445776    ( 0.0000,  0.0000,  0.0000)
  35 Li     6.468154    6.468242   15.445886    ( 0.0000,  0.0000,  0.0000)
  36 O      0.001752    1.581197   18.517417    ( 0.0000,  0.0000,  0.0000)
  37 O      4.860629    1.594152   18.442641    ( 0.0000,  0.0000,  0.0000)
  38 C      2.396025    1.616445   18.461783    ( 0.0000,  0.0000,  0.0000)
  39 C      1.158112    0.738367   18.464465    ( 0.0000,  0.0000,  0.0000)
  40 C      3.680094    0.786992   18.438506    ( 0.0000,  0.0000,  0.0000)
  41 H      2.374479    2.276095   17.586199    ( 0.0000,  0.0000,  0.0000)
  42 H      2.395951    2.253072   19.348208    ( 0.0000,  0.0000,  0.0000)
  43 H      1.139865    0.108131   17.558766    ( 0.0000,  0.0000,  0.0000)
  44 H      1.131953    0.099644   19.336229    ( 0.0000,  0.0000,  0.0000)
  45 H      3.679609    0.108569   17.569124    ( 0.0000,  0.0000,  0.0000)
  46 H      3.755154    0.168511   19.335946    ( 0.0000,  0.0000,  0.0000)
  47 H     -0.802259    1.066784   18.450513    ( 0.0000,  0.0000,  0.0000)
  48 H      4.830215    2.172672   17.662509    ( 0.0000,  0.0000,  0.0000)
  49 N     -0.009356    1.619988   16.899434    ( 0.0000,  0.0000,  0.0000)
  50 N     -0.000716    2.747683   16.926702    ( 0.0000,  0.0000,  0.0000)

Unit cell:
           periodic     x           y           z      points  spacing
  1. axis:    yes    9.702222    0.000000    0.000000    60     0.1617
  2. axis:    yes    0.000000    9.702222    0.000000    60     0.1617
  3. axis:    no     0.000000    0.000000   28.351111   176     0.1611

  Lengths:   9.702222   9.702222  28.351111
  Angles:   90.000000  90.000000  90.000000

Effective grid spacing dv^(1/3) = 0.1615

     iter     time        total  log10-change:
                         energy  eigst   dens
iter:   1 20:36:31  -347.027191  -0.82
iter:   2 20:36:39  -346.992926  -1.09  -1.79
iter:   3 20:36:47  -346.975908  -1.58  -1.88
iter:   4 20:36:55  -346.960471c -1.54  -2.19
Writing to output.gpw (mode='')

iter:   5 20:37:03  -346.976226c -1.77  -2.32
iter:   6 20:37:11  -346.976563c -2.00  -2.26
iter:   7 20:37:19  -346.956387c -1.97  -2.19
iter:   8 20:37:27  -346.956561c -2.65  -2.63
iter:   9 20:37:34  -346.958606c -2.57  -2.62
Writing to output.gpw (mode='')

iter:  10 20:37:42  -346.957299c -2.50  -2.57
iter:  11 20:37:50  -346.956817c -3.27  -2.72
iter:  12 20:37:58  -346.956766c -3.21  -2.82
iter:  13 20:38:06  -346.956919c -3.42  -3.01
iter:  14 20:38:14  -346.956684c -3.31  -3.11
Writing to output.gpw (mode='')

iter:  15 20:38:22  -346.956827c -3.67  -3.27
iter:  16 20:38:30  -346.956722c -3.90  -3.38
iter:  17 20:38:37  -346.956750c -4.11  -3.66
iter:  18 20:38:45  -346.956775c -4.12  -3.71
iter:  19 20:38:53  -346.956777c -4.57  -3.86
Writing to output.gpw (mode='')

iter:  20 20:39:01  -346.956786c -4.40  -3.91
iter:  21 20:39:09  -346.956790c -4.83  -3.99
iter:  22 20:39:17  -346.956801c -4.59  -4.04c
iter:  23 20:39:25  -346.956815c -4.79  -4.09c
iter:  24 20:39:32  -346.956811c -4.78  -4.17c
Writing to output.gpw (mode='')

iter:  25 20:39:48  -346.956818c -4.92  -4.18c
iter:  26 20:39:56  -346.956818c -5.27  -4.38c
iter:  27 20:40:04  -346.956823c -5.14  -4.54c
iter:  28 20:40:11  -346.956825c -5.41  -4.54c
iter:  29 20:40:19  -346.956826c -5.35  -4.65c
Writing to output.gpw (mode='')

iter:  30 20:40:27  -346.956822c -5.61  -4.66c
iter:  31 20:40:35  -346.956825c -5.63  -4.53c
iter:  32 20:40:43  -346.956832c -5.79  -4.61c
iter:  33 20:40:51  -346.956833c -5.77  -4.81c
iter:  34 20:40:59  -346.956836c -5.93  -4.80c
Writing to output.gpw (mode='')

iter:  35 20:41:07  -346.956836c -5.90  -4.92c
iter:  36 20:41:15  -346.956833c -6.03  -4.97c
iter:  37 20:41:22  -346.956834c -6.03  -5.06c
iter:  38 20:41:30  -346.956836c -6.36  -5.13c
iter:  39 20:41:38  -346.956838c -6.37  -5.15c
Writing to output.gpw (mode='')

iter:  40 20:41:46  -346.956836c -6.36  -5.19c
iter:  41 20:41:54  -346.956837c -6.22  -5.24c
iter:  42 20:42:02  -346.956839c -6.24  -5.38c
iter:  43 20:42:10  -346.956839c -6.73  -5.56c
iter:  44 20:42:18  -346.956839c -6.83  -5.55c
Writing to output.gpw (mode='')

iter:  45 20:42:25  -346.956840c -6.67  -5.52c
iter:  46 20:42:33  -346.956840c -6.89  -5.57c
iter:  47 20:42:41  -346.956839c -6.83  -5.57c
iter:  48 20:42:49  -346.956840c -6.87  -5.53c
iter:  49 20:42:57  -346.956839c -6.91  -5.52c
Writing to output.gpw (mode='')

iter:  50 20:43:05  -346.956839c -7.09  -5.47c
iter:  51 20:43:13  -346.956839c -7.29  -5.47c
iter:  52 20:43:21  -346.956839c -7.29  -5.44c
iter:  53 20:43:28  -346.956839c -7.30  -5.42c
iter:  54 20:43:36  -346.956840c -7.39  -5.43c
Writing to output.gpw (mode='')

iter:  55 20:43:44  -346.956840c -7.47c -5.42c

Converged after 55 iterations.

Dipole moment: (-14.264765, -17.458413, 0.207140) |e|*Ang

Energy contributions relative to reference atoms: (reference = -17528.314784)

Kinetic:       +212.608675
Potential:     -196.465032
External:        +0.000000
XC:            -364.191861
Entropy (-ST):   -0.150602
Local:           +1.166679
--------------------------
Free energy:   -347.032141
Extrapolated:  -346.956840

Dipole-layer corrected work functions: 3.392002, 2.993809 eV

Showing only first 2 kpts
 Kpt  Band  Eigenvalues  Occupancy
  0    37     -3.44515    1.98720
  0    38     -3.33682    1.89354
  0    39     -3.05823    0.12671
  0    40     -2.96609    0.02120

  1    37     -3.27569    1.67932
  1    38     -3.22037    1.26791
  1    39     -3.11501    0.34791
  1    40     -3.09160    0.23300


Fermi level: -3.19291

Gap: 0.015 eV
Transition (v -> c):
  (s=0, k=2, n=38, [0.12, 0.12, 0.00]) -> (s=0, k=7, n=39, [0.38, 0.38, 0.00])

Forces in eV/Ang:
  0 Li    0.02174   -0.00323   -0.27646
  1 Li    0.00037    0.00528   -0.26632
  2 Li   -0.02243   -0.00465   -0.28080
  3 Li    0.00234    0.01763   -0.27901
  4 Li   -0.00080   -0.01238   -0.26596
  5 Li   -0.00227    0.01776   -0.28000
  6 Li   -0.00868   -0.01379   -0.26384
  7 Li    0.00040    0.00398   -0.27810
  8 Li    0.00778   -0.01081   -0.26717
  9 Li    0.00055   -0.00989    0.28458
 10 Li    0.01130    0.00004    0.26791
 11 Li   -0.01181   -0.00032    0.26126
 12 Li   -0.00080   -0.00763    0.34494
 13 Li    0.01638    0.00539    0.25084
 14 Li   -0.01547   -0.00292    0.25058
 15 Li    0.00132    0.01139    0.24301
 16 Li   -0.00228    0.00087    0.24733
 17 Li    0.00107    0.00524    0.26289
 18 Li    0.04260   -0.01537   -0.10472
 19 Li   -0.00528    0.01513    0.10644
 20 Li   -0.03721   -0.01588   -0.11715
 21 Li    0.00836   -0.00080   -0.01316
 22 Li    0.00436   -0.00092    0.05903
 23 Li   -0.01116   -0.00240   -0.02168
 24 Li   -0.00885    0.02384    0.08497
 25 Li   -0.00628   -0.01593    0.01268
 26 Li    0.01616    0.02119    0.07925
 27 Li   -0.07055    0.01378    0.03336
 28 Li    0.08148   -0.09625   -0.27085
 29 Li   -0.06108   -0.04890   -0.02220
 30 Li    0.00906    1.94056   -4.26031
 31 Li    0.09049    0.11176   -0.19852
 32 Li   -0.06817    0.06007   -0.08552
 33 Li    0.00463    0.05908   -0.02191
 34 Li   -0.00663    0.00525   -0.02276
 35 Li    0.00222    0.01130   -0.00758
 36 O     0.32595   -3.66044    8.20717
 37 O    -0.16067   -0.20725    0.23526
 38 C     0.07231    0.05914    0.20978
 39 C     1.20484   -1.12799    1.59411
 40 C     0.15883    0.20144    0.22103
 41 H     0.05962   -0.00454    0.06766
 42 H     0.02598    0.08456   -0.00041
 43 H     0.02194   -0.09543    0.49639
 44 H     0.26087   -0.39593    0.31421
 45 H     0.04817   -0.11634    0.02984
 46 H    -0.03147   -0.08848   -0.06389
 47 H    -0.77961   -0.82329    1.06568
 48 H     0.06463    0.02757   -0.24055
 49 N    -1.13852    0.88644   -5.75104
 50 N    -0.12996    3.14466   -1.56996

System changes: positions 

Initializing position-dependent things.

Density initialized from wave functions
       .-----------------------.  
      /|                       |  
     / |                       |  
    /  |                       |  
   /   |                       |  
  /    |                       |  
 *     |                       |  
 |     |                       |  
 |     |                       |  
 |     |                       |  
 |     |                       |  
 |     |                       |  
 |     |                       |  
 |     |                       |  
 |     |                       |  
 |     |                       |  
 |     |H      Li      Li      |  
 |O H  |C H   O                |  
 |  CLi|H  C LH      Li H  N   |  
 |  H  |  Hi      Li      Ni   |  
 | Li  |   Li      Li          |  
 |     |Li      Li      Li     |  
 |     |                 Li    |  
 |   LLi     LLi     LLi       |  
 |     |  Li      Li      Li   |  
 | Li  |   Li      Li          |  
 |     |Li      Li      Li     |  
 Li    | Li      Li            |  
 |    Li      Li      Li       |  
 |     |                       |  
 |     |                       |  
 |     |                       |  
 |     |                       |  
 |     |                       |  
 |     |                       |  
 |     .-----------------------.  
 |    /                       /   
 |   /                       /    
 |  /                       /     
 | /                       /      
 |/                       /       
 *-----------------------*        

Positions:
   0 Li     1.617037    1.617037   10.000000    ( 0.0000,  0.0000,  0.0000)
   1 Li     4.851111    1.617037   10.000000    ( 0.0000,  0.0000,  0.0000)
   2 Li     8.085185    1.617037   10.000000    ( 0.0000,  0.0000,  0.0000)
   3 Li     1.617037    4.851111   10.000000    ( 0.0000,  0.0000,  0.0000)
   4 Li     4.851111    4.851111   10.000000    ( 0.0000,  0.0000,  0.0000)
   5 Li     8.085185    4.851111   10.000000    ( 0.0000,  0.0000,  0.0000)
   6 Li     1.617037    8.085185   10.000000    ( 0.0000,  0.0000,  0.0000)
   7 Li     4.851111    8.085185   10.000000    ( 0.0000,  0.0000,  0.0000)
   8 Li     8.085185    8.085185   10.000000    ( 0.0000,  0.0000,  0.0000)
   9 Li     0.000000    0.000000   11.617037    ( 0.0000,  0.0000,  0.0000)
  10 Li     3.234074    0.000000   11.617037    ( 0.0000,  0.0000,  0.0000)
  11 Li     6.468148    0.000000   11.617037    ( 0.0000,  0.0000,  0.0000)
  12 Li     0.000000    3.234074   11.617037    ( 0.0000,  0.0000,  0.0000)
  13 Li     3.234074    3.234074   11.617037    ( 0.0000,  0.0000,  0.0000)
  14 Li     6.468148    3.234074   11.617037    ( 0.0000,  0.0000,  0.0000)
  15 Li     0.000000    6.468148   11.617037    ( 0.0000,  0.0000,  0.0000)
  16 Li     3.234074    6.468148   11.617037    ( 0.0000,  0.0000,  0.0000)
  17 Li     6.468148    6.468148   11.617037    ( 0.0000,  0.0000,  0.0000)
  18 Li     1.617614    1.616827   13.468307    ( 0.0000,  0.0000,  0.0000)
  19 Li     4.851040    1.617244   13.471169    ( 0.0000,  0.0000,  0.0000)
  20 Li     8.084680    1.616819   13.468140    ( 0.0000,  0.0000,  0.0000)
  21 Li     1.617156    4.851105   13.469546    ( 0.0000,  0.0000,  0.0000)
  22 Li     4.851170    4.851098   13.470529    ( 0.0000,  0.0000,  0.0000)
  23 Li     8.085028    4.851083   13.469431    ( 0.0000,  0.0000,  0.0000)
  24 Li     1.616918    8.085506   13.470874    ( 0.0000,  0.0000,  0.0000)
  25 Li     4.851026    8.084968   13.469901    ( 0.0000,  0.0000,  0.0000)
  26 Li     8.085402    8.085471   13.470800    ( 0.0000,  0.0000,  0.0000)
  27 Li    -0.000950    0.000184   15.446393    ( 0.0000,  0.0000,  0.0000)
  28 Li     3.235172   -0.001299   15.442289    ( 0.0000,  0.0000,  0.0000)
  29 Li     6.467321   -0.000662   15.445638    ( 0.0000,  0.0000,  0.0000)
  30 Li     0.000128    3.260159   15.388604    ( 0.0000,  0.0000,  0.0000)
  31 Li     3.235301    3.235588   15.443258    ( 0.0000,  0.0000,  0.0000)
  32 Li     6.467223    3.234890   15.444782    ( 0.0000,  0.0000,  0.0000)
  33 Li     0.000061    6.468946   15.445640    ( 0.0000,  0.0000,  0.0000)
  34 Li     3.233987    6.468214   15.445629    ( 0.0000,  0.0000,  0.0000)
  35 Li     6.468176    6.468297   15.445835    ( 0.0000,  0.0000,  0.0000)
  36 O      0.004522    1.568816   18.555352    ( 0.0000,  0.0000,  0.0000)
  37 O      4.860245    1.594057   18.442851    ( 0.0000,  0.0000,  0.0000)
  38 C      2.396958    1.616217   18.463248    ( 0.0000,  0.0000,  0.0000)
  39 C      1.160538    0.734318   18.469819    ( 0.0000,  0.0000,  0.0000)
  40 C      3.680621    0.787910   18.439389    ( 0.0000,  0.0000,  0.0000)
  41 H      2.374606    2.275918   17.586646    ( 0.0000,  0.0000,  0.0000)
  42 H      2.396127    2.253771   19.348412    ( 0.0000,  0.0000,  0.0000)
  43 H      1.140273    0.107686   17.562021    ( 0.0000,  0.0000,  0.0000)
  44 H      1.135051    0.094881   19.339997    ( 0.0000,  0.0000,  0.0000)
  45 H      3.679881    0.108118   17.569572    ( 0.0000,  0.0000,  0.0000)
  46 H      3.754953    0.167932   19.335716    ( 0.0000,  0.0000,  0.0000)
  47 H     -0.805945    1.061502   18.455266    ( 0.0000,  0.0000,  0.0000)
  48 H      4.830637    2.172012   17.662211    ( 0.0000,  0.0000,  0.0000)
  49 N     -0.015274    1.629902   16.868715    ( 0.0000,  0.0000,  0.0000)
  50 N     -0.001797    2.754174   16.925880    ( 0.0000,  0.0000,  0.0000)

Unit cell:
           periodic     x           y           z      points  spacing
  1. axis:    yes    9.702222    0.000000    0.000000    60     0.1617
  2. axis:    yes    0.000000    9.702222    0.000000    60     0.1617
  3. axis:    no     0.000000    0.000000   28.351111   176     0.1611

  Lengths:   9.702222   9.702222  28.351111
  Angles:   90.000000  90.000000  90.000000

Effective grid spacing dv^(1/3) = 0.1615

     iter     time        total  log10-change:
                         energy  eigst   dens
iter:   1 20:43:54  -347.649273  -0.80
iter:   2 20:44:04  -347.653575  -1.21  -2.13
iter:   3 20:44:12  -347.653618c -1.56  -2.20
iter:   4 20:44:20  -347.652210c -1.69  -2.34
Writing to output.gpw (mode='')

iter:   5 20:44:28  -347.648925c -1.92  -2.42
iter:   6 20:44:36  -347.646550c -2.08  -2.44
iter:   7 20:44:48  -347.643987c -2.38  -2.48
iter:   8 20:44:56  -347.644731c -2.62  -2.71
iter:   9 20:45:04  -347.644160c -2.60  -2.62
Writing to output.gpw (mode='')

iter:  10 20:45:12  -347.644026c -3.20  -2.77
iter:  11 20:45:20  -347.643756c -3.18  -2.86
iter:  12 20:45:28  -347.643850c -3.07  -3.01
iter:  13 20:45:36  -347.643816c -3.74  -3.20
iter:  14 20:45:44  -347.643817c -3.55  -3.29
Writing to output.gpw (mode='')

iter:  15 20:45:52  -347.643869c -3.83  -3.39
iter:  16 20:46:00  -347.643853c -3.93  -3.41
iter:  17 20:46:08  -347.643837c -4.09  -3.58
iter:  18 20:46:16  -347.643883c -4.11  -3.61
iter:  19 20:46:24  -347.643891c -4.46  -3.73
Writing to output.gpw (mode='')

iter:  20 20:46:32  -347.643906c -4.43  -3.78
iter:  21 20:46:40  -347.643913c -4.81  -3.88
iter:  22 20:46:48  -347.643921c -4.70  -3.92
iter:  23 20:46:56  -347.643926c -4.69  -4.18c
iter:  24 20:47:03  -347.643927c -4.84  -4.25c
Writing to output.gpw (mode='')

iter:  25 20:47:11  -347.643933c -4.91  -4.29c
iter:  26 20:47:19  -347.643940c -5.00  -4.30c
iter:  27 20:47:27  -347.643949c -4.99  -4.47c
iter:  28 20:47:35  -347.643950c -5.08  -4.48c
iter:  29 20:47:43  -347.643951c -5.15  -4.51c
Writing to output.gpw (mode='')

iter:  30 20:47:51  -347.643953c -5.55  -4.43c
iter:  31 20:47:59  -347.643953c -5.58  -4.60c
iter:  32 20:48:07  -347.643954c -5.40  -4.69c
iter:  33 20:48:15  -347.643953c -5.55  -4.68c
iter:  34 20:48:23  -347.643950c -5.56  -4.68c
Writing to output.gpw (mode='')

iter:  35 20:48:31  -347.643954c -5.95  -4.56c
iter:  36 20:48:39  -347.643956c -5.86  -4.68c
iter:  37 20:48:47  -347.643959c -5.81  -4.71c
iter:  38 20:48:55  -347.643959c -5.97  -4.76c
iter:  39 20:49:03  -347.643960c -6.06  -4.66c
Writing to output.gpw (mode='')

iter:  40 20:49:11  -347.643959c -6.10  -4.74c
iter:  41 20:49:19  -347.643960c -6.04  -4.67c
iter:  42 20:49:27  -347.643961c -6.55  -4.70c
iter:  43 20:49:35  -347.643960c -6.24  -4.73c
iter:  44 20:49:48  -347.643964c -6.61  -4.66c
Writing to output.gpw (mode='')

iter:  45 20:49:56  -347.643965c -6.57  -4.76c
iter:  46 20:50:04  -347.643965c -6.58  -4.81c
iter:  47 20:50:12  -347.643962c -6.67  -4.95c
iter:  48 20:50:20  -347.643964c -6.97  -5.06c
iter:  49 20:50:28  -347.643964c -6.85  -5.21c
Writing to output.gpw (mode='')

iter:  50 20:50:36  -347.643964c -6.78  -5.26c
iter:  51 20:50:44  -347.643964c -6.74  -5.28c
iter:  52 20:50:52  -347.643964c -6.89  -5.38c
iter:  53 20:51:00  -347.643964c -7.20  -5.43c
iter:  54 20:51:08  -347.643964c -7.09  -5.44c
Writing to output.gpw (mode='')

iter:  55 20:51:16  -347.643965c -7.50c -5.46c

Converged after 55 iterations.

Dipole moment: (-13.779314, -17.365316, 0.161578) |e|*Ang

Energy contributions relative to reference atoms: (reference = -17528.314784)

Kinetic:       +209.568287
Potential:     -194.544266
External:        +0.000000
XC:            -363.760115
Entropy (-ST):   -0.149946
Local:           +1.167103
--------------------------
Free energy:   -347.718938
Extrapolated:  -347.643965

Dipole-layer corrected work functions: 3.394243, 3.083635 eV

Showing only first 2 kpts
 Kpt  Band  Eigenvalues  Occupancy
  0    37     -3.49266    1.98757
  0    38     -3.38731    1.90217
  0    39     -3.10401    0.12613
  0    40     -3.00842    0.01970

  1    37     -3.32369    1.68975
  1    38     -3.26417    1.24711
  1    39     -3.16290    0.35869
  1    40     -3.13458    0.22069


Fermi level: -3.23894

Gap: 0.011 eV
Transition (v -> c):
  (s=0, k=2, n=38, [0.12, 0.12, 0.00]) -> (s=0, k=7, n=39, [0.38, 0.38, 0.00])

Forces in eV/Ang:
  0 Li    0.02166   -0.00322   -0.27708
  1 Li    0.00041    0.00500   -0.26608
  2 Li   -0.02242   -0.00491   -0.28102
  3 Li    0.00208    0.01809   -0.27972
  4 Li   -0.00098   -0.01227   -0.26561
  5 Li   -0.00176    0.01828   -0.28053
  6 Li   -0.00880   -0.01420   -0.26328
  7 Li    0.00039    0.00427   -0.27917
  8 Li    0.00775   -0.01095   -0.26669
  9 Li    0.00055   -0.01093    0.28364
 10 Li    0.01245    0.00004    0.26780
 11 Li   -0.01271   -0.00033    0.26040
 12 Li   -0.00103   -0.00714    0.34870
 13 Li    0.01570    0.00550    0.25127
 14 Li   -0.01483   -0.00302    0.25118
 15 Li    0.00107    0.01177    0.24185
 16 Li   -0.00152    0.00092    0.24652
 17 Li    0.00060    0.00536    0.26169
 18 Li    0.04179   -0.01858   -0.10558
 19 Li   -0.00480    0.01550    0.10386
 20 Li   -0.03695   -0.01937   -0.11633
 21 Li    0.01214    0.00469   -0.01818
 22 Li    0.00464   -0.00180    0.05934
 23 Li   -0.01503    0.00275   -0.02671
 24 Li   -0.00848    0.02304    0.08154
 25 Li   -0.00626   -0.01578    0.01193
 26 Li    0.01563    0.02095    0.07826
 27 Li   -0.06661    0.01032    0.03111
 28 Li    0.07649   -0.09251   -0.25684
 29 Li   -0.05995   -0.04765   -0.02131
 30 Li    0.01362    1.71517   -3.76427
 31 Li    0.09115    0.10996   -0.19308
 32 Li   -0.06979    0.05998   -0.08639
 33 Li    0.00395    0.05765   -0.02341
 34 Li   -0.00692    0.00281   -0.02323
 35 Li    0.00328    0.00965   -0.00794
 36 O     0.10006   -3.08152    7.18686
 37 O    -0.11020   -0.18510    0.21555
 38 C     0.05568    0.01731    0.18766
 39 C     0.93006   -0.96184    1.47321
 40 C     0.13613    0.17240    0.19663
 41 H     0.04915   -0.02186    0.08219
 42 H     0.02579    0.08871    0.01435
 43 H     0.01114   -0.09421    0.45365
 44 H     0.38111   -0.48954    0.30473
 45 H     0.04626   -0.09813    0.04342
 46 H    -0.02586   -0.08201   -0.05738
 47 H    -0.45263   -0.64736    0.92059
 48 H     0.05962    0.02126   -0.22250
 49 N    -1.03467    0.82578   -5.26040
 50 N    -0.15777    2.64202   -1.19490

System changes: positions 

Initializing position-dependent things.

Density initialized from wave functions
       .-----------------------.  
      /|                       |  
     / |                       |  
    /  |                       |  
   /   |                       |  
  /    |                       |  
 *     |                       |  
 |     |                       |  
 |     |                       |  
 |     |                       |  
 |     |                       |  
 |     |                       |  
 |     |                       |  
 |     |                       |  
 |     |                       |  
 |     |                       |  
 |     |H      Li      Li      |  
 |O H  |C H   O                |  
 |  CLi|H  C LH      Li H  N   |  
 |  H  |  Hi      Li      Ni   |  
 | Li  |   Li      Li          |  
 |     |Li      Li      Li     |  
 |     |                 Li    |  
 |   LLi     LLi     LLi       |  
 |     |  Li      Li      Li   |  
 | Li  |   Li      Li          |  
 |     |Li      Li      Li     |  
 Li    | Li      Li            |  
 |    Li      Li      Li       |  
 |     |                       |  
 |     |                       |  
 |     |                       |  
 |     |                       |  
 |     |                       |  
 |     |                       |  
 |     .-----------------------.  
 |    /                       /   
 |   /                       /    
 |  /                       /     
 | /                       /      
 |/                       /       
 *-----------------------*        

Positions:
   0 Li     1.617037    1.617037   10.000000    ( 0.0000,  0.0000,  0.0000)
   1 Li     4.851111    1.617037   10.000000    ( 0.0000,  0.0000,  0.0000)
   2 Li     8.085185    1.617037   10.000000    ( 0.0000,  0.0000,  0.0000)
   3 Li     1.617037    4.851111   10.000000    ( 0.0000,  0.0000,  0.0000)
   4 Li     4.851111    4.851111   10.000000    ( 0.0000,  0.0000,  0.0000)
   5 Li     8.085185    4.851111   10.000000    ( 0.0000,  0.0000,  0.0000)
   6 Li     1.617037    8.085185   10.000000    ( 0.0000,  0.0000,  0.0000)
   7 Li     4.851111    8.085185   10.000000    ( 0.0000,  0.0000,  0.0000)
   8 Li     8.085185    8.085185   10.000000    ( 0.0000,  0.0000,  0.0000)
   9 Li     0.000000    0.000000   11.617037    ( 0.0000,  0.0000,  0.0000)
  10 Li     3.234074    0.000000   11.617037    ( 0.0000,  0.0000,  0.0000)
  11 Li     6.468148    0.000000   11.617037    ( 0.0000,  0.0000,  0.0000)
  12 Li     0.000000    3.234074   11.617037    ( 0.0000,  0.0000,  0.0000)
  13 Li     3.234074    3.234074   11.617037    ( 0.0000,  0.0000,  0.0000)
  14 Li     6.468148    3.234074   11.617037    ( 0.0000,  0.0000,  0.0000)
  15 Li     0.000000    6.468148   11.617037    ( 0.0000,  0.0000,  0.0000)
  16 Li     3.234074    6.468148   11.617037    ( 0.0000,  0.0000,  0.0000)
  17 Li     6.468148    6.468148   11.617037    ( 0.0000,  0.0000,  0.0000)
  18 Li     1.617942    1.616630   13.467425    ( 0.0000,  0.0000,  0.0000)
  19 Li     4.851008    1.617376   13.471974    ( 0.0000,  0.0000,  0.0000)
  20 Li     8.084383    1.616609   13.467199    ( 0.0000,  0.0000,  0.0000)
  21 Li     1.617313    4.851221   13.469325    ( 0.0000,  0.0000,  0.0000)
  22 Li     4.851212    4.851070   13.471011    ( 0.0000,  0.0000,  0.0000)
  23 Li     8.084846    4.851178   13.469142    ( 0.0000,  0.0000,  0.0000)
  24 Li     1.616854    8.085679   13.471479    ( 0.0000,  0.0000,  0.0000)
  25 Li     4.850975    8.084840   13.469988    ( 0.0000,  0.0000,  0.0000)
  26 Li     8.085523    8.085638   13.471421    ( 0.0000,  0.0000,  0.0000)
  27 Li    -0.001416    0.000200   15.446617    ( 0.0000,  0.0000,  0.0000)
  28 Li     3.235719   -0.001989   15.440443    ( 0.0000,  0.0000,  0.0000)
  29 Li     6.466846   -0.001032   15.445472    ( 0.0000,  0.0000,  0.0000)
  30 Li     0.000312    3.270909   15.364633    ( 0.0000,  0.0000,  0.0000)
  31 Li     3.236049    3.236452   15.441785    ( 0.0000,  0.0000,  0.0000)
  32 Li     6.466635    3.235376   15.444077    ( 0.0000,  0.0000,  0.0000)
  33 Li     0.000080    6.469388   15.445422    ( 0.0000,  0.0000,  0.0000)
  34 Li     3.233930    6.468197   15.445431    ( 0.0000,  0.0000,  0.0000)
  35 Li     6.468220    6.468348   15.445764    ( 0.0000,  0.0000,  0.0000)
  36 O      0.004295    1.557873   18.593825    ( 0.0000,  0.0000,  0.0000)
  37 O      4.860310    1.593837   18.443283    ( 0.0000,  0.0000,  0.0000)
  38 C      2.397735    1.615480   18.464756    ( 0.0000,  0.0000,  0.0000)
  39 C      1.161254    0.730550   18.476606    ( 0.0000,  0.0000,  0.0000)
  40 C      3.681127    0.788777   18.440339    ( 0.0000,  0.0000,  0.0000)
  41 H      2.374701    2.275469   17.587450    ( 0.0000,  0.0000,  0.0000)
  42 H      2.396350    2.254686   19.348836    ( 0.0000,  0.0000,  0.0000)
  43 H      1.140535    0.107067   17.565533    ( 0.0000,  0.0000,  0.0000)
  44 H      1.140449    0.088031   19.344096    ( 0.0000,  0.0000,  0.0000)
  45 H      3.680217    0.107715   17.570275    ( 0.0000,  0.0000,  0.0000)
  46 H      3.754780    0.167287   19.335457    ( 0.0000,  0.0000,  0.0000)
  47 H     -0.806031    1.057435   18.459887    ( 0.0000,  0.0000,  0.0000)
  48 H      4.831102    2.171360   17.661659    ( 0.0000,  0.0000,  0.0000)
  49 N     -0.021801    1.639763   16.834381    ( 0.0000,  0.0000,  0.0000)
  50 N     -0.003545    2.760141   16.927320    ( 0.0000,  0.0000,  0.0000)

Unit cell:
           periodic     x           y           z      points  spacing
  1. axis:    yes    9.702222    0.000000    0.000000    60     0.1617
  2. axis:    yes    0.000000    9.702222    0.000000    60     0.1617
  3. axis:    no     0.000000    0.000000   28.351111   176     0.1611

  Lengths:   9.702222   9.702222  28.351111
  Angles:   90.000000  90.000000  90.000000

Effective grid spacing dv^(1/3) = 0.1615

     iter     time        total  log10-change:
                         energy  eigst   dens
iter:   1 20:51:26  -348.264267  -0.80
iter:   2 20:51:34  -348.270001  -1.27  -2.21
iter:   3 20:51:41  -348.271073c -1.60  -2.29
iter:   4 20:51:49  -348.268015c -1.71  -2.35
Writing to output.gpw (mode='')

iter:   5 20:51:57  -348.266195c -1.94  -2.48
iter:   6 20:52:05  -348.265580c -2.09  -2.57
iter:   7 20:52:13  -348.264891c -2.61  -2.59
iter:   8 20:52:21  -348.265608c -2.60  -2.77
iter:   9 20:52:29  -348.265430c -2.93  -2.68
Writing to output.gpw (mode='')

iter:  10 20:52:37  -348.265426c -2.72  -2.79
iter:  11 20:52:45  -348.265161c -3.33  -3.08
iter:  12 20:52:52  -348.265250c -3.35  -3.16
iter:  13 20:53:00  -348.265317c -3.46  -3.30
iter:  14 20:53:08  -348.265374c -3.56  -3.34
Writing to output.gpw (mode='')

iter:  15 20:53:16  -348.265360c -3.84  -3.50
iter:  16 20:53:24  -348.265383c -4.01  -3.55
iter:  17 20:53:32  -348.265395c -4.06  -3.57
iter:  18 20:53:40  -348.265436c -4.26  -3.66
iter:  19 20:53:48  -348.265425c -4.27  -3.71
Writing to output.gpw (mode='')

iter:  20 20:53:55  -348.265435c -4.55  -3.75
iter:  21 20:54:03  -348.265449c -4.44  -3.87
iter:  22 20:54:11  -348.265444c -4.71  -3.98
iter:  23 20:54:19  -348.265463c -4.67  -3.99
iter:  24 20:54:27  -348.265468c -4.72  -4.18c
Writing to output.gpw (mode='')

iter:  25 20:54:35  -348.265468c -5.15  -4.23c
iter:  26 20:54:49  -348.265468c -5.03  -4.38c
iter:  27 20:54:57  -348.265481c -5.21  -4.40c
iter:  28 20:55:04  -348.265485c -5.21  -4.49c
iter:  29 20:55:12  -348.265483c -4.96  -4.59c
Writing to output.gpw (mode='')

iter:  30 20:55:20  -348.265484c -5.68  -4.76c
iter:  31 20:55:28  -348.265486c -5.54  -4.75c
iter:  32 20:55:36  -348.265486c -5.83  -4.73c
iter:  33 20:55:44  -348.265486c -5.90  -4.80c
iter:  34 20:55:52  -348.265488c -6.11  -4.94c
Writing to output.gpw (mode='')

iter:  35 20:56:00  -348.265488c -6.13  -4.98c
iter:  36 20:56:08  -348.265489c -6.01  -5.06c
iter:  37 20:56:15  -348.265489c -6.28  -5.16c
iter:  38 20:56:23  -348.265489c -6.24  -5.26c
iter:  39 20:56:31  -348.265490c -6.53  -5.41c
Writing to output.gpw (mode='')

iter:  40 20:56:39  -348.265490c -6.43  -5.50c
iter:  41 20:56:47  -348.265490c -6.42  -5.57c
iter:  42 20:56:55  -348.265490c -6.66  -5.57c
iter:  43 20:57:04  -348.265490c -6.93  -5.61c
iter:  44 20:57:15  -348.265491c -6.87  -5.56c
Writing to output.gpw (mode='')

iter:  45 20:57:25  -348.265491c -7.02  -5.70c
iter:  46 20:57:33  -348.265491c -6.89  -5.74c
iter:  47 20:57:41  -348.265491c -6.84  -5.72c
iter:  48 20:57:49  -348.265490c -7.09  -5.67c
iter:  49 20:57:57  -348.265491c -7.29  -5.59c
Writing to output.gpw (mode='')

iter:  50 20:58:05  -348.265490c -7.25  -5.58c
iter:  51 20:58:12  -348.265490c -7.44c -5.53c

Converged after 51 iterations.

Dipole moment: (-12.903349, -17.242492, 0.112266) |e|*Ang

Energy contributions relative to reference atoms: (reference = -17528.314784)

Kinetic:       +206.585304
Potential:     -192.594312
External:        +0.000000
XC:            -363.349738
Entropy (-ST):   -0.149228
Local:           +1.167870
--------------------------
Free energy:   -348.340104
Extrapolated:  -348.265490

Dipole-layer corrected work functions: 3.396734, 3.180921 eV

Showing only first 2 kpts
 Kpt  Band  Eigenvalues  Occupancy
  0    37     -3.54409    1.98794
  0    38     -3.44310    1.91258
  0    39     -3.15197    0.12164
  0    40     -3.05456    0.01829

  1    37     -3.37559    1.70014
  1    38     -3.31147    1.22264
  1    39     -3.21608    0.37848
  1    40     -3.18092    0.20714


Fermi level: -3.28883

Gap: 0.007 eV
Transition (v -> c):
  (s=0, k=2, n=38, [0.12, 0.12, 0.00]) -> (s=0, k=7, n=39, [0.38, 0.38, 0.00])
Writing to output.gpw (mode='')


Forces in eV/Ang:
  0 Li    0.02145   -0.00333   -0.27761
  1 Li    0.00047    0.00470   -0.26583
  2 Li   -0.02233   -0.00521   -0.28118
  3 Li    0.00174    0.01869   -0.28060
  4 Li   -0.00115   -0.01214   -0.26542
  5 Li   -0.00110    0.01896   -0.28119
  6 Li   -0.00899   -0.01475   -0.26266
  7 Li    0.00040    0.00465   -0.28050
  8 Li    0.00780   -0.01120   -0.26623
  9 Li    0.00047   -0.01220    0.28257
 10 Li    0.01399    0.00000    0.26754
 11 Li   -0.01378   -0.00037    0.25964
 12 Li   -0.00120   -0.00658    0.35249
 13 Li    0.01489    0.00540    0.25213
 14 Li   -0.01417   -0.00313    0.25193
 15 Li    0.00084    0.01249    0.24049
 16 Li   -0.00068    0.00127    0.24580
 17 Li   -0.00004    0.00534    0.26028
 18 Li    0.03988   -0.02221   -0.10457
 19 Li   -0.00414    0.01581    0.10066
 20 Li   -0.03574   -0.02275   -0.11414
 21 Li    0.01615    0.01113   -0.02386
 22 Li    0.00494   -0.00268    0.05953
 23 Li   -0.01915    0.00869   -0.03244
 24 Li   -0.00800    0.02222    0.07774
 25 Li   -0.00617   -0.01548    0.01116
 26 Li    0.01477    0.02029    0.07670
 27 Li   -0.06292    0.01219    0.03081
 28 Li    0.07082   -0.08838   -0.24175
 29 Li   -0.05916   -0.04618   -0.02028
 30 Li    0.01872    1.49209   -3.28425
 31 Li    0.09110    0.10754   -0.18642
 32 Li   -0.07126    0.05960   -0.08666
 33 Li    0.00348    0.05549   -0.02422
 34 Li   -0.00750    0.00036   -0.02345
 35 Li    0.00446    0.00813   -0.00839
 36 O     0.08105   -2.51229    6.25159
 37 O    -0.07319   -0.15091    0.17604
 38 C     0.01676   -0.00236    0.19097
 39 C     0.70585   -0.79104    1.31808
 40 C     0.11646    0.13941    0.17739
 41 H     0.03534   -0.03846    0.09142
 42 H     0.02816    0.08302    0.01604
 43 H    -0.01830   -0.06892    0.43641
 44 H     0.46592   -0.55168    0.28631
 45 H     0.04508   -0.08309    0.05166
 46 H    -0.01957   -0.07674   -0.04889
 47 H    -0.33375   -0.57148    0.77750
 48 H     0.05697    0.00383   -0.18715
 49 N    -0.96064    0.76772   -4.79097
 50 N    -0.17728    2.22009   -0.87218

System changes: positions 

Initializing position-dependent things.

Density initialized from wave functions
       .-----------------------.  
      /|                       |  
     / |                       |  
    /  |                       |  
   /   |                       |  
  /    |                       |  
 *     |                       |  
 |     |                       |  
 |     |                       |  
 |     |                       |  
 |     |                       |  
 |     |                       |  
 |     |                       |  
 |     |                       |  
 |     |                       |  
 |     |                       |  
 |     |H      Li      Li      |  
 |O H  |C H   O                |  
 |  CLi|H  C LH      Li H  N   |  
 |  H  |  Hi      Li      Ni   |  
 | Li  |   Li      Li          |  
 |     |Li      Li      Li     |  
 |     |                 Li    |  
 |   LLi     LLi     LLi       |  
 |     |  Li      Li      Li   |  
 | Li  |   Li      Li          |  
 |     |Li      Li      Li     |  
 Li    | Li      Li            |  
 |    Li      Li      Li       |  
 |     |                       |  
 |     |                       |  
 |     |                       |  
 |     |                       |  
 |     |                       |  
 |     |                       |  
 |     .-----------------------.  
 |    /                       /   
 |   /                       /    
 |  /                       /     
 | /                       /      
 |/                       /       
 *-----------------------*        

Positions:
   0 Li     1.617037    1.617037   10.000000    ( 0.0000,  0.0000,  0.0000)
   1 Li     4.851111    1.617037   10.000000    ( 0.0000,  0.0000,  0.0000)
   2 Li     8.085185    1.617037   10.000000    ( 0.0000,  0.0000,  0.0000)
   3 Li     1.617037    4.851111   10.000000    ( 0.0000,  0.0000,  0.0000)
   4 Li     4.851111    4.851111   10.000000    ( 0.0000,  0.0000,  0.0000)
   5 Li     8.085185    4.851111   10.000000    ( 0.0000,  0.0000,  0.0000)
   6 Li     1.617037    8.085185   10.000000    ( 0.0000,  0.0000,  0.0000)
   7 Li     4.851111    8.085185   10.000000    ( 0.0000,  0.0000,  0.0000)
   8 Li     8.085185    8.085185   10.000000    ( 0.0000,  0.0000,  0.0000)
   9 Li     0.000000    0.000000   11.617037    ( 0.0000,  0.0000,  0.0000)
  10 Li     3.234074    0.000000   11.617037    ( 0.0000,  0.0000,  0.0000)
  11 Li     6.468148    0.000000   11.617037    ( 0.0000,  0.0000,  0.0000)
  12 Li     0.000000    3.234074   11.617037    ( 0.0000,  0.0000,  0.0000)
  13 Li     3.234074    3.234074   11.617037    ( 0.0000,  0.0000,  0.0000)
  14 Li     6.468148    3.234074   11.617037    ( 0.0000,  0.0000,  0.0000)
  15 Li     0.000000    6.468148   11.617037    ( 0.0000,  0.0000,  0.0000)
  16 Li     3.234074    6.468148   11.617037    ( 0.0000,  0.0000,  0.0000)
  17 Li     6.468148    6.468148   11.617037    ( 0.0000,  0.0000,  0.0000)
  18 Li     1.618324    1.616340   13.466349    ( 0.0000,  0.0000,  0.0000)
  19 Li     4.850977    1.617543   13.472939    ( 0.0000,  0.0000,  0.0000)
  20 Li     8.084030    1.616308   13.466059    ( 0.0000,  0.0000,  0.0000)
  21 Li     1.617556    4.851445   13.468981    ( 0.0000,  0.0000,  0.0000)
  22 Li     4.851268    4.851026   13.471614    ( 0.0000,  0.0000,  0.0000)
  23 Li     8.084571    4.851371   13.468711    ( 0.0000,  0.0000,  0.0000)
  24 Li     1.616779    8.085885   13.472189    ( 0.0000,  0.0000,  0.0000)
  25 Li     4.850913    8.084686   13.470086    ( 0.0000,  0.0000,  0.0000)
  26 Li     8.085662    8.085837   13.472175    ( 0.0000,  0.0000,  0.0000)
  27 Li    -0.001961    0.000267   15.446897    ( 0.0000,  0.0000,  0.0000)
  28 Li     3.236332   -0.002801   15.438310    ( 0.0000,  0.0000,  0.0000)
  29 Li     6.466263   -0.001476   15.445280    ( 0.0000,  0.0000,  0.0000)
  30 Li     0.000602    3.281663   15.340544    ( 0.0000,  0.0000,  0.0000)
  31 Li     3.236981    3.237500   15.440025    ( 0.0000,  0.0000,  0.0000)
  32 Li     6.465883    3.235977   15.443193    ( 0.0000,  0.0000,  0.0000)
  33 Li     0.000099    6.469912   15.445146    ( 0.0000,  0.0000,  0.0000)
  34 Li     3.233849    6.468148   15.445184    ( 0.0000,  0.0000,  0.0000)
  35 Li     6.468288    6.468396   15.445670    ( 0.0000,  0.0000,  0.0000)
  36 O      0.003947    1.549067   18.632842    ( 0.0000,  0.0000,  0.0000)
  37 O      4.860697    1.593708   18.443604    ( 0.0000,  0.0000,  0.0000)
  38 C      2.397966    1.614509   18.466691    ( 0.0000,  0.0000,  0.0000)
  39 C      1.160621    0.727369   18.484187    ( 0.0000,  0.0000,  0.0000)
  40 C      3.681627    0.789488   18.441410    ( 0.0000,  0.0000,  0.0000)
  41 H      2.374692    2.274722   17.588561    ( 0.0000,  0.0000,  0.0000)
  42 H      2.396660    2.255675   19.349299    ( 0.0000,  0.0000,  0.0000)
  43 H      1.140329    0.106656   17.569672    ( 0.0000,  0.0000,  0.0000)
  44 H      1.147856    0.079367   19.348390    ( 0.0000,  0.0000,  0.0000)
  45 H      3.680629    0.107335   17.571179    ( 0.0000,  0.0000,  0.0000)
  46 H      3.754656    0.166563   19.335207    ( 0.0000,  0.0000,  0.0000)
  47 H     -0.805246    1.053269   18.464210    ( 0.0000,  0.0000,  0.0000)
  48 H      4.831644    2.170528   17.661141    ( 0.0000,  0.0000,  0.0000)
  49 N     -0.029312    1.649672   16.796569    ( 0.0000,  0.0000,  0.0000)
  50 N     -0.005898    2.766028   16.930819    ( 0.0000,  0.0000,  0.0000)

Unit cell:
           periodic     x           y           z      points  spacing
  1. axis:    yes    9.702222    0.000000    0.000000    60     0.1617
  2. axis:    yes    0.000000    9.702222    0.000000    60     0.1617
  3. axis:    no     0.000000    0.000000   28.351111   176     0.1611

  Lengths:   9.702222   9.702222  28.351111
  Angles:   90.000000  90.000000  90.000000

Effective grid spacing dv^(1/3) = 0.1615

     iter     time        total  log10-change:
                         energy  eigst   dens
iter:   1 20:58:22  -348.821748  -0.81
iter:   2 20:58:30  -348.829192  -1.39  -2.36
iter:   3 20:58:38  -348.831905c -1.70  -2.39
iter:   4 20:58:46  -348.834394c -1.83  -2.41
Writing to output.gpw (mode='')

iter:   5 20:58:54  -348.835772c -2.07  -2.32
iter:   6 20:59:02  -348.830445c -1.88  -2.31
iter:   7 20:59:10  -348.827965c -2.34  -2.38
iter:   8 20:59:18  -348.826804c -2.34  -2.63
iter:   9 20:59:26  -348.827280c -2.33  -2.65
Writing to output.gpw (mode='')

iter:  10 20:59:34  -348.827304c -2.91  -2.81
iter:  11 20:59:48  -348.827209c -3.30  -2.90
iter:  12 20:59:58  -348.827313c -3.37  -3.03
iter:  13 21:00:06  -348.827212c -3.24  -3.04
iter:  14 21:00:14  -348.827233c -3.86  -3.17
Writing to output.gpw (mode='')

iter:  15 21:00:22  -348.827267c -3.67  -3.33
iter:  16 21:00:30  -348.827241c -3.99  -3.49
iter:  17 21:00:38  -348.827237c -4.12  -3.60
iter:  18 21:00:46  -348.827276c -4.08  -3.75
iter:  19 21:00:54  -348.827281c -4.44  -3.68
Writing to output.gpw (mode='')

iter:  20 21:01:02  -348.827295c -4.52  -3.94
iter:  21 21:01:10  -348.827304c -4.53  -3.97
iter:  22 21:01:18  -348.827309c -4.89  -4.02c
iter:  23 21:01:26  -348.827310c -4.91  -4.08c
iter:  24 21:01:34  -348.827329c -4.97  -4.11c
Writing to output.gpw (mode='')

iter:  25 21:01:42  -348.827336c -5.09  -4.13c
iter:  26 21:01:50  -348.827326c -5.06  -4.24c
iter:  27 21:01:58  -348.827327c -5.41  -4.35c
iter:  28 21:02:06  -348.827334c -5.33  -4.45c
iter:  29 21:02:13  -348.827334c -5.46  -4.57c
Writing to output.gpw (mode='')

iter:  30 21:02:21  -348.827339c -5.25  -4.64c
iter:  31 21:02:29  -348.827339c -5.68  -4.80c
iter:  32 21:02:37  -348.827339c -5.65  -4.85c
iter:  33 21:02:45  -348.827339c -5.73  -4.93c
iter:  34 21:02:53  -348.827339c -6.13  -5.03c
Writing to output.gpw (mode='')

iter:  35 21:03:01  -348.827339c -5.84  -5.02c
iter:  36 21:03:09  -348.827339c -5.89  -4.93c
iter:  37 21:03:17  -348.827339c -6.15  -4.91c
iter:  38 21:03:25  -348.827340c -6.35  -4.88c
iter:  39 21:03:33  -348.827341c -6.43  -4.88c
Writing to output.gpw (mode='')

iter:  40 21:03:41  -348.827342c -6.41  -4.99c
iter:  41 21:03:49  -348.827342c -6.47  -5.00c
iter:  42 21:03:57  -348.827345c -6.71  -5.12c
iter:  43 21:04:05  -348.827344c -6.83  -5.21c
iter:  44 21:04:13  -348.827345c -6.63  -5.39c
Writing to output.gpw (mode='')

iter:  45 21:04:21  -348.827345c -6.94  -5.44c
iter:  46 21:04:29  -348.827345c -6.77  -5.49c
iter:  47 21:04:42  -348.827345c -6.78  -5.60c
iter:  48 21:04:51  -348.827345c -7.06  -5.74c
iter:  49 21:04:59  -348.827345c -7.04  -5.78c
Writing to output.gpw (mode='')

iter:  50 21:05:07  -348.827345c -7.25  -5.83c
iter:  51 21:05:15  -348.827345c -7.42c -5.91c

Converged after 51 iterations.

Dipole moment: (-11.844154, -17.089389, 0.060140) |e|*Ang

Energy contributions relative to reference atoms: (reference = -17528.314784)

Kinetic:       +203.472932
Potential:     -190.481269
External:        +0.000000
XC:            -362.914014
Entropy (-ST):   -0.148512
Local:           +1.169262
--------------------------
Free energy:   -348.901602
Extrapolated:  -348.827345

Dipole-layer corrected work functions: 3.399321, 3.283712 eV

Showing only first 2 kpts
 Kpt  Band  Eigenvalues  Occupancy
  0    37     -3.59832    1.98831
  0    38     -3.50301    1.92388
  0    39     -3.20023    0.11190
  0    40     -3.10361    0.01702

  1    37     -3.43032    1.71041
  1    38     -3.36133    1.19554
  1    39     -3.27371    0.40977
  1    40     -3.22922    0.19140


Fermi level: -3.34152

No gap
Writing to output.gpw (mode='')


Forces in eV/Ang:
  0 Li    0.02107   -0.00356   -0.27811
  1 Li    0.00053    0.00428   -0.26561
  2 Li   -0.02207   -0.00558   -0.28134
  3 Li    0.00128    0.01942   -0.28165
  4 Li   -0.00133   -0.01197   -0.26543
  5 Li   -0.00022    0.01986   -0.28194
  6 Li   -0.00930   -0.01544   -0.26200
  7 Li    0.00044    0.00518   -0.28211
  8 Li    0.00797   -0.01160   -0.26586
  9 Li    0.00033   -0.01370    0.28150
 10 Li    0.01597   -0.00003    0.26711
 11 Li   -0.01502   -0.00049    0.25909
 12 Li   -0.00133   -0.00600    0.35621
 13 Li    0.01396    0.00516    0.25347
 14 Li   -0.01352   -0.00325    0.25292
 15 Li    0.00064    0.01353    0.23887
 16 Li    0.00020    0.00185    0.24517
 17 Li   -0.00081    0.00517    0.25865
 18 Li    0.03701   -0.02615   -0.10201
 19 Li   -0.00333    0.01607    0.09688
 20 Li   -0.03370   -0.02578   -0.11113
 21 Li    0.02016    0.01851   -0.03036
 22 Li    0.00535   -0.00348    0.05962
 23 Li   -0.02342    0.01543   -0.03905
 24 Li   -0.00743    0.02133    0.07352
 25 Li   -0.00613   -0.01499    0.01034
 26 Li    0.01366    0.01912    0.07455
 27 Li   -0.06008    0.02293    0.03406
 28 Li    0.06487   -0.08402   -0.22594
 29 Li   -0.05891   -0.04478   -0.01884
 30 Li    0.02452    1.27319   -2.83839
 31 Li    0.09006    0.10459   -0.17846
 32 Li   -0.07233    0.05898   -0.08623
[...]
  0    37     -3.40896    1.96883
  0    38     -3.22313    1.21138
  0    39     -3.19493    0.93271
  0    40     -3.09169    0.19957

  1    37     -3.45625    1.98778
  1    38     -3.17231    0.71453
  1    39     -3.09623    0.21647
  1    40     -3.04457    0.08281


Fermi level: -3.20167

No gap
Writing to output.gpw (mode='')


Forces in eV/Ang:
  0 Li    0.00332   -0.01171   -0.29690
  1 Li    0.01313    0.00940   -0.30265
  2 Li    0.00100   -0.00173   -0.25578
  3 Li    0.01869    0.01311   -0.27978
  4 Li   -0.00120    0.00518   -0.29069
  5 Li   -0.00909    0.00044   -0.29672
  6 Li    0.01125   -0.00579   -0.28237
  7 Li   -0.00663   -0.01844   -0.28941
  8 Li    0.01248    0.00514   -0.29611
  9 Li   -0.09312    0.03455    0.32626
 10 Li   -0.01790    0.03501    0.34107
 11 Li    0.03351    0.04984    0.23717
 12 Li   -0.10668   -0.07106    0.29227
 13 Li   -0.03313   -0.02090    0.31667
 14 Li    0.04924   -0.04315    0.34243
 15 Li   -0.06402    0.00048    0.24281
 16 Li   -0.03776    0.00967    0.28944
 17 Li    0.04381    0.01530    0.28057
 18 Li    0.01342    0.01033   -0.01418
 19 Li    0.00247    0.00312   -0.00025
 20 Li   -0.01338    0.00950   -0.01741
 21 Li   -0.00196   -0.00218    0.01353
 22 Li    0.00333    0.00164   -0.00007
 23 Li    0.00388    0.00568    0.00016
 24 Li   -0.01412    0.00857   -0.00313
 25 Li    0.00107   -0.00244    0.00179
 26 Li    0.00402    0.00174    0.00483
 27 Li   -0.01088    0.01074    0.00656
 28 Li    0.01498   -0.00997    0.00550
 29 Li   -0.00431   -0.01787   -0.04129
 30 Li   -0.03163   -0.00319    0.00467
 31 Li   -0.00183    0.01335   -0.00235
 32 Li   -0.00154    0.00142    0.01107
 33 Li    0.00089   -0.00577   -0.00378
 34 Li    0.00381   -0.00062    0.00508
 35 Li    0.00064    0.00258    0.00305
 36 O     0.02751   -0.01030    0.01907
 37 O     0.04763   -0.00789   -0.01976
 38 C     0.00207    0.00823   -0.00154
 39 C     0.01030    0.00912    0.00086
 40 C     0.01085    0.00547   -0.01280
 41 H    -0.00991   -0.00807    0.00114
 42 H     0.03530    0.00008   -0.00340
 43 H     0.00606    0.01419   -0.01118
 44 H     0.01113   -0.00673    0.00518
 45 H     0.01108   -0.00977    0.00640
 46 H    -0.02429   -0.00345    0.00206
 47 H    -0.02200   -0.01087    0.00514
 48 H    -0.01094   -0.00249   -0.00657
 49 N    -0.00996   -0.01139    0.00587
 50 N     0.02140   -0.00831   -0.01625

System changes: positions 

Initializing position-dependent things.

Density initialized from wave functions
       .-----------------------.  
      /|                       |  
     / |                       |  
    /  |                       |  
   /   |                       |  
  /    |                       |  
 *     |                       |  
 |     |                       |  
 |     |                       |  
 |     |                       |  
 |     |   H                   |  
 |     |          H            |  
 |     |  H                    |  
 |     |        H              |  
 |     |                       |  
 |     |                       |  
 |  O  |  H    Li        H     Li 
 |   C | C                     |  
 |   Li| H C LO      Li        |  
 |     |  Li      Li      Li   |  
 |     |   Li      LiN    Li   |  
 |     |Li      LLi   N Li     |  
 |     |                       |  
 |   LLi     LLi     LLi       |  
 |     |  Li      Li      Li   |  
 | Li  |   Li      Li          |  
 |     |Li      Li      Li     |  
 Li    | Li      Li            |  
 |    Li      Li      Li       |  
 |     |                       |  
 |     |                       |  
 |     |                       |  
 |     |                       |  
 |     |                       |  
 |     |                       |  
 |     .-----------------------.  
 |    /                       /   
 |   /                       /    
 |  /                       /     
 | /                       /      
 |/                       /       
 *-----------------------*        

Positions:
   0 Li     1.617037    1.617037   10.000000    ( 0.0000,  0.0000,  0.0000)
   1 Li     4.851111    1.617037   10.000000    ( 0.0000,  0.0000,  0.0000)
   2 Li     8.085185    1.617037   10.000000    ( 0.0000,  0.0000,  0.0000)
   3 Li     1.617037    4.851111   10.000000    ( 0.0000,  0.0000,  0.0000)
   4 Li     4.851111    4.851111   10.000000    ( 0.0000,  0.0000,  0.0000)
   5 Li     8.085185    4.851111   10.000000    ( 0.0000,  0.0000,  0.0000)
   6 Li     1.617037    8.085185   10.000000    ( 0.0000,  0.0000,  0.0000)
   7 Li     4.851111    8.085185   10.000000    ( 0.0000,  0.0000,  0.0000)
   8 Li     8.085185    8.085185   10.000000    ( 0.0000,  0.0000,  0.0000)
   9 Li     0.000000    0.000000   11.617037    ( 0.0000,  0.0000,  0.0000)
  10 Li     3.234074    0.000000   11.617037    ( 0.0000,  0.0000,  0.0000)
  11 Li     6.468148    0.000000   11.617037    ( 0.0000,  0.0000,  0.0000)
  12 Li     0.000000    3.234074   11.617037    ( 0.0000,  0.0000,  0.0000)
  13 Li     3.234074    3.234074   11.617037    ( 0.0000,  0.0000,  0.0000)
  14 Li     6.468148    3.234074   11.617037    ( 0.0000,  0.0000,  0.0000)
  15 Li     0.000000    6.468148   11.617037    ( 0.0000,  0.0000,  0.0000)
  16 Li     3.234074    6.468148   11.617037    ( 0.0000,  0.0000,  0.0000)
  17 Li     6.468148    6.468148   11.617037    ( 0.0000,  0.0000,  0.0000)
  18 Li     1.484727    1.573928   13.488865    ( 0.0000,  0.0000,  0.0000)
  19 Li     4.863149    1.688697   13.528343    ( 0.0000,  0.0000,  0.0000)
  20 Li     7.954778    1.544763   13.742104    ( 0.0000,  0.0000,  0.0000)
  21 Li     1.513070    4.809792   13.447659    ( 0.0000,  0.0000,  0.0000)
  22 Li     4.827096    4.925333   13.464581    ( 0.0000,  0.0000,  0.0000)
  23 Li     8.056168    4.837394   13.510433    ( 0.0000,  0.0000,  0.0000)
  24 Li     1.571783    8.025479   13.485724    ( 0.0000,  0.0000,  0.0000)
  25 Li     4.902287    8.156260   13.471991    ( 0.0000,  0.0000,  0.0000)
  26 Li     8.100203    8.107445   13.511734    ( 0.0000,  0.0000,  0.0000)
  27 Li    -0.064052   -0.115733   15.568638    ( 0.0000,  0.0000,  0.0000)
  28 Li     3.166184   -0.041067   15.213617    ( 0.0000,  0.0000,  0.0000)
  29 Li     6.479339    0.483379   16.300175    ( 0.0000,  0.0000,  0.0000)
  30 Li    -0.279128    2.970774   15.647309    ( 0.0000,  0.0000,  0.0000)
  31 Li     3.046493    3.307446   15.295984    ( 0.0000,  0.0000,  0.0000)
  32 Li     6.333260    3.524288   15.481958    ( 0.0000,  0.0000,  0.0000)
  33 Li     0.052371    6.335411   15.460493    ( 0.0000,  0.0000,  0.0000)
  34 Li     3.241073    6.460005   15.392950    ( 0.0000,  0.0000,  0.0000)
  35 Li     6.439739    6.674264   15.445342    ( 0.0000,  0.0000,  0.0000)
  36 O      0.639289    1.522475   19.518659    ( 0.0000,  0.0000,  0.0000)
  37 O      5.137136    0.919483   17.826090    ( 0.0000,  0.0000,  0.0000)
  38 C      2.911841    1.217629   18.866102    ( 0.0000,  0.0000,  0.0000)
  39 C      1.631229    0.509426   19.294614    ( 0.0000,  0.0000,  0.0000)
  40 C      4.018409    0.246335   18.465823    ( 0.0000,  0.0000,  0.0000)
  41 H      2.663757    1.845788   18.001229    ( 0.0000,  0.0000,  0.0000)
  42 H      3.247624    1.885534   19.663628    ( 0.0000,  0.0000,  0.0000)
  43 H      1.303781   -0.183404   18.507141    ( 0.0000,  0.0000,  0.0000)
  44 H      1.798152   -0.075449   20.209665    ( 0.0000,  0.0000,  0.0000)
  45 H      3.623980   -0.516561   17.780094    ( 0.0000,  0.0000,  0.0000)
  46 H      4.442382   -0.274333   19.326718    ( 0.0000,  0.0000,  0.0000)
  47 H     -0.215329    1.090113   19.625584    ( 0.0000,  0.0000,  0.0000)
  48 H      4.790805    1.711083   17.374679    ( 0.0000,  0.0000,  0.0000)
  49 N     -1.332871    1.215621   15.786459    ( 0.0000,  0.0000,  0.0000)
  50 N     -2.163406    2.158093   15.728581    ( 0.0000,  0.0000,  0.0000)

Unit cell:
           periodic     x           y           z      points  spacing
  1. axis:    yes    9.702222    0.000000    0.000000    60     0.1617
  2. axis:    yes    0.000000    9.702222    0.000000    60     0.1617
  3. axis:    no     0.000000    0.000000   28.351111   176     0.1611

  Lengths:   9.702222   9.702222  28.351111
  Angles:   90.000000  90.000000  90.000000

Effective grid spacing dv^(1/3) = 0.1615

     iter     time        total  log10-change:
                         energy  eigst   dens
iter:   1 08:53:32  -353.802706  -1.84
iter:   2 08:53:40  -353.801091  -2.59  -2.41
iter:   3 08:53:47  -353.800579c -3.22  -2.51
iter:   4 08:53:55  -353.800292c -3.64  -2.73
Writing to output.gpw (mode='')

iter:   5 08:54:03  -353.800153c -3.29  -2.84
iter:   6 08:54:11  -353.800207c -3.37  -3.09
iter:   7 08:54:19  -353.800098c -3.75  -3.10
iter:   8 08:54:27  -353.800149c -3.61  -3.33
iter:   9 08:54:35  -353.800041c -4.39  -3.32
Writing to output.gpw (mode='')

iter:  10 08:54:47  -353.799987c -4.40  -3.47
iter:  11 08:54:55  -353.800009c -5.15  -3.60
iter:  12 08:55:03  -353.800058c -5.00  -3.67
iter:  13 08:55:11  -353.800046c -5.04  -3.93
iter:  14 08:55:19  -353.800044c -5.93  -4.01c
Writing to output.gpw (mode='')

iter:  15 08:55:27  -353.800043c -5.72  -4.07c
iter:  16 08:55:35  -353.800040c -5.69  -4.22c
iter:  17 08:55:43  -353.800042c -6.28  -4.21c
iter:  18 08:55:51  -353.800040c -6.22  -4.39c
iter:  19 08:55:58  -353.800039c -6.64  -4.48c
Writing to output.gpw (mode='')

iter:  20 08:56:06  -353.800034c -6.54  -4.59c
iter:  21 08:56:14  -353.800034c -7.01  -4.74c
iter:  22 08:56:22  -353.800035c -6.83  -4.85c
iter:  23 08:56:30  -353.800034c -7.08  -4.86c
iter:  24 08:56:38  -353.800034c -7.77c -5.02c

Converged after 24 iterations.

Dipole moment: (1.201544, -11.906879, 0.204415) |e|*Ang

Energy contributions relative to reference atoms: (reference = -17528.314784)

Kinetic:       +175.675234
Potential:     -169.268199
External:        +0.000000
XC:            -361.328783
Entropy (-ST):   -0.164189
Local:           +1.203808
--------------------------
Free energy:   -353.882128
Extrapolated:  -353.800034

Dipole-layer corrected work functions: 3.399708, 3.006753 eV

Showing only first 2 kpts
 Kpt  Band  Eigenvalues  Occupancy
  0    37     -3.41104    1.96915
  0    38     -3.22475    1.21197
  0    39     -3.19675    0.93531
  0    40     -3.09346    0.20034

  1    37     -3.45801    1.98783
  1    38     -3.17377    0.71366
  1    39     -3.09743    0.21508
  1    40     -3.04564    0.08204


Fermi level: -3.20323

No gap
Writing to output.gpw (mode='')


Forces in eV/Ang:
  0 Li    0.00329   -0.01183   -0.29671
  1 Li    0.01303    0.00934   -0.30270
  2 Li    0.00100   -0.00185   -0.25598
  3 Li    0.01872    0.01310   -0.27981
  4 Li   -0.00131    0.00506   -0.29049
  5 Li   -0.00906    0.00056   -0.29707
  6 Li    0.01117   -0.00571   -0.28233
  7 Li   -0.00683   -0.01855   -0.28982
  8 Li    0.01246    0.00505   -0.29579
  9 Li   -0.09351    0.03425    0.32541
 10 Li   -0.01590    0.03509    0.34043
 11 Li    0.03405    0.05004    0.23861
 12 Li   -0.10780   -0.07029    0.29273
 13 Li   -0.03211   -0.01992    0.31549
 14 Li    0.05011   -0.04144    0.34325
 15 Li   -0.06320    0.00013    0.24227
 16 Li   -0.03632    0.00956    0.28939
 17 Li    0.04289    0.01486    0.28110
 18 Li    0.01273    0.01224   -0.01167
 19 Li    0.00160    0.00044   -0.00144
 20 Li   -0.01534    0.01062   -0.02108
 21 Li   -0.00292   -0.00290    0.01548
 22 Li    0.00406    0.00244   -0.00443
 23 Li    0.00401    0.00486   -0.00049
 24 Li   -0.01526    0.00784   -0.00362
 25 Li    0.00287   -0.00360    0.00120
 26 Li   -0.00060    0.00105    0.00399
 27 Li   -0.00624    0.00859    0.01032
 28 Li    0.01552   -0.01018    0.00936
 29 Li   -0.00615   -0.01680   -0.04179
 30 Li   -0.02780   -0.00190    0.00648
 31 Li   -0.00278    0.01646   -0.00612
 32 Li    0.00383   -0.00280    0.01381
 33 Li   -0.00047   -0.00796   -0.00378
 34 Li    0.00487   -0.00034    0.00737
 35 Li    0.00161    0.00188   -0.00055
 36 O     0.04271    0.00202    0.01346
 37 O     0.01191    0.01130   -0.00384
 38 C     0.01827    0.00547   -0.00119
 39 C     0.02880   -0.00044    0.00541
 40 C     0.01967   -0.00757   -0.01034
 41 H    -0.01185   -0.00730   -0.00076
 42 H     0.03578    0.00313   -0.00369
 43 H     0.00267    0.02037   -0.00496
 44 H     0.00574   -0.00662    0.00081
 45 H     0.01083   -0.01064   -0.00848
 46 H    -0.02609   -0.00539    0.02026
 47 H    -0.03304   -0.01321    0.00181
 48 H    -0.00957    0.01187   -0.01624
 49 N    -0.00086   -0.02244    0.00118
 50 N     0.00612   -0.00134   -0.02202

Timing:                                      incl.     excl.
-------------------------------------------------------------------
Density initialized from wave functions:     9.807     9.803   0.0% |
 Symmetrize density:                         0.004     0.004   0.0% |
Forces:                                     87.674    87.674   0.2% |
Hamiltonian:                              1007.766     0.021   0.0% |
 Atomic:                                     0.038     0.037   0.0% |
  XC Correction:                             0.000     0.000   0.0% |
 Calculate atomic Hamiltonians:              0.065     0.065   0.0% |
 Communicate:                               15.217    15.217   0.0% |
 Hartree integrate/restrict:                 4.128     4.128   0.0% |
 Initialize Hamiltonian:                     0.001     0.001   0.0% |
 Poisson:                                   49.782    18.635   0.0% |
  Communicate from 1D:                       4.890     4.890   0.0% |
  Communicate from 2D:                       5.018     5.018   0.0% |
  Communicate to 1D:                         2.797     2.797   0.0% |
  Communicate to 2D:                         5.618     5.618   0.0% |
  FFT 1D:                                    6.324     6.324   0.0% |
  FFT 2D:                                    6.502     6.502   0.0% |
 XC 3D grid:                               937.653   144.035   0.3% |
  VdW-DF integral:                         793.619     6.383   0.0% |
   Convolution:                             69.508    69.508   0.2% |
   FFT:                                     30.291    30.291   0.1% |
   gather:                                 268.444   268.444   0.6% |
   hmm1:                                    26.887    26.887   0.1% |
   hmm2:                                    35.091    35.091   0.1% |
   iFFT:                                    31.333    31.333   0.1% |
   potential:                              322.075     8.449   0.0% |
    collect:                                52.427    52.427   0.1% |
    p1:                                    143.437   143.437   0.3% |
    p2:                                     53.995    53.995   0.1% |
    sum:                                    63.767    63.767   0.1% |
   splines:                                  3.607     3.607   0.0% |
 vbar:                                       0.860     0.860   0.0% |
LCAO initialization:                         1.369     0.182   0.0% |
 LCAO eigensolver:                           0.244     0.000   0.0% |
  Calculate projections:                     0.000     0.000   0.0% |
  DenseAtomicCorrection:                     0.000     0.000   0.0% |
  Distribute overlap matrix:                 0.222     0.222   0.0% |
  Orbital Layouts:                           0.019     0.019   0.0% |
  Potential matrix:                          0.001     0.001   0.0% |
  Sum over cells:                            0.001     0.001   0.0% |
 LCAO to grid:                               0.730     0.730   0.0% |
 Set positions (LCAO WFS):                   0.214     0.159   0.0% |
  Basic WFS set positions:                   0.001     0.001   0.0% |
  Basis functions set positions:             0.000     0.000   0.0% |
  P tci:                                     0.000     0.000   0.0% |
  ST tci:                                    0.022     0.022   0.0% |
  mktci:                                     0.031     0.031   0.0% |
Redistribute:                                0.098     0.098   0.0% |
SCF-cycle:                               44395.949   701.690   1.5% ||
 Davidson:                               12994.970  3871.950   8.5% |--|
  Apply hamiltonian:                       829.095   829.095   1.8% ||
  Subspace diag:                          2426.362     0.641   0.0% |
   calc_h_matrix:                         1280.754   424.056   0.9% |
    Apply hamiltonian:                     856.698   856.698   1.9% ||
   diagonalize:                             88.640    88.640   0.2% |
   rotate_psi:                            1056.327  1056.327   2.3% ||
  calc. matrices:                         4157.036  2171.777   4.8% |-|
   Apply hamiltonian:                     1985.260  1985.260   4.3% |-|
  diagonalize:                              38.932    38.932   0.1% |
  rotate_psi:                             1671.594  1671.594   3.7% ||
 Density:                                  220.907     0.142   0.0% |
  Atomic density matrices:                  26.108    26.108   0.1% |
  Mix:                                      93.590    93.590   0.2% |
  Multipole moments:                         9.426     9.426   0.0% |
  Pseudo density:                           91.641    91.520   0.2% |
   Symmetrize density:                       0.122     0.122   0.0% |
 Hamiltonian:                            30443.080     0.655   0.0% |
  Atomic:                                    1.255     1.242   0.0% |
   XC Correction:                            0.014     0.014   0.0% |
  Calculate atomic Hamiltonians:             2.005     2.005   0.0% |
  Communicate:                             425.991   425.991   0.9% |
  Hartree integrate/restrict:              124.625   124.625   0.3% |
  Poisson:                                1502.390   557.926   1.2% |
   Communicate from 1D:                    149.446   149.446   0.3% |
   Communicate from 2D:                    148.558   148.558   0.3% |
   Communicate to 1D:                       85.545    85.545   0.2% |
   Communicate to 2D:                      171.862   171.862   0.4% |
   FFT 1D:                                 192.463   192.463   0.4% |
   FFT 2D:                                 196.589   196.589   0.4% |
  XC 3D grid:                            28358.853  4386.206   9.6% |---|
   VdW-DF integral:                      23972.647   194.430   0.4% |
    Convolution:                          2118.441  2118.441   4.6% |-|
    FFT:                                   929.996   929.996   2.0% ||
    gather:                               8175.131  8175.131  17.9% |------|
    hmm1:                                  821.988   821.988   1.8% ||
    hmm2:                                 1062.670  1062.670   2.3% ||
    iFFT:                                  954.175   954.175   2.1% ||
    potential:                            9715.771   258.219   0.6% |
     collect:                             1509.506  1509.506   3.3% ||
     p1:                                  4370.730  4370.730   9.6% |---|
     p2:                                  1640.996  1640.996   3.6% ||
     sum:                                 1936.319  1936.319   4.2% |-|
    splines:                                 0.044     0.044   0.0% |
  vbar:                                     27.306    27.306   0.1% |
 Orthonormalize:                            35.302     0.025   0.0% |
  calc_s_matrix:                             5.985     5.985   0.0% |
  inverse-cholesky:                          8.685     8.685   0.0% |
  projections:                               0.004     0.004   0.0% |
  rotate_psi_s:                             20.603    20.603   0.0% |
Set symmetry:                                0.003     0.003   0.0% |
Other:                                     208.109   208.109   0.5% |
-------------------------------------------------------------------
Total:                                             45710.775 100.0%

Memory usage: 1.20 GiB
Date: Sat Mar 11 08:56:38 2023
