
  ___ ___ ___ _ _ _  
 |   |   |_  | | | | 
 | | | | | . | | | | 
 |__ |  _|___|_____|  22.8.0
 |___|_|             

User:   vazumah@r182.ib.bridges2.psc.edu
Date:   Fri Mar 10 11:12:10 2023
Arch:   x86_64
Pid:    31202
CWD:    /jet/home/vazumah/Calcs/LiMEAS/proton_donors/methanol_y/ontop/9.702_9.702/N2_x
Python: 3.11.0
gpaw:   /jet/home/vazumah/.conda/envs/GPAW_mpich/lib/python3.11/site-packages/gpaw
_gpaw:  /jet/home/vazumah/.conda/envs/GPAW_mpich/lib/python3.11/site-packages/
        _gpaw.cpython-311-x86_64-linux-gnu.so
ase:    /jet/home/vazumah/.conda/envs/GPAW_mpich/lib/python3.11/site-packages/ase (version 3.22.1)
numpy:  /jet/home/vazumah/.conda/envs/GPAW_mpich/lib/python3.11/site-packages/numpy (version 1.24.2)
scipy:  /jet/home/vazumah/.conda/envs/GPAW_mpich/lib/python3.11/site-packages/scipy (version 1.10.1)
libxc:  5.2.3
units:  Angstrom and eV
cores: 128
OpenMP: True
OMP_NUM_THREADS: 1

Input parameters:
  h: 0.16
  kpts: {size: [4, 4, 1]}
  occupations: {name: fermi-dirac,
                width: 0.05}
  poissonsolver: {dipolelayer: xy}
  xc: BEEF-vdW

System changes: positions, numbers, cell, pbc, initial_charges, initial_magmoms 

Initialize ...

species:
  Li:
    name: Lithium
    id: 830b4218f175192f93f959cfc0aad614
    Z: 3.0
    valence: 1
    core: 2
    charge: 0.0
    file: /jet/home/vazumah/datasets/gpaw-setups-0.9.20000/Li.PBE.gz
    compensation charges: {type: gauss,
                           rc: 0.33,
                           lmax: 2}
    cutoffs: {filter: 1.91,
              core: 2.55}
    valence states:
      #              energy  rcut
      - 2s(1.00)    -2.874   1.058
      - 2p(0.00)    -1.090   1.058
      -  s          24.337   1.058
  
    # Using partial waves for Li as LCAO basis

  O:
    name: Oxygen
    id: 32ecd46bf208036f09c70b0ec9a88b78
    Z: 8.0
    valence: 6
    core: 2
    charge: 0.0
    file: /jet/home/vazumah/datasets/gpaw-setups-0.9.20000/O.PBE.gz
    compensation charges: {type: gauss,
                           rc: 0.21,
                           lmax: 2}
    cutoffs: {filter: 1.17,
              core: 0.83}
    valence states:
      #              energy  rcut
      - 2s(2.00)   -23.961   0.688
      - 2p(4.00)    -9.029   0.598
      -  s           3.251   0.688
      -  p          18.182   0.598
      -  d           0.000   0.619
  
    # Using partial waves for O as LCAO basis

  C:
    name: Carbon
    id: 4aa54d4b901d75f77cc0ea3eec22967b
    Z: 6.0
    valence: 4
    core: 2
    charge: 0.0
    file: /jet/home/vazumah/datasets/gpaw-setups-0.9.20000/C.PBE.gz
    compensation charges: {type: gauss,
                           rc: 0.20,
                           lmax: 2}
    cutoffs: {filter: 1.14,
              core: 1.14}
    valence states:
      #              energy  rcut
      - 2s(2.00)   -13.751   0.635
      - 2p(2.00)    -5.284   0.635
      -  s          13.461   0.635
      -  p          21.927   0.635
      -  d           0.000   0.635
  
    # Using partial waves for C as LCAO basis

  H:
    name: Hydrogen
    id: d65de229564ff8ea4db303e23b6d1ecf
    Z: 1.0
    valence: 1
    core: 0
    charge: 0.0
    file: /jet/home/vazumah/datasets/gpaw-setups-0.9.20000/H.PBE.gz
    compensation charges: {type: gauss,
                           rc: 0.15,
                           lmax: 2}
    cutoffs: {filter: 0.85,
              core: 0.53}
    valence states:
      #              energy  rcut
      - 1s(1.00)    -6.494   0.476
      -  s          20.717   0.476
      -  p           0.000   0.476
  
    # Using partial waves for H as LCAO basis

  N:
    name: Nitrogen
    id: f7500608b86eaa90eef8b1d9a670dc53
    Z: 7.0
    valence: 5
    core: 2
    charge: 0.0
    file: /jet/home/vazumah/datasets/gpaw-setups-0.9.20000/N.PBE.gz
    compensation charges: {type: gauss,
                           rc: 0.18,
                           lmax: 2}
    cutoffs: {filter: 1.11,
              core: 0.96}
    valence states:
      #              energy  rcut
      - 2s(2.00)   -18.583   0.603
      - 2p(3.00)    -7.089   0.529
      -  s           8.629   0.603
      -  p          20.123   0.529
      -  d           0.000   0.577
  
    # Using partial waves for N as LCAO basis

Reference energy: -13382.245603  # eV

Spin-paired calculation

Convergence criteria:
 Maximum [total energy] change in last 3 cyles: 0.0005 eV / electron
 Maximum integral of absolute [dens]ity change: 0.0001 electrons / valence electron
 Maximum integral of absolute [eigenst]ate change: 4e-08 eV^2 / valence electron
 Maximum number of scf [iter]ations: 333
 (Square brackets indicate name in SCF output, whereas a 'c' in
 the SCF output indicates the quantity has converged.)

Symmetries present (total): 1

  ( 1  0  0)
  ( 0  1  0)
  ( 0  0  1)

16 k-points: 4 x 4 x 1 Monkhorst-Pack grid
8 k-points in the irreducible part of the Brillouin zone
       k-points in crystal coordinates                weights
   0:     0.12500000   -0.37500000    0.00000000          2/16
   1:     0.12500000   -0.12500000    0.00000000          2/16
   2:     0.12500000    0.12500000    0.00000000          2/16
   3:     0.12500000    0.37500000    0.00000000          2/16
   4:     0.37500000   -0.37500000    0.00000000          2/16
   5:     0.37500000   -0.12500000    0.00000000          2/16
   6:     0.37500000    0.12500000    0.00000000          2/16
   7:     0.37500000    0.37500000    0.00000000          2/16

Wave functions: Uniform real-space grid
  Kinetic energy operator: 6*3+1=19 point O(h^6) finite-difference Laplacian
  ScaLapack parameters: grid=1x1, blocksize=None
  Wavefunction extrapolation:
    Improved wavefunction reuse through dual PAW basis 

Occupation numbers: Fermi-Dirac:
  width: 0.0500  # eV
 

Eigensolver
   Davidson(niter=2) 

Densities:
  Coarse grid: 60*60*168 grid
  Fine grid: 120*120*336 grid
  Total Charge: 0.000000 

Density mixing:
  Method: separate
  Backend: pulay
  Linear mixing parameter: 0.05
  old densities: 5
  Damping of long wavelength oscillations: 50 

Hamiltonian:
  XC and Coulomb potentials evaluated on a 120*120*336 grid
  Using the BEEF-vdW Exchange-Correlation functional
  Interpolation: tri-quintic (5. degree polynomial)
  Poisson solver: FastPoissonSolver using
    Stencil: 6*3+1=19 point O(h^6) finite-difference Laplacian
    FFT axes: [0, 1]
    FST axes: [2]

Dipole correction along z-axis 

XC parameters: BEEF-vdW with 2 nearest neighbor stencil

Memory estimate:
  Process memory now: 128.49 MiB
  Calculator: 77.36 MiB
    Density: 22.77 MiB
      Arrays: 7.40 MiB
      Localized functions: 12.55 MiB
      Mixer: 2.82 MiB
    Hamiltonian: 5.83 MiB
      Arrays: 4.84 MiB
      XC: 0.00 MiB
      Poisson: 0.00 MiB
      vbar: 0.99 MiB
    Wavefunctions: 48.76 MiB
      Arrays psit_nG: 22.52 MiB
      Eigensolver: 25.58 MiB
      Projections: 0.01 MiB
      Projectors: 0.64 MiB

Total number of cores used: 128
Parallelization over k-points: 8
Domain decomposition: 2 x 2 x 4

Number of atoms: 44
Number of atomic orbitals: 164
Number of bands in calculation: 40
Number of valence electrons: 60
Bands to converge: occupied

... initialized

Initializing position-dependent things.

Density initialized from atomic densities
Creating initial wave functions:
  40 bands from LCAO basis set

       .-----------------------.  
      /|                       |  
     / |                       |  
    /  |                       |  
   /   |                       |  
  /    |                       |  
 *     |                       |  
 |     |                       |  
 |     |                       |  
 |     |                       |  
 |     |                     H |  
 |     |                      C|  
 |     |H                   H  N  
 |     |                       |  
 |     |                       |  
 |     |                       |  
 O   Li|     Li      LiH       |  
 |     |  Li      Li      Li   |  
 | Li  |   Li      Li          |  
 |     |Li      Li      Li     |  
 Li    | Li      Li            |  
 |   LLi     LLi     LLi       |  
 |     |  Li      Li      Li   |  
 | Li  |   Li      Li          |  
 |     |Li      Li      Li     |  
 Li    | Li      Li            |  
 |    Li      Li      Li       |  
 |     |                       |  
 |     |                       |  
 |     |                       |  
 |     |                       |  
 |     |                       |  
 |     |                       |  
 |     .-----------------------.  
 |    /                       /   
 |   /                       /    
 |  /                       /     
 | /                       /      
 |/                       /       
 *-----------------------*        

Positions:
   0 Li     1.617037    1.617037   10.000000    ( 0.0000,  0.0000,  0.0000)
   1 Li     4.851111    1.617037   10.000000    ( 0.0000,  0.0000,  0.0000)
   2 Li     8.085185    1.617037   10.000000    ( 0.0000,  0.0000,  0.0000)
   3 Li     1.617037    4.851111   10.000000    ( 0.0000,  0.0000,  0.0000)
   4 Li     4.851111    4.851111   10.000000    ( 0.0000,  0.0000,  0.0000)
   5 Li     8.085185    4.851111   10.000000    ( 0.0000,  0.0000,  0.0000)
   6 Li     1.617037    8.085185   10.000000    ( 0.0000,  0.0000,  0.0000)
   7 Li     4.851111    8.085185   10.000000    ( 0.0000,  0.0000,  0.0000)
   8 Li     8.085185    8.085185   10.000000    ( 0.0000,  0.0000,  0.0000)
   9 Li     0.000000    0.000000   11.617037    ( 0.0000,  0.0000,  0.0000)
  10 Li     3.234074    0.000000   11.617037    ( 0.0000,  0.0000,  0.0000)
  11 Li     6.468148    0.000000   11.617037    ( 0.0000,  0.0000,  0.0000)
  12 Li     0.000000    3.234074   11.617037    ( 0.0000,  0.0000,  0.0000)
  13 Li     3.234074    3.234074   11.617037    ( 0.0000,  0.0000,  0.0000)
  14 Li     6.468148    3.234074   11.617037    ( 0.0000,  0.0000,  0.0000)
  15 Li     0.000000    6.468148   11.617037    ( 0.0000,  0.0000,  0.0000)
  16 Li     3.234074    6.468148   11.617037    ( 0.0000,  0.0000,  0.0000)
  17 Li     6.468148    6.468148   11.617037    ( 0.0000,  0.0000,  0.0000)
  18 Li     1.617038    1.617038   13.469728    ( 0.0000,  0.0000,  0.0000)
  19 Li     4.851111    1.617038   13.469729    ( 0.0000,  0.0000,  0.0000)
  20 Li     8.085184    1.617038   13.469728    ( 0.0000,  0.0000,  0.0000)
  21 Li     1.617038    4.851111   13.469729    ( 0.0000,  0.0000,  0.0000)
  22 Li     4.851111    4.851111   13.469730    ( 0.0000,  0.0000,  0.0000)
  23 Li     8.085184    4.851111   13.469729    ( 0.0000,  0.0000,  0.0000)
  24 Li     1.617038    8.085184   13.469728    ( 0.0000,  0.0000,  0.0000)
  25 Li     4.851111    8.085184   13.469729    ( 0.0000,  0.0000,  0.0000)
  26 Li     8.085184    8.085184   13.469728    ( 0.0000,  0.0000,  0.0000)
  27 Li    -0.000000   -0.000000   15.445939    ( 0.0000,  0.0000,  0.0000)
  28 Li     3.234074    0.000000   15.445939    ( 0.0000,  0.0000,  0.0000)
  29 Li     6.468148    0.000000   15.445939    ( 0.0000,  0.0000,  0.0000)
  30 Li     0.000000    3.234074   15.445939    ( 0.0000,  0.0000,  0.0000)
  31 Li     3.234076    3.234076   15.445938    ( 0.0000,  0.0000,  0.0000)
  32 Li     6.468146    3.234076   15.445938    ( 0.0000,  0.0000,  0.0000)
  33 Li     0.000000    6.468148   15.445939    ( 0.0000,  0.0000,  0.0000)
  34 Li     3.234076    6.468146   15.445938    ( 0.0000,  0.0000,  0.0000)
  35 Li     6.468146    6.468146   15.445938    ( 0.0000,  0.0000,  0.0000)
  36 O      9.702222    9.702222   18.445939    ( 0.0000,  0.0000,  0.0000)
  37 C      9.687148    8.272260   18.451439    ( 0.0000,  0.0000,  0.0000)
  38 H      8.937195    7.867988   17.764289    ( 0.0000,  0.0000,  0.0000)
  39 H      9.508739    7.868747   19.453228    ( 0.0000,  0.0000,  0.0000)
  40 H     10.672863    7.952816   18.118510    ( 0.0000,  0.0000,  0.0000)
  41 H      8.839093   10.013877   18.736944    ( 0.0000,  0.0000,  0.0000)
  42 N      9.702000    9.702000   17.195939    ( 0.0000,  0.0000,  0.0000)
  43 N      8.605378    9.702000   17.195939    ( 0.0000,  0.0000,  0.0000)

Unit cell:
           periodic     x           y           z      points  spacing
  1. axis:    yes    9.702222    0.000000    0.000000    60     0.1617
  2. axis:    yes    0.000000    9.702222    0.000000    60     0.1617
  3. axis:    no     0.000000    0.000000   26.601111   168     0.1583

  Lengths:   9.702222   9.702222  26.601111
  Angles:   90.000000  90.000000  90.000000

Effective grid spacing dv^(1/3) = 0.1606

     iter     time        total  log10-change:
                         energy  eigst   dens
iter:   1 11:12:24  -443.539911
iter:   2 11:12:32  -145.517137  +2.42  -0.08
iter:   3 11:12:39  -146.671548  +3.33  -0.23
iter:   4 11:12:47  -196.825602  +2.82  -0.23
Writing to output.gpw (mode='')

iter:   5 11:12:54  -218.694169  +2.64  -0.34
iter:   6 11:13:02  -245.239375  +2.45  -0.54
iter:   7 11:13:09  -294.386549  +2.58  -0.58
iter:   8 11:13:17  -308.485080  +2.18  -0.54
iter:   9 11:13:24  -292.886583  +1.80  -0.52
Writing to output.gpw (mode='')

iter:  10 11:13:32  -300.927922  +1.74  -0.55
iter:  11 11:13:39  -331.532316  +2.05  -0.48
iter:  12 11:13:47  -369.334950  +2.26  -0.46
iter:  13 11:13:54  -307.159194  +1.28  -0.39
iter:  14 11:14:02  -294.280487  +1.17  -0.53
Writing to output.gpw (mode='')

iter:  15 11:14:09  -287.762718  +1.21  -0.52
iter:  16 11:14:21  -286.467198  +1.47  -0.50
iter:  17 11:14:29  -274.485412  +1.07  -0.62
iter:  18 11:14:36  -274.349599  +0.66  -0.84
iter:  19 11:14:45  -275.317275  +0.94  -0.87
Writing to output.gpw (mode='')

iter:  20 11:14:53  -275.054039  +0.52  -0.84
iter:  21 11:15:08  -271.641696  +0.76  -0.86
iter:  22 11:15:21  -272.140021  +0.85  -1.12
iter:  23 11:15:31  -271.681490  -0.13  -1.11
iter:  24 11:15:39  -271.658432  -0.14  -1.28
Writing to output.gpw (mode='')

iter:  25 11:15:46  -271.891395  +0.09  -1.45
iter:  26 11:15:54  -271.799546  -0.37  -1.45
iter:  27 11:16:01  -271.733710  -0.50  -1.51
iter:  28 11:16:09  -271.797944  -0.56  -1.59
iter:  29 11:16:16  -271.770479  -0.69  -1.69
Writing to output.gpw (mode='')

iter:  30 11:16:24  -271.810017  -0.69  -1.77
iter:  31 11:16:31  -271.762681  -1.09  -1.80
iter:  32 11:16:39  -271.770626  -1.21  -2.07
iter:  33 11:16:46  -271.774899c -1.28  -2.05
iter:  34 11:16:54  -271.779813c -1.27  -2.19
Writing to output.gpw (mode='')

iter:  35 11:17:01  -271.784871c -1.33  -2.25
iter:  36 11:17:09  -271.793575c -1.53  -2.33
iter:  37 11:17:16  -271.793463c -1.69  -2.30
iter:  38 11:17:24  -271.797433c -1.72  -2.45
iter:  39 11:17:31  -271.801150c -1.68  -2.60
Writing to output.gpw (mode='')

iter:  40 11:17:39  -271.803663c -1.92  -2.63
iter:  41 11:17:46  -271.806951c -1.87  -2.65
iter:  42 11:17:54  -271.809184c -1.91  -2.73
iter:  43 11:18:01  -271.810919c -1.86  -2.86
iter:  44 11:18:09  -271.812739c -2.10  -2.77
Writing to output.gpw (mode='')

iter:  45 11:18:16  -271.814208c -2.29  -2.64
iter:  46 11:18:24  -271.815649c -2.11  -2.67
iter:  47 11:18:31  -271.816787c -2.30  -2.80
iter:  48 11:18:39  -271.818261c -2.16  -2.70
iter:  49 11:18:46  -271.819338c -2.23  -2.70
Writing to output.gpw (mode='')

iter:  50 11:18:54  -271.820261c -2.31  -2.69
iter:  51 11:19:01  -271.821262c -2.11  -2.67
iter:  52 11:19:09  -271.822073c -2.54  -2.70
iter:  53 11:19:22  -271.822773c -2.56  -2.65
iter:  54 11:19:29  -271.823601c -2.42  -2.64
Writing to output.gpw (mode='')

iter:  55 11:19:37  -271.823748c -2.64  -2.55
iter:  56 11:19:44  -271.824094c -2.52  -2.63
iter:  57 11:19:52  -271.825067c -2.54  -2.72
iter:  58 11:19:59  -271.825226c -2.81  -2.98
iter:  59 11:20:07  -271.825545c -2.93  -3.01
Writing to output.gpw (mode='')

iter:  60 11:20:14  -271.825838c -2.97  -3.20
iter:  61 11:20:22  -271.825970c -3.12  -3.36
iter:  62 11:20:29  -271.826128c -2.96  -3.39
iter:  63 11:20:37  -271.826409c -3.09  -3.41
iter:  64 11:20:44  -271.826458c -3.16  -3.46
Writing to output.gpw (mode='')

iter:  65 11:20:52  -271.826564c -3.33  -3.66
iter:  66 11:21:01  -271.826602c -3.43  -3.77
iter:  67 11:21:09  -271.826675c -3.46  -3.75
iter:  68 11:21:16  -271.826726c -3.53  -3.75
iter:  69 11:21:24  -271.826770c -3.19  -3.68
Writing to output.gpw (mode='')

iter:  70 11:21:31  -271.826814c -3.93  -3.60
iter:  71 11:21:39  -271.826845c -3.90  -3.55
iter:  72 11:21:46  -271.826892c -3.60  -3.56
iter:  73 11:21:54  -271.827018c -3.59  -3.54
iter:  74 11:22:01  -271.826972c -3.94  -3.60
Writing to output.gpw (mode='')

iter:  75 11:22:09  -271.827118c -4.01  -3.40
iter:  76 11:22:16  -271.827103c -4.23  -3.66
iter:  77 11:22:24  -271.827078c -4.26  -3.62
iter:  78 11:22:31  -271.827147c -3.91  -3.53
iter:  79 11:22:39  -271.827156c -4.16  -3.59
Writing to output.gpw (mode='')

iter:  80 11:22:46  -271.827201c -4.34  -3.59
iter:  81 11:22:54  -271.827240c -4.37  -3.64
iter:  82 11:23:01  -271.827218c -4.29  -3.68
iter:  83 11:23:09  -271.827254c -4.55  -3.75
iter:  84 11:23:16  -271.827264c -4.59  -3.78
Writing to output.gpw (mode='')

iter:  85 11:23:24  -271.827286c -4.57  -3.83
iter:  86 11:23:31  -271.827254c -4.62  -3.84
iter:  87 11:23:39  -271.827281c -4.51  -4.08c
iter:  88 11:23:46  -271.827274c -5.12  -4.12c
iter:  89 11:23:54  -271.827275c -4.88  -4.18c
Writing to output.gpw (mode='')

iter:  90 11:24:01  -271.827285c -5.05  -4.26c
iter:  91 11:24:09  -271.827275c -5.02  -4.42c
iter:  92 11:24:22  -271.827283c -5.33  -4.45c
iter:  93 11:24:29  -271.827288c -5.24  -4.51c
iter:  94 11:24:36  -271.827288c -5.19  -4.59c
Writing to output.gpw (mode='')

iter:  95 11:24:44  -271.827286c -5.26  -4.61c
iter:  96 11:24:52  -271.827293c -5.25  -4.67c
iter:  97 11:24:59  -271.827293c -5.35  -4.81c
iter:  98 11:25:06  -271.827288c -5.37  -4.98c
iter:  99 11:25:14  -271.827290c -5.38  -4.99c
Writing to output.gpw (mode='')

iter: 100 11:25:21  -271.827292c -5.62  -5.05c
iter: 101 11:25:29  -271.827293c -5.63  -5.08c
iter: 102 11:25:36  -271.827296c -5.71  -5.08c
iter: 103 11:25:44  -271.827295c -5.78  -5.14c
iter: 104 11:25:51  -271.827295c -5.80  -5.32c
Writing to output.gpw (mode='')

iter: 105 11:25:59  -271.827295c -5.94  -5.44c
iter: 106 11:26:06  -271.827296c -5.90  -5.50c
iter: 107 11:26:14  -271.827296c -5.94  -5.60c
iter: 108 11:26:21  -271.827296c -6.09  -5.66c
iter: 109 11:26:29  -271.827296c -6.08  -5.67c
Writing to output.gpw (mode='')

iter: 110 11:26:36  -271.827296c -6.29  -5.75c
iter: 111 11:26:44  -271.827296c -6.20  -5.79c
iter: 112 11:26:51  -271.827297c -6.28  -5.89c
iter: 113 11:26:59  -271.827297c -6.35  -5.93c
iter: 114 11:27:06  -271.827297c -6.44  -5.98c
Writing to output.gpw (mode='')

iter: 115 11:27:14  -271.827297c -6.37  -5.99c
iter: 116 11:27:21  -271.827297c -6.53  -6.00c
iter: 117 11:27:29  -271.827297c -6.56  -5.86c
iter: 118 11:27:36  -271.827297c -6.64  -5.98c
iter: 119 11:27:44  -271.827297c -6.62  -5.92c
Writing to output.gpw (mode='')

iter: 120 11:27:52  -271.827297c -6.60  -5.89c
iter: 121 11:27:59  -271.827297c -6.70  -5.85c
iter: 122 11:28:06  -271.827297c -6.75  -5.76c
iter: 123 11:28:14  -271.827297c -6.82  -5.70c
iter: 124 11:28:22  -271.827297c -6.92  -5.76c
Writing to output.gpw (mode='')

iter: 125 11:28:29  -271.827297c -6.79  -5.70c
iter: 126 11:28:37  -271.827297c -6.76  -5.74c
iter: 127 11:28:44  -271.827297c -6.91  -5.79c
iter: 128 11:28:52  -271.827297c -6.92  -5.77c
iter: 129 11:28:59  -271.827297c -7.14  -5.78c
Writing to output.gpw (mode='')

iter: 130 11:29:06  -271.827297c -7.22  -5.66c
iter: 131 11:29:19  -271.827297c -7.17  -5.70c
iter: 132 11:29:27  -271.827298c -7.12  -5.61c
iter: 133 11:29:35  -271.827298c -7.33  -5.86c
iter: 134 11:29:42  -271.827298c -7.12  -5.83c
Writing to output.gpw (mode='')

iter: 135 11:29:50  -271.827298c -7.37  -6.07c
iter: 136 11:29:57  -271.827298c -7.35  -6.01c
iter: 137 11:30:05  -271.827298c -7.40  -5.88c
iter: 138 11:30:12  -271.827298c -7.27  -5.94c
iter: 139 11:30:20  -271.827298c -7.43c -6.25c

Converged after 139 iterations.

Dipole moment: (-7.994936, -15.545952, 0.448010) |e|*Ang

Energy contributions relative to reference atoms: (reference = -13382.245603)

Kinetic:       +186.413647
Potential:     -159.097361
External:        +0.000000
XC:            -299.745846
Entropy (-ST):   -0.157481
Local:           +0.681002
--------------------------
Free energy:   -271.906038
Extrapolated:  -271.827298

Dipole-layer corrected work functions: 3.373949, 2.512721 eV

Showing only first 2 kpts
 Kpt  Band  Eigenvalues  Occupancy
  0    28     -3.18320    1.98363
  0    29     -3.09904    1.91494
  0    30     -2.82956    0.18635
  0    31     -2.71146    0.01918

  1    28     -2.99335    1.46224
  1    29     -2.96658    1.22836
  1    30     -2.88977    0.51030
  1    31     -2.83949    0.22274


Fermi level: -2.94334

Gap: 0.020 eV
Transition (v -> c):
  (s=0, k=2, n=29, [0.12, 0.12, 0.00]) -> (s=0, k=4, n=30, [0.38, -0.38, 0.00])
Writing to output.gpw (mode='')


Forces in eV/Ang:
  0 Li    0.01359    0.00354   -0.27620
  1 Li   -0.00882   -0.00391   -0.26970
  2 Li   -0.00502    0.01170   -0.27561
  3 Li   -0.00278   -0.00097   -0.26724
  4 Li   -0.00137   -0.00045   -0.28043
  5 Li    0.00114   -0.00084   -0.26468
  6 Li    0.01572   -0.00220   -0.27887
  7 Li   -0.00821    0.00494   -0.27029
  8 Li   -0.00496   -0.01088   -0.27519
  9 Li   -0.00674    0.00031    0.33595
 10 Li    0.00295    0.00035    0.24035
 11 Li   -0.00010   -0.00059    0.28484
 12 Li   -0.00068    0.01661    0.26460
 13 Li    0.00599   -0.01210    0.26188
 14 Li   -0.00091    0.00755    0.26567
 15 Li    0.00125   -0.01630    0.25844
 16 Li   -0.00038    0.01106    0.26178
 17 Li    0.00066   -0.00682    0.27015
 18 Li    0.00222    0.00273   -0.00651
 19 Li    0.01047   -0.01844    0.05938
 20 Li   -0.00666    0.03570   -0.07495
 21 Li    0.00435   -0.00051    0.05828
 22 Li   -0.00911   -0.00490    0.00260
 23 Li    0.00352    0.00058    0.07301
 24 Li   -0.00252   -0.00468    0.00031
 25 Li    0.00634    0.02233    0.06435
 26 Li    0.00126   -0.03626   -0.05426
 27 Li    0.06518    0.07879   -1.77873
 28 Li    0.04417    0.00547   -0.06013
 29 Li    0.36448   -0.00069    0.28886
 30 Li    0.01564    0.10903   -0.04700
 31 Li    0.00463    0.00407   -0.02310
 32 Li   -0.02885    0.04943   -0.01740
 33 Li    0.02311   -0.19494   -0.19653
 34 Li    0.01613   -0.00803   -0.03796
 35 Li   -0.03313   -0.05513   -0.03226
 36 O    13.39202   -1.94289   18.77181
 37 C     0.98088   -4.58018    3.53432
 38 H    -0.00024    0.12456    0.55073
 39 H     0.13231    0.29103    0.21204
 40 H     0.08838    0.05076    0.04382
 41 H    -2.07715    0.83644    0.39040
 42 N     9.35686    3.61552   -7.02399
 43 N   -22.35870    1.63485  -14.68638

System changes: positions 

Initializing position-dependent things.

Density initialized from wave functions
       .-----------------------.  
      /|                       |  
     / |                       |  
    /  |                       |  
   /   |                       |  
  /    |                       |  
 *     |                       |  
 |     |                       |  
 |     |                       |  
 |     |                       |  
 |     O                     H |  
 |     |                      C|  
 |     |H                   H  |  
 |     |                       |  
 |     |               Li      |  
 |     |                       |  
 |   Li|     Li      LiH       |  
 |     |  Li      Li      Li   |  
 N Li  |   Li      Li N        |  
 |     |Li      Li      Li     |  
 Li    | Li                    |  
 |   LLi     LLi     LLi       |  
 |     |  Li      Li      Li   |  
 | Li  |   Li      Li          |  
 |     |Li      Li      Li     |  
 Li    | Li      Li            |  
 |    Li      Li      Li       |  
 |     |                       |  
 |     |                       |  
 |     |                       |  
 |     |                       |  
 |     |                       |  
 |     |                       |  
 |     .-----------------------.  
 |    /                       /   
 |   /                       /    
 |  /                       /     
 | /                       /      
 |/                       /       
 *-----------------------*        

Positions:
   0 Li     1.617037    1.617037   10.000000    ( 0.0000,  0.0000,  0.0000)
   1 Li     4.851111    1.617037   10.000000    ( 0.0000,  0.0000,  0.0000)
   2 Li     8.085185    1.617037   10.000000    ( 0.0000,  0.0000,  0.0000)
   3 Li     1.617037    4.851111   10.000000    ( 0.0000,  0.0000,  0.0000)
   4 Li     4.851111    4.851111   10.000000    ( 0.0000,  0.0000,  0.0000)
   5 Li     8.085185    4.851111   10.000000    ( 0.0000,  0.0000,  0.0000)
   6 Li     1.617037    8.085185   10.000000    ( 0.0000,  0.0000,  0.0000)
   7 Li     4.851111    8.085185   10.000000    ( 0.0000,  0.0000,  0.0000)
   8 Li     8.085185    8.085185   10.000000    ( 0.0000,  0.0000,  0.0000)
   9 Li     0.000000    0.000000   11.617037    ( 0.0000,  0.0000,  0.0000)
  10 Li     3.234074    0.000000   11.617037    ( 0.0000,  0.0000,  0.0000)
  11 Li     6.468148    0.000000   11.617037    ( 0.0000,  0.0000,  0.0000)
  12 Li     0.000000    3.234074   11.617037    ( 0.0000,  0.0000,  0.0000)
  13 Li     3.234074    3.234074   11.617037    ( 0.0000,  0.0000,  0.0000)
  14 Li     6.468148    3.234074   11.617037    ( 0.0000,  0.0000,  0.0000)
  15 Li     0.000000    6.468148   11.617037    ( 0.0000,  0.0000,  0.0000)
  16 Li     3.234074    6.468148   11.617037    ( 0.0000,  0.0000,  0.0000)
  17 Li     6.468148    6.468148   11.617037    ( 0.0000,  0.0000,  0.0000)
  18 Li     1.617041    1.617042   13.469718    ( 0.0000,  0.0000,  0.0000)
  19 Li     4.851127    1.617011   13.469818    ( 0.0000,  0.0000,  0.0000)
  20 Li     8.085174    1.617091   13.469616    ( 0.0000,  0.0000,  0.0000)
  21 Li     1.617045    4.851110   13.469816    ( 0.0000,  0.0000,  0.0000)
  22 Li     4.851097    4.851104   13.469734    ( 0.0000,  0.0000,  0.0000)
  23 Li     8.085189    4.851112   13.469838    ( 0.0000,  0.0000,  0.0000)
  24 Li     1.617034    8.085177   13.469728    ( 0.0000,  0.0000,  0.0000)
  25 Li     4.851120    8.085217   13.469825    ( 0.0000,  0.0000,  0.0000)
  26 Li     8.085186    8.085130   13.469647    ( 0.0000,  0.0000,  0.0000)
  27 Li     0.000097    0.000118   15.443285    ( 0.0000,  0.0000,  0.0000)
  28 Li     3.234140    0.000008   15.445849    ( 0.0000,  0.0000,  0.0000)
  29 Li     6.468692   -0.000001   15.446370    ( 0.0000,  0.0000,  0.0000)
  30 Li     0.000023    3.234236   15.445869    ( 0.0000,  0.0000,  0.0000)
  31 Li     3.234083    3.234083   15.445904    ( 0.0000,  0.0000,  0.0000)
  32 Li     6.468102    3.234150   15.445912    ( 0.0000,  0.0000,  0.0000)
  33 Li     0.000034    6.467857   15.445645    ( 0.0000,  0.0000,  0.0000)
  34 Li     3.234101    6.468134   15.445881    ( 0.0000,  0.0000,  0.0000)
  35 Li     6.468096    6.468063   15.445890    ( 0.0000,  0.0000,  0.0000)
  36 O      9.722210    9.699322   18.473956    ( 0.0000,  0.0000,  0.0000)
  37 C      9.688612    8.265424   18.456714    ( 0.0000,  0.0000,  0.0000)
  38 H      8.937194    7.868174   17.765111    ( 0.0000,  0.0000,  0.0000)
  39 H      9.508937    7.869182   19.453544    ( 0.0000,  0.0000,  0.0000)
  40 H     10.672995    7.952892   18.118576    ( 0.0000,  0.0000,  0.0000)
  41 H      8.835993   10.015126   18.737527    ( 0.0000,  0.0000,  0.0000)
  42 N      9.715965    9.707396   17.185456    ( 0.0000,  0.0000,  0.0000)
  43 N      8.572008    9.704440   17.174020    ( 0.0000,  0.0000,  0.0000)

Unit cell:
           periodic     x           y           z      points  spacing
  1. axis:    yes    9.702222    0.000000    0.000000    60     0.1617
  2. axis:    yes    0.000000    9.702222    0.000000    60     0.1617
  3. axis:    no     0.000000    0.000000   26.601111   168     0.1583

  Lengths:   9.702222   9.702222  26.601111
  Angles:   90.000000  90.000000  90.000000

Effective grid spacing dv^(1/3) = 0.1606

     iter     time        total  log10-change:
                         energy  eigst   dens
iter:   1 11:30:29  -275.030927  -0.20
iter:   2 11:30:36  -274.115986  -0.09  -1.20
iter:   3 11:30:44  -273.841706  -0.82  -1.24
iter:   4 11:30:51  -273.793792  -0.53  -1.50
Writing to output.gpw (mode='')

iter:   5 11:30:59  -273.704625  -1.24  -1.70
iter:   6 11:31:06  -274.119557  -0.50  -1.92
iter:   7 11:31:14  -273.698375  -1.06  -1.36
iter:   8 11:31:21  -273.674830  -1.98  -2.01
iter:   9 11:31:29  -273.671497c -2.08  -2.22
Writing to output.gpw (mode='')

iter:  10 11:31:36  -273.667733c -1.98  -2.19
iter:  11 11:31:44  -273.670273c -2.05  -2.51
iter:  12 11:31:51  -273.668669c -2.85  -2.56
iter:  13 11:31:59  -273.668708c -2.57  -2.41
iter:  14 11:32:06  -273.668473c -3.15  -2.86
Writing to output.gpw (mode='')

iter:  15 11:32:14  -273.668692c -3.07  -2.99
iter:  16 11:32:22  -273.668368c -3.33  -2.99
iter:  17 11:32:29  -273.668668c -3.38  -3.06
iter:  18 11:32:36  -273.668556c -3.82  -3.20
iter:  19 11:32:44  -273.668463c -3.72  -3.26
Writing to output.gpw (mode='')

iter:  20 11:32:52  -273.668580c -3.78  -3.37
iter:  21 11:32:59  -273.668567c -4.32  -3.64
iter:  22 11:33:06  -273.668590c -4.13  -3.69
iter:  23 11:33:14  -273.668605c -4.35  -3.78
iter:  24 11:33:21  -273.668605c -4.67  -3.88
Writing to output.gpw (mode='')

iter:  25 11:33:29  -273.668589c -4.49  -3.90
iter:  26 11:33:36  -273.668604c -4.80  -3.95
iter:  27 11:33:44  -273.668627c -4.91  -4.00
iter:  28 11:33:52  -273.668604c -4.71  -4.01c
iter:  29 11:33:59  -273.668606c -4.92  -4.14c
Writing to output.gpw (mode='')

iter:  30 11:34:06  -273.668601c -5.26  -4.27c
iter:  31 11:34:21  -273.668599c -5.22  -4.32c
iter:  32 11:34:28  -273.668604c -5.26  -4.50c
iter:  33 11:34:36  -273.668605c -5.44  -4.50c
iter:  34 11:34:43  -273.668604c -5.46  -4.58c
Writing to output.gpw (mode='')

iter:  35 11:34:51  -273.668605c -5.53  -4.57c
iter:  36 11:34:58  -273.668601c -5.54  -4.51c
iter:  37 11:35:06  -273.668607c -5.54  -4.61c
iter:  38 11:35:13  -273.668604c -5.66  -4.70c
iter:  39 11:35:21  -273.668602c -5.71  -4.76c
Writing to output.gpw (mode='')

iter:  40 11:35:28  -273.668599c -5.72  -4.78c
iter:  41 11:35:36  -273.668599c -6.02  -4.92c
iter:  42 11:35:43  -273.668601c -5.86  -4.96c
iter:  43 11:35:51  -273.668600c -6.00  -5.09c
iter:  44 11:35:58  -273.668599c -6.07  -5.17c
Writing to output.gpw (mode='')

iter:  45 11:36:06  -273.668597c -6.35  -5.23c
iter:  46 11:36:13  -273.668599c -6.41  -5.43c
iter:  47 11:36:21  -273.668599c -6.59  -5.51c
iter:  48 11:36:28  -273.668598c -6.58  -5.51c
iter:  49 11:36:36  -273.668598c -6.48  -5.63c
Writing to output.gpw (mode='')

iter:  50 11:36:44  -273.668598c -6.61  -5.70c
iter:  51 11:36:51  -273.668598c -6.66  -5.73c
iter:  52 11:37:00  -273.668598c -6.72  -5.77c
iter:  53 11:37:08  -273.668598c -6.79  -5.86c
iter:  54 11:37:15  -273.668597c -6.86  -5.95c
Writing to output.gpw (mode='')

iter:  55 11:37:23  -273.668597c -6.97  -5.97c
iter:  56 11:37:30  -273.668597c -6.89  -6.00c
iter:  57 11:37:38  -273.668597c -7.05  -6.16c
iter:  58 11:37:45  -273.668597c -7.13  -6.18c
iter:  59 11:37:53  -273.668597c -7.16  -6.17c
Writing to output.gpw (mode='')

iter:  60 11:38:01  -273.668597c -7.26  -6.25c
iter:  61 11:38:08  -273.668597c -7.31  -6.20c
iter:  62 11:38:15  -273.668597c -7.41c -6.10c

Converged after 62 iterations.

Dipole moment: (-11.252708, -16.115774, 0.423073) |e|*Ang

Energy contributions relative to reference atoms: (reference = -13382.245603)

Kinetic:       +173.583163
Potential:     -150.107305
External:        +0.000000
XC:            -297.748716
Entropy (-ST):   -0.159119
Local:           +0.683821
--------------------------
Free energy:   -273.748157
Extrapolated:  -273.668597

Dipole-layer corrected work functions: 3.377243, 2.563951 eV

Showing only first 2 kpts
 Kpt  Band  Eigenvalues  Occupancy
  0    28     -3.20767    1.98270
  0    29     -3.12126    1.90633
  0    30     -2.87206    0.24463
  0    31     -2.73760    0.01876

  1    28     -3.02818    1.51963
  1    29     -2.99059    1.19733
  1    30     -2.90990    0.45803
  1    31     -2.86086    0.20044


Fermi level: -2.97060

Gap: 0.022 eV
Transition (v -> c):
  (s=0, k=2, n=29, [0.12, 0.12, 0.00]) -> (s=0, k=7, n=30, [0.38, 0.38, 0.00])
Writing to output.gpw (mode='')


Forces in eV/Ang:
  0 Li    0.01472    0.00422   -0.27763
  1 Li   -0.00906   -0.00397   -0.26889
  2 Li   -0.00566    0.01213   -0.27673
  3 Li   -0.00273   -0.00072   -0.26679
  4 Li   -0.00163   -0.00011   -0.28159
  5 Li    0.00131   -0.00049   -0.26397
  6 Li    0.01673   -0.00313   -0.27997
  7 Li   -0.00840    0.00484   -0.26986
  8 Li   -0.00560   -0.01168   -0.27652
  9 Li   -0.00631    0.00037    0.34173
 10 Li    0.00331    0.00047    0.23980
 11 Li   -0.00130   -0.00051    0.28592
 12 Li   -0.00093    0.01592    0.26585
 13 Li    0.00625   -0.01093    0.26089
 14 Li   -0.00083    0.00797    0.26619
 15 Li    0.00088   -0.01559    0.25860
 16 Li    0.00024    0.00964    0.26051
 17 Li    0.00049   -0.00727    0.26977
 18 Li    0.00551    0.00452   -0.01666
 19 Li    0.00970   -0.01929    0.06027
 20 Li   -0.00937    0.03712   -0.08478
 21 Li    0.00121   -0.00037    0.06181
 22 Li   -0.00795   -0.00524    0.00258
 23 Li    0.00485    0.00038    0.07521
 24 Li    0.00025   -0.00654   -0.00860
 25 Li    0.00532    0.02326    0.06537
 26 Li   -0.00087   -0.03772   -0.06379
 27 Li    0.05481    0.07436   -1.78626
 28 Li    0.04439    0.00564   -0.05874
 29 Li    0.39640   -0.00089    0.32730
 30 Li    0.01388    0.09870   -0.03684
 31 Li    0.00788    0.00775   -0.02519
 32 Li   -0.03111    0.04894   -0.01659
 33 Li    0.02108   -0.18473   -0.18337
 34 Li    0.01914   -0.01168   -0.04102
 35 Li   -0.03456   -0.05447   -0.03048
 36 O    10.47228   -1.69234   14.48609
 37 C     0.90141   -4.09753    3.06682
 38 H     0.02686    0.16970    0.59439
 39 H     0.09676    0.12557    0.39786
 40 H     0.12383   -0.03528    0.08429
 41 H    -1.58422    0.58178    0.11969
 42 N     3.95097    3.41884   -5.30084
 43 N   -14.45236    1.56731  -11.67128

System changes: positions 

Initializing position-dependent things.

Density initialized from wave functions
       .-----------------------.  
      /|                       |  
     / |                       |  
    /  |                       |  
   /   |                       |  
  /    |                       |  
 *     |                       |  
 |     |                       |  
 |     |                       |  
 |     |                       |  
 |     O                     H |  
 |     |                      C|  
 |     |H                   H  |  
 |     |                       |  
 |     |               Li      |  
 |     |                       |  
 |   Li|     Li      LiH       |  
 |     |  Li      Li      Li   |  
 | Li  |   Li      Li N  N     |  
 |     |Li      Li      Li     |  
 Li    | Li                    |  
 |   LLi     LLi     LLi       |  
 |     |  Li      Li      Li   |  
 | Li  |   Li      Li          |  
 |     |Li      Li      Li     |  
 Li    | Li      Li            |  
 |    Li      Li      Li       |  
 |     |                       |  
 |     |                       |  
 |     |                       |  
 |     |                       |  
 |     |                       |  
 |     |                       |  
 |     .-----------------------.  
 |    /                       /   
 |   /                       /    
 |  /                       /     
 | /                       /      
 |/                       /       
 *-----------------------*        

Positions:
   0 Li     1.617037    1.617037   10.000000    ( 0.0000,  0.0000,  0.0000)
   1 Li     4.851111    1.617037   10.000000    ( 0.0000,  0.0000,  0.0000)
   2 Li     8.085185    1.617037   10.000000    ( 0.0000,  0.0000,  0.0000)
   3 Li     1.617037    4.851111   10.000000    ( 0.0000,  0.0000,  0.0000)
   4 Li     4.851111    4.851111   10.000000    ( 0.0000,  0.0000,  0.0000)
   5 Li     8.085185    4.851111   10.000000    ( 0.0000,  0.0000,  0.0000)
   6 Li     1.617037    8.085185   10.000000    ( 0.0000,  0.0000,  0.0000)
   7 Li     4.851111    8.085185   10.000000    ( 0.0000,  0.0000,  0.0000)
   8 Li     8.085185    8.085185   10.000000    ( 0.0000,  0.0000,  0.0000)
   9 Li     0.000000    0.000000   11.617037    ( 0.0000,  0.0000,  0.0000)
  10 Li     3.234074    0.000000   11.617037    ( 0.0000,  0.0000,  0.0000)
  11 Li     6.468148    0.000000   11.617037    ( 0.0000,  0.0000,  0.0000)
  12 Li     0.000000    3.234074   11.617037    ( 0.0000,  0.0000,  0.0000)
  13 Li     3.234074    3.234074   11.617037    ( 0.0000,  0.0000,  0.0000)
  14 Li     6.468148    3.234074   11.617037    ( 0.0000,  0.0000,  0.0000)
  15 Li     0.000000    6.468148   11.617037    ( 0.0000,  0.0000,  0.0000)
  16 Li     3.234074    6.468148   11.617037    ( 0.0000,  0.0000,  0.0000)
  17 Li     6.468148    6.468148   11.617037    ( 0.0000,  0.0000,  0.0000)
  18 Li     1.617083    1.617071   13.469591    ( 0.0000,  0.0000,  0.0000)
  19 Li     4.851160    1.616929   13.470063    ( 0.0000,  0.0000,  0.0000)
  20 Li     8.085120    1.617248   13.469220    ( 0.0000,  0.0000,  0.0000)
  21 Li     1.617031    4.851110   13.470083    ( 0.0000,  0.0000,  0.0000)
  22 Li     4.851073    4.851081   13.469744    ( 0.0000,  0.0000,  0.0000)
  23 Li     8.085216    4.851112   13.470151    ( 0.0000,  0.0000,  0.0000)
  24 Li     1.617052    8.085140   13.469640    ( 0.0000,  0.0000,  0.0000)
  25 Li     4.851135    8.085315   13.470091    ( 0.0000,  0.0000,  0.0000)
  26 Li     8.085169    8.084971   13.469336    ( 0.0000,  0.0000,  0.0000)
  27 Li     0.000252    0.000386   15.436140    ( 0.0000,  0.0000,  0.0000)
  28 Li     3.234317    0.000032   15.445624    ( 0.0000,  0.0000,  0.0000)
  29 Li     6.470461   -0.000006   15.447903    ( 0.0000,  0.0000,  0.0000)
  30 Li     0.000068    3.234566   15.445784    ( 0.0000,  0.0000,  0.0000)
  31 Li     3.234134    3.234136   15.445791    ( 0.0000,  0.0000,  0.0000)
  32 Li     6.467965    3.234342   15.445851    ( 0.0000,  0.0000,  0.0000)
  33 Li     0.000106    6.467185   15.444996    ( 0.0000,  0.0000,  0.0000)
  34 Li     3.234195    6.468065   15.445700    ( 0.0000,  0.0000,  0.0000)
  35 Li     6.467950    6.467851   15.445780    ( 0.0000,  0.0000,  0.0000)
  36 O      9.746149    9.694114   18.505576    ( 0.0000,  0.0000,  0.0000)
  37 C      9.691714    8.252062   18.466071    ( 0.0000,  0.0000,  0.0000)
  38 H      8.937465    7.869122   17.767737    ( 0.0000,  0.0000,  0.0000)
  39 H      9.509106    7.868679   19.456250    ( 0.0000,  0.0000,  0.0000)
  40 H     10.673702    7.952230   18.119156    ( 0.0000,  0.0000,  0.0000)
  41 H      8.832682   10.015896   18.736364    ( 0.0000,  0.0000,  0.0000)
  42 N      9.698936    9.719792   17.174823    ( 0.0000,  0.0000,  0.0000)
  43 N      8.562443    9.710260   17.145893    ( 0.0000,  0.0000,  0.0000)

Unit cell:
           periodic     x           y           z      points  spacing
  1. axis:    yes    9.702222    0.000000    0.000000    60     0.1617
  2. axis:    yes    0.000000    9.702222    0.000000    60     0.1617
  3. axis:    no     0.000000    0.000000   26.601111   168     0.1583

  Lengths:   9.702222   9.702222  26.601111
  Angles:   90.000000  90.000000  90.000000

Effective grid spacing dv^(1/3) = 0.1606

     iter     time        total  log10-change:
                         energy  eigst   dens
iter:   1 11:38:24  -274.901299  -0.61
iter:   2 11:38:32  -274.893491  -1.06  -1.93
iter:   3 11:38:39  -274.889410c -1.47  -1.93
iter:   4 11:38:47  -274.866623c -1.38  -2.06
Writing to output.gpw (mode='')

iter:   5 11:38:54  -274.873710c -1.89  -2.26
iter:   6 11:39:02  -274.868695c -2.00  -2.22
iter:   7 11:39:09  -274.861543c -1.74  -2.30
iter:   8 11:39:22  -274.861526c -2.23  -2.53
iter:   9 11:39:30  -274.862079c -2.38  -2.52
Writing to output.gpw (mode='')

iter:  10 11:39:37  -274.861405c -3.00  -2.68
iter:  11 11:39:45  -274.861790c -2.91  -2.80
iter:  12 11:39:52  -274.861669c -3.00  -2.97
iter:  13 11:40:00  -274.861593c -3.76  -2.96
iter:  14 11:40:07  -274.861536c -3.91  -3.12
Writing to output.gpw (mode='')

iter:  15 11:40:15  -274.861650c -3.82  -3.21
iter:  16 11:40:22  -274.861578c -4.20  -3.25
iter:  17 11:40:30  -274.861508c -3.98  -3.36
iter:  18 11:40:37  -274.861524c -4.54  -3.53
iter:  19 11:40:45  -274.861583c -4.67  -3.55
Writing to output.gpw (mode='')

iter:  20 11:40:52  -274.861525c -4.60  -3.85
iter:  21 11:41:00  -274.861549c -5.12  -3.78
iter:  22 11:41:07  -274.861529c -5.04  -3.92
iter:  23 11:41:15  -274.861535c -5.43  -4.00c
iter:  24 11:41:22  -274.861544c -5.24  -4.03c
Writing to output.gpw (mode='')

iter:  25 11:41:30  -274.861551c -4.92  -4.18c
iter:  26 11:41:37  -274.861548c -5.76  -3.90
iter:  27 11:41:45  -274.861545c -5.55  -4.10c
iter:  28 11:41:52  -274.861544c -5.78  -4.31c
iter:  29 11:42:00  -274.861541c -5.72  -4.44c
Writing to output.gpw (mode='')

iter:  30 11:42:07  -274.861547c -6.02  -4.62c
iter:  31 11:42:15  -274.861547c -6.21  -4.52c
iter:  32 11:42:23  -274.861547c -6.51  -4.56c
iter:  33 11:42:30  -274.861546c -6.43  -4.62c
iter:  34 11:42:37  -274.861546c -6.54  -4.87c
Writing to output.gpw (mode='')

iter:  35 11:42:45  -274.861545c -6.52  -4.86c
iter:  36 11:42:53  -274.861544c -6.53  -5.09c
iter:  37 11:43:00  -274.861545c -6.97  -4.95c
iter:  38 11:43:08  -274.861545c -6.98  -5.10c
iter:  39 11:43:15  -274.861545c -6.97  -5.15c
Writing to output.gpw (mode='')

iter:  40 11:43:23  -274.861545c -7.06  -5.21c
iter:  41 11:43:30  -274.861545c -7.06  -5.30c
iter:  42 11:43:38  -274.861545c -7.47c -5.43c

Converged after 42 iterations.

Dipole moment: (-11.653039, -17.383153, 0.437536) |e|*Ang

Energy contributions relative to reference atoms: (reference = -13382.245603)

Kinetic:       +169.243782
Potential:     -147.782003
External:        +0.000000
XC:            -296.932513
Entropy (-ST):   -0.156822
Local:           +0.687600
--------------------------
Free energy:   -274.939956
Extrapolated:  -274.861545

Dipole-layer corrected work functions: 3.376667, 2.535572 eV

Showing only first 2 kpts
 Kpt  Band  Eigenvalues  Occupancy
  0    28     -3.19810    1.98431
  0    29     -3.10847    1.90931
  0    30     -2.84682    0.20203
  0    31     -2.72447    0.01926

  1    28     -3.01393    1.52127
  1    29     -2.97707    1.20648
  1    30     -2.89734    0.47169
  1    31     -2.84910    0.21046


Fermi level: -2.95612

Gap: 0.025 eV
Transition (v -> c):
  (s=0, k=2, n=29, [0.12, 0.12, 0.00]) -> (s=0, k=7, n=30, [0.38, 0.38, 0.00])
Writing to output.gpw (mode='')


Forces in eV/Ang:
  0 Li    0.01499    0.00442   -0.27744
  1 Li   -0.00882   -0.00407   -0.26775
  2 Li   -0.00582    0.01241   -0.27647
  3 Li   -0.00331   -0.00036   -0.26636
  4 Li   -0.00153   -0.00005   -0.28205
  5 Li    0.00170    0.00027   -0.26354
  6 Li    0.01607   -0.00363   -0.27951
  7 Li   -0.00789    0.00497   -0.26884
  8 Li   -0.00551   -0.01272   -0.27647
  9 Li   -0.00671    0.00045    0.34389
 10 Li    0.00385    0.00059    0.23981
 11 Li   -0.00165   -0.00039    0.28521
 12 Li   -0.00029    0.01675    0.26474
 13 Li    0.00644   -0.01156    0.26070
 14 Li   -0.00183    0.00874    0.26550
 15 Li    0.00142   -0.01654    0.25671
 16 Li    0.00090    0.00985    0.26093
 17 Li   -0.00049   -0.00811    0.26791
 18 Li    0.00564    0.00621   -0.01860
 19 Li    0.01109   -0.02001    0.06374
 20 Li   -0.01121    0.04077   -0.08962
 21 Li    0.00168   -0.00106    0.06165
 22 Li   -0.00868   -0.00470    0.00033
 23 Li    0.00517   -0.00005    0.07438
 24 Li   -0.00013   -0.00721   -0.00771
 25 Li    0.00731    0.02339    0.06741
 26 Li   -0.00308   -0.04189   -0.06696
 27 Li    0.11491    0.05154   -1.87538
 28 Li    0.04848    0.00450   -0.05989
 29 Li    0.36323   -0.00200    0.30334
 30 Li    0.01508    0.10442   -0.04293
 31 Li    0.00865    0.00907   -0.02511
 32 Li   -0.03328    0.04985   -0.01992
 33 Li    0.01948   -0.18303   -0.18284
 34 Li    0.01836   -0.01172   -0.04083
 35 Li   -0.03223   -0.05272   -0.03086
 36 O     7.53227   -1.30920   11.73643
 37 C     0.84295   -3.38411    2.51112
 38 H     0.05073    0.14369    0.63680
 39 H     0.07394   -0.08108    0.61205
 40 H     0.18065   -0.15845    0.07771
 41 H    -0.82910    0.24369    0.14154
 42 N     4.28521    3.05724   -4.32851
 43 N   -12.65628    1.49123   -9.46845

System changes: positions 

Initializing position-dependent things.

Density initialized from wave functions
       .-----------------------.  
      /|                       |  
     / |                       |  
    /  |                       |  
   /   |                       |  
  /    |                       |  
 *     |                       |  
 |     |                       |  
 |     |                       |  
 |     |                       |  
 |     O                     H |  
 |     |                      C|  
 |     |H                   H  |  
 |     |                       |  
 |     |               Li      |  
 |     |                       |  
 |   Li|     Li      LiH       |  
 |     |  Li      Li      Li   |  
 | Li  |   Li      Li N  N     |  
 |     |Li      Li      Li     |  
 Li    | Li                    |  
 |   LLi     LLi     LLi       |  
 |     |  Li      Li      Li   |  
 | Li  |   Li      Li          |  
 |     |Li      Li      Li     |  
 Li    | Li      Li            |  
 |    Li      Li      Li       |  
 |     |                       |  
 |     |                       |  
 |     |                       |  
 |     |                       |  
 |     |                       |  
 |     |                       |  
 |     .-----------------------.  
 |    /                       /   
 |   /                       /    
 |  /                       /     
 | /                       /      
 |/                       /       
 *-----------------------*        

Positions:
   0 Li     1.617037    1.617037   10.000000    ( 0.0000,  0.0000,  0.0000)
   1 Li     4.851111    1.617037   10.000000    ( 0.0000,  0.0000,  0.0000)
   2 Li     8.085185    1.617037   10.000000    ( 0.0000,  0.0000,  0.0000)
   3 Li     1.617037    4.851111   10.000000    ( 0.0000,  0.0000,  0.0000)
   4 Li     4.851111    4.851111   10.000000    ( 0.0000,  0.0000,  0.0000)
   5 Li     8.085185    4.851111   10.000000    ( 0.0000,  0.0000,  0.0000)
   6 Li     1.617037    8.085185   10.000000    ( 0.0000,  0.0000,  0.0000)
   7 Li     4.851111    8.085185   10.000000    ( 0.0000,  0.0000,  0.0000)
   8 Li     8.085185    8.085185   10.000000    ( 0.0000,  0.0000,  0.0000)
   9 Li     0.000000    0.000000   11.617037    ( 0.0000,  0.0000,  0.0000)
  10 Li     3.234074    0.000000   11.617037    ( 0.0000,  0.0000,  0.0000)
  11 Li     6.468148    0.000000   11.617037    ( 0.0000,  0.0000,  0.0000)
  12 Li     0.000000    3.234074   11.617037    ( 0.0000,  0.0000,  0.0000)
  13 Li     3.234074    3.234074   11.617037    ( 0.0000,  0.0000,  0.0000)
  14 Li     6.468148    3.234074   11.617037    ( 0.0000,  0.0000,  0.0000)
  15 Li     0.000000    6.468148   11.617037    ( 0.0000,  0.0000,  0.0000)
  16 Li     3.234074    6.468148   11.617037    ( 0.0000,  0.0000,  0.0000)
  17 Li     6.468148    6.468148   11.617037    ( 0.0000,  0.0000,  0.0000)
  18 Li     1.617160    1.617154   13.469328    ( 0.0000,  0.0000,  0.0000)
  19 Li     4.851259    1.616747   13.470637    ( 0.0000,  0.0000,  0.0000)
  20 Li     8.084986    1.617635   13.468338    ( 0.0000,  0.0000,  0.0000)
  21 Li     1.617022    4.851096   13.470629    ( 0.0000,  0.0000,  0.0000)
  22 Li     4.851003    4.851043   13.469726    ( 0.0000,  0.0000,  0.0000)
  23 Li     8.085274    4.851106   13.470785    ( 0.0000,  0.0000,  0.0000)
  24 Li     1.617072    8.085057   13.469506    ( 0.0000,  0.0000,  0.0000)
  25 Li     4.851206    8.085520   13.470684    ( 0.0000,  0.0000,  0.0000)
  26 Li     8.085104    8.084569   13.468662    ( 0.0000,  0.0000,  0.0000)
  27 Li     0.001684    0.000567   15.419538    ( 0.0000,  0.0000,  0.0000)
  28 Li     3.234764    0.000060   15.445124    ( 0.0000,  0.0000,  0.0000)
  29 Li     6.473472   -0.000035   15.450556    ( 0.0000,  0.0000,  0.0000)
  30 Li     0.000190    3.235404   15.445456    ( 0.0000,  0.0000,  0.0000)
  31 Li     3.234242    3.234256   15.445563    ( 0.0000,  0.0000,  0.0000)
  32 Li     6.467647    3.234764   15.445660    ( 0.0000,  0.0000,  0.0000)
  33 Li     0.000237    6.465757   15.443585    ( 0.0000,  0.0000,  0.0000)
  34 Li     3.234368    6.467935   15.445333    ( 0.0000,  0.0000,  0.0000)
  35 Li     6.467689    6.467431   15.445533    ( 0.0000,  0.0000,  0.0000)
  36 O      9.756434    9.688898   18.540944    ( 0.0000,  0.0000,  0.0000)
  37 C      9.697537    8.234564   18.477857    ( 0.0000,  0.0000,  0.0000)
  38 H      8.938348    7.870476   17.773846    ( 0.0000,  0.0000,  0.0000)
  39 H      9.509203    7.864635   19.464989    ( 0.0000,  0.0000,  0.0000)
  40 H     10.676053    7.949007   18.120098    ( 0.0000,  0.0000,  0.0000)
  41 H      8.837061   10.012571   18.735394    ( 0.0000,  0.0000,  0.0000)
  42 N      9.690843    9.740318   17.162632    ( 0.0000,  0.0000,  0.0000)
  43 N      8.542038    9.721453   17.113361    ( 0.0000,  0.0000,  0.0000)

Unit cell:
           periodic     x           y           z      points  spacing
  1. axis:    yes    9.702222    0.000000    0.000000    60     0.1617
  2. axis:    yes    0.000000    9.702222    0.000000    60     0.1617
  3. axis:    no     0.000000    0.000000   26.601111   168     0.1583

  Lengths:   9.702222   9.702222  26.601111
  Angles:   90.000000  90.000000  90.000000

Effective grid spacing dv^(1/3) = 0.1606

     iter     time        total  log10-change:
                         energy  eigst   dens
iter:   1 11:43:46  -276.118873  -0.56
iter:   2 11:43:54  -276.130550  -0.83  -1.63
iter:   3 11:44:02  -276.047966  -1.25  -1.55
iter:   4 11:44:09  -276.041277  -1.61  -2.01
Writing to output.gpw (mode='')

iter:   5 11:44:23  -276.026123c -1.45  -2.19
iter:   6 11:44:30  -276.026222c -1.98  -2.26
iter:   7 11:44:38  -276.027586c -2.00  -2.26
iter:   8 11:44:46  -276.024814c -2.19  -2.35
iter:   9 11:44:55  -276.024267c -2.17  -2.50
Writing to output.gpw (mode='')

iter:  10 11:45:07  -276.024422c -2.89  -2.67
iter:  11 11:45:20  -276.024542c -2.77  -2.82
iter:  12 11:45:30  -276.024617c -3.08  -2.98
iter:  13 11:45:37  -276.024679c -3.16  -2.96
iter:  14 11:45:45  -276.024688c -3.33  -3.12
Writing to output.gpw (mode='')

iter:  15 11:45:52  -276.024707c -3.80  -3.27
iter:  16 11:46:00  -276.024634c -3.72  -3.30
iter:  17 11:46:07  -276.024657c -3.80  -3.48
iter:  18 11:46:15  -276.024688c -4.41  -3.69
iter:  19 11:46:22  -276.024695c -4.31  -3.79
Writing to output.gpw (mode='')

iter:  20 11:46:30  -276.024728c -4.32  -3.86
iter:  21 11:46:37  -276.024700c -4.46  -3.95
iter:  22 11:46:45  -276.024706c -4.59  -4.09c
iter:  23 11:46:52  -276.024727c -4.63  -4.12c
iter:  24 11:47:00  -276.024722c -4.85  -4.08c
Writing to output.gpw (mode='')

iter:  25 11:47:07  -276.024729c -5.21  -4.24c
iter:  26 11:47:15  -276.024720c -5.19  -4.28c
iter:  27 11:47:22  -276.024732c -5.42  -4.25c
iter:  28 11:47:30  -276.024730c -5.51  -4.34c
iter:  29 11:47:37  -276.024726c -5.47  -4.50c
Writing to output.gpw (mode='')

iter:  30 11:47:45  -276.024728c -5.60  -4.58c
iter:  31 11:47:52  -276.024731c -5.78  -4.63c
iter:  32 11:48:00  -276.024730c -6.02  -4.73c
iter:  33 11:48:07  -276.024732c -6.02  -4.78c
iter:  34 11:48:15  -276.024732c -6.15  -5.05c
Writing to output.gpw (mode='')

iter:  35 11:48:22  -276.024732c -6.33  -5.13c
iter:  36 11:48:30  -276.024732c -6.38  -5.13c
iter:  37 11:48:37  -276.024732c -6.38  -5.11c
iter:  38 11:48:45  -276.024732c -6.43  -4.99c
iter:  39 11:48:53  -276.024732c -6.51  -5.08c
Writing to output.gpw (mode='')

iter:  40 11:49:00  -276.024732c -6.61  -5.06c
iter:  41 11:49:08  -276.024732c -6.42  -5.03c
iter:  42 11:49:20  -276.024732c -6.84  -4.91c
iter:  43 11:49:28  -276.024732c -6.67  -4.88c
iter:  44 11:49:35  -276.024732c -6.99  -4.87c
Writing to output.gpw (mode='')

iter:  45 11:49:43  -276.024732c -7.17  -4.81c
iter:  46 11:49:51  -276.024732c -7.25  -4.87c
iter:  47 11:49:58  -276.024732c -7.14  -4.85c
iter:  48 11:50:06  -276.024732c -7.27  -4.85c
iter:  49 11:50:13  -276.024732c -7.12  -4.90c
Writing to output.gpw (mode='')

iter:  50 11:50:21  -276.024733c -7.48c -4.90c

Converged after 50 iterations.

Dipole moment: (-11.959758, -19.764265, 0.436915) |e|*Ang

Energy contributions relative to reference atoms: (reference = -13382.245603)

Kinetic:       +162.868107
Potential:     -143.710649
External:        +0.000000
XC:            -295.793173
Entropy (-ST):   -0.156069
Local:           +0.689017
--------------------------
Free energy:   -276.102767
Extrapolated:  -276.024733

Dipole-layer corrected work functions: 3.377432, 2.537532 eV

Showing only first 2 kpts
 Kpt  Band  Eigenvalues  Occupancy
  0    28     -3.20049    1.98462
  0    29     -3.10910    1.90802
  0    30     -2.84838    0.20275
  0    31     -2.72635    0.01946

  1    28     -3.01817    1.54190
  1    29     -2.97692    1.19197
  1    30     -2.89687    0.45858
  1    31     -2.84828    0.20238


Fermi level: -2.95748

Gap: 0.028 eV
Transition (v -> c):
  (s=0, k=2, n=29, [0.12, 0.12, 0.00]) -> (s=0, k=7, n=30, [0.38, 0.38, 0.00])

Forces in eV/Ang:
  0 Li    0.01598    0.00450   -0.27834
  1 Li   -0.00885   -0.00416   -0.26695
  2 Li   -0.00628    0.01240   -0.27710
  3 Li   -0.00375    0.00014   -0.26586
  4 Li   -0.00157   -0.00004   -0.28298
  5 Li    0.00205    0.00139   -0.26297
  6 Li    0.01558   -0.00439   -0.28010
  7 Li   -0.00760    0.00522   -0.26776
  8 Li   -0.00546   -0.01375   -0.27718
  9 Li   -0.00669    0.00046    0.34835
 10 Li    0.00431    0.00073    0.23997
 11 Li   -0.00250   -0.00008    0.28483
 12 Li    0.00006    0.01713    0.26501
 13 Li    0.00642   -0.01135    0.26050
 14 Li   -0.00241    0.00919    0.26568
 15 Li    0.00142   -0.01686    0.25600
 16 Li    0.00227    0.00926    0.26056
 17 Li   -0.00142   -0.00931    0.26643
 18 Li    0.00891    0.00995   -0.02741
 19 Li    0.01135   -0.02106    0.06604
 20 Li   -0.01435    0.04371   -0.09719
 21 Li    0.00089   -0.00195    0.06210
 22 Li   -0.00855   -0.00404   -0.00112
 23 Li    0.00559   -0.00127    0.07360
 24 Li    0.00298   -0.00972   -0.01198
 25 Li    0.00876    0.02394    0.06833
 26 Li   -0.00703   -0.04520   -0.07079
 27 Li    0.15218    0.01988   -1.82515
 28 Li    0.05041    0.00298   -0.05867
 29 Li    0.35674   -0.00204    0.30242
 30 Li    0.01559    0.10376   -0.04231
 31 Li    0.01093    0.01159   -0.02561
 32 Li   -0.03660    0.05101   -0.02173
 33 Li    0.01634   -0.17370   -0.17567
 34 Li    0.01755   -0.01234   -0.04148
 35 Li   -0.02951   -0.04939   -0.03003
 36 O     5.51727   -1.31432    9.36817
 37 C     0.63029   -2.50653    1.98264
 38 H     0.06332    0.13083    0.63893
 39 H     0.06902   -0.28285    0.73544
 40 H     0.26731   -0.22032    0.09273
 41 H    -0.61446    0.10151    0.32158
 42 N     2.71572    2.73548   -3.75706
 43 N    -9.18340    1.40372   -7.48695

System changes: positions 

Initializing position-dependent things.

Density initialized from wave functions
       .-----------------------.  
      /|                       |  
     / |                       |  
    /  |                       |  
   /   |                       |  
  /    |                       |  
 *     |                       |  
 |     |                       |  
 |     |                       |  
 |     |                       |  
 |     O                     H |  
 |    C|                       |  
 |     |H                   H  |  
 |     |                       |  
 |     |               Li      |  
 |     |                       |  
 |   Li|     Li      LiH       |  
 |     |  Li      Li      Li   |  
 | Li  |   Li      Li N  N     |  
 |     |Li      Li      Li     |  
 Li    | Li                    |  
 |   LLi     LLi     LLi       |  
 |     |  Li      Li      Li   |  
 | Li  |   Li      Li          |  
 |     |Li      Li      Li     |  
 Li    | Li      Li            |  
 |    Li      Li      Li       |  
 |     |                       |  
 |     |                       |  
 |     |                       |  
 |     |                       |  
 |     |                       |  
 |     |                       |  
 |     .-----------------------.  
 |    /                       /   
 |   /                       /    
 |  /                       /     
 | /                       /      
 |/                       /       
 *-----------------------*        

Positions:
   0 Li     1.617037    1.617037   10.000000    ( 0.0000,  0.0000,  0.0000)
   1 Li     4.851111    1.617037   10.000000    ( 0.0000,  0.0000,  0.0000)
   2 Li     8.085185    1.617037   10.000000    ( 0.0000,  0.0000,  0.0000)
   3 Li     1.617037    4.851111   10.000000    ( 0.0000,  0.0000,  0.0000)
   4 Li     4.851111    4.851111   10.000000    ( 0.0000,  0.0000,  0.0000)
   5 Li     8.085185    4.851111   10.000000    ( 0.0000,  0.0000,  0.0000)
   6 Li     1.617037    8.085185   10.000000    ( 0.0000,  0.0000,  0.0000)
   7 Li     4.851111    8.085185   10.000000    ( 0.0000,  0.0000,  0.0000)
   8 Li     8.085185    8.085185   10.000000    ( 0.0000,  0.0000,  0.0000)
   9 Li     0.000000    0.000000   11.617037    ( 0.0000,  0.0000,  0.0000)
  10 Li     3.234074    0.000000   11.617037    ( 0.0000,  0.0000,  0.0000)
  11 Li     6.468148    0.000000   11.617037    ( 0.0000,  0.0000,  0.0000)
  12 Li     0.000000    3.234074   11.617037    ( 0.0000,  0.0000,  0.0000)
  13 Li     3.234074    3.234074   11.617037    ( 0.0000,  0.0000,  0.0000)
  14 Li     6.468148    3.234074   11.617037    ( 0.0000,  0.0000,  0.0000)
  15 Li     0.000000    6.468148   11.617037    ( 0.0000,  0.0000,  0.0000)
  16 Li     3.234074    6.468148   11.617037    ( 0.0000,  0.0000,  0.0000)
  17 Li     6.468148    6.468148   11.617037    ( 0.0000,  0.0000,  0.0000)
  18 Li     1.617300    1.617311   13.468891    ( 0.0000,  0.0000,  0.0000)
  19 Li     4.851395    1.616494   13.471424    ( 0.0000,  0.0000,  0.0000)
  20 Li     8.084775    1.618181   13.467102    ( 0.0000,  0.0000,  0.0000)
  21 Li     1.617010    4.851065   13.471350    ( 0.0000,  0.0000,  0.0000)
  22 Li     4.850910    4.851004   13.469687    ( 0.0000,  0.0000,  0.0000)
  23 Li     8.085351    4.851081   13.471614    ( 0.0000,  0.0000,  0.0000)
  24 Li     1.617136    8.084917   13.469296    ( 0.0000,  0.0000,  0.0000)
  25 Li     4.851321    8.085798   13.471479    ( 0.0000,  0.0000,  0.0000)
  26 Li     8.084973    8.084000   13.467755    ( 0.0000,  0.0000,  0.0000)
  27 Li     0.004019    0.000410   15.398483    ( 0.0000,  0.0000,  0.0000)
  28 Li     3.235375    0.000078   15.444472    ( 0.0000,  0.0000,  0.0000)
  29 Li     6.477370   -0.000069   15.454000    ( 0.0000,  0.0000,  0.0000)
  30 Li     0.000365    3.236539   15.445004    ( 0.0000,  0.0000,  0.0000)
  31 Li     3.234405    3.234435   15.445260    ( 0.0000,  0.0000,  0.0000)
  32 Li     6.467186    3.235344   15.445385    ( 0.0000,  0.0000,  0.0000)
  33 Li     0.000376    6.463944   15.441751    ( 0.0000,  0.0000,  0.0000)
  34 Li     3.234575    6.467767   15.444845    ( 0.0000,  0.0000,  0.0000)
  35 Li     6.467382    6.466914   15.445210    ( 0.0000,  0.0000,  0.0000)
  36 O      9.761616    9.679408   18.579455    ( 0.0000,  0.0000,  0.0000)
  37 C      9.702532    8.220360   18.489299    ( 0.0000,  0.0000,  0.0000)
  38 H      8.939524    7.871976   17.781703    ( 0.0000,  0.0000,  0.0000)
  39 H      9.509492    7.857508   19.477042    ( 0.0000,  0.0000,  0.0000)
  40 H     10.680202    7.944535   18.121438    ( 0.0000,  0.0000,  0.0000)
  41 H      8.841484   10.008193   18.738045    ( 0.0000,  0.0000,  0.0000)
  42 N      9.678024    9.764820   17.144340    ( 0.0000,  0.0000,  0.0000)
  43 N      8.528245    9.735599   17.080067    ( 0.0000,  0.0000,  0.0000)

Unit cell:
           periodic     x           y           z      points  spacing
  1. axis:    yes    9.702222    0.000000    0.000000    60     0.1617
  2. axis:    yes    0.000000    9.702222    0.000000    60     0.1617
  3. axis:    no     0.000000    0.000000   26.601111   168     0.1583

  Lengths:   9.702222   9.702222  26.601111
  Angles:   90.000000  90.000000  90.000000

Effective grid spacing dv^(1/3) = 0.1606

     iter     time        total  log10-change:
                         energy  eigst   dens
iter:   1 11:50:30  -276.975609  -0.48
iter:   2 11:50:37  -276.984644  -1.07  -2.14
iter:   3 11:50:45  -276.983564c -1.36  -2.08
iter:   4 11:50:52  -276.973369c -1.42  -2.21
Writing to output.gpw (mode='')

iter:   5 11:51:00  -276.962181c -1.50  -2.23
iter:   6 11:51:07  -276.961023c -1.79  -2.36
iter:   7 11:51:15  -276.963578c -1.75  -2.31
iter:   8 11:51:23  -276.958962c -2.19  -2.41
iter:   9 11:51:30  -276.959949c -2.96  -2.55
Writing to output.gpw (mode='')

iter:  10 11:51:38  -276.959339c -2.14  -2.49
iter:  11 11:51:45  -276.959022c -2.65  -2.83
iter:  12 11:51:53  -276.958987c -3.07  -2.92
iter:  13 11:52:00  -276.958985c -3.23  -3.02
iter:  14 11:52:08  -276.958974c -3.21  -3.09
Writing to output.gpw (mode='')

iter:  15 11:52:15  -276.958988c -3.53  -3.09
iter:  16 11:52:23  -276.958956c -3.57  -3.20
iter:  17 11:52:30  -276.958992c -3.83  -3.35
iter:  18 11:52:38  -276.958946c -4.21  -3.54
iter:  19 11:52:45  -276.958979c -4.08  -3.65
Writing to output.gpw (mode='')

iter:  20 11:52:55  -276.958977c -4.24  -3.76
iter:  21 11:53:02  -276.958982c -4.57  -3.88
iter:  22 11:53:10  -276.958985c -4.63  -3.90
iter:  23 11:53:18  -276.958986c -4.60  -4.10c
iter:  24 11:53:25  -276.958994c -4.88  -4.06c
Writing to output.gpw (mode='')

iter:  25 11:53:33  -276.958993c -5.11  -4.25c
iter:  26 11:53:40  -276.958996c -5.13  -4.11c
iter:  27 11:53:48  -276.958997c -5.21  -4.21c
iter:  28 11:53:55  -276.958997c -5.37  -4.24c
iter:  29 11:54:03  -276.959001c -5.58  -4.25c
Writing to output.gpw (mode='')

iter:  30 11:54:17  -276.958996c -5.60  -4.43c
iter:  31 11:54:25  -276.958996c -5.49  -4.50c
iter:  32 11:54:33  -276.958997c -5.58  -4.54c
iter:  33 11:54:40  -276.958998c -5.99  -4.37c
iter:  34 11:54:48  -276.958998c -5.97  -4.60c
Writing to output.gpw (mode='')

iter:  35 11:54:55  -276.958999c -5.86  -4.72c
iter:  36 11:55:03  -276.958997c -6.03  -4.93c
iter:  37 11:55:11  -276.958998c -6.14  -4.97c
iter:  38 11:55:18  -276.958998c -6.36  -5.08c
iter:  39 11:55:26  -276.958998c -6.44  -5.10c
Writing to output.gpw (mode='')

iter:  40 11:55:33  -276.958998c -6.31  -5.28c
iter:  41 11:55:41  -276.958998c -6.65  -5.29c
iter:  42 11:55:48  -276.958998c -6.68  -5.34c
iter:  43 11:55:56  -276.958998c -6.58  -5.49c
iter:  44 11:56:03  -276.958998c -6.79  -5.59c
Writing to output.gpw (mode='')

iter:  45 11:56:11  -276.958998c -6.81  -5.70c
iter:  46 11:56:18  -276.958998c -6.99  -5.64c
iter:  47 11:56:26  -276.958998c -7.11  -5.60c
iter:  48 11:56:33  -276.958998c -7.27  -5.55c
iter:  49 11:56:41  -276.958998c -7.21  -5.54c
Writing to output.gpw (mode='')

iter:  50 11:56:48  -276.958998c -7.21  -5.53c
iter:  51 11:56:56  -276.958998c -7.23  -5.52c
iter:  52 11:57:03  -276.958998c -7.48c -5.47c

Converged after 52 iterations.

Dipole moment: (-11.253699, -21.941022, 0.431478) |e|*Ang

Energy contributions relative to reference atoms: (reference = -13382.245603)

Kinetic:       +158.766570
Potential:     -141.355115
External:        +0.000000
XC:            -294.983381
Entropy (-ST):   -0.154820
Local:           +0.690337
--------------------------
Free energy:   -277.036408
Extrapolated:  -276.958998

Dipole-layer corrected work functions: 3.377896, 2.548448 eV

Showing only first 2 kpts
 Kpt  Band  Eigenvalues  Occupancy
  0    28     -3.20838    1.98528
  0    29     -3.11502    1.90842
  0    30     -2.85087    0.19139
  0    31     -2.73307    0.01986

  1    28     -3.02426    1.54477
  1    29     -2.98130    1.17930
  1    30     -2.90178    0.45308
  1    31     -2.85459    0.20466


Fermi level: -2.96317

Gap: 0.028 eV
Transition (v -> c):
  (s=0, k=1, n=29, [0.12, -0.12, 0.00]) -> (s=0, k=4, n=30, [0.38, -0.38, 0.00])
Writing to output.gpw (mode='')


Forces in eV/Ang:
  0 Li    0.01693    0.00443   -0.27896
  1 Li   -0.00898   -0.00430   -0.26612
  2 Li   -0.00660    0.01235   -0.27752
  3 Li   -0.00438    0.00059   -0.26515
  4 Li   -0.00157   -0.00011   -0.28386
  5 Li    0.00244    0.00278   -0.26246
  6 Li    0.01472   -0.00506   -0.28050
  7 Li   -0.00715    0.00555   -0.26629
  8 Li   -0.00528   -0.01493   -0.27757
  9 Li   -0.00676    0.00048    0.35235
 10 Li    0.00484    0.00092    0.24035
 11 Li   -0.00345    0.00018    0.28393
 12 Li    0.00062    0.01774    0.26484
 13 Li    0.00635   -0.01097    0.26039
 14 Li   -0.00313    0.00979    0.26568
 15 Li    0.00153   -0.01741    0.25523
 16 Li    0.00379    0.00855    0.26014
 17 Li   -0.00250   -0.01089    0.26451
 18 Li    0.01218    0.01435   -0.03530
 19 Li    0.01222   -0.02177    0.06839
 20 Li   -0.01769    0.04636   -0.10378
 21 Li    0.00085   -0.00308    0.06157
 22 Li   -0.00872   -0.00292   -0.00254
 23 Li    0.00582   -0.00280    0.07212
 24 Li    0.00644   -0.01266   -0.01556
 25 Li    0.01092    0.02400    0.06915
 26 Li   -0.01159   -0.04799   -0.07221
 27 Li    0.20493   -0.02047   -1.82498
 28 Li    0.05311    0.00137   -0.05680
 29 Li    0.33207   -0.00220    0.28586
 30 Li    0.01699    0.10512   -0.04426
 31 Li    0.01256    0.01335   -0.02542
 32 Li   -0.04016    0.05282   -0.02440
 33 Li    0.01334   -0.16362   -0.16833
 34 Li    0.01593   -0.01192   -0.04138
 35 Li   -0.02610   -0.04524   -0.03016
 36 O     3.99157   -1.22795    7.82477
 37 C     0.47029   -1.84039    1.70049
 38 H     0.06301    0.09480    0.60717
 39 H     0.08864   -0.42128    0.67548
 40 H     0.25549   -0.23332    0.12732
 41 H    -0.35884   -0.03302    0.51956
 42 N     1.84337    2.49632   -3.56853
 43 N    -6.95547    1.26592   -5.95377

System changes: positions 

Initializing position-dependent things.

Density initialized from wave functions
       .-----------------------.  
      /|                       |  
     / |                       |  
    /  |                       |  
   /   |                       |  
  /    |                       |  
 *     |                       |  
 |     |                       |  
 |     |                       |  
 |     |                       |  
 |     O                     H |  
 |    C|                       |  
 |     |H                   H  |  
 |     |                       |  
 |     Li              Li      |  
 |     |                       |  
 |   Li|     Li      LiH       |  
 |     |  Li      Li      Li   |  
 | Li  |   Li      Li N  N     |  
 |     |Li      Li      Li     |  
 |     | Li                    |  
 |   LLi     LLi     LLi       |  
 |     |  Li      Li      Li   |  
 | Li  |   Li      Li          |  
 |     |Li      Li      Li     |  
 Li    | Li      Li            |  
 |    Li      Li      Li       |  
 |     |                       |  
 |     |                       |  
 |     |                       |  
 |     |                       |  
 |     |                       |  
 |     |                       |  
 |     .-----------------------.  
 |    /                       /   
 |   /                       /    
 |  /                       /     
 | /                       /      
 |/                       /       
 *-----------------------*        

Positions:
   0 Li     1.617037    1.617037   10.000000    ( 0.0000,  0.0000,  0.0000)
   1 Li     4.851111    1.617037   10.000000    ( 0.0000,  0.0000,  0.0000)
   2 Li     8.085185    1.617037   10.000000    ( 0.0000,  0.0000,  0.0000)
   3 Li     1.617037    4.851111   10.000000    ( 0.0000,  0.0000,  0.0000)
   4 Li     4.851111    4.851111   10.000000    ( 0.0000,  0.0000,  0.0000)
   5 Li     8.085185    4.851111   10.000000    ( 0.0000,  0.0000,  0.0000)
   6 Li     1.617037    8.085185   10.000000    ( 0.0000,  0.0000,  0.0000)
   7 Li     4.851111    8.085185   10.000000    ( 0.0000,  0.0000,  0.0000)
   8 Li     8.085185    8.085185   10.000000    ( 0.0000,  0.0000,  0.0000)
   9 Li     0.000000    0.000000   11.617037    ( 0.0000,  0.0000,  0.0000)
  10 Li     3.234074    0.000000   11.617037    ( 0.0000,  0.0000,  0.0000)
  11 Li     6.468148    0.000000   11.617037    ( 0.0000,  0.0000,  0.0000)
  12 Li     0.000000    3.234074   11.617037    ( 0.0000,  0.0000,  0.0000)
  13 Li     3.234074    3.234074   11.617037    ( 0.0000,  0.0000,  0.0000)
  14 Li     6.468148    3.234074   11.617037    ( 0.0000,  0.0000,  0.0000)
  15 Li     0.000000    6.468148   11.617037    ( 0.0000,  0.0000,  0.0000)
  16 Li     3.234074    6.468148   11.617037    ( 0.0000,  0.0000,  0.0000)
  17 Li     6.468148    6.468148   11.617037    ( 0.0000,  0.0000,  0.0000)
  18 Li     1.617486    1.617529   13.468342    ( 0.0000,  0.0000,  0.0000)
  19 Li     4.851553    1.616213   13.472304    ( 0.0000,  0.0000,  0.0000)
  20 Li     8.084512    1.618799   13.465701    ( 0.0000,  0.0000,  0.0000)
  21 Li     1.617002    4.851018   13.472124    ( 0.0000,  0.0000,  0.0000)
  22 Li     4.850805    4.850974   13.469631    ( 0.0000,  0.0000,  0.0000)
  23 Li     8.085434    4.851036   13.472498    ( 0.0000,  0.0000,  0.0000)
  24 Li     1.617244    8.084733   13.469040    ( 0.0000,  0.0000,  0.0000)
  25 Li     4.851473    8.086100   13.472350    ( 0.0000,  0.0000,  0.0000)
  26 Li     8.084781    8.083356   13.466776    ( 0.0000,  0.0000,  0.0000)
  27 Li     0.007139   -0.000214   15.375596    ( 0.0000,  0.0000,  0.0000)
  28 Li     3.236068    0.000079   15.443784    ( 0.0000,  0.0000,  0.0000)
  29 Li     6.481300   -0.000106   15.457507    ( 0.0000,  0.0000,  0.0000)
  30 Li     0.000576    3.237807   15.444475    ( 0.0000,  0.0000,  0.0000)
  31 Li     3.234594    3.234642   15.444936    ( 0.0000,  0.0000,  0.0000)
  32 Li     6.466648    3.236001   15.445055    ( 0.0000,  0.0000,  0.0000)
  33 Li     0.000500    6.462064   15.439810    ( 0.0000,  0.0000,  0.0000)
  34 Li     3.234776    6.467598   15.444321    ( 0.0000,  0.0000,  0.0000)
  35 Li     6.467087    6.466396   15.444851    ( 0.0000,  0.0000,  0.0000)
  36 O      9.761170    9.668976   18.618068    ( 0.0000,  0.0000,  0.0000)
  37 C      9.706395    8.210232   18.500810    ( 0.0000,  0.0000,  0.0000)
  38 H      8.940681    7.873100   17.789670    ( 0.0000,  0.0000,  0.0000)
  39 H      9.510205    7.848882   19.488370    ( 0.0000,  0.0000,  0.0000)
  40 H     10.684242    7.939992   18.123290    ( 0.0000,  0.0000,  0.0000)
  41 H      8.847004   10.002968   18.743881    ( 0.0000,  0.0000,  0.0000)
  42 N      9.664500    9.789923   17.120651    ( 0.0000,  0.0000,  0.0000)
  43 N      8.519098    9.749573   17.051270    ( 0.0000,  0.0000,  0.0000)

Unit cell:
           periodic     x           y           z      points  spacing
  1. axis:    yes    9.702222    0.000000    0.000000    60     0.1617
  2. axis:    yes    0.000000    9.702222    0.000000    60     0.1617
  3. axis:    no     0.000000    0.000000   26.601111   168     0.1583

  Lengths:   9.702222   9.702222  26.601111
  Angles:   90.000000  90.000000  90.000000

Effective grid spacing dv^(1/3) = 0.1606

     iter     time        total  log10-change:
                         energy  eigst   dens
iter:   1 11:57:12  -277.736789  -0.47
iter:   2 11:57:19  -277.739453  -0.96  -1.95
iter:   3 11:57:27  -277.738911c -1.28  -2.01
iter:   4 11:57:34  -277.742498c -1.44  -2.16
Writing to output.gpw (mode='')

iter:   5 11:57:42  -277.716441c -1.31  -2.16
iter:   6 11:57:49  -277.729071c -1.50  -2.10
iter:   7 11:57:57  -277.742295c -1.29  -2.21
iter:   8 11:58:05  -277.743034c -1.58  -2.22
iter:   9 11:58:12  -277.718835c -1.53  -2.21
Writing to output.gpw (mode='')

iter:  10 11:58:20  -277.715664c -1.70  -2.05
iter:  11 11:58:27  -277.713620c -1.94  -2.19
iter:  12 11:58:35  -277.714281c -1.90  -2.39
iter:  13 11:58:42  -277.712031c -2.05  -2.36
iter:  14 11:58:50  -277.711165c -2.67  -2.51
Writing to output.gpw (mode='')

iter:  15 11:58:57  -277.710735c -2.99  -2.70
iter:  16 11:59:05  -277.710895c -2.64  -2.85
iter:  17 11:59:17  -277.710917c -2.84  -2.79
iter:  18 11:59:26  -277.710801c -3.49  -3.00
iter:  19 11:59:33  -277.710832c -3.29  -3.02
Writing to output.gpw (mode='')

iter:  20 11:59:41  -277.710815c -3.79  -3.31
iter:  21 11:59:49  -277.710767c -4.03  -3.32
iter:  22 11:59:56  -277.710766c -4.00  -3.39
iter:  23 12:00:04  -277.710717c -4.16  -3.56
iter:  24 12:00:11  -277.710744c -4.18  -3.61
Writing to output.gpw (mode='')

iter:  25 12:00:19  -277.710763c -4.45  -3.64
iter:  26 12:00:26  -277.710771c -4.70  -3.68
iter:  27 12:00:34  -277.710734c -4.85  -3.78
iter:  28 12:00:41  -277.710733c -5.14  -3.84
iter:  29 12:00:49  -277.710740c -5.06  -4.04c
Writing to output.gpw (mode='')

iter:  30 12:00:56  -277.710750c -5.44  -4.21c
iter:  31 12:01:04  -277.710749c -5.53  -4.24c
iter:  32 12:01:11  -277.710751c -5.55  -4.38c
iter:  33 12:01:19  -277.710747c -5.63  -4.39c
iter:  34 12:01:27  -277.710749c -5.78  -4.43c
Writing to output.gpw (mode='')

iter:  35 12:01:34  -277.710748c -5.78  -4.61c
iter:  36 12:01:42  -277.710749c -5.95  -4.54c
iter:  37 12:01:49  -277.710749c -6.32  -4.64c
iter:  38 12:01:57  -277.710749c -6.22  -4.70c
iter:  39 12:02:04  -277.710748c -6.32  -4.98c
Writing to output.gpw (mode='')

iter:  40 12:02:12  -277.710749c -6.54  -5.24c
iter:  41 12:02:19  -277.710749c -6.33  -5.22c
iter:  42 12:02:27  -277.710749c -6.23  -5.33c
iter:  43 12:02:34  -277.710749c -6.55  -5.41c
iter:  44 12:02:42  -277.710749c -6.66  -5.41c
Writing to output.gpw (mode='')

iter:  45 12:02:49  -277.710749c -6.74  -5.47c
iter:  46 12:02:57  -277.710749c -6.92  -5.59c
iter:  47 12:03:04  -277.710749c -7.02  -5.60c
iter:  48 12:03:12  -277.710749c -6.78  -5.59c
iter:  49 12:03:19  -277.710749c -6.98  -5.51c
Writing to output.gpw (mode='')

iter:  50 12:03:27  -277.710749c -6.97  -5.47c
iter:  51 12:03:34  -277.710749c -7.10  -5.42c
iter:  52 12:03:42  -277.710749c -7.18  -5.45c
iter:  53 12:03:50  -277.710749c -7.29  -5.47c
iter:  54 12:03:57  -277.710749c -7.33  -5.39c
Writing to output.gpw (mode='')

iter:  55 12:04:05  -277.710749c -7.29  -5.51c
iter:  56 12:04:18  -277.710749c -7.57c -5.50c

Converged after 56 iterations.

Dipole moment: (-9.962223, -23.513477, 0.415302) |e|*Ang

Energy contributions relative to reference atoms: (reference = -13382.245603)

Kinetic:       +156.484854
Potential:     -140.296863
External:        +0.000000
XC:            -294.511863
Entropy (-ST):   -0.153618
Local:           +0.689933
--------------------------
Free energy:   -277.787558
Extrapolated:  -277.710749

Dipole-layer corrected work functions: 3.378704, 2.580351 eV

Showing only first 2 kpts
 Kpt  Band  Eigenvalues  Occupancy
  0    28     -3.22756    1.98608
  0    29     -3.13165    1.90892
  0    30     -2.86320    0.17790
  0    31     -2.75048    0.02028

  1    28     -3.03895    1.53294
  1    29     -2.99621    1.16531
  1    30     -2.91752    0.44881
  1    31     -2.87418    0.21685


Fermi level: -2.97953

Gap: 0.024 eV
Transition (v -> c):
  (s=0, k=1, n=29, [0.12, -0.12, 0.00]) -> (s=0, k=4, n=30, [0.38, -0.38, 0.00])
Writing to output.gpw (mode='')


Forces in eV/Ang:
  0 Li    0.01783    0.00418   -0.27950
  1 Li   -0.00922   -0.00457   -0.26540
  2 Li   -0.00685    0.01242   -0.27796
  3 Li   -0.00520    0.00092   -0.26440
  4 Li   -0.00139   -0.00019   -0.28477
  5 Li    0.00274    0.00409   -0.26224
  6 Li    0.01391   -0.00546   -0.28081
  7 Li   -0.00678    0.00596   -0.26480
  8 Li   -0.00509   -0.01616   -0.27787
  9 Li   -0.00674    0.00051    0.35569
 10 Li    0.00546    0.00111    0.24091
 11 Li   -0.00474    0.00032    0.28248
 12 Li    0.00114    0.01844    0.26442
 13 Li    0.00646   -0.01014    0.26017
 14 Li   -0.00386    0.01047    0.26537
 15 Li    0.00161   -0.01810    0.25457
 16 Li    0.00525    0.00747    0.25942
 17 Li   -0.00347   -0.01251    0.26246
 18 Li    0.01541    0.01906   -0.04195
 19 Li    0.01338   -0.02193    0.07027
 20 Li   -0.02108    0.04785   -0.10874
 21 Li    0.00122   -0.00416    0.06050
 22 Li   -0.00909   -0.00157   -0.00338
 23 Li    0.00602   -0.00430    0.07038
 24 Li    0.01020   -0.01610   -0.01890
 25 Li    0.01305    0.02345    0.06956
 26 Li   -0.01617   -0.04926   -0.07184
 27 Li    0.26066   -0.06543   -1.87395
 28 Li    0.05535   -0.00003   -0.05401
 29 Li    0.29659   -0.00309    0.26061
 30 Li    0.01902    0.10651   -0.04716
 31 Li    0.01338    0.01410   -0.02492
 32 Li   -0.04355    0.05481   -0.02759
 33 Li    0.01104   -0.15283   -0.16045
 34 Li    0.01408   -0.01068   -0.04106
 35 Li   -0.02318   -0.04135   -0.03133
 36 O     3.14076   -1.22086    6.93474
 37 C     0.33251   -1.29838    1.47078
 38 H     0.07539    0.06332    0.58895
 39 H     0.10249   -0.54480    0.59495
 40 H     0.19426   -0.20722    0.17467
 41 H    -0.26190   -0.09385    0.67733
 42 N     1.30824    2.25408   -3.49297
 43 N    -5.52252    1.10901   -4.99498

System changes: positions 

Initializing position-dependent things.

Density initialized from wave functions
       .-----------------------.  
      /|                       |  
     / |                       |  
    /  |                       |  
   /   |                       |  
  /    |                       |  
 *     |                       |  
 |     |                       |  
 |     |                       |  
 |     |                       |  
 |     O                     H |  
 |    C|                       |  
 |     |H                   H  |  
 |     |                       |  
 |     Li              Li      |  
 |     |                       |  
 |   Li|     Li      LiH       |  
 |     |  Li      Li      Li   |  
 | Li  |   Li      Li N  N     |  
 |     |Li      Li      Li     |  
 |     | Li                    |  
 |   LLi     LLi     LLi       |  
 |     |  Li      Li      Li   |  
 | Li  |   Li      Li          |  
 |     |Li      Li      Li     |  
 Li    | Li      Li            |  
 |    Li      Li      Li       |  
 |     |                       |  
 |     |                       |  
 |     |                       |  
 |     |                       |  
 |     |                       |  
 |     |                       |  
 |     .-----------------------.  
 |    /                       /   
 |   /                       /    
 |  /                       /     
 | /                       /      
 |/                       /       
 *-----------------------*        

Positions:
   0 Li     1.617037    1.617037   10.000000    ( 0.0000,  0.0000,  0.0000)
   1 Li     4.851111    1.617037   10.000000    ( 0.0000,  0.0000,  0.0000)
   2 Li     8.085185    1.617037   10.000000    ( 0.0000,  0.0000,  0.0000)
   3 Li     1.617037    4.851111   10.000000    ( 0.0000,  0.0000,  0.0000)
   4 Li     4.851111    4.851111   10.000000    ( 0.0000,  0.0000,  0.0000)
   5 Li     8.085185    4.851111   10.000000    ( 0.0000,  0.0000,  0.0000)
   6 Li     1.617037    8.085185   10.000000    ( 0.0000,  0.0000,  0.0000)
   7 Li     4.851111    8.085185   10.000000    ( 0.0000,  0.0000,  0.0000)
   8 Li     8.085185    8.085185   10.000000    ( 0.0000,  0.0000,  0.0000)
   9 Li     0.000000    0.000000   11.617037    ( 0.0000,  0.0000,  0.0000)
  10 Li     3.234074    0.000000   11.617037    ( 0.0000,  0.0000,  0.0000)
  11 Li     6.468148    0.000000   11.617037    ( 0.0000,  0.0000,  0.0000)
  12 Li     0.000000    3.234074   11.617037    ( 0.0000,  0.0000,  0.0000)
  13 Li     3.234074    3.234074   11.617037    ( 0.0000,  0.0000,  0.0000)
  14 Li     6.468148    3.234074   11.617037    ( 0.0000,  0.0000,  0.0000)
  15 Li     0.000000    6.468148   11.617037    ( 0.0000,  0.0000,  0.0000)
[...]

iter:  30 04:26:12  -284.743935c -6.85  -5.05c
iter:  31 04:26:20  -284.743935c -7.01  -5.10c
iter:  32 04:26:27  -284.743936c -6.95  -5.13c
iter:  33 04:26:35  -284.743936c -7.27  -5.31c
iter:  34 04:26:42  -284.743937c -7.28  -5.38c
Writing to output.gpw (mode='')

iter:  35 04:26:50  -284.743936c -7.28  -5.48c
iter:  36 04:26:58  -284.743936c -7.49c -5.76c

Converged after 36 iterations.

Dipole moment: (13.306642, 7.107604, 0.333118) |e|*Ang

Energy contributions relative to reference atoms: (reference = -13382.245603)

Kinetic:       +129.405280
Potential:     -121.069286
External:        +0.000000
XC:            -293.729873
Entropy (-ST):   -0.162416
Local:           +0.731151
--------------------------
Free energy:   -284.825144
Extrapolated:  -284.743936

Dipole-layer corrected work functions: 3.391586, 2.751219 eV

Showing only first 2 kpts
 Kpt  Band  Eigenvalues  Occupancy
  0    28     -3.29489    1.97736
  0    29     -3.11235    1.38800
  0    30     -3.04001    0.69602
  0    31     -2.86584    0.03225

  1    28     -3.32106    1.98652
  1    29     -3.24051    1.93428
  1    30     -3.00821    0.44066
  1    31     -2.82562    0.01455


Fermi level: -3.07140

No gap
Writing to output.gpw (mode='')


Forces in eV/Ang:
  0 Li   -0.00232    0.01416   -0.29287
  1 Li    0.00330   -0.01167   -0.29958
  2 Li    0.00043    0.00231   -0.25260
  3 Li    0.00526    0.00883   -0.28816
  4 Li   -0.01425    0.01600   -0.28208
  5 Li    0.01164   -0.00161   -0.29535
  6 Li    0.01786   -0.01101   -0.28940
  7 Li   -0.00832   -0.00335   -0.28980
  8 Li   -0.00983    0.00885   -0.29812
  9 Li   -0.04378    0.03572    0.26996
 10 Li   -0.01245    0.02922    0.30156
 11 Li    0.02428    0.04631    0.34763
 12 Li   -0.04965   -0.06462    0.33245
 13 Li    0.02055   -0.03778    0.27556
 14 Li    0.05037   -0.08012    0.29707
 15 Li   -0.02179   -0.01369    0.33468
 16 Li   -0.00458   -0.02083    0.30553
 17 Li    0.02234   -0.01760    0.30604
 18 Li   -0.00296   -0.01161    0.00323
 19 Li    0.00711   -0.00199   -0.01437
 20 Li    0.01712    0.00188   -0.00490
 21 Li   -0.00901    0.02557    0.00022
 22 Li   -0.00456   -0.01932   -0.00392
 23 Li   -0.00680    0.00390   -0.00275
 24 Li    0.00925   -0.01627   -0.00828
 25 Li    0.00312    0.00029   -0.01806
 26 Li   -0.00371   -0.00659    0.00386
 27 Li   -0.01650    0.01023    0.00135
 28 Li    0.00562    0.00538   -0.00436
 29 Li    0.01370   -0.00918   -0.00968
 30 Li   -0.02066    0.01604   -0.01058
 31 Li   -0.00068    0.00393   -0.01078
 32 Li   -0.00285    0.00885   -0.01733
 33 Li    0.00891    0.00944   -0.00650
 34 Li   -0.00624    0.00339   -0.01061
 35 Li   -0.00353   -0.00451   -0.01376
 36 O    -0.01253    0.07629    0.01057
 37 C    -0.00067    0.00351   -0.01341
 38 H    -0.00645    0.01960    0.01335
 39 H     0.00253    0.00925   -0.02201
 40 H     0.00734    0.01715    0.01635
 41 H    -0.00618   -0.00702   -0.00808
 42 N     0.00581    0.03494   -0.01977
 43 N    -0.00795    0.03306    0.02279

System changes: positions 

Initializing position-dependent things.

Density initialized from wave functions
       .-----------------------.  
      /|                       |  
     / |                       |  
    /  |                       |  
   /   |                       |  
  /    |                       |  
 *     |                       |  
 |     |                       |  
 |     |                       |  
 |    H|                       |  
 |     |                       |  
 |     |                      C|  
 |     |H                  H   |  
 |     |                       |  
 |     |       Li     Li       |  
 |     |                       |  
 |   Li|     Li      LiH       |  
 |     |  Li      Li      Li   |  
 | Li  |   Li      Li  N       |  
 |     |Li      Li  N   Li     |  
 |     |                       |  
 |   LLi     LLi     LLi       |  
 |     |  Li      Li      Li   |  
 | Li  |   Li      Li          |  
 |     |Li      Li      Li     |  
 Li    | Li      Li            |  
 |    Li      Li      Li       |  
 |     |                       |  
 |     |                       |  
 |     |                       |  
 |     |                       |  
 |     |                       |  
 |     |                       |  
 |     .-----------------------.  
 |    /                       /   
 |   /                       /    
 |  /                       /     
 | /                       /      
 |/                       /       
 *-----------------------*        

Positions:
   0 Li     1.617037    1.617037   10.000000    ( 0.0000,  0.0000,  0.0000)
   1 Li     4.851111    1.617037   10.000000    ( 0.0000,  0.0000,  0.0000)
   2 Li     8.085185    1.617037   10.000000    ( 0.0000,  0.0000,  0.0000)
   3 Li     1.617037    4.851111   10.000000    ( 0.0000,  0.0000,  0.0000)
   4 Li     4.851111    4.851111   10.000000    ( 0.0000,  0.0000,  0.0000)
   5 Li     8.085185    4.851111   10.000000    ( 0.0000,  0.0000,  0.0000)
   6 Li     1.617037    8.085185   10.000000    ( 0.0000,  0.0000,  0.0000)
   7 Li     4.851111    8.085185   10.000000    ( 0.0000,  0.0000,  0.0000)
   8 Li     8.085185    8.085185   10.000000    ( 0.0000,  0.0000,  0.0000)
   9 Li     0.000000    0.000000   11.617037    ( 0.0000,  0.0000,  0.0000)
  10 Li     3.234074    0.000000   11.617037    ( 0.0000,  0.0000,  0.0000)
  11 Li     6.468148    0.000000   11.617037    ( 0.0000,  0.0000,  0.0000)
  12 Li     0.000000    3.234074   11.617037    ( 0.0000,  0.0000,  0.0000)
  13 Li     3.234074    3.234074   11.617037    ( 0.0000,  0.0000,  0.0000)
  14 Li     6.468148    3.234074   11.617037    ( 0.0000,  0.0000,  0.0000)
  15 Li     0.000000    6.468148   11.617037    ( 0.0000,  0.0000,  0.0000)
  16 Li     3.234074    6.468148   11.617037    ( 0.0000,  0.0000,  0.0000)
  17 Li     6.468148    6.468148   11.617037    ( 0.0000,  0.0000,  0.0000)
  18 Li     1.583890    1.646237   13.523375    ( 0.0000,  0.0000,  0.0000)
  19 Li     4.850347    1.589938   13.522583    ( 0.0000,  0.0000,  0.0000)
  20 Li     8.105129    1.536831   13.682097    ( 0.0000,  0.0000,  0.0000)
  21 Li     1.679172    4.810177   13.494744    ( 0.0000,  0.0000,  0.0000)
  22 Li     4.923829    4.788113   13.498161    ( 0.0000,  0.0000,  0.0000)
  23 Li     8.122415    4.771985   13.504431    ( 0.0000,  0.0000,  0.0000)
  24 Li     1.540977    8.148467   13.503953    ( 0.0000,  0.0000,  0.0000)
  25 Li     4.800706    8.046249   13.498320    ( 0.0000,  0.0000,  0.0000)
  26 Li     8.034016    8.100275   13.523117    ( 0.0000,  0.0000,  0.0000)
  27 Li    -0.280408    0.128186   15.919418    ( 0.0000,  0.0000,  0.0000)
  28 Li     3.096132   -0.039069   15.437756    ( 0.0000,  0.0000,  0.0000)
  29 Li     6.246232   -0.125783   15.515833    ( 0.0000,  0.0000,  0.0000)
  30 Li     0.112497    3.265926   15.567578    ( 0.0000,  0.0000,  0.0000)
  31 Li     3.383800    3.277855   15.471971    ( 0.0000,  0.0000,  0.0000)
  32 Li     6.701104    2.963365   15.630105    ( 0.0000,  0.0000,  0.0000)
  33 Li     0.046238    6.434402   15.320205    ( 0.0000,  0.0000,  0.0000)
  34 Li     3.250039    6.462163   15.438704    ( 0.0000,  0.0000,  0.0000)
  35 Li     6.433730    6.301812   15.438416    ( 0.0000,  0.0000,  0.0000)
  36 O      9.476416    9.405720   17.883537    ( 0.0000,  0.0000,  0.0000)
  37 C      9.606026    8.144976   18.573999    ( 0.0000,  0.0000,  0.0000)
  38 H      8.736847    7.505054   18.389028    ( 0.0000,  0.0000,  0.0000)
  39 H      9.735541    8.301195   19.648373    ( 0.0000,  0.0000,  0.0000)
  40 H     10.493404    7.660779   18.168026    ( 0.0000,  0.0000,  0.0000)
  41 H      8.722438    9.881524   18.257112    ( 0.0000,  0.0000,  0.0000)
  42 N      8.490956   11.693339   15.722872    ( 0.0000,  0.0000,  0.0000)
  43 N      7.585000   10.822355   15.694684    ( 0.0000,  0.0000,  0.0000)

Unit cell:
           periodic     x           y           z      points  spacing
  1. axis:    yes    9.702222    0.000000    0.000000    60     0.1617
  2. axis:    yes    0.000000    9.702222    0.000000    60     0.1617
  3. axis:    no     0.000000    0.000000   26.601111   168     0.1583

  Lengths:   9.702222   9.702222  26.601111
  Angles:   90.000000  90.000000  90.000000

Effective grid spacing dv^(1/3) = 0.1606

     iter     time        total  log10-change:
                         energy  eigst   dens
iter:   1 04:27:07  -284.764066  -1.53
iter:   2 04:27:15  -284.749514  -2.10  -1.91
iter:   3 04:27:22  -284.745365c -3.12  -2.16
iter:   4 04:27:30  -284.744579c -3.30  -2.47
Writing to output.gpw (mode='')

iter:   5 04:27:38  -284.744482c -2.90  -2.74
iter:   6 04:27:45  -284.744552c -2.83  -3.01
iter:   7 04:27:53  -284.744365c -3.38  -3.02
iter:   8 04:28:01  -284.744345c -3.57  -3.27
iter:   9 04:28:08  -284.744413c -3.64  -3.27
Writing to output.gpw (mode='')

iter:  10 04:28:16  -284.744336c -4.38  -3.38
iter:  11 04:28:24  -284.744292c -4.64  -3.49
iter:  12 04:28:31  -284.744380c -4.44  -3.55
iter:  13 04:28:39  -284.744332c -4.86  -3.63
iter:  14 04:28:46  -284.744317c -5.31  -3.86
Writing to output.gpw (mode='')

iter:  15 04:28:54  -284.744311c -5.12  -4.02c
iter:  16 04:29:02  -284.744313c -5.69  -4.19c
iter:  17 04:29:10  -284.744315c -5.92  -4.26c
iter:  18 04:29:22  -284.744312c -5.96  -4.30c
iter:  19 04:29:30  -284.744311c -6.12  -4.39c
Writing to output.gpw (mode='')

iter:  20 04:29:38  -284.744315c -6.37  -4.41c
iter:  21 04:29:45  -284.744319c -6.25  -4.53c
iter:  22 04:29:53  -284.744319c -6.44  -4.64c
iter:  23 04:30:01  -284.744317c -6.55  -4.74c
iter:  24 04:30:08  -284.744317c -6.81  -4.83c
Writing to output.gpw (mode='')

iter:  25 04:30:16  -284.744317c -6.96  -4.95c
iter:  26 04:30:24  -284.744317c -7.17  -4.97c
iter:  27 04:30:32  -284.744316c -7.32  -5.01c
iter:  28 04:30:39  -284.744315c -7.33  -5.17c
iter:  29 04:30:47  -284.744315c -7.49c -5.34c

Converged after 29 iterations.

Dipole moment: (13.221045, 7.220935, 0.331586) |e|*Ang

Energy contributions relative to reference atoms: (reference = -13382.245603)

Kinetic:       +129.434405
Potential:     -121.089733
External:        +0.000000
XC:            -293.738683
Entropy (-ST):   -0.162397
Local:           +0.730894
--------------------------
Free energy:   -284.825514
Extrapolated:  -284.744315

Dipole-layer corrected work functions: 3.391834, 2.754411 eV

Showing only first 2 kpts
 Kpt  Band  Eigenvalues  Occupancy
  0    28     -3.29731    1.97767
  0    29     -3.11372    1.38506
  0    30     -3.04168    0.69556
  0    31     -2.86765    0.03230

  1    28     -3.32292    1.98656
  1    29     -3.24198    1.93397
  1    30     -3.00958    0.43826
  1    31     -2.82685    0.01441


Fermi level: -3.07312

No gap
Writing to output.gpw (mode='')


Forces in eV/Ang:
  0 Li   -0.00211    0.01434   -0.29296
  1 Li    0.00343   -0.01167   -0.29948
  2 Li    0.00043    0.00230   -0.25220
  3 Li    0.00513    0.00876   -0.28814
  4 Li   -0.01439    0.01621   -0.28203
  5 Li    0.01164   -0.00171   -0.29524
  6 Li    0.01790   -0.01094   -0.28921
  7 Li   -0.00839   -0.00339   -0.28999
  8 Li   -0.00984    0.00892   -0.29824
  9 Li   -0.04325    0.03545    0.26983
 10 Li   -0.01354    0.02796    0.30076
 11 Li    0.02282    0.04547    0.34688
 12 Li   -0.04948   -0.06487    0.33029
 13 Li    0.02089   -0.03750    0.27355
 14 Li    0.04957   -0.07952    0.29548
 15 Li   -0.02052   -0.01322    0.33421
 16 Li   -0.00608   -0.02118    0.30404
 17 Li    0.02345   -0.01725    0.30562
 18 Li   -0.00368   -0.01327    0.00400
 19 Li    0.00833   -0.00153   -0.01521
 20 Li    0.02206    0.00207   -0.00178
 21 Li   -0.00978    0.02896    0.00140
 22 Li   -0.00483   -0.02191   -0.00312
 23 Li   -0.00957    0.00321   -0.00136
 24 Li    0.00945   -0.01703   -0.01089
 25 Li    0.00475    0.00292   -0.01677
 26 Li   -0.00480   -0.00832    0.00449
 27 Li   -0.02148    0.01767    0.00710
 28 Li    0.00519    0.00387   -0.00412
 29 Li    0.01894   -0.00646   -0.00900
 30 Li   -0.02682    0.01464   -0.00763
 31 Li    0.00014    0.00448   -0.00946
 32 Li   -0.00356    0.01534   -0.01844
 33 Li    0.01141    0.01034   -0.00782
 34 Li   -0.00790    0.00466   -0.00988
 35 Li   -0.00349   -0.00404   -0.01251
 36 O     0.00490    0.01016    0.02314
 37 C    -0.00958   -0.00399   -0.00640
 38 H     0.00673    0.01967    0.01863
 39 H    -0.00255    0.01822   -0.02840
 40 H     0.00857    0.01441    0.01505
 41 H    -0.01466    0.00068   -0.00495
 42 N     0.01457    0.02174   -0.02449
 43 N    -0.02138    0.01902    0.03698

Timing:                                      incl.     excl.
-------------------------------------------------------------------
Density initialized from wave functions:    14.861    14.856   0.0% |
 Symmetrize density:                         0.005     0.005   0.0% |
Forces:                                     80.436    80.436   0.1% |
Hamiltonian:                              1362.316     0.029   0.0% |
 Atomic:                                     0.045     0.045   0.0% |
  XC Correction:                             0.001     0.001   0.0% |
 Calculate atomic Hamiltonians:              0.079     0.079   0.0% |
 Communicate:                               20.921    20.921   0.0% |
 Hartree integrate/restrict:                 4.188     4.188   0.0% |
 Initialize Hamiltonian:                     0.000     0.000   0.0% |
 Poisson:                                   58.523    21.612   0.0% |
  Communicate from 1D:                       5.875     5.875   0.0% |
  Communicate from 2D:                       5.635     5.635   0.0% |
  Communicate to 1D:                         3.151     3.151   0.0% |
  Communicate to 2D:                         6.898     6.898   0.0% |
  FFT 1D:                                    7.758     7.758   0.0% |
  FFT 2D:                                    7.594     7.594   0.0% |
 XC 3D grid:                              1277.531   197.505   0.3% |
  VdW-DF integral:                        1080.026     8.156   0.0% |
   Convolution:                             89.889    89.889   0.1% |
   FFT:                                     38.181    38.181   0.1% |
   gather:                                 334.511   334.511   0.5% |
   hmm1:                                    31.723    31.723   0.1% |
   hmm2:                                    42.335    42.335   0.1% |
   iFFT:                                    39.386    39.386   0.1% |
   potential:                              492.166     7.898   0.0% |
    collect:                                60.487    60.487   0.1% |
    p1:                                    179.770   179.770   0.3% |
    p2:                                     87.991    87.991   0.1% |
    sum:                                   156.020   156.020   0.3% |
   splines:                                  3.678     3.678   0.0% |
 vbar:                                       1.001     1.001   0.0% |
LCAO initialization:                         1.045     0.183   0.0% |
 LCAO eigensolver:                           0.219     0.000   0.0% |
  Calculate projections:                     0.000     0.000   0.0% |
  DenseAtomicCorrection:                     0.000     0.000   0.0% |
  Distribute overlap matrix:                 0.150     0.150   0.0% |
  Orbital Layouts:                           0.068     0.068   0.0% |
  Potential matrix:                          0.001     0.001   0.0% |
  Sum over cells:                            0.001     0.001   0.0% |
 LCAO to grid:                               0.533     0.533   0.0% |
 Set positions (LCAO WFS):                   0.109     0.058   0.0% |
  Basic WFS set positions:                   0.001     0.001   0.0% |
  Basis functions set positions:             0.000     0.000   0.0% |
  P tci:                                     0.000     0.000   0.0% |
  ST tci:                                    0.021     0.021   0.0% |
  mktci:                                     0.029     0.029   0.0% |
Redistribute:                                0.133     0.133   0.0% |
SCF-cycle:                               60670.698  1001.098   1.6% ||
 Davidson:                               13067.337  3862.319   6.2% |-|
  Apply hamiltonian:                       833.072   833.072   1.3% ||
  Subspace diag:                          2516.719     0.952   0.0% |
   calc_h_matrix:                         1219.748   348.420   0.6% |
    Apply hamiltonian:                     871.328   871.328   1.4% ||
   diagonalize:                            147.377   147.377   0.2% |
   rotate_psi:                            1148.642  1148.642   1.8% ||
  calc. matrices:                         3993.017  1988.030   3.2% ||
   Apply hamiltonian:                     2004.987  2004.987   3.2% ||
  diagonalize:                              32.954    32.954   0.1% |
  rotate_psi:                             1829.256  1829.256   2.9% ||
 Density:                                  273.862     0.314   0.0% |
  Atomic density matrices:                  32.574    32.574   0.1% |
  Mix:                                     121.831   121.831   0.2% |
  Multipole moments:                        15.820    15.820   0.0% |
  Pseudo density:                          103.323   103.133   0.2% |
   Symmetrize density:                       0.190     0.190   0.0% |
 Hamiltonian:                            46292.556     0.960   0.0% |
  Atomic:                                    1.756     1.737   0.0% |
   XC Correction:                            0.019     0.019   0.0% |
  Calculate atomic Hamiltonians:             2.701     2.701   0.0% |
  Communicate:                             708.316   708.316   1.1% |
  Hartree integrate/restrict:              145.819   145.819   0.2% |
  Poisson:                                2019.445   751.549   1.2% |
   Communicate from 1D:                    201.997   201.997   0.3% |
   Communicate from 2D:                    193.084   193.084   0.3% |
   Communicate to 1D:                      111.207   111.207   0.2% |
   Communicate to 2D:                      236.675   236.675   0.4% |
   FFT 1D:                                 268.331   268.331   0.4% |
   FFT 2D:                                 256.602   256.602   0.4% |
  XC 3D grid:                            43377.844  6725.179  10.8% |---|
   VdW-DF integral:                      36652.664   277.709   0.4% |
    Convolution:                          3062.862  3062.862   4.9% |-|
    FFT:                                  1302.532  1302.532   2.1% ||
    gather:                              11552.107 11552.107  18.5% |------|
    hmm1:                                 1085.826  1085.826   1.7% ||
    hmm2:                                 1438.358  1438.358   2.3% ||
    iFFT:                                 1341.739  1341.739   2.2% ||
    potential:                           16591.453   251.035   0.4% |
     collect:                             2049.507  2049.507   3.3% ||
     p1:                                  6112.092  6112.092   9.8% |---|
     p2:                                  3007.093  3007.093   4.8% |-|
     sum:                                 5171.726  5171.726   8.3% |--|
    splines:                                 0.078     0.078   0.0% |
  vbar:                                     35.716    35.716   0.1% |
 Orthonormalize:                            35.845     0.031   0.0% |
  calc_s_matrix:                             4.806     4.806   0.0% |
  inverse-cholesky:                         11.049    11.049   0.0% |
  projections:                               0.005     0.005   0.0% |
  rotate_psi_s:                             19.954    19.954   0.0% |
Set symmetry:                                0.008     0.008   0.0% |
Other:                                     187.617   187.617   0.3% |
-------------------------------------------------------------------
Total:                                             62317.115 100.0%

Memory usage: 1.13 GiB
Date: Sat Mar 11 04:30:47 2023
