
  ___ ___ ___ _ _ _  
 |   |   |_  | | | | 
 | | | | | . | | | | 
 |__ |  _|___|_____|  22.8.0
 |___|_|             

User:   vazumah@r422.ib.bridges2.psc.edu
Date:   Fri Mar 10 20:14:48 2023
Arch:   x86_64
Pid:    30146
CWD:    /jet/home/vazumah/Calcs/LiMEAS/proton_donors/propanediol13_x/bridge/8.085_1.617/N2_x
Python: 3.11.0
gpaw:   /jet/home/vazumah/.conda/envs/GPAW_mpich/lib/python3.11/site-packages/gpaw
_gpaw:  /jet/home/vazumah/.conda/envs/GPAW_mpich/lib/python3.11/site-packages/
        _gpaw.cpython-311-x86_64-linux-gnu.so
ase:    /jet/home/vazumah/.conda/envs/GPAW_mpich/lib/python3.11/site-packages/ase (version 3.22.1)
numpy:  /jet/home/vazumah/.conda/envs/GPAW_mpich/lib/python3.11/site-packages/numpy (version 1.24.2)
scipy:  /jet/home/vazumah/.conda/envs/GPAW_mpich/lib/python3.11/site-packages/scipy (version 1.10.1)
libxc:  5.2.3
units:  Angstrom and eV
cores: 128
OpenMP: True
OMP_NUM_THREADS: 1

Input parameters:
  h: 0.16
  kpts: {size: [4, 4, 1]}
  occupations: {name: fermi-dirac,
                width: 0.05}
  poissonsolver: {dipolelayer: xy}
  xc: BEEF-vdW

System changes: positions, numbers, cell, pbc, initial_charges, initial_magmoms 

Initialize ...

species:
  Li:
    name: Lithium
    id: 830b4218f175192f93f959cfc0aad614
    Z: 3.0
    valence: 1
    core: 2
    charge: 0.0
    file: /jet/home/vazumah/datasets/gpaw-setups-0.9.20000/Li.PBE.gz
    compensation charges: {type: gauss,
                           rc: 0.33,
                           lmax: 2}
    cutoffs: {filter: 1.91,
              core: 2.55}
    valence states:
      #              energy  rcut
      - 2s(1.00)    -2.874   1.058
      - 2p(0.00)    -1.090   1.058
      -  s          24.337   1.058
  
    # Using partial waves for Li as LCAO basis

  O:
    name: Oxygen
    id: 32ecd46bf208036f09c70b0ec9a88b78
    Z: 8.0
    valence: 6
    core: 2
    charge: 0.0
    file: /jet/home/vazumah/datasets/gpaw-setups-0.9.20000/O.PBE.gz
    compensation charges: {type: gauss,
                           rc: 0.21,
                           lmax: 2}
    cutoffs: {filter: 1.17,
              core: 0.83}
    valence states:
      #              energy  rcut
      - 2s(2.00)   -23.961   0.688
      - 2p(4.00)    -9.029   0.598
      -  s           3.251   0.688
      -  p          18.182   0.598
      -  d           0.000   0.619
  
    # Using partial waves for O as LCAO basis

  C:
    name: Carbon
    id: 4aa54d4b901d75f77cc0ea3eec22967b
    Z: 6.0
    valence: 4
    core: 2
    charge: 0.0
    file: /jet/home/vazumah/datasets/gpaw-setups-0.9.20000/C.PBE.gz
    compensation charges: {type: gauss,
                           rc: 0.20,
                           lmax: 2}
    cutoffs: {filter: 1.14,
              core: 1.14}
    valence states:
      #              energy  rcut
      - 2s(2.00)   -13.751   0.635
      - 2p(2.00)    -5.284   0.635
      -  s          13.461   0.635
      -  p          21.927   0.635
      -  d           0.000   0.635
  
    # Using partial waves for C as LCAO basis

  H:
    name: Hydrogen
    id: d65de229564ff8ea4db303e23b6d1ecf
    Z: 1.0
    valence: 1
    core: 0
    charge: 0.0
    file: /jet/home/vazumah/datasets/gpaw-setups-0.9.20000/H.PBE.gz
    compensation charges: {type: gauss,
                           rc: 0.15,
                           lmax: 2}
    cutoffs: {filter: 0.85,
              core: 0.53}
    valence states:
      #              energy  rcut
      - 1s(1.00)    -6.494   0.476
      -  s          20.717   0.476
      -  p           0.000   0.476
  
    # Using partial waves for H as LCAO basis

  N:
    name: Nitrogen
    id: f7500608b86eaa90eef8b1d9a670dc53
    Z: 7.0
    valence: 5
    core: 2
    charge: 0.0
    file: /jet/home/vazumah/datasets/gpaw-setups-0.9.20000/N.PBE.gz
    compensation charges: {type: gauss,
                           rc: 0.18,
                           lmax: 2}
    cutoffs: {filter: 1.11,
              core: 0.96}
    valence states:
      #              energy  rcut
      - 2s(2.00)   -18.583   0.603
      - 2p(3.00)    -7.089   0.529
      -  s           8.629   0.603
      -  p          20.123   0.529
      -  d           0.000   0.577
  
    # Using partial waves for N as LCAO basis

Reference energy: -17528.314784  # eV

Spin-paired calculation

Convergence criteria:
 Maximum [total energy] change in last 3 cyles: 0.0005 eV / electron
 Maximum integral of absolute [dens]ity change: 0.0001 electrons / valence electron
 Maximum integral of absolute [eigenst]ate change: 4e-08 eV^2 / valence electron
 Maximum number of scf [iter]ations: 333
 (Square brackets indicate name in SCF output, whereas a 'c' in
 the SCF output indicates the quantity has converged.)

Symmetries present (total): 1

  ( 1  0  0)
  ( 0  1  0)
  ( 0  0  1)

16 k-points: 4 x 4 x 1 Monkhorst-Pack grid
8 k-points in the irreducible part of the Brillouin zone
       k-points in crystal coordinates                weights
   0:     0.12500000   -0.37500000    0.00000000          2/16
   1:     0.12500000   -0.12500000    0.00000000          2/16
   2:     0.12500000    0.12500000    0.00000000          2/16
   3:     0.12500000    0.37500000    0.00000000          2/16
   4:     0.37500000   -0.37500000    0.00000000          2/16
   5:     0.37500000   -0.12500000    0.00000000          2/16
   6:     0.37500000    0.12500000    0.00000000          2/16
   7:     0.37500000    0.37500000    0.00000000          2/16

Wave functions: Uniform real-space grid
  Kinetic energy operator: 6*3+1=19 point O(h^6) finite-difference Laplacian
  ScaLapack parameters: grid=1x1, blocksize=None
  Wavefunction extrapolation:
    Improved wavefunction reuse through dual PAW basis 

Occupation numbers: Fermi-Dirac:
  width: 0.0500  # eV
 

Eigensolver
   Davidson(niter=2) 

Densities:
  Coarse grid: 60*60*176 grid
  Fine grid: 120*120*352 grid
  Total Charge: 0.000000 

Density mixing:
  Method: separate
  Backend: pulay
  Linear mixing parameter: 0.05
  old densities: 5
  Damping of long wavelength oscillations: 50 

Hamiltonian:
  XC and Coulomb potentials evaluated on a 120*120*352 grid
  Using the BEEF-vdW Exchange-Correlation functional
  Interpolation: tri-quintic (5. degree polynomial)
  Poisson solver: FastPoissonSolver using
    Stencil: 6*3+1=19 point O(h^6) finite-difference Laplacian
    FFT axes: [0, 1]
    FST axes: [2]

Dipole correction along z-axis 

XC parameters: BEEF-vdW with 2 nearest neighbor stencil

Memory estimate:
  Process memory now: 132.39 MiB
  Calculator: 93.74 MiB
    Density: 23.40 MiB
      Arrays: 7.76 MiB
      Localized functions: 12.69 MiB
      Mixer: 2.95 MiB
    Hamiltonian: 6.08 MiB
      Arrays: 5.07 MiB
      XC: 0.00 MiB
      Poisson: 0.00 MiB
      vbar: 1.00 MiB
    Wavefunctions: 64.26 MiB
      Arrays psit_nG: 30.12 MiB
      Eigensolver: 33.47 MiB
      Projections: 0.02 MiB
      Projectors: 0.67 MiB

Total number of cores used: 128
Parallelization over k-points: 8
Domain decomposition: 2 x 2 x 4

Number of atoms: 51
Number of atomic orbitals: 180
Number of bands in calculation: 51
Number of valence electrons: 78
Bands to converge: occupied

... initialized

Initializing position-dependent things.

Density initialized from atomic densities
Creating initial wave functions:
  51 bands from LCAO basis set

       .-----------------------.  
      /|                       |  
     / |                       |  
    /  |                       |  
   /   |                       |  
  /    |                       |  
 *     |                       |  
 |     |                       |  
 |     |                       |  
 |     |                       |  
 |     |                       |  
 |     |                       |  
 |     |                       |  
 |     |                       |  
 |     |                       |  
 |     |                       |  
 |  H  |                       |  
 |  C H|  O           O H      |  
 |  HLiC  H  Li     HLi C      |  
 |    H|  Li      LN  N H Li   |  
 | Li  |   Li      Li          |  
 |     |Li      Li      Li     |  
 Li    | Li      Li            |  
 |   LLi     LLi     LLi       |  
 |     |  Li      Li      Li   |  
 | Li  |   Li      Li          |  
 |     |Li      Li      Li     |  
 Li    | Li      Li            |  
 |    Li      Li      Li       |  
 |     |                       |  
 |     |                       |  
 |     |                       |  
 |     |                       |  
 |     |                       |  
 |     |                       |  
 |     .-----------------------.  
 |    /                       /   
 |   /                       /    
 |  /                       /     
 | /                       /      
 |/                       /       
 *-----------------------*        

Positions:
   0 Li     1.617037    1.617037   10.000000    ( 0.0000,  0.0000,  0.0000)
   1 Li     4.851111    1.617037   10.000000    ( 0.0000,  0.0000,  0.0000)
   2 Li     8.085185    1.617037   10.000000    ( 0.0000,  0.0000,  0.0000)
   3 Li     1.617037    4.851111   10.000000    ( 0.0000,  0.0000,  0.0000)
   4 Li     4.851111    4.851111   10.000000    ( 0.0000,  0.0000,  0.0000)
   5 Li     8.085185    4.851111   10.000000    ( 0.0000,  0.0000,  0.0000)
   6 Li     1.617037    8.085185   10.000000    ( 0.0000,  0.0000,  0.0000)
   7 Li     4.851111    8.085185   10.000000    ( 0.0000,  0.0000,  0.0000)
   8 Li     8.085185    8.085185   10.000000    ( 0.0000,  0.0000,  0.0000)
   9 Li     0.000000    0.000000   11.617037    ( 0.0000,  0.0000,  0.0000)
  10 Li     3.234074    0.000000   11.617037    ( 0.0000,  0.0000,  0.0000)
  11 Li     6.468148    0.000000   11.617037    ( 0.0000,  0.0000,  0.0000)
  12 Li     0.000000    3.234074   11.617037    ( 0.0000,  0.0000,  0.0000)
  13 Li     3.234074    3.234074   11.617037    ( 0.0000,  0.0000,  0.0000)
  14 Li     6.468148    3.234074   11.617037    ( 0.0000,  0.0000,  0.0000)
  15 Li     0.000000    6.468148   11.617037    ( 0.0000,  0.0000,  0.0000)
  16 Li     3.234074    6.468148   11.617037    ( 0.0000,  0.0000,  0.0000)
  17 Li     6.468148    6.468148   11.617037    ( 0.0000,  0.0000,  0.0000)
  18 Li     1.617038    1.617038   13.469728    ( 0.0000,  0.0000,  0.0000)
  19 Li     4.851111    1.617038   13.469729    ( 0.0000,  0.0000,  0.0000)
  20 Li     8.085184    1.617038   13.469728    ( 0.0000,  0.0000,  0.0000)
  21 Li     1.617038    4.851111   13.469729    ( 0.0000,  0.0000,  0.0000)
  22 Li     4.851111    4.851111   13.469730    ( 0.0000,  0.0000,  0.0000)
  23 Li     8.085184    4.851111   13.469729    ( 0.0000,  0.0000,  0.0000)
  24 Li     1.617038    8.085184   13.469728    ( 0.0000,  0.0000,  0.0000)
  25 Li     4.851111    8.085184   13.469729    ( 0.0000,  0.0000,  0.0000)
  26 Li     8.085184    8.085184   13.469728    ( 0.0000,  0.0000,  0.0000)
  27 Li    -0.000000   -0.000000   15.445939    ( 0.0000,  0.0000,  0.0000)
  28 Li     3.234074    0.000000   15.445939    ( 0.0000,  0.0000,  0.0000)
  29 Li     6.468148    0.000000   15.445939    ( 0.0000,  0.0000,  0.0000)
  30 Li     0.000000    3.234074   15.445939    ( 0.0000,  0.0000,  0.0000)
  31 Li     3.234076    3.234076   15.445938    ( 0.0000,  0.0000,  0.0000)
  32 Li     6.468146    3.234076   15.445938    ( 0.0000,  0.0000,  0.0000)
  33 Li     0.000000    6.468148   15.445939    ( 0.0000,  0.0000,  0.0000)
  34 Li     3.234076    6.468146   15.445938    ( 0.0000,  0.0000,  0.0000)
  35 Li     6.468146    6.468146   15.445938    ( 0.0000,  0.0000,  0.0000)
  36 O      8.085185    1.617037   18.445939    ( 0.0000,  0.0000,  0.0000)
  37 O     12.947527    1.596708   18.439829    ( 0.0000,  0.0000,  0.0000)
  38 C     10.481100    1.615492   18.460386    ( 0.0000,  0.0000,  0.0000)
  39 C      9.230055    0.749217   18.448818    ( 0.0000,  0.0000,  0.0000)
  40 C     11.763716    0.785225   18.436457    ( 0.0000,  0.0000,  0.0000)
  41 H     10.459017    2.275999   17.585726    ( 0.0000,  0.0000,  0.0000)
  42 H     10.480959    2.252603   19.348391    ( 0.0000,  0.0000,  0.0000)
  43 H      9.225125    0.108959   17.555271    ( 0.0000,  0.0000,  0.0000)
  44 H      9.216513    0.100540   19.335503    ( 0.0000,  0.0000,  0.0000)
  45 H     11.764417    0.109659   17.569134    ( 0.0000,  0.0000,  0.0000)
  46 H     11.840565    0.169134   19.336560    ( 0.0000,  0.0000,  0.0000)
  47 H      7.289660    1.072680   18.441073    ( 0.0000,  0.0000,  0.0000)
  48 H     12.914944    2.171748   17.665312    ( 0.0000,  0.0000,  0.0000)
  49 N      8.085000    1.617000   16.945939    ( 0.0000,  0.0000,  0.0000)
  50 N      6.988378    1.617000   16.945939    ( 0.0000,  0.0000,  0.0000)

Unit cell:
           periodic     x           y           z      points  spacing
  1. axis:    yes    9.702222    0.000000    0.000000    60     0.1617
  2. axis:    yes    0.000000    9.702222    0.000000    60     0.1617
  3. axis:    no     0.000000    0.000000   28.351111   176     0.1611

  Lengths:   9.702222   9.702222  28.351111
  Angles:   90.000000  90.000000  90.000000

Effective grid spacing dv^(1/3) = 0.1615

     iter     time        total  log10-change:
                         energy  eigst   dens
iter:   1 20:15:04  -671.734580
iter:   2 20:15:12   -58.613560  +2.76  +0.03
iter:   3 20:15:20  -135.861668  +3.18  -0.20
iter:   4 20:15:28  -249.532717  +2.92  -0.33
Writing to output.gpw (mode='')

iter:   5 20:15:36  -302.326043  +2.67  -0.41
iter:   6 20:15:44  -350.563118  +2.41  -0.62
iter:   7 20:15:52  -375.892493  +2.06  -0.66
iter:   8 20:15:59  -376.470921  +1.67  -0.55
iter:   9 20:16:07  -354.401026  +1.25  -0.55
Writing to output.gpw (mode='')

iter:  10 20:16:15  -354.770124  +0.94  -0.73
iter:  11 20:16:23  -565.640404  +2.77  -0.75
iter:  12 20:16:31  -533.680524  +2.12  -0.21
iter:  13 20:16:39  -344.853468  +1.75  -0.20
iter:  14 20:16:47  -346.067263  +1.41  -0.79
Writing to output.gpw (mode='')

iter:  15 20:16:55  -350.001328  +1.74  -0.80
iter:  16 20:17:02  -353.906905  +1.42  -0.88
iter:  17 20:17:10  -351.494589  +0.90  -0.84
iter:  18 20:17:18  -381.039009  +1.40  -0.86
iter:  19 20:17:26  -358.175568  +0.35  -0.48
Writing to output.gpw (mode='')

iter:  20 20:17:34  -346.260787  +0.55  -0.63
iter:  21 20:17:42  -345.803976  +0.47  -1.01
iter:  22 20:17:50  -345.768629  +0.57  -1.20
iter:  23 20:17:58  -345.959680  -0.02  -1.40
iter:  24 20:18:06  -346.050209  -0.11  -1.29
Writing to output.gpw (mode='')

iter:  25 20:18:14  -345.888065  -0.56  -1.46
iter:  26 20:18:22  -345.837351  -0.82  -1.60
iter:  27 20:18:29  -345.803083  -0.46  -1.68
iter:  28 20:18:37  -345.810382c -0.78  -1.60
iter:  29 20:18:45  -345.758703  -1.43  -1.78
Writing to output.gpw (mode='')

iter:  30 20:18:53  -345.769757  -1.12  -1.86
iter:  31 20:19:01  -345.770472c -1.52  -1.77
iter:  32 20:19:09  -345.788467c -1.46  -1.91
iter:  33 20:19:17  -345.776541c -1.68  -1.91
iter:  34 20:19:25  -345.763017c -1.45  -2.02
Writing to output.gpw (mode='')

iter:  35 20:19:33  -345.764805c -1.92  -2.14
iter:  36 20:19:46  -345.768970c -1.98  -2.34
iter:  37 20:19:54  -345.768966c -2.40  -2.48
iter:  38 20:20:02  -345.769256c -2.13  -2.55
iter:  39 20:20:09  -345.770402c -2.37  -2.62
Writing to output.gpw (mode='')

iter:  40 20:20:17  -345.770367c -2.54  -2.75
iter:  41 20:20:25  -345.770884c -2.67  -2.88
iter:  42 20:20:33  -345.771479c -2.90  -2.94
iter:  43 20:20:41  -345.771864c -2.83  -3.15
iter:  44 20:20:49  -345.771910c -2.98  -3.21
Writing to output.gpw (mode='')

iter:  45 20:20:57  -345.772265c -2.91  -3.25
iter:  46 20:21:05  -345.772394c -2.87  -3.29
iter:  47 20:21:13  -345.772607c -3.35  -3.38
iter:  48 20:21:21  -345.772676c -3.41  -3.45
iter:  49 20:21:29  -345.772751c -3.35  -3.49
Writing to output.gpw (mode='')

iter:  50 20:21:36  -345.772801c -3.61  -3.50
iter:  51 20:21:44  -345.772917c -3.65  -3.58
iter:  52 20:21:52  -345.772972c -3.67  -3.65
iter:  53 20:22:00  -345.772992c -3.79  -3.82
iter:  54 20:22:08  -345.772986c -3.77  -3.85
Writing to output.gpw (mode='')

iter:  55 20:22:16  -345.773027c -3.93  -3.95
iter:  56 20:22:24  -345.773047c -3.92  -4.02c
iter:  57 20:22:32  -345.773067c -3.86  -4.07c
iter:  58 20:22:39  -345.773079c -4.14  -4.13c
iter:  59 20:22:47  -345.773117c -4.19  -4.17c
Writing to output.gpw (mode='')

iter:  60 20:22:55  -345.773125c -4.32  -4.31c
iter:  61 20:23:03  -345.773120c -4.37  -4.34c
iter:  62 20:23:11  -345.773131c -4.30  -4.56c
iter:  63 20:23:19  -345.773137c -4.43  -4.57c
iter:  64 20:23:27  -345.773141c -4.55  -4.58c
Writing to output.gpw (mode='')

iter:  65 20:23:35  -345.773147c -4.69  -4.54c
iter:  66 20:23:42  -345.773151c -4.66  -4.54c
iter:  67 20:23:50  -345.773157c -4.46  -4.48c
iter:  68 20:23:58  -345.773160c -4.66  -4.44c
iter:  69 20:24:06  -345.773162c -4.91  -4.43c
Writing to output.gpw (mode='')

iter:  70 20:24:14  -345.773164c -4.74  -4.36c
iter:  71 20:24:22  -345.773164c -4.90  -4.36c
iter:  72 20:24:29  -345.773166c -5.02  -4.41c
iter:  73 20:24:43  -345.773162c -5.10  -4.37c
iter:  74 20:24:52  -345.773164c -4.95  -4.53c
Writing to output.gpw (mode='')

iter:  75 20:25:00  -345.773162c -5.19  -4.58c
iter:  76 20:25:08  -345.773165c -5.34  -4.72c
iter:  77 20:25:16  -345.773162c -5.32  -4.90c
iter:  78 20:25:23  -345.773162c -5.39  -4.90c
iter:  79 20:25:31  -345.773164c -5.45  -5.06c
Writing to output.gpw (mode='')

iter:  80 20:25:39  -345.773164c -5.48  -5.07c
iter:  81 20:25:47  -345.773164c -5.39  -5.07c
iter:  82 20:25:55  -345.773165c -5.52  -5.17c
iter:  83 20:26:03  -345.773164c -5.59  -5.22c
iter:  84 20:26:11  -345.773164c -5.67  -5.26c
Writing to output.gpw (mode='')

iter:  85 20:26:19  -345.773164c -5.57  -5.28c
iter:  86 20:26:27  -345.773165c -5.89  -5.40c
iter:  87 20:26:35  -345.773164c -5.77  -5.46c
iter:  88 20:26:42  -345.773164c -5.79  -5.53c
iter:  89 20:26:50  -345.773164c -6.06  -5.61c
Writing to output.gpw (mode='')

iter:  90 20:26:58  -345.773164c -6.08  -5.75c
iter:  91 20:27:06  -345.773164c -6.14  -5.71c
iter:  92 20:27:14  -345.773165c -6.06  -5.63c
iter:  93 20:27:22  -345.773165c -6.20  -5.55c
iter:  94 20:27:30  -345.773165c -6.30  -5.47c
Writing to output.gpw (mode='')

iter:  95 20:27:37  -345.773164c -6.34  -5.43c
iter:  96 20:27:45  -345.773164c -6.27  -5.41c
iter:  97 20:27:54  -345.773164c -6.41  -5.44c
iter:  98 20:28:04  -345.773164c -6.41  -5.42c
iter:  99 20:28:11  -345.773164c -6.49  -5.39c
Writing to output.gpw (mode='')

iter: 100 20:28:19  -345.773164c -6.57  -5.43c
iter: 101 20:28:27  -345.773164c -6.46  -5.40c
iter: 102 20:28:35  -345.773164c -6.65  -5.39c
iter: 103 20:28:43  -345.773164c -6.74  -5.28c
iter: 104 20:28:51  -345.773164c -6.75  -5.35c
Writing to output.gpw (mode='')

iter: 105 20:28:59  -345.773163c -6.72  -5.54c
iter: 106 20:29:07  -345.773163c -6.68  -5.66c
iter: 107 20:29:15  -345.773163c -6.73  -5.74c
iter: 108 20:29:22  -345.773163c -6.82  -5.94c
iter: 109 20:29:30  -345.773163c -6.78  -6.02c
Writing to output.gpw (mode='')

iter: 110 20:29:41  -345.773163c -6.97  -6.03c
iter: 111 20:29:51  -345.773163c -7.04  -6.09c
iter: 112 20:29:59  -345.773163c -7.00  -6.14c
iter: 113 20:30:06  -345.773163c -7.11  -6.27c
iter: 114 20:30:14  -345.773163c -7.17  -6.31c
Writing to output.gpw (mode='')

iter: 115 20:30:22  -345.773163c -7.07  -6.35c
iter: 116 20:30:30  -345.773163c -7.20  -6.43c
iter: 117 20:30:38  -345.773163c -7.20  -6.46c
iter: 118 20:30:46  -345.773163c -7.20  -6.47c
iter: 119 20:30:54  -345.773163c -7.43c -6.49c

Converged after 119 iterations.

Dipole moment: (4.869708, -17.675389, 0.288491) |e|*Ang

Energy contributions relative to reference atoms: (reference = -17528.314784)

Kinetic:       +214.934863
Potential:     -197.502987
External:        +0.000000
XC:            -364.273002
Entropy (-ST):   -0.161618
Local:           +1.148772
--------------------------
Free energy:   -345.853972
Extrapolated:  -345.773163

Dipole-layer corrected work functions: 3.389861, 2.835281 eV

Showing only first 2 kpts
 Kpt  Band  Eigenvalues  Occupancy
  0    37     -3.35984    1.98587
  0    38     -3.22256    1.80046
  0    39     -2.99730    0.18136
  0    40     -2.91956    0.04126

  1    37     -3.17176    1.53127
  1    38     -3.11105    0.98480
  1    39     -3.06326    0.54333
  1    40     -3.02004    0.27161


Fermi level: -3.11257

No gap
Writing to output.gpw (mode='')


Forces in eV/Ang:
  0 Li    0.01375    0.00500   -0.26589
  1 Li   -0.02178    0.00556   -0.27847
  2 Li    0.00733   -0.00106   -0.28112
  3 Li    0.00478   -0.00407   -0.27842
  4 Li   -0.00183    0.00688   -0.28190
  5 Li   -0.00145    0.01911   -0.27416
  6 Li   -0.00142   -0.00024   -0.27023
  7 Li    0.00379   -0.00953   -0.27728
  8 Li   -0.00287   -0.01990   -0.27481
  9 Li    0.00628    0.00252    0.29332
 10 Li   -0.00418    0.00320    0.24617
 11 Li    0.00030    0.00744    0.31903
 12 Li    0.00949   -0.00662    0.29467
 13 Li   -0.00959   -0.00013    0.22888
 14 Li   -0.00089   -0.01300    0.31938
 15 Li   -0.01721    0.00780    0.23947
 16 Li    0.00285   -0.00666    0.27970
 17 Li    0.01191    0.00430    0.23574
 18 Li    0.01357   -0.00047    0.07797
 19 Li   -0.05958    0.00443   -0.07992
 20 Li    0.02626    0.00191   -0.22647
 21 Li   -0.01918   -0.00629    0.04201
 22 Li    0.02816   -0.03154    0.05143
 23 Li   -0.00788   -0.01814    0.04135
 24 Li   -0.01647    0.00771    0.05955
 25 Li    0.02188    0.02670    0.05605
 26 Li   -0.00444    0.01920    0.05984
 27 Li    0.10941   -0.09268   -0.33737
 28 Li    0.00900   -0.03066   -0.11698
 29 Li   -0.11254    0.15485    0.05084
 30 Li    0.06257    0.06015   -0.10782
 31 Li   -0.02523    0.15225   -0.30796
 32 Li   -0.04642   -0.13517    0.10591
 33 Li   -0.02397    0.00607   -0.01646
 34 Li    0.00801   -0.00959   -0.00121
 35 Li    0.01535    0.02382   -0.00855
 36 O     6.28162   -0.47301   10.64834
 37 O    -0.19978   -0.39734    0.45732
 38 C    -0.02335    0.00033    0.16127
 39 C     2.36081   -1.29044    2.77372
 40 C     0.25110    0.16911    0.23811
 41 H     0.14730    0.01472    0.01978
 42 H    -0.02745    0.02835   -0.01866
 43 H    -0.18413   -0.21186    0.39469
 44 H    -0.11887    0.09313   -0.11306
 45 H    -0.08016   -0.09645   -0.05325
 46 H    -0.02742   -0.04631   -0.05592
 47 H    -1.00129   -0.41413    1.16768
 48 H     0.04226    0.17980   -0.33099
 49 N     5.51272    2.65928   -6.28417
 50 N   -12.93739   -0.41156   -8.29582

System changes: positions 

Initializing position-dependent things.

Density initialized from wave functions
       .-----------------------.  
      /|                       |  
     / |                       |  
    /  |                       |  
   /   |                       |  
  /    |                       |  
 *     |                       |  
 |     |                       |  
 |     |                       |  
 |     |                       |  
 |     |                       |  
 |     |                       |  
 |     |                       |  
 |     |                       |  
 |     |                       |  
 |     |                       |  
 |  H  Li      Li              |  
 |  C H|  O           O H      |  
 |  H  C  H  Li     HLi C    Li|  
 |    H|  Li      LN  N H Li   |  
 | Li  |   Li      Li          |  
 |     |Li      Li      Li     |  
 |     |         Li            |  
 |   LLi     LLi     LLi       |  
 |     |  Li      Li      Li   |  
 | Li  |   Li      Li          |  
 |     |Li      Li      Li     |  
 Li    | Li      Li            |  
 |    Li      Li      Li       |  
 |     |                       |  
 |     |                       |  
 |     |                       |  
 |     |                       |  
 |     |                       |  
 |     |                       |  
 |     .-----------------------.  
 |    /                       /   
 |   /                       /    
 |  /                       /     
 | /                       /      
 |/                       /       
 *-----------------------*        

Positions:
   0 Li     1.617037    1.617037   10.000000    ( 0.0000,  0.0000,  0.0000)
   1 Li     4.851111    1.617037   10.000000    ( 0.0000,  0.0000,  0.0000)
   2 Li     8.085185    1.617037   10.000000    ( 0.0000,  0.0000,  0.0000)
   3 Li     1.617037    4.851111   10.000000    ( 0.0000,  0.0000,  0.0000)
   4 Li     4.851111    4.851111   10.000000    ( 0.0000,  0.0000,  0.0000)
   5 Li     8.085185    4.851111   10.000000    ( 0.0000,  0.0000,  0.0000)
   6 Li     1.617037    8.085185   10.000000    ( 0.0000,  0.0000,  0.0000)
   7 Li     4.851111    8.085185   10.000000    ( 0.0000,  0.0000,  0.0000)
   8 Li     8.085185    8.085185   10.000000    ( 0.0000,  0.0000,  0.0000)
   9 Li     0.000000    0.000000   11.617037    ( 0.0000,  0.0000,  0.0000)
  10 Li     3.234074    0.000000   11.617037    ( 0.0000,  0.0000,  0.0000)
  11 Li     6.468148    0.000000   11.617037    ( 0.0000,  0.0000,  0.0000)
  12 Li     0.000000    3.234074   11.617037    ( 0.0000,  0.0000,  0.0000)
  13 Li     3.234074    3.234074   11.617037    ( 0.0000,  0.0000,  0.0000)
  14 Li     6.468148    3.234074   11.617037    ( 0.0000,  0.0000,  0.0000)
  15 Li     0.000000    6.468148   11.617037    ( 0.0000,  0.0000,  0.0000)
  16 Li     3.234074    6.468148   11.617037    ( 0.0000,  0.0000,  0.0000)
  17 Li     6.468148    6.468148   11.617037    ( 0.0000,  0.0000,  0.0000)
  18 Li     1.617073    1.617037   13.469931    ( 0.0000,  0.0000,  0.0000)
  19 Li     4.850956    1.617050   13.469522    ( 0.0000,  0.0000,  0.0000)
  20 Li     8.085252    1.617043   13.469139    ( 0.0000,  0.0000,  0.0000)
  21 Li     1.616989    4.851095   13.469839    ( 0.0000,  0.0000,  0.0000)
  22 Li     4.851184    4.851029   13.469864    ( 0.0000,  0.0000,  0.0000)
  23 Li     8.085163    4.851064   13.469837    ( 0.0000,  0.0000,  0.0000)
  24 Li     1.616995    8.085204   13.469883    ( 0.0000,  0.0000,  0.0000)
  25 Li     4.851168    8.085253   13.469875    ( 0.0000,  0.0000,  0.0000)
  26 Li     8.085172    8.085234   13.469884    ( 0.0000,  0.0000,  0.0000)
  27 Li     0.000285   -0.000241   15.445062    ( 0.0000,  0.0000,  0.0000)
  28 Li     3.234097   -0.000080   15.445634    ( 0.0000,  0.0000,  0.0000)
  29 Li     6.467855    0.000403   15.446071    ( 0.0000,  0.0000,  0.0000)
  30 Li     0.000163    3.234230   15.445658    ( 0.0000,  0.0000,  0.0000)
  31 Li     3.234011    3.234473   15.445137    ( 0.0000,  0.0000,  0.0000)
  32 Li     6.468025    3.233725   15.446214    ( 0.0000,  0.0000,  0.0000)
  33 Li    -0.000062    6.468164   15.445896    ( 0.0000,  0.0000,  0.0000)
  34 Li     3.234097    6.468121   15.445935    ( 0.0000,  0.0000,  0.0000)
  35 Li     6.468185    6.468208   15.445916    ( 0.0000,  0.0000,  0.0000)
  36 O      8.101528    1.615806   18.473644    ( 0.0000,  0.0000,  0.0000)
  37 O     12.947007    1.595674   18.441019    ( 0.0000,  0.0000,  0.0000)
  38 C     10.481039    1.615493   18.460806    ( 0.0000,  0.0000,  0.0000)
  39 C      9.236197    0.745860   18.456034    ( 0.0000,  0.0000,  0.0000)
  40 C     11.764370    0.785665   18.437077    ( 0.0000,  0.0000,  0.0000)
  41 H     10.459400    2.276037   17.585777    ( 0.0000,  0.0000,  0.0000)
  42 H     10.480887    2.252677   19.348343    ( 0.0000,  0.0000,  0.0000)
  43 H      9.224646    0.108408   17.556298    ( 0.0000,  0.0000,  0.0000)
  44 H      9.216204    0.100782   19.335209    ( 0.0000,  0.0000,  0.0000)
  45 H     11.764209    0.109408   17.568996    ( 0.0000,  0.0000,  0.0000)
  46 H     11.840494    0.169014   19.336415    ( 0.0000,  0.0000,  0.0000)
  47 H      7.287055    1.071602   18.444111    ( 0.0000,  0.0000,  0.0000)
  48 H     12.915054    2.172215   17.664451    ( 0.0000,  0.0000,  0.0000)
  49 N      8.099343    1.623919   16.929589    ( 0.0000,  0.0000,  0.0000)
  50 N      6.954718    1.615929   16.924356    ( 0.0000,  0.0000,  0.0000)

Unit cell:
           periodic     x           y           z      points  spacing
  1. axis:    yes    9.702222    0.000000    0.000000    60     0.1617
  2. axis:    yes    0.000000    9.702222    0.000000    60     0.1617
  3. axis:    no     0.000000    0.000000   28.351111   176     0.1611

  Lengths:   9.702222   9.702222  28.351111
  Angles:   90.000000  90.000000  90.000000

Effective grid spacing dv^(1/3) = 0.1615

     iter     time        total  log10-change:
                         energy  eigst   dens
iter:   1 20:31:03  -348.392849  -0.40
iter:   2 20:31:11  -347.262868  -0.48  -1.32
iter:   3 20:31:19  -347.155593  -0.89  -1.33
iter:   4 20:31:27  -347.074631  -0.60  -1.45
Writing to output.gpw (mode='')

iter:   5 20:31:35  -346.830009  -1.05  -1.68
iter:   6 20:31:43  -347.219069  -0.63  -1.97
iter:   7 20:31:51  -346.859106  -1.46  -1.46
iter:   8 20:31:59  -346.841825  -1.64  -1.99
iter:   9 20:32:07  -346.823643c -1.66  -2.10
Writing to output.gpw (mode='')

iter:  10 20:32:15  -346.811464c -2.17  -2.14
iter:  11 20:32:23  -346.807079c -2.41  -2.30
iter:  12 20:32:31  -346.806469c -2.53  -2.66
iter:  13 20:32:39  -346.808512c -3.03  -2.61
iter:  14 20:32:47  -346.813015c -2.86  -2.71
Writing to output.gpw (mode='')

iter:  15 20:32:55  -346.806355c -2.71  -2.46
iter:  16 20:33:03  -346.806883c -2.92  -2.95
iter:  17 20:33:11  -346.806618c -3.43  -3.09
iter:  18 20:33:18  -346.806865c -3.76  -3.26
iter:  19 20:33:26  -346.806576c -4.01  -3.36
Writing to output.gpw (mode='')

iter:  20 20:33:34  -346.806791c -4.39  -3.34
iter:  21 20:33:42  -346.806810c -4.66  -3.50
iter:  22 20:33:50  -346.806839c -4.23  -3.52
iter:  23 20:33:58  -346.806777c -4.83  -3.66
iter:  24 20:34:06  -346.806826c -4.84  -3.68
Writing to output.gpw (mode='')

iter:  25 20:34:14  -346.806819c -4.95  -3.80
iter:  26 20:34:22  -346.806827c -4.99  -3.92
iter:  27 20:34:30  -346.806845c -5.32  -4.11c
iter:  28 20:34:42  -346.806835c -5.45  -4.27c
iter:  29 20:34:53  -346.806831c -5.50  -4.35c
Writing to output.gpw (mode='')

iter:  30 20:35:01  -346.806842c -5.77  -4.39c
iter:  31 20:35:09  -346.806828c -5.74  -4.54c
iter:  32 20:35:17  -346.806835c -6.06  -4.61c
iter:  33 20:35:25  -346.806838c -6.08  -4.70c
iter:  34 20:35:33  -346.806837c -6.13  -4.72c
Writing to output.gpw (mode='')

iter:  35 20:35:41  -346.806837c -6.28  -4.77c
iter:  36 20:35:49  -346.806842c -6.41  -4.82c
iter:  37 20:35:57  -346.806837c -6.70  -4.95c
iter:  38 20:36:05  -346.806837c -6.81  -5.01c
iter:  39 20:36:13  -346.806839c -6.65  -5.05c
Writing to output.gpw (mode='')

iter:  40 20:36:21  -346.806837c -6.72  -5.18c
iter:  41 20:36:28  -346.806839c -6.88  -5.33c
iter:  42 20:36:36  -346.806839c -6.96  -5.48c
iter:  43 20:36:44  -346.806839c -7.05  -5.54c
iter:  44 20:36:52  -346.806839c -7.10  -5.62c
Writing to output.gpw (mode='')

iter:  45 20:37:00  -346.806839c -7.39  -5.73c
iter:  46 20:37:08  -346.806839c -7.32  -5.77c
iter:  47 20:37:16  -346.806839c -7.46c -5.90c

Converged after 47 iterations.

Dipole moment: (4.883579, -17.519121, 0.240415) |e|*Ang

Energy contributions relative to reference atoms: (reference = -17528.314784)

Kinetic:       +204.680518
Potential:     -189.909324
External:        +0.000000
XC:            -362.646558
Entropy (-ST):   -0.168139
Local:           +1.152595
--------------------------
Free energy:   -346.890908
Extrapolated:  -346.806839

Dipole-layer corrected work functions: 3.393752, 2.931593 eV

Showing only first 2 kpts
 Kpt  Band  Eigenvalues  Occupancy
  0    37     -3.40854    1.98547
  0    38     -3.26126    1.75561
  0    39     -3.07522    0.29631
  0    40     -2.96016    0.03424

  1    37     -3.22104    1.52531
  1    38     -3.15915    0.96478
  1    39     -3.10974    0.51515
  1    40     -3.05966    0.22604


Fermi level: -3.16267

No gap
Writing to output.gpw (mode='')


Forces in eV/Ang:
  0 Li    0.01301    0.00506   -0.26628
  1 Li   -0.02005    0.00557   -0.27891
  2 Li    0.00655   -0.00075   -0.28233
  3 Li    0.00497   -0.00243   -0.27889
  4 Li   -0.00246    0.00821   -0.28255
  5 Li   -0.00159    0.01932   -0.27521
  6 Li   -0.00127   -0.00179   -0.27073
  7 Li    0.00329   -0.01100   -0.27840
  8 Li   -0.00299   -0.02005   -0.27628
  9 Li    0.00503    0.00376    0.29664
 10 Li   -0.00345    0.00301    0.24747
 11 Li    0.00033    0.00717    0.32152
 12 Li    0.00820   -0.00726    0.29775
 13 Li   -0.00875   -0.00007    0.23017
 14 Li   -0.00111   -0.01249    0.32134
 15 Li   -0.01601    0.00694    0.23803
 16 Li    0.00270   -0.00676    0.27744
 17 Li    0.01157    0.00401    0.23491
 18 Li    0.01730   -0.00032    0.07042
 19 Li   -0.06218    0.00490   -0.08887
 20 Li    0.02343    0.00266   -0.21570
 21 Li   -0.01908   -0.00751    0.04204
 22 Li    0.02889   -0.03040    0.04896
 23 Li   -0.00756   -0.01290    0.03270
 24 Li   -0.01755    0.00858    0.06012
 25 Li    0.02286    0.02573    0.05332
 26 Li   -0.00379    0.01271    0.05073
 27 Li    0.08145   -0.06523   -0.28481
 28 Li    0.00692   -0.03368   -0.10906
 29 Li   -0.08275    0.19950    0.12409
 30 Li    0.02631    0.02905   -0.05436
 31 Li   -0.02226    0.15529   -0.30357
 32 Li    0.00029   -0.18028    0.18568
 33 Li   -0.01848    0.00513   -0.02276
 34 Li    0.00701   -0.01035   -0.00359
 35 Li    0.01006    0.02327   -0.01603
 36 O     4.60034   -0.65889    8.48258
 37 O    -0.15307   -0.29921    0.33183
 38 C     0.12592   -0.05145    0.18212
 39 C     2.07644   -1.14717    2.34222
 40 C     0.20496    0.17210    0.21820
 41 H     0.11684   -0.01023    0.03596
 42 H    -0.01876    0.03752   -0.01101
 43 H    -0.16457   -0.16082    0.49006
 44 H    -0.01333   -0.08335    0.10009
 45 H    -0.07607   -0.08697   -0.03833
 46 H    -0.02469   -0.05307   -0.04661
 47 H    -0.45751   -0.03120    0.94931
 48 H     0.04744    0.10467   -0.21378
 49 N     0.43725    2.59333   -5.72230
 50 N    -6.59473   -0.49492   -6.58848

System changes: positions 

Initializing position-dependent things.

Density initialized from wave functions
       .-----------------------.  
      /|                       |  
     / |                       |  
    /  |                       |  
   /   |                       |  
  /    |                       |  
 *     |                       |  
 |     |                       |  
 |     |                       |  
 |     |                       |  
 |     |                       |  
 |     |                       |  
 |     |                       |  
 |     |                       |  
 |     |                       |  
 |     |                       |  
 |  H  Li      Li              |  
 |  C H|  O           O H      |  
 |  H  C  H  Li     HLi C    Li|  
 |    H|  Li      LN  N H Li   |  
 | Li  |   Li      Li          |  
 |     |Li      Li      Li     |  
 |     |         Li            |  
 |   LLi     LLi     LLi       |  
 |     |  Li      Li      Li   |  
 | Li  |   Li      Li          |  
 |     |Li      Li      Li     |  
 Li    | Li      Li            |  
 |    Li      Li      Li       |  
 |     |                       |  
 |     |                       |  
 |     |                       |  
 |     |                       |  
 |     |                       |  
 |     |                       |  
 |     .-----------------------.  
 |    /                       /   
 |   /                       /    
 |  /                       /     
 | /                       /      
 |/                       /       
 *-----------------------*        

Positions:
   0 Li     1.617037    1.617037   10.000000    ( 0.0000,  0.0000,  0.0000)
   1 Li     4.851111    1.617037   10.000000    ( 0.0000,  0.0000,  0.0000)
   2 Li     8.085185    1.617037   10.000000    ( 0.0000,  0.0000,  0.0000)
   3 Li     1.617037    4.851111   10.000000    ( 0.0000,  0.0000,  0.0000)
   4 Li     4.851111    4.851111   10.000000    ( 0.0000,  0.0000,  0.0000)
   5 Li     8.085185    4.851111   10.000000    ( 0.0000,  0.0000,  0.0000)
   6 Li     1.617037    8.085185   10.000000    ( 0.0000,  0.0000,  0.0000)
   7 Li     4.851111    8.085185   10.000000    ( 0.0000,  0.0000,  0.0000)
   8 Li     8.085185    8.085185   10.000000    ( 0.0000,  0.0000,  0.0000)
   9 Li     0.000000    0.000000   11.617037    ( 0.0000,  0.0000,  0.0000)
  10 Li     3.234074    0.000000   11.617037    ( 0.0000,  0.0000,  0.0000)
  11 Li     6.468148    0.000000   11.617037    ( 0.0000,  0.0000,  0.0000)
  12 Li     0.000000    3.234074   11.617037    ( 0.0000,  0.0000,  0.0000)
  13 Li     3.234074    3.234074   11.617037    ( 0.0000,  0.0000,  0.0000)
  14 Li     6.468148    3.234074   11.617037    ( 0.0000,  0.0000,  0.0000)
  15 Li     0.000000    6.468148   11.617037    ( 0.0000,  0.0000,  0.0000)
  16 Li     3.234074    6.468148   11.617037    ( 0.0000,  0.0000,  0.0000)
  17 Li     6.468148    6.468148   11.617037    ( 0.0000,  0.0000,  0.0000)
  18 Li     1.617175    1.617036   13.470264    ( 0.0000,  0.0000,  0.0000)
  19 Li     4.850630    1.617077   13.469036    ( 0.0000,  0.0000,  0.0000)
  20 Li     8.085362    1.617059   13.468075    ( 0.0000,  0.0000,  0.0000)
  21 Li     1.616892    4.851052   13.470053    ( 0.0000,  0.0000,  0.0000)
  22 Li     4.851334    4.850878   13.470105    ( 0.0000,  0.0000,  0.0000)
  23 Li     8.085126    4.851016   13.469974    ( 0.0000,  0.0000,  0.0000)
  24 Li     1.616902    8.085251   13.470192    ( 0.0000,  0.0000,  0.0000)
  25 Li     4.851288    8.085381   13.470138    ( 0.0000,  0.0000,  0.0000)
  26 Li     8.085155    8.085276   13.470111    ( 0.0000,  0.0000,  0.0000)
  27 Li     0.000602   -0.000478   15.443792    ( 0.0000,  0.0000,  0.0000)
  28 Li     3.234125   -0.000262   15.445106    ( 0.0000,  0.0000,  0.0000)
  29 Li     6.467538    0.001578   15.446962    ( 0.0000,  0.0000,  0.0000)
  30 Li     0.000170    3.234269   15.445568    ( 0.0000,  0.0000,  0.0000)
  31 Li     3.233908    3.235276   15.443603    ( 0.0000,  0.0000,  0.0000)
  32 Li     6.468190    3.232646   15.447441    ( 0.0000,  0.0000,  0.0000)
  33 Li    -0.000137    6.468187   15.445758    ( 0.0000,  0.0000,  0.0000)
  34 Li     3.234130    6.468065   15.445908    ( 0.0000,  0.0000,  0.0000)
  35 Li     6.468218    6.468324   15.445808    ( 0.0000,  0.0000,  0.0000)
  36 O      8.119113    1.611791   18.509346    ( 0.0000,  0.0000,  0.0000)
  37 O     12.946390    1.594491   18.442273    ( 0.0000,  0.0000,  0.0000)
  38 C     10.482206    1.615049   18.461809    ( 0.0000,  0.0000,  0.0000)
  39 C      9.245799    0.740507   18.466477    ( 0.0000,  0.0000,  0.0000)
  40 C     11.765254    0.786554   18.438121    ( 0.0000,  0.0000,  0.0000)
  41 H     10.459890    2.275897   17.586018    ( 0.0000,  0.0000,  0.0000)
  42 H     10.480822    2.252901   19.348313    ( 0.0000,  0.0000,  0.0000)
  43 H      9.223875    0.107766   17.559134    ( 0.0000,  0.0000,  0.0000)
  44 H      9.216506    0.099738   19.336468    ( 0.0000,  0.0000,  0.0000)
  45 H     11.763835    0.108998   17.568852    ( 0.0000,  0.0000,  0.0000)
  46 H     11.840377    0.168719   19.336209    ( 0.0000,  0.0000,  0.0000)
  47 H      7.286627    1.072786   18.448190    ( 0.0000,  0.0000,  0.0000)
  48 H     12.915315    2.172486   17.663771    ( 0.0000,  0.0000,  0.0000)
  49 N      8.083768    1.636926   16.902350    ( 0.0000,  0.0000,  0.0000)
  50 N      6.943307    1.613110   16.896714    ( 0.0000,  0.0000,  0.0000)

Unit cell:
           periodic     x           y           z      points  spacing
  1. axis:    yes    9.702222    0.000000    0.000000    60     0.1617
  2. axis:    yes    0.000000    9.702222    0.000000    60     0.1617
  3. axis:    no     0.000000    0.000000   28.351111   176     0.1611

  Lengths:   9.702222   9.702222  28.351111
  Angles:   90.000000  90.000000  90.000000

Effective grid spacing dv^(1/3) = 0.1615

     iter     time        total  log10-change:
                         energy  eigst   dens
iter:   1 20:37:26  -347.686189  -0.79
iter:   2 20:37:34  -347.663097  -1.08  -1.84
iter:   3 20:37:42  -347.649204c -1.57  -1.84
iter:   4 20:37:49  -347.663387c -1.67  -2.15
Writing to output.gpw (mode='')

iter:   5 20:37:57  -347.628991c -1.76  -2.08
iter:   6 20:38:05  -347.630538c -2.28  -2.24
iter:   7 20:38:13  -347.625354c -1.80  -2.20
iter:   8 20:38:21  -347.623027c -2.46  -2.24
iter:   9 20:38:29  -347.624022c -2.23  -2.44
Writing to output.gpw (mode='')

iter:  10 20:38:37  -347.623881c -2.56  -2.54
iter:  11 20:38:45  -347.623951c -2.52  -2.40
iter:  12 20:38:52  -347.623015c -3.40  -2.71
iter:  13 20:39:00  -347.623967c -2.98  -2.82
iter:  14 20:39:08  -347.623109c -3.23  -2.78
Writing to output.gpw (mode='')

iter:  15 20:39:16  -347.622980c -3.82  -2.96
iter:  16 20:39:24  -347.622621c -3.68  -3.09
iter:  17 20:39:32  -347.622698c -3.53  -3.30
iter:  18 20:39:46  -347.622773c -4.30  -3.29
iter:  19 20:39:53  -347.622796c -4.37  -3.47
Writing to output.gpw (mode='')

iter:  20 20:40:01  -347.622759c -4.33  -3.62
iter:  21 20:40:09  -347.622802c -4.66  -3.88
iter:  22 20:40:17  -347.622781c -4.62  -3.87
iter:  23 20:40:25  -347.622783c -5.18  -3.77
iter:  24 20:40:33  -347.622823c -4.91  -4.06c
Writing to output.gpw (mode='')

iter:  25 20:40:41  -347.622810c -5.23  -4.24c
iter:  26 20:40:49  -347.622804c -5.15  -4.36c
iter:  27 20:40:57  -347.622806c -5.25  -4.37c
iter:  28 20:41:05  -347.622813c -5.28  -4.54c
iter:  29 20:41:12  -347.622807c -5.37  -4.48c
Writing to output.gpw (mode='')

iter:  30 20:41:20  -347.622814c -5.42  -4.73c
iter:  31 20:41:28  -347.622810c -6.01  -4.65c
iter:  32 20:41:36  -347.622810c -5.78  -4.76c
iter:  33 20:41:44  -347.622809c -5.70  -4.82c
iter:  34 20:41:52  -347.622812c -6.13  -4.91c
Writing to output.gpw (mode='')

iter:  35 20:41:59  -347.622810c -6.21  -4.97c
iter:  36 20:42:07  -347.622811c -6.39  -5.00c
iter:  37 20:42:16  -347.622810c -6.24  -5.00c
iter:  38 20:42:26  -347.622812c -6.36  -5.08c
iter:  39 20:42:39  -347.622812c -6.40  -5.16c
Writing to output.gpw (mode='')

iter:  40 20:42:50  -347.622812c -6.35  -5.36c
iter:  41 20:42:58  -347.622811c -6.81  -5.47c
iter:  42 20:43:06  -347.622812c -6.87  -5.59c
iter:  43 20:43:14  -347.622812c -6.93  -5.63c
iter:  44 20:43:22  -347.622812c -7.05  -5.64c
Writing to output.gpw (mode='')

iter:  45 20:43:30  -347.622812c -7.23  -5.58c
iter:  46 20:43:38  -347.622811c -7.07  -5.64c
iter:  47 20:43:46  -347.622811c -7.14  -5.62c
iter:  48 20:43:56  -347.622812c -7.20  -5.58c
iter:  49 20:44:05  -347.622812c -7.42c -5.55c

Converged after 49 iterations.

Dipole moment: (5.014314, -17.522302, 0.209917) |e|*Ang

Energy contributions relative to reference atoms: (reference = -17528.314784)

Kinetic:       +202.077851
Potential:     -188.499147
External:        +0.000000
XC:            -362.273873
Entropy (-ST):   -0.166619
Local:           +1.155666
--------------------------
Free energy:   -347.706121
Extrapolated:  -347.622812

Dipole-layer corrected work functions: 3.395228, 2.991696 eV

Showing only first 2 kpts
 Kpt  Band  Eigenvalues  Occupancy
  0    37     -3.43986    1.98562
  0    38     -3.29246    1.75736
  0    39     -3.10268    0.27994
  0    40     -2.98864    0.03272

  1    37     -3.25341    1.53670
  1    38     -3.18909    0.95634
  1    39     -3.14564    0.55516
  1    40     -3.08448    0.20317


Fermi level: -3.19346

No gap
Writing to output.gpw (mode='')


Forces in eV/Ang:
  0 Li    0.01411    0.00521   -0.26654
  1 Li   -0.02049    0.00561   -0.27901
  2 Li    0.00672   -0.00059   -0.28200
  3 Li    0.00474   -0.00190   -0.27949
  4 Li   -0.00284    0.00847   -0.28253
  5 Li   -0.00181    0.01987   -0.27522
  6 Li   -0.00138   -0.00205   -0.27144
  7 Li    0.00289   -0.01090   -0.27858
  8 Li   -0.00351   -0.02093   -0.27647
  9 Li    0.00501    0.00370    0.29645
 10 Li   -0.00473    0.00240    0.24693
 11 Li    0.00051    0.00858    0.32322
 12 Li    0.00831   -0.00710    0.29732
 13 Li   -0.01079    0.00010    0.22928
 14 Li   -0.00088   -0.01335    0.32248
 15 Li   -0.01656    0.00710    0.23845
 16 Li    0.00441   -0.00712    0.27578
 17 Li    0.01207    0.00376    0.23423
 18 Li    0.01611   -0.00050    0.06584
 19 Li   -0.06205    0.00564   -0.08559
 20 Li    0.02576    0.00375   -0.21639
 21 Li   -0.01782   -0.00654    0.04092
 22 Li    0.02992   -0.03152    0.04959
 23 Li   -0.00816   -0.01450    0.03456
 24 Li   -0.01713    0.00752    0.05880
 25 Li    0.02438    0.02627    0.05508
 26 Li   -0.00454    0.01399    0.05064
 27 Li    0.08289   -0.06513   -0.26556
 28 Li    0.00861   -0.03100   -0.10554
 29 Li   -0.09437    0.15126    0.09010
 30 Li    0.02159    0.02551   -0.04503
 31 Li   -0.01667    0.15212   -0.30143
 32 Li    0.00503   -0.12804    0.15414
 33 Li   -0.01893    0.00302   -0.02336
 34 Li    0.00703   -0.01025   -0.00441
 35 Li    0.00923    0.02312   -0.01744
 36 O     2.88920   -0.83692    7.19449
 37 O    -0.08618   -0.19858    0.22896
 38 C     0.24200   -0.07340    0.21100
 39 C     1.52060   -0.79254    1.71328
 40 C     0.17695    0.13547    0.17305
 41 H     0.08226   -0.04086    0.04780
 42 H    -0.00527    0.04942    0.00033
 43 H    -0.14160   -0.10991    0.51371
 44 H     0.12556   -0.33510    0.31966
 45 H    -0.07103   -0.06296   -0.00966
 46 H    -0.02224   -0.05856   -0.03291
 47 H     0.24675    0.27199    0.99735
 48 H     0.04981    0.03855   -0.11907
 49 N     0.48183    2.35646   -5.53469
 50 N    -5.48594   -0.51414   -5.29252

System changes: positions 

Initializing position-dependent things.

Density initialized from wave functions
       .-----------------------.  
      /|                       |  
     / |                       |  
    /  |                       |  
   /   |                       |  
  /    |                       |  
 *     |                       |  
 |     |                       |  
 |     |                       |  
 |     |                       |  
 |     |                       |  
 |     |                       |  
 |     |                       |  
 |     |                       |  
 |     |                       |  
 |     |                       |  
 |  H  Li      Li              |  
 |  C H|  O           O H      |  
 |  H  C  H  Li     HLi C    Li|  
 |    H|  Li      LN  N H Li   |  
 | Li  |   Li      Li          |  
 |     |Li      Li      Li     |  
 |     |         Li            |  
 |   LLi     LLi     LLi       |  
 |     |  Li      Li      Li   |  
 | Li  |   Li      Li          |  
 |     |Li      Li      Li     |  
 Li    | Li      Li            |  
 |    Li      Li      Li       |  
 |     |                       |  
 |     |                       |  
 |     |                       |  
 |     |                       |  
 |     |                       |  
 |     |                       |  
 |     .-----------------------.  
 |    /                       /   
 |   /                       /    
 |  /                       /     
 | /                       /      
 |/                       /       
 *-----------------------*        

Positions:
   0 Li     1.617037    1.617037   10.000000    ( 0.0000,  0.0000,  0.0000)
   1 Li     4.851111    1.617037   10.000000    ( 0.0000,  0.0000,  0.0000)
   2 Li     8.085185    1.617037   10.000000    ( 0.0000,  0.0000,  0.0000)
   3 Li     1.617037    4.851111   10.000000    ( 0.0000,  0.0000,  0.0000)
   4 Li     4.851111    4.851111   10.000000    ( 0.0000,  0.0000,  0.0000)
   5 Li     8.085185    4.851111   10.000000    ( 0.0000,  0.0000,  0.0000)
   6 Li     1.617037    8.085185   10.000000    ( 0.0000,  0.0000,  0.0000)
   7 Li     4.851111    8.085185   10.000000    ( 0.0000,  0.0000,  0.0000)
   8 Li     8.085185    8.085185   10.000000    ( 0.0000,  0.0000,  0.0000)
   9 Li     0.000000    0.000000   11.617037    ( 0.0000,  0.0000,  0.0000)
  10 Li     3.234074    0.000000   11.617037    ( 0.0000,  0.0000,  0.0000)
  11 Li     6.468148    0.000000   11.617037    ( 0.0000,  0.0000,  0.0000)
  12 Li     0.000000    3.234074   11.617037    ( 0.0000,  0.0000,  0.0000)
  13 Li     3.234074    3.234074   11.617037    ( 0.0000,  0.0000,  0.0000)
  14 Li     6.468148    3.234074   11.617037    ( 0.0000,  0.0000,  0.0000)
  15 Li     0.000000    6.468148   11.617037    ( 0.0000,  0.0000,  0.0000)
  16 Li     3.234074    6.468148   11.617037    ( 0.0000,  0.0000,  0.0000)
  17 Li     6.468148    6.468148   11.617037    ( 0.0000,  0.0000,  0.0000)
  18 Li     1.617290    1.617032   13.470666    ( 0.0000,  0.0000,  0.0000)
  19 Li     4.850197    1.617121   13.468440    ( 0.0000,  0.0000,  0.0000)
  20 Li     8.085543    1.617094   13.466621    ( 0.0000,  0.0000,  0.0000)
  21 Li     1.616777    4.851009   13.470328    ( 0.0000,  0.0000,  0.0000)
  22 Li     4.851548    4.850659   13.470441    ( 0.0000,  0.0000,  0.0000)
  23 Li     8.085067    4.850924   13.470194    ( 0.0000,  0.0000,  0.0000)
  24 Li     1.616783    8.085299   13.470589    ( 0.0000,  0.0000,  0.0000)
  25 Li     4.851467    8.085561   13.470517    ( 0.0000,  0.0000,  0.0000)
  26 Li     8.085122    8.085359   13.470429    ( 0.0000,  0.0000,  0.0000)
  27 Li     0.001092   -0.000839   15.442242    ( 0.0000,  0.0000,  0.0000)
  28 Li     3.234187   -0.000469   15.444426    ( 0.0000,  0.0000,  0.0000)
  29 Li     6.466918    0.002483   15.447616    ( 0.0000,  0.0000,  0.0000)
  30 Li     0.000179    3.234328   15.445478    ( 0.0000,  0.0000,  0.0000)
  31 Li     3.233834    3.236311   15.441561    ( 0.0000,  0.0000,  0.0000)
  32 Li     6.468397    3.231921   15.448570    ( 0.0000,  0.0000,  0.0000)
  33 Li    -0.000253    6.468193   15.445575    ( 0.0000,  0.0000,  0.0000)
  34 Li     3.234175    6.467993   15.445866    ( 0.0000,  0.0000,  0.0000)
  35 Li     6.468261    6.468480   15.445657    ( 0.0000,  0.0000,  0.0000)
  36 O      8.124089    1.604472   18.544723    ( 0.0000,  0.0000,  0.0000)
  37 O     12.946320    1.594000   18.442875    ( 0.0000,  0.0000,  0.0000)
  38 C     10.484982    1.614261   18.463483    ( 0.0000,  0.0000,  0.0000)
  39 C      9.252222    0.737508   18.473353    ( 0.0000,  0.0000,  0.0000)
  40 C     11.766167    0.787287   18.438992    ( 0.0000,  0.0000,  0.0000)
  41 H     10.460165    2.275367   17.586463    ( 0.0000,  0.0000,  0.0000)
  42 H     10.480888    2.253335   19.348403    ( 0.0000,  0.0000,  0.0000)
  43 H      9.223093    0.107456   17.563087    ( 0.0000,  0.0000,  0.0000)
  44 H      9.218476    0.095476   19.340557    ( 0.0000,  0.0000,  0.0000)
  45 H     11.763389    0.108730   17.568994    ( 0.0000,  0.0000,  0.0000)
  46 H     11.840247    0.168266   19.336089    ( 0.0000,  0.0000,  0.0000)
  47 H      7.293968    1.077546   18.454622    ( 0.0000,  0.0000,  0.0000)
  48 H     12.915686    2.172145   17.663851    ( 0.0000,  0.0000,  0.0000)
  49 N      8.071537    1.651553   16.867187    ( 0.0000,  0.0000,  0.0000)
  50 N      6.931634    1.609217   16.873001    ( 0.0000,  0.0000,  0.0000)

Unit cell:
           periodic     x           y           z      points  spacing
  1. axis:    yes    9.702222    0.000000    0.000000    60     0.1617
  2. axis:    yes    0.000000    9.702222    0.000000    60     0.1617
  3. axis:    no     0.000000    0.000000   28.351111   176     0.1611

  Lengths:   9.702222   9.702222  28.351111
  Angles:   90.000000  90.000000  90.000000

Effective grid spacing dv^(1/3) = 0.1615

     iter     time        total  log10-change:
                         energy  eigst   dens
iter:   1 20:44:15  -348.349869  -0.82
iter:   2 20:44:23  -348.340887  -1.14  -1.88
iter:   3 20:44:30  -348.325543c -1.65  -1.88
iter:   4 20:44:44  -348.343832c -1.48  -2.31
Writing to output.gpw (mode='')

iter:   5 20:44:53  -348.312576c -1.72  -2.19
iter:   6 20:45:01  -348.312407c -2.38  -2.22
iter:   7 20:45:09  -348.309784c -2.37  -2.27
iter:   8 20:45:17  -348.309623c -2.30  -2.51
iter:   9 20:45:25  -348.309397c -2.60  -2.39
Writing to output.gpw (mode='')

iter:  10 20:45:33  -348.309056c -2.79  -2.81
iter:  11 20:45:41  -348.308853c -3.25  -2.96
iter:  12 20:45:49  -348.309388c -3.27  -2.98
iter:  13 20:45:57  -348.308775c -3.28  -3.12
iter:  14 20:46:05  -348.309309c -3.52  -3.08
Writing to output.gpw (mode='')

iter:  15 20:46:13  -348.309192c -3.73  -3.37
iter:  16 20:46:21  -348.309156c -3.83  -3.49
iter:  17 20:46:29  -348.309133c -4.17  -3.54
iter:  18 20:46:37  -348.309161c -4.18  -3.68
iter:  19 20:46:45  -348.309159c -4.29  -3.72
Writing to output.gpw (mode='')

iter:  20 20:46:53  -348.309211c -4.62  -3.86
iter:  21 20:47:01  -348.309203c -4.86  -3.91
iter:  22 20:47:09  -348.309199c -4.79  -3.98
iter:  23 20:47:17  -348.309216c -4.76  -4.08c
iter:  24 20:47:25  -348.309203c -4.83  -4.14c
Writing to output.gpw (mode='')

iter:  25 20:47:33  -348.309208c -5.22  -4.29c
iter:  26 20:47:41  -348.309207c -5.13  -4.28c
iter:  27 20:47:49  -348.309219c -5.30  -4.30c
iter:  28 20:47:57  -348.309224c -5.54  -4.51c
iter:  29 20:48:05  -348.309214c -5.54  -4.54c
Writing to output.gpw (mode='')

iter:  30 20:48:13  -348.309218c -5.58  -4.65c
iter:  31 20:48:21  -348.309219c -5.59  -4.76c
iter:  32 20:48:29  -348.309227c -5.72  -4.83c
iter:  33 20:48:37  -348.309224c -6.08  -4.74c
iter:  34 20:48:45  -348.309222c -5.99  -4.84c
Writing to output.gpw (mode='')

iter:  35 20:48:53  -348.309221c -6.14  -4.97c
iter:  36 20:49:01  -348.309224c -6.30  -5.14c
iter:  37 20:49:09  -348.309223c -6.39  -5.12c
iter:  38 20:49:17  -348.309221c -6.20  -5.17c
iter:  39 20:49:25  -348.309223c -6.24  -5.27c
Writing to output.gpw (mode='')

iter:  40 20:49:33  -348.309223c -6.60  -5.40c
iter:  41 20:49:46  -348.309224c -6.46  -5.47c
iter:  42 20:49:54  -348.309224c -6.73  -5.50c
iter:  43 20:50:02  -348.309225c -6.65  -5.50c
iter:  44 20:50:10  -348.309224c -6.69  -5.53c
Writing to output.gpw (mode='')

iter:  45 20:50:18  -348.309224c -6.90  -5.56c
iter:  46 20:50:26  -348.309224c -6.95  -5.49c
iter:  47 20:50:34  -348.309224c -6.91  -5.51c
iter:  48 20:50:42  -348.309224c -7.11  -5.48c
iter:  49 20:50:50  -348.309224c -7.22  -5.44c
Writing to output.gpw (mode='')

iter:  50 20:50:58  -348.309224c -7.08  -5.48c
iter:  51 20:51:06  -348.309225c -7.39  -5.36c
iter:  52 20:51:14  -348.309225c -7.36  -5.45c
iter:  53 20:51:22  -348.309225c -7.30  -5.51c
iter:  54 20:51:30  -348.309225c -7.56c -5.50c

Converged after 54 iterations.

Dipole moment: (5.081692, -17.459241, 0.168762) |e|*Ang

Energy contributions relative to reference atoms: (reference = -17528.314784)

Kinetic:       +199.818860
Potential:     -187.193583
External:        +0.000000
XC:            -362.009955
Entropy (-ST):   -0.165806
Local:           +1.158357
--------------------------
Free energy:   -348.392128
Extrapolated:  -348.309225

Dipole-layer corrected work functions: 3.397565, 3.073146 eV

Showing only first 2 kpts
 Kpt  Band  Eigenvalues  Occupancy
  0    37     -3.48189    1.98566
  0    38     -3.33328    1.75275
  0    39     -3.14320    0.27335
  0    40     -3.02723    0.03066

  1    37     -3.29738    1.55131
  1    38     -3.22944    0.94093
  1    39     -3.19134    0.58626
  1    40     -3.12128    0.18534


Fermi level: -3.23536

No gap
Writing to output.gpw (mode='')


Forces in eV/Ang:
  0 Li    0.01531    0.00527   -0.26672
  1 Li   -0.02057    0.00574   -0.27926
  2 Li    0.00671   -0.00042   -0.28162
  3 Li    0.00434   -0.00106   -0.28027
  4 Li   -0.00339    0.00880   -0.28271
  5 Li   -0.00219    0.02049   -0.27553
  6 Li   -0.00161   -0.00245   -0.27242
  7 Li    0.00234   -0.01073   -0.27883
  8 Li   -0.00388   -0.02183   -0.27686
  9 Li    0.00478    0.00368    0.29610
 10 Li   -0.00641    0.00179    0.24669
 11 Li    0.00046    0.00997    0.32451
 12 Li    0.00816   -0.00685    0.29677
 13 Li   -0.01279    0.00013    0.22889
 14 Li   -0.00062   -0.01414    0.32350
 15 Li   -0.01686    0.00733    0.23906
 16 Li    0.00647   -0.00750    0.27357
 17 Li    0.01247    0.00351    0.23357
 18 Li    0.01452   -0.00065    0.06047
 19 Li   -0.06116    0.00619   -0.08102
 20 Li    0.02685    0.00476   -0.21029
 21 Li   -0.01635   -0.00570    0.03984
 22 Li    0.03091   -0.03197    0.04950
 23 Li   -0.00853   -0.01532    0.03531
 24 Li   -0.01618    0.00623    0.05717
 25 Li    0.02564    0.02609    0.05610
 26 Li   -0.00523    0.01457    0.04952
 27 Li    0.08221   -0.06438   -0.24434
 28 Li    0.01110   -0.02850   -0.10121
 29 Li   -0.09946    0.11152    0.06667
 30 Li    0.01162    0.01739   -0.03153
 31 Li   -0.01078    0.14875   -0.29803
 32 Li    0.01372   -0.08650    0.13342
 33 Li   -0.01889    0.00115   -0.02386
 34 Li    0.00672   -0.01002   -0.00553
 35 Li    0.00795    0.02225   -0.01948
 36 O     2.30834   -0.61523    6.27543
 37 O    -0.03176   -0.16204    0.19112
 38 C     0.20849   -0.04849    0.18905
 39 C     1.02227   -0.62318    1.46000
 40 C     0.16770    0.09176    0.15173
 41 H     0.06913   -0.06457    0.06861
 42 H     0.01210    0.05837    0.01548
 43 H    -0.13567   -0.08171    0.47804
 44 H     0.25147   -0.43502    0.33067
 45 H    -0.06398   -0.04696    0.00781
 46 H    -0.01402   -0.05885   -0.02664
 47 H     0.31923    0.16005    0.96721
 48 H     0.04844    0.02324   -0.08897
 49 N     0.22911    2.10138   -5.12086
 50 N    -4.39374   -0.47398   -4.35898

System changes: positions 

Initializing position-dependent things.

Density initialized from wave functions
       .-----------------------.  
      /|                       |  
     / |                       |  
    /  |                       |  
   /   |                       |  
  /    |                       |  
 *     |                       |  
 |     |                       |  
 |     |                       |  
 |     |                       |  
 |     |                       |  
 |     |                       |  
 |     |                       |  
 |     |                       |  
 |     |                       |  
 |     |                       |  
 |  H  Li      Li              |  
 |  C H|  O           O H      |  
 |  H  C  H  Li     HLi C    Li|  
 |    H|  Li      LN  N H Li   |  
 | Li  |   Li      Li          |  
 |     |Li      Li      Li     |  
 |     |         Li            |  
 |   LLi     LLi     LLi       |  
 |     |  Li      Li      Li   |  
 | Li  |   Li      Li          |  
 |     |Li      Li      Li     |  
 Li    | Li      Li            |  
 |    Li      Li      Li       |  
 |     |                       |  
 |     |                       |  
 |     |                       |  
 |     |                       |  
 |     |                       |  
 |     |                       |  
 |     .-----------------------.  
 |    /                       /   
 |   /                       /    
 |  /                       /     
 | /                       /      
 |/                       /       
 *-----------------------*        

Positions:
   0 Li     1.617037    1.617037   10.000000    ( 0.0000,  0.0000,  0.0000)
   1 Li     4.851111    1.617037   10.000000    ( 0.0000,  0.0000,  0.0000)
   2 Li     8.085185    1.617037   10.000000    ( 0.0000,  0.0000,  0.0000)
   3 Li     1.617037    4.851111   10.000000    ( 0.0000,  0.0000,  0.0000)
   4 Li     4.851111    4.851111   10.000000    ( 0.0000,  0.0000,  0.0000)
   5 Li     8.085185    4.851111   10.000000    ( 0.0000,  0.0000,  0.0000)
   6 Li     1.617037    8.085185   10.000000    ( 0.0000,  0.0000,  0.0000)
   7 Li     4.851111    8.085185   10.000000    ( 0.0000,  0.0000,  0.0000)
   8 Li     8.085185    8.085185   10.000000    ( 0.0000,  0.0000,  0.0000)
   9 Li     0.000000    0.000000   11.617037    ( 0.0000,  0.0000,  0.0000)
  10 Li     3.234074    0.000000   11.617037    ( 0.0000,  0.0000,  0.0000)
  11 Li     6.468148    0.000000   11.617037    ( 0.0000,  0.0000,  0.0000)
  12 Li     0.000000    3.234074   11.617037    ( 0.0000,  0.0000,  0.0000)
  13 Li     3.234074    3.234074   11.617037    ( 0.0000,  0.0000,  0.0000)
  14 Li     6.468148    3.234074   11.617037    ( 0.0000,  0.0000,  0.0000)
  15 Li     0.000000    6.468148   11.617037    ( 0.0000,  0.0000,  0.0000)
  16 Li     3.234074    6.468148   11.617037    ( 0.0000,  0.0000,  0.0000)
  17 Li     6.468148    6.468148   11.617037    ( 0.0000,  0.0000,  0.0000)
  18 Li     1.617399    1.617025   13.471073    ( 0.0000,  0.0000,  0.0000)
  19 Li     4.849714    1.617177   13.467822    ( 0.0000,  0.0000,  0.0000)
  20 Li     8.085765    1.617144   13.465021    ( 0.0000,  0.0000,  0.0000)
  21 Li     1.616662    4.850970   13.470631    ( 0.0000,  0.0000,  0.0000)
  22 Li     4.851804    4.850402   13.470828    ( 0.0000,  0.0000,  0.0000)
  23 Li     8.084996    4.850804   13.470465    ( 0.0000,  0.0000,  0.0000)
  24 Li     1.616661    8.085338   13.471026    ( 0.0000,  0.0000,  0.0000)
  25 Li     4.851686    8.085766   13.470967    ( 0.0000,  0.0000,  0.0000)
  26 Li     8.085075    8.085468   13.470791    ( 0.0000,  0.0000,  0.0000)
  27 Li     0.001678   -0.001278   15.440649    ( 0.0000,  0.0000,  0.0000)
  28 Li     3.234292   -0.000674   15.443688    ( 0.0000,  0.0000,  0.0000)
  29 Li     6.466121    0.003017   15.448023    ( 0.0000,  0.0000,  0.0000)
  30 Li     0.000106    3.234329   15.445475    ( 0.0000,  0.0000,  0.0000)
  31 Li     3.233816    3.237457   15.439250    ( 0.0000,  0.0000,  0.0000)
  32 Li     6.468686    3.231612   15.449545    ( 0.0000,  0.0000,  0.0000)
  33 Li    -0.000391    6.468179   15.445366    ( 0.0000,  0.0000,  0.0000)
  34 Li     3.234224    6.467914   15.445807    ( 0.0000,  0.0000,  0.0000)
  35 Li     6.468300    6.468649   15.445467    ( 0.0000,  0.0000,  0.0000)
  36 O      8.127391    1.599730   18.578023    ( 0.0000,  0.0000,  0.0000)
  37 O     12.946797    1.593611   18.443412    ( 0.0000,  0.0000,  0.0000)
  38 C     10.487283    1.613810   18.465018    ( 0.0000,  0.0000,  0.0000)
  39 C      9.254202    0.735498   18.479586    ( 0.0000,  0.0000,  0.0000)
  40 C     11.767204    0.787595   18.439817    ( 0.0000,  0.0000,  0.0000)
  41 H     10.460409    2.274524   17.587218    ( 0.0000,  0.0000,  0.0000)
  42 H     10.481167    2.253922   19.348684    ( 0.0000,  0.0000,  0.0000)
  43 H      9.222205    0.107323   17.566970    ( 0.0000,  0.0000,  0.0000)
  44 H      9.222067    0.089931   19.344691    ( 0.0000,  0.0000,  0.0000)
  45 H     11.762958    0.108583   17.569320    ( 0.0000,  0.0000,  0.0000)
  46 H     11.840203    0.167760   19.335999    ( 0.0000,  0.0000,  0.0000)
  47 H      7.301278    1.080363   18.461773    ( 0.0000,  0.0000,  0.0000)
  48 H     12.916082    2.171772   17.664018    ( 0.0000,  0.0000,  0.0000)
  49 N      8.060229    1.665407   16.831407    ( 0.0000,  0.0000,  0.0000)
  50 N      6.923132    1.605440   16.853871    ( 0.0000,  0.0000,  0.0000)

Unit cell:
           periodic     x           y           z      points  spacing
  1. axis:    yes    9.702222    0.000000    0.000000    60     0.1617
  2. axis:    yes    0.000000    9.702222    0.000000    60     0.1617
  3. axis:    no     0.000000    0.000000   28.351111   176     0.1611

  Lengths:   9.702222   9.702222  28.351111
  Angles:   90.000000  90.000000  90.000000

Effective grid spacing dv^(1/3) = 0.1615

     iter     time        total  log10-change:
                         energy  eigst   dens
iter:   1 20:51:39  -348.904101  -0.91
iter:   2 20:51:47  -348.888410  -1.24  -1.90
iter:   3 20:51:55  -348.875801c -1.81  -1.92
iter:   4 20:52:03  -348.872487c -1.95  -2.27
Writing to output.gpw (mode='')

iter:   5 20:52:11  -348.875803c -2.04  -2.31
iter:   6 20:52:19  -348.877882c -2.08  -2.17
iter:   7 20:52:27  -348.861462c -2.22  -2.18
iter:   8 20:52:35  -348.858405c -2.26  -2.56
iter:   9 20:52:42  -348.859590c -2.73  -2.69
Writing to output.gpw (mode='')

iter:  10 20:52:50  -348.858435c -2.93  -2.83
iter:  11 20:52:58  -348.859768c -3.20  -2.93
iter:  12 20:53:06  -348.858604c -3.16  -2.92
iter:  13 20:53:14  -348.859034c -3.62  -3.05
iter:  14 20:53:22  -348.858782c -3.63  -3.20
Writing to output.gpw (mode='')

iter:  15 20:53:29  -348.858922c -4.02  -3.49
iter:  16 20:53:37  -348.859061c -3.98  -3.58
iter:  17 20:53:45  -348.858908c -3.98  -3.46
iter:  18 20:53:53  -348.858970c -4.31  -3.72
iter:  19 20:54:01  -348.859015c -4.35  -3.74
Writing to output.gpw (mode='')

iter:  20 20:54:09  -348.858991c -4.57  -3.93
iter:  21 20:54:17  -348.858989c -4.49  -3.99
iter:  22 20:54:25  -348.858982c -4.70  -3.99
iter:  23 20:54:33  -348.859002c -4.83  -3.91
iter:  24 20:54:47  -348.858996c -5.06  -3.98
Writing to output.gpw (mode='')

iter:  25 20:54:55  -348.859037c -4.95  -3.90
iter:  26 20:55:03  -348.859020c -5.17  -4.08c
iter:  27 20:55:11  -348.859031c -5.35  -4.18c
iter:  28 20:55:19  -348.859033c -5.24  -4.24c
iter:  29 20:55:27  -348.859033c -5.37  -4.25c
Writing to output.gpw (mode='')

iter:  30 20:55:35  -348.859051c -5.48  -4.31c
iter:  31 20:55:42  -348.859045c -5.72  -4.32c
iter:  32 20:55:50  -348.859031c -5.52  -4.41c
iter:  33 20:55:58  -348.859033c -5.70  -4.68c
iter:  34 20:56:06  -348.859039c -5.82  -4.65c
Writing to output.gpw (mode='')

iter:  35 20:56:14  -348.859039c -6.06  -4.62c
iter:  36 20:56:22  -348.859040c -6.12  -4.59c
iter:  37 20:56:29  -348.859042c -5.94  -4.60c
iter:  38 20:56:37  -348.859041c -6.25  -4.56c
iter:  39 20:56:45  -348.859027c -6.18  -4.60c
Writing to output.gpw (mode='')

iter:  40 20:56:53  -348.859022c -6.30  -4.57c
iter:  41 20:57:01  -348.859039c -6.34  -4.53c
iter:  42 20:57:09  -348.859043c -6.72  -4.66c
iter:  43 20:57:17  -348.859044c -6.67  -4.75c
iter:  44 20:57:25  -348.859046c -6.61  -4.81c
Writing to output.gpw (mode='')

iter:  45 20:57:33  -348.859044c -6.98  -4.89c
iter:  46 20:57:40  -348.859045c -6.94  -4.95c
iter:  47 20:57:48  -348.859045c -7.01  -4.99c
iter:  48 20:57:56  -348.859047c -7.23  -5.05c
iter:  49 20:58:04  -348.859046c -7.44c -5.16c

Converged after 49 iterations.

Dipole moment: (5.068904, -17.374110, 0.125731) |e|*Ang

Energy contributions relative to reference atoms: (reference = -17528.314784)

Kinetic:       +198.037562
Potential:     -186.149901
External:        +0.000000
XC:            -361.826105
Entropy (-ST):   -0.164832
Local:           +1.161815
--------------------------
Free energy:   -348.941462
Extrapolated:  -348.859046

Dipole-layer corrected work functions: 3.399911, 3.158214 eV

Showing only first 2 kpts
 Kpt  Band  Eigenvalues  Occupancy
  0    37     -3.52559    1.98566
  0    38     -3.37574    1.74730
  0    39     -3.18439    0.26171
  0    40     -3.06862    0.02929

  1    37     -3.34400    1.57123
  1    38     -3.27069    0.91651
  1    39     -3.23799    0.61093
  1    40     -3.16095    0.17221


Fermi level: -3.27906

No gap
Writing to output.gpw (mode='')


Forces in eV/Ang:
  0 Li    0.01654    0.00535   -0.26681
  1 Li   -0.02057    0.00594   -0.27950
  2 Li    0.00662   -0.00027   -0.28109
  3 Li    0.00394   -0.00019   -0.28106
  4 Li   -0.00415    0.00898   -0.28294
  5 Li   -0.00258    0.02102   -0.27581
  6 Li   -0.00191   -0.00285   -0.27348
  7 Li    0.00165   -0.01041   -0.27903
  8 Li   -0.00408   -0.02259   -0.27728
  9 Li    0.00445    0.00360    0.29560
 10 Li   -0.00821    0.00119    0.24659
 11 Li    0.00032    0.01127    0.32543
 12 Li    0.00798   -0.00659    0.29602
 13 Li   -0.01467    0.00016    0.22862
 14 Li   -0.00033   -0.01491    0.32427
 15 Li   -0.01703    0.00764    0.23991
 16 Li    0.00857   -0.00788    0.27137
 17 Li    0.01298    0.00338    0.23310
 18 Li    0.01286   -0.00076    0.05496
 19 Li   -0.05961    0.00650   -0.07544
 20 Li    0.02734    0.00589   -0.20136
 21 Li   -0.01499   -0.00509    0.03889
 22 Li    0.03185   -0.03193    0.04892
 23 Li   -0.00867   -0.01603    0.03592
 24 Li   -0.01486    0.00498    0.05522
 25 Li    0.02657    0.02548    0.05652
 26 Li   -0.00583    0.01495    0.04799
 27 Li    0.08132   -0.06361   -0.22479
 28 Li    0.01376   -0.02570   -0.09641
 29 Li   -0.10369    0.07705    0.04672
 30 Li    0.00021    0.00755   -0.01933
 31 Li   -0.00527    0.14499   -0.29403
 32 Li    0.02066   -0.05361    0.11503
 33 Li   -0.01887   -0.00047   -0.02391
 34 Li    0.00625   -0.00976   -0.00659
 35 Li    0.00680    0.02115   -0.02105
 36 O     1.86339   -0.45538    5.38111
 37 O     0.00842   -0.13734    0.15836
 38 C     0.14769   -0.06884    0.18129
 39 C     0.74737   -0.46615    1.30503
 40 C     0.14390    0.07462    0.13752
 41 H     0.05756   -0.07188    0.07229
 42 H     0.02575    0.06376    0.02550
 43 H    -0.15619   -0.05132    0.44054
 44 H     0.33649   -0.48299    0.30078
 45 H    -0.05544   -0.03947    0.01556
 46 H    -0.00503   -0.06119   -0.01770
 47 H     0.34304    0.10930    0.92606
 48 H     0.04712    0.01292   -0.06451
 49 N     0.24840    1.94144   -4.70433
 50 N    -3.74830   -0.47478   -3.66156

System changes: positions 

Initializing position-dependent things.

Density initialized from wave functions
       .-----------------------.  
      /|                       |  
     / |                       |  
    /  |                       |  
   /   |                       |  
  /    |                       |  
 *     |                       |  
 |     |                       |  
 |     |                       |  
 |     |                       |  
 |     |                       |  
 |     |                       |  
 |     |                       |  
 |     |                       |  
 |     |                       |  
 |     |                       |  
 |  H  Li      Li              |  
 |  C H|  O           O H      |  
 |  H  C  H  Li     HLi C    Li|  
 |    H|  Li      LN  N H Li   |  
 |     |   Li      Li      Li  |  
 |     |Li      Li      Li     |  
 |     |         Li            |  
 |   LLi     LLi     LLi       |  
 |     |  Li      Li      Li   |  
 | Li  |   Li      Li          |  
 |     |Li      Li      Li     |  
 Li    | Li      Li            |  
 |    Li      Li      Li       |  
 |     |                       |  
 |     |                       |  
 |     |                       |  
 |     |                       |  
 |     |                       |  
 |     |                       |  
 |     .-----------------------.  
 |    /                       /   
 |   /                       /    
 |  /                       /     
 | /                       /      
 |/                       /       
 *-----------------------*        

Positions:
   0 Li     1.617037    1.617037   10.000000    ( 0.0000,  0.0000,  0.0000)
   1 Li     4.851111    1.617037   10.000000    ( 0.0000,  0.0000,  0.0000)
   2 Li     8.085185    1.617037   10.000000    ( 0.0000,  0.0000,  0.0000)
   3 Li     1.617037    4.851111   10.000000    ( 0.0000,  0.0000,  0.0000)
   4 Li     4.851111    4.851111   10.000000    ( 0.0000,  0.0000,  0.0000)
   5 Li     8.085185    4.851111   10.000000    ( 0.0000,  0.0000,  0.0000)
   6 Li     1.617037    8.085185   10.000000    ( 0.0000,  0.0000,  0.0000)
   7 Li     4.851111    8.085185   10.000000    ( 0.0000,  0.0000,  0.0000)
   8 Li     8.085185    8.085185   10.000000    ( 0.0000,  0.0000,  0.0000)
   9 Li     0.000000    0.000000   11.617037    ( 0.0000,  0.0000,  0.0000)
  10 Li     3.234074    0.000000   11.617037    ( 0.0000,  0.0000,  0.0000)
  11 Li     6.468148    0.000000   11.617037    ( 0.0000,  0.0000,  0.0000)
  12 Li     0.000000    3.234074   11.617037    ( 0.0000,  0.0000,  0.0000)
  13 Li     3.234074    3.234074   11.617037    ( 0.0000,  0.0000,  0.0000)
  14 Li     6.468148    3.234074   11.617037    ( 0.0000,  0.0000,  0.0000)
  15 Li     0.000000    6.468148   11.617037    ( 0.0000,  0.0000,  0.0000)
  16 Li     3.234074    6.468148   11.617037    ( 0.0000,  0.0000,  0.0000)
  17 Li     6.468148    6.468148   11.617037    ( 0.0000,  0.0000,  0.0000)
  18 Li     1.617501    1.617017   13.471479    ( 0.0000,  0.0000,  0.0000)
  19 Li     4.849185    1.617244   13.467189    ( 0.0000,  0.0000,  0.0000)
  20 Li     8.086021    1.617213   13.463307    ( 0.0000,  0.0000,  0.0000)
  21 Li     1.616547    4.850933   13.470967    ( 0.0000,  0.0000,  0.0000)
  22 Li     4.852106    4.850111   13.471262    ( 0.0000,  0.0000,  0.0000)
  23 Li     8.084914    4.850656   13.470784    ( 0.0000,  0.0000,  0.0000)
  24 Li     1.616538    8.085367   13.471501    ( 0.0000,  0.0000,  0.0000)
  25 Li     4.851944    8.085991   13.471484    ( 0.0000,  0.0000,  0.0000)
  26 Li     8.085014    8.085598   13.471190    ( 0.0000,  0.0000,  0.0000)
  27 Li     0.002348   -0.001785   15.439017    ( 0.0000,  0.0000,  0.0000)
  28 Li     3.234445   -0.000875   15.442897    ( 0.0000,  0.0000,  0.0000)
  29 Li     6.465159    0.003243   15.448249    ( 0.0000,  0.0000,  0.0000)
  30 Li    -0.000099    3.234224   15.445582    ( 0.0000,  0.0000,  0.0000)
  31 Li     3.233854    3.238720   15.436658    ( 0.0000,  0.0000,  0.0000)
  32 Li     6.469069    3.231611   15.450430    ( 0.0000,  0.0000,  0.0000)
  33 Li    -0.000550    6.468147   15.445133    ( 0.0000,  0.0000,  0.0000)
  34 Li     3.234274    6.467827   15.445728    ( 0.0000,  0.0000,  0.0000)
  35 Li     6.468334    6.468827   15.445238    ( 0.0000,  0.0000,  0.0000)
  36 O      8.129241    1.596626   18.607830    ( 0.0000,  0.0000,  0.0000)
  37 O     12.947704    1.593255   18.443842    ( 0.0000,  0.0000,  0.0000)
  38 C     10.488827    1.613020   18.466642    ( 0.0000,  0.0000,  0.0000)
  39 C      9.254332    0.734571   18.486086    ( 0.0000,  0.0000,  0.0000)
  40 C     11.768127    0.787827   18.440668    ( 0.0000,  0.0000,  0.0000)
  41 H     10.460612    2.273555   17.588071    ( 0.0000,  0.0000,  0.0000)
  42 H     10.481628    2.254633   19.349102    ( 0.0000,  0.0000,  0.0000)
  43 H      9.220837    0.107457   17.570832    ( 0.0000,  0.0000,  0.0000)
  44 H      9.226917    0.083554   19.348509    ( 0.0000,  0.0000,  0.0000)
  45 H     11.762568    0.108454   17.569724    ( 0.0000,  0.0000,  0.0000)
  46 H     11.840263    0.167161   19.335988    ( 0.0000,  0.0000,  0.0000)
  47 H      7.308477    1.082361   18.469446    ( 0.0000,  0.0000,  0.0000)
  48 H     12.916511    2.171364   17.664303    ( 0.0000,  0.0000,  0.0000)
  49 N      8.050816    1.679744   16.795271    ( 0.0000,  0.0000,  0.0000)
  50 N      6.915660    1.601122   16.837611    ( 0.0000,  0.0000,  0.0000)

Unit cell:
           periodic     x           y           z      points  spacing
  1. axis:    yes    9.702222    0.000000    0.000000    60     0.1617
  2. axis:    yes    0.000000    9.702222    0.000000    60     0.1617
  3. axis:    no     0.000000    0.000000   28.351111   176     0.1611

  Lengths:   9.702222   9.702222  28.351111
  Angles:   90.000000  90.000000  90.000000

Effective grid spacing dv^(1/3) = 0.1615

     iter     time        total  log10-change:
                         energy  eigst   dens
iter:   1 20:58:14  -349.337534  -1.02
iter:   2 20:58:22  -349.330314  -1.45  -2.02
iter:   3 20:58:30  -349.323618c -2.01  -2.05
iter:   4 20:58:38  -349.314278c -1.85  -2.36
Writing to output.gpw (mode='')

iter:   5 20:58:46  -349.316252c -2.44  -2.49
iter:   6 20:58:53  -349.317467c -2.48  -2.43
iter:   7 20:59:01  -349.313255c -2.44  -2.49
iter:   8 20:59:09  -349.312395c -2.80  -2.83
iter:   9 20:59:17  -349.312616c -3.23  -2.95
Writing to output.gpw (mode='')

iter:  10 20:59:25  -349.312986c -3.44  -3.01
iter:  11 20:59:33  -349.312445c -3.39  -3.09
iter:  12 20:59:47  -349.312763c -3.56  -3.06
iter:  13 20:59:57  -349.312648c -3.82  -3.24
iter:  14 21:00:05  -349.312655c -4.16  -3.54
Writing to output.gpw (mode='')

iter:  15 21:00:13  -349.312798c -4.29  -3.57
iter:  16 21:00:21  -349.312736c -4.38  -3.68
iter:  17 21:00:29  -349.312752c -4.40  -3.89
iter:  18 21:00:37  -349.312763c -4.75  -3.91
iter:  19 21:00:45  -349.312772c -4.90  -3.93
Writing to output.gpw (mode='')

iter:  20 21:00:53  -349.312749c -4.91  -3.98
iter:  21 21:01:01  -349.312762c -5.06  -4.08c
iter:  22 21:01:09  -349.312773c -4.89  -4.12c
iter:  23 21:01:17  -349.312779c -5.44  -4.17c
iter:  24 21:01:25  -349.312791c -5.55  -4.18c
Writing to output.gpw (mode='')

iter:  25 21:01:33  -349.312786c -5.48  -4.19c
iter:  26 21:01:41  -349.312796c -5.74  -4.25c
iter:  27 21:01:49  -349.312782c -5.59  -4.27c
iter:  28 21:01:57  -349.312788c -5.87  -4.32c
iter:  29 21:02:05  -349.312799c -6.09  -4.35c
Writing to output.gpw (mode='')

iter:  30 21:02:13  -349.312790c -5.91  -4.46c
iter:  31 21:02:21  -349.312796c -6.38  -4.43c
iter:  32 21:02:29  -349.312793c -6.31  -4.53c
iter:  33 21:02:37  -349.312796c -6.42  -4.66c
iter:  34 21:02:45  -349.312793c -6.29  -4.91c
Writing to output.gpw (mode='')

iter:  35 21:02:53  -349.312794c -6.66  -5.12c
iter:  36 21:03:01  -349.312796c -6.42  -5.24c
iter:  37 21:03:09  -349.312794c -6.45  -5.31c
iter:  38 21:03:17  -349.312796c -6.87  -5.45c
iter:  39 21:03:25  -349.312795c -6.71  -5.53c
Writing to output.gpw (mode='')

iter:  40 21:03:33  -349.312796c -6.96  -5.60c
iter:  41 21:03:41  -349.312796c -6.97  -5.61c
iter:  42 21:03:49  -349.312796c -6.93  -5.66c
iter:  43 21:03:57  -349.312796c -7.29  -5.69c
iter:  44 21:04:05  -349.312796c -7.28  -5.84c
Writing to output.gpw (mode='')

iter:  45 21:04:13  -349.312796c -7.36  -5.84c
iter:  46 21:04:21  -349.312797c -7.45c -5.91c

Converged after 46 iterations.

Dipole moment: (5.025310, -17.259868, 0.083932) |e|*Ang

Energy contributions relative to reference atoms: (reference = -17528.314784)

Kinetic:       +196.296287
Potential:     -185.043949
External:        +0.000000
XC:            -361.647312
Entropy (-ST):   -0.163964
Local:           +1.164160
--------------------------
Free energy:   -349.394779
Extrapolated:  -349.312797

Dipole-layer corrected work functions: 3.402327, 3.240981 eV

Showing only first 2 kpts
 Kpt  Band  Eigenvalues  Occupancy
  0    37     -3.56797    1.98560
  0    38     -3.41669    1.73996
  0    39     -3.22496    0.25263
  0    40     -3.10986    0.02852

  1    37     -3.38986    1.59284
  1    38     -3.31012    0.88515
  1    39     -3.28257    0.62793
  1    40     -3.20008    0.16161


Fermi level: -3.32165

No gap
Writing to output.gpw (mode='')


Forces in eV/Ang:
  0 Li    0.01767    0.00545   -0.26691
  1 Li   -0.02047    0.00624   -0.27982
  2 Li    0.00637   -0.00014   -0.28057
  3 Li    0.00364    0.00079   -0.28195
  4 Li   -0.00501    0.00917   -0.28339
  5 Li   -0.00297    0.02151   -0.27620
  6 Li   -0.00218   -0.00335   -0.27468
  7 Li    0.00097   -0.01011   -0.27936
  8 Li   -0.00416   -0.02325   -0.27790
  9 Li    0.00402    0.00353    0.29532
 10 Li   -0.00988    0.00069    0.24670
 11 Li    0.00009    0.01228    0.32609
 12 Li    0.00769   -0.00639    0.29550
 13 Li   -0.01618    0.00016    0.22848
 14 Li   -0.00001   -0.01549    0.32491
 15 Li   -0.01709    0.00807    0.24076
 16 Li    0.01048   -0.00835    0.26936
 17 Li    0.01348    0.00335    0.23267
 18 Li    0.01152   -0.00080    0.04937
 19 Li   -0.05795    0.00663   -0.07017
 20 Li    0.02736    0.00713   -0.19025
 21 Li   -0.01395   -0.00489    0.03826
 22 Li    0.03268   -0.03140    0.04779
 23 Li   -0.00858   -0.01627    0.03597
 24 Li   -0.01339    0.00389    0.05324
 25 Li    0.02716    0.02441    0.05624
 26 Li   -0.00631    0.01473    0.04573
 27 Li    0.07841   -0.06140   -0.20492
 28 Li    0.01604   -0.02297   -0.09117
 29 Li   -0.10485    0.05231    0.03523
 30 Li   -0.01531   -0.00595   -0.00548
 31 Li   -0.00055    0.14122   -0.28925
 32 Li    0.02841   -0.03336    0.10437
 33 Li   -0.01848   -0.00193   -0.02381
 34 Li    0.00554   -0.00951   -0.00756
 35 Li    0.00565    0.01987   -0.02248
 36 O     1.60211   -0.36077    4.67597
 37 O     0.03013   -0.12206    0.13323
 38 C     0.09863   -0.07014    0.17782
 39 C     0.57387   -0.35355    1.16767
 40 C     0.12167    0.05844    0.12660
 41 H     0.04528   -0.08055    0.07772
 42 H     0.03746    0.06386    0.02893
 43 H    -0.18478   -0.01004    0.41885
 44 H     0.38766   -0.49897    0.26385
 45 H    -0.04738   -0.03300    0.02181
 46 H     0.00418   -0.06204   -0.01048
 47 H     0.29735    0.07112    0.85633
 48 H     0.04632    0.00868   -0.04748
 49 N     0.25125    1.75298   -4.29480
 50 N    -3.27212   -0.49922   -3.13963

System changes: positions 

Initializing position-dependent things.

Density initialized from wave functions
[...]
  0    38     -3.51258    1.30385
  0    39     -3.45094    0.70624
  0    40     -3.27291    0.03055

  1    37     -3.71947    1.98310
  1    38     -3.62300    1.88916
  1    39     -3.42172    0.46664
  1    40     -3.23426    0.01422


Fermi level: -3.48121

No gap
Writing to output.gpw (mode='')


Forces in eV/Ang:
  0 Li   -0.00709    0.01199   -0.29798
  1 Li    0.00769   -0.00915   -0.29353
  2 Li   -0.00067    0.00048   -0.25047
  3 Li    0.00735    0.00929   -0.29644
  4 Li   -0.01660    0.01610   -0.28767
  5 Li    0.01038   -0.00610   -0.28809
  6 Li    0.01296   -0.01525   -0.28259
  7 Li   -0.00732   -0.00645   -0.28947
  8 Li   -0.01159    0.00967   -0.29757
  9 Li   -0.03396    0.02030    0.27681
 10 Li   -0.00193    0.01437    0.29304
 11 Li    0.02839    0.01288    0.31210
 12 Li   -0.02739   -0.02779    0.32199
 13 Li    0.01674   -0.01220    0.29679
 14 Li    0.03197   -0.03633    0.24074
 15 Li   -0.03015    0.00874    0.27421
 16 Li    0.00541   -0.00754    0.26719
 17 Li    0.03110   -0.01345    0.25187
 18 Li    0.01199    0.00750   -0.01261
 19 Li   -0.00427    0.00724   -0.00279
 20 Li   -0.00810    0.00125    0.03356
 21 Li   -0.00206   -0.00801    0.00668
 22 Li   -0.00213    0.00327    0.01032
 23 Li    0.00275    0.00621   -0.00001
 24 Li   -0.00712    0.00637    0.00353
 25 Li   -0.00144    0.00261    0.00272
 26 Li   -0.00350    0.01062    0.00473
 27 Li   -0.01206   -0.00621    0.01396
 28 Li   -0.01512    0.00022    0.00205
 29 Li    0.01522    0.00540    0.01122
 30 Li   -0.02134   -0.01207    0.01811
 31 Li   -0.00222   -0.00395   -0.01011
 32 Li    0.01249    0.00460    0.00192
 33 Li    0.00093   -0.00151   -0.00757
 34 Li    0.00457   -0.00336   -0.01022
 35 Li    0.00932   -0.00444   -0.00065
 36 O     0.01774   -0.05518   -0.01033
 37 O    -0.02728    0.02402   -0.00757
 38 C    -0.00713    0.02124    0.03669
 39 C     0.01746   -0.01705   -0.00211
 40 C    -0.00354   -0.00880    0.02250
 41 H    -0.00603   -0.00199   -0.01193
 42 H     0.02038    0.00673   -0.01242
 43 H    -0.02416    0.01397   -0.00608
 44 H     0.01032    0.02368   -0.01973
 45 H    -0.00107   -0.01489    0.00771
 46 H    -0.01204   -0.01804    0.00185
 47 H    -0.00618   -0.00219    0.01011
 48 H    -0.02266   -0.01431    0.01790
 49 N    -0.03335   -0.02169   -0.02920
 50 N     0.03427    0.01950   -0.01313

System changes: positions 

Initializing position-dependent things.

Density initialized from wave functions
       .-----------------------.  
      /|                       |  
     / |                       |  
    /  |                       |  
   /   |                       |  
  /    |                       |  
 *     |                       |  
 |     |                       |  
 |     |                       |  
 |     |                       |  
 |     |                       |  
 |     |    H                  |  
 |     |                       |  
 |     |                       |  
 |     |                       |  
 |   H |                       |  
 |  C  |       Li   H  OH      |  
 |   H C  O              C     |  
 |   Li|   H Li      Li H      |  
 |    H|  Li      Li      Li   |  
 | Li  |   Li      Li          |  
 |     |Li      Li   N NLi     |  
 |     |                 Li    |  
 |   LLi     LLi     LLi       |  
 |     |  Li      Li      Li   |  
 | Li  |   Li      Li          |  
 |     |Li      Li      Li     |  
 Li    | Li      Li            |  
 |    Li      Li      Li       |  
 |     |                       |  
 |     |                       |  
 |     |                       |  
 |     |                       |  
 |     |                       |  
 |     |                       |  
 |     .-----------------------.  
 |    /                       /   
 |   /                       /    
 |  /                       /     
 | /                       /      
 |/                       /       
 *-----------------------*        

Positions:
   0 Li     1.617037    1.617037   10.000000    ( 0.0000,  0.0000,  0.0000)
   1 Li     4.851111    1.617037   10.000000    ( 0.0000,  0.0000,  0.0000)
   2 Li     8.085185    1.617037   10.000000    ( 0.0000,  0.0000,  0.0000)
   3 Li     1.617037    4.851111   10.000000    ( 0.0000,  0.0000,  0.0000)
   4 Li     4.851111    4.851111   10.000000    ( 0.0000,  0.0000,  0.0000)
   5 Li     8.085185    4.851111   10.000000    ( 0.0000,  0.0000,  0.0000)
   6 Li     1.617037    8.085185   10.000000    ( 0.0000,  0.0000,  0.0000)
   7 Li     4.851111    8.085185   10.000000    ( 0.0000,  0.0000,  0.0000)
   8 Li     8.085185    8.085185   10.000000    ( 0.0000,  0.0000,  0.0000)
   9 Li     0.000000    0.000000   11.617037    ( 0.0000,  0.0000,  0.0000)
  10 Li     3.234074    0.000000   11.617037    ( 0.0000,  0.0000,  0.0000)
  11 Li     6.468148    0.000000   11.617037    ( 0.0000,  0.0000,  0.0000)
  12 Li     0.000000    3.234074   11.617037    ( 0.0000,  0.0000,  0.0000)
  13 Li     3.234074    3.234074   11.617037    ( 0.0000,  0.0000,  0.0000)
  14 Li     6.468148    3.234074   11.617037    ( 0.0000,  0.0000,  0.0000)
  15 Li     0.000000    6.468148   11.617037    ( 0.0000,  0.0000,  0.0000)
  16 Li     3.234074    6.468148   11.617037    ( 0.0000,  0.0000,  0.0000)
  17 Li     6.468148    6.468148   11.617037    ( 0.0000,  0.0000,  0.0000)
  18 Li     1.607821    1.653921   13.495112    ( 0.0000,  0.0000,  0.0000)
  19 Li     4.883006    1.571293   13.498593    ( 0.0000,  0.0000,  0.0000)
  20 Li     8.068034    1.619474   13.542823    ( 0.0000,  0.0000,  0.0000)
  21 Li     1.642057    4.910906   13.466327    ( 0.0000,  0.0000,  0.0000)
  22 Li     4.939735    4.805339   13.461279    ( 0.0000,  0.0000,  0.0000)
  23 Li     8.112962    4.822357   13.512846    ( 0.0000,  0.0000,  0.0000)
  24 Li     1.561186    8.141588   13.491257    ( 0.0000,  0.0000,  0.0000)
  25 Li     4.817682    8.028448   13.476442    ( 0.0000,  0.0000,  0.0000)
  26 Li     8.035302    8.062985   13.493068    ( 0.0000,  0.0000,  0.0000)
  27 Li    -0.233966    0.215545   15.483473    ( 0.0000,  0.0000,  0.0000)
  28 Li     3.156262   -0.031489   15.401352    ( 0.0000,  0.0000,  0.0000)
  29 Li     6.354163   -0.157861   15.480055    ( 0.0000,  0.0000,  0.0000)
  30 Li     0.134479    3.334421   15.464836    ( 0.0000,  0.0000,  0.0000)
  31 Li     3.395402    3.344174   15.320730    ( 0.0000,  0.0000,  0.0000)
  32 Li     6.717464    2.944568   15.659213    ( 0.0000,  0.0000,  0.0000)
  33 Li     0.032078    6.597386   15.438661    ( 0.0000,  0.0000,  0.0000)
  34 Li     3.214053    6.485395   15.448430    ( 0.0000,  0.0000,  0.0000)
  35 Li     6.385166    6.304991   15.454723    ( 0.0000,  0.0000,  0.0000)
  36 O      8.328648    1.979981   19.326288    ( 0.0000,  0.0000,  0.0000)
  37 O     13.121795    1.269544   18.790738    ( 0.0000,  0.0000,  0.0000)
  38 C     10.695836    1.645180   19.135474    ( 0.0000,  0.0000,  0.0000)
  39 C      9.337157    0.962525   19.239779    ( 0.0000,  0.0000,  0.0000)
  40 C     11.830592    0.652340   18.882795    ( 0.0000,  0.0000,  0.0000)
  41 H     10.658699    2.368362   18.312523    ( 0.0000,  0.0000,  0.0000)
  42 H     10.895268    2.206021   20.052381    ( 0.0000,  0.0000,  0.0000)
  43 H      9.162698    0.327096   18.358041    ( 0.0000,  0.0000,  0.0000)
  44 H      9.302030    0.311693   20.124365    ( 0.0000,  0.0000,  0.0000)
  45 H     11.622600    0.070104   17.970705    ( 0.0000,  0.0000,  0.0000)
  46 H     11.916205   -0.058101   19.707334    ( 0.0000,  0.0000,  0.0000)
  47 H      7.469777    1.546601   19.409181    ( 0.0000,  0.0000,  0.0000)
  48 H     13.130003    1.843291   18.009164    ( 0.0000,  0.0000,  0.0000)
  49 N      8.541000    2.028099   15.566988    ( 0.0000,  0.0000,  0.0000)
  50 N      7.653464    1.139639   15.573522    ( 0.0000,  0.0000,  0.0000)

Unit cell:
           periodic     x           y           z      points  spacing
  1. axis:    yes    9.702222    0.000000    0.000000    60     0.1617
  2. axis:    yes    0.000000    9.702222    0.000000    60     0.1617
  3. axis:    no     0.000000    0.000000   28.351111   176     0.1611

  Lengths:   9.702222   9.702222  28.351111
  Angles:   90.000000  90.000000  90.000000

Effective grid spacing dv^(1/3) = 0.1615

     iter     time        total  log10-change:
                         energy  eigst   dens
iter:   1 05:00:18  -353.658025  -2.06
iter:   2 05:00:26  -353.657840  -2.84  -2.58
iter:   3 05:00:34  -353.657555c -3.42  -2.79
iter:   4 05:00:42  -353.657585c -3.82  -2.98
Writing to output.gpw (mode='')

iter:   5 05:00:50  -353.657344c -3.87  -2.97
iter:   6 05:00:58  -353.657297c -4.05  -3.11
iter:   7 05:01:06  -353.657267c -4.12  -3.17
iter:   8 05:01:13  -353.657276c -4.56  -3.25
iter:   9 05:01:21  -353.657209c -3.99  -3.25
Writing to output.gpw (mode='')

iter:  10 05:01:29  -353.657202c -4.85  -3.20
iter:  11 05:01:37  -353.657218c -4.55  -3.25
iter:  12 05:01:45  -353.657219c -4.79  -3.39
iter:  13 05:01:53  -353.657232c -4.73  -3.53
iter:  14 05:02:01  -353.657238c -4.71  -3.56
Writing to output.gpw (mode='')

iter:  15 05:02:09  -353.657215c -5.00  -3.60
iter:  16 05:02:17  -353.657214c -5.53  -3.93
iter:  17 05:02:25  -353.657215c -5.82  -3.99
iter:  18 05:02:33  -353.657210c -5.85  -4.04c
iter:  19 05:02:41  -353.657211c -5.86  -4.18c
Writing to output.gpw (mode='')

iter:  20 05:02:49  -353.657210c -6.38  -4.27c
iter:  21 05:02:57  -353.657213c -6.72  -4.38c
iter:  22 05:03:05  -353.657215c -6.65  -4.48c
iter:  23 05:03:13  -353.657215c -7.34  -4.65c
iter:  24 05:03:21  -353.657213c -7.03  -4.73c
Writing to output.gpw (mode='')

iter:  25 05:03:29  -353.657213c -7.44c -4.89c

Converged after 25 iterations.

Dipole moment: (8.843749, -11.369018, -0.076234) |e|*Ang

Energy contributions relative to reference atoms: (reference = -17528.314784)

Kinetic:       +176.631933
Potential:     -169.867873
External:        +0.000000
XC:            -361.535387
Entropy (-ST):   -0.162945
Local:           +1.195585
--------------------------
Free energy:   -353.738685
Extrapolated:  -353.657213

Dipole-layer corrected work functions: 3.405917, 3.552464 eV

Showing only first 2 kpts
 Kpt  Band  Eigenvalues  Occupancy
  0    37     -3.72130    1.98435
  0    38     -3.51064    1.30450
  0    39     -3.44894    0.70639
  0    40     -3.27099    0.03062

  1    37     -3.71711    1.98299
  1    38     -3.62089    1.88896
  1    39     -3.41988    0.46789
  1    40     -3.23221    0.01421


Fermi level: -3.47919

No gap

Forces in eV/Ang:
  0 Li   -0.00676    0.01201   -0.29765
  1 Li    0.00792   -0.00914   -0.29353
  2 Li   -0.00058    0.00040   -0.25032
  3 Li    0.00761    0.00921   -0.29641
  4 Li   -0.01645    0.01601   -0.28786
  5 Li    0.01056   -0.00625   -0.28800
  6 Li    0.01323   -0.01524   -0.28252
  7 Li   -0.00715   -0.00648   -0.28947
  8 Li   -0.01138    0.00975   -0.29744
  9 Li   -0.03538    0.02090    0.27642
 10 Li   -0.00315    0.01410    0.29207
 11 Li    0.02666    0.01300    0.31182
 12 Li   -0.02881   -0.02724    0.32145
 13 Li    0.01596   -0.01067    0.29663
 14 Li    0.03035   -0.03489    0.24086
 15 Li   -0.03060    0.00899    0.27444
 16 Li    0.00366   -0.00829    0.26864
 17 Li    0.03019   -0.01324    0.25285
 18 Li    0.00794    0.00644   -0.00937
 19 Li   -0.00209    0.00518   -0.00211
 20 Li   -0.00544    0.00000    0.02733
 21 Li   -0.00111   -0.00621    0.00335
 22 Li   -0.00088    0.00327    0.00688
 23 Li    0.00198    0.00518   -0.00128
 24 Li   -0.00603    0.00528    0.00290
 25 Li   -0.00060    0.00249    0.00233
 26 Li   -0.00363    0.00908    0.00425
 27 Li   -0.00650   -0.00393    0.01085
 28 Li   -0.01272    0.00081    0.00208
 29 Li    0.01555    0.00824    0.01012
 30 Li   -0.02177   -0.01624    0.01495
 31 Li   -0.00231   -0.00544   -0.00725
 32 Li    0.01234    0.00410    0.00210
 33 Li    0.00022   -0.00119   -0.00641
 34 Li    0.00412   -0.00268   -0.00921
 35 Li    0.00967   -0.00371   -0.00019
 36 O    -0.00889   -0.03415    0.01072
 37 O    -0.01370    0.02531   -0.00656
 38 C     0.00165    0.01231    0.02328
 39 C     0.01018   -0.01568   -0.00884
 40 C     0.00782   -0.01452    0.01672
 41 H    -0.00727    0.00167   -0.00867
 42 H     0.01917    0.00701   -0.01000
 43 H    -0.01829    0.00501   -0.01075
 44 H     0.01977    0.01502   -0.00856
 45 H    -0.01493   -0.00949    0.00650
 46 H    -0.01466   -0.02276    0.02069
 47 H     0.00326    0.01275    0.00817
 48 H    -0.01907   -0.00744    0.01017
 49 N     0.03144    0.00224    0.00403
 50 N     0.04518   -0.00935    0.00334

Timing:                                      incl.     excl.
-------------------------------------------------------------------
Density initialized from wave functions:     6.863     6.860   0.0% |
 Symmetrize density:                         0.003     0.003   0.0% |
Forces:                                     60.223    60.223   0.2% |
Hamiltonian:                               696.014     0.016   0.0% |
 Atomic:                                     0.027     0.026   0.0% |
  XC Correction:                             0.000     0.000   0.0% |
 Calculate atomic Hamiltonians:              0.046     0.046   0.0% |
 Communicate:                                7.368     7.368   0.0% |
 Hartree integrate/restrict:                 2.843     2.843   0.0% |
 Initialize Hamiltonian:                     0.000     0.000   0.0% |
 Poisson:                                   34.271    12.623   0.0% |
  Communicate from 1D:                       3.435     3.435   0.0% |
  Communicate from 2D:                       3.294     3.294   0.0% |
  Communicate to 1D:                         1.995     1.995   0.0% |
  Communicate to 2D:                         3.823     3.823   0.0% |
  FFT 1D:                                    4.489     4.489   0.0% |
  FFT 2D:                                    4.613     4.613   0.0% |
 XC 3D grid:                               650.832    99.734   0.3% |
  VdW-DF integral:                         551.098     4.480   0.0% |
   Convolution:                             49.985    49.985   0.2% |
   FFT:                                     21.506    21.506   0.1% |
   gather:                                 184.607   184.607   0.6% |
   hmm1:                                    19.116    19.116   0.1% |
   hmm2:                                    24.674    24.674   0.1% |
   iFFT:                                    21.967    21.967   0.1% |
   potential:                              221.186     6.184   0.0% |
    collect:                                35.609    35.609   0.1% |
    p1:                                    100.730   100.730   0.3% |
    p2:                                     37.860    37.860   0.1% |
    sum:                                    40.803    40.803   0.1% |
   splines:                                  3.577     3.577   0.0% |
 vbar:                                       0.610     0.610   0.0% |
LCAO initialization:                         1.432     0.182   0.0% |
 LCAO eigensolver:                           0.358     0.000   0.0% |
  Calculate projections:                     0.000     0.000   0.0% |
  DenseAtomicCorrection:                     0.000     0.000   0.0% |
  Distribute overlap matrix:                 0.190     0.190   0.0% |
  Orbital Layouts:                           0.165     0.165   0.0% |
  Potential matrix:                          0.002     0.002   0.0% |
  Sum over cells:                            0.001     0.001   0.0% |
 LCAO to grid:                               0.722     0.722   0.0% |
 Set positions (LCAO WFS):                   0.171     0.117   0.0% |
  Basic WFS set positions:                   0.001     0.001   0.0% |
  Basis functions set positions:             0.000     0.000   0.0% |
  P tci:                                     0.000     0.000   0.0% |
  ST tci:                                    0.020     0.020   0.0% |
  mktci:                                     0.032     0.032   0.0% |
Redistribute:                                0.069     0.069   0.0% |
SCF-cycle:                               30815.117   496.661   1.6% ||
 Davidson:                                9037.763  2676.596   8.4% |--|
  Apply hamiltonian:                       580.129   580.129   1.8% ||
  Subspace diag:                          1697.796     0.451   0.0% |
   calc_h_matrix:                          900.683   302.708   1.0% |
    Apply hamiltonian:                     597.974   597.974   1.9% ||
   diagonalize:                             57.769    57.769   0.2% |
   rotate_psi:                             738.893   738.893   2.3% ||
  calc. matrices:                         2895.415  1510.049   4.8% |-|
   Apply hamiltonian:                     1385.366  1385.366   4.4% |-|
  diagonalize:                              26.725    26.725   0.1% |
  rotate_psi:                             1161.101  1161.101   3.7% ||
 Density:                                  164.369     0.238   0.0% |
  Atomic density matrices:                  20.465    20.465   0.1% |
  Mix:                                      72.073    72.073   0.2% |
  Multipole moments:                         6.478     6.478   0.0% |
  Pseudo density:                           65.115    65.022   0.2% |
   Symmetrize density:                       0.093     0.093   0.0% |
 Hamiltonian:                            21092.166     0.472   0.0% |
  Atomic:                                    0.993     0.983   0.0% |
   XC Correction:                            0.010     0.010   0.0% |
  Calculate atomic Hamiltonians:             1.469     1.469   0.0% |
  Communicate:                             295.998   295.998   0.9% |
  Hartree integrate/restrict:               86.127    86.127   0.3% |
  Poisson:                                1043.605   385.637   1.2% |
   Communicate from 1D:                    105.634   105.634   0.3% |
   Communicate from 2D:                    103.223   103.223   0.3% |
   Communicate to 1D:                       59.753    59.753   0.2% |
   Communicate to 2D:                      117.111   117.111   0.4% |
   FFT 1D:                                 134.897   134.897   0.4% |
   FFT 2D:                                 137.350   137.350   0.4% |
  XC 3D grid:                            19644.610  3055.500   9.6% |---|
   VdW-DF integral:                      16589.110   133.484   0.4% |
    Convolution:                          1503.493  1503.493   4.7% |-|
    FFT:                                   641.349   641.349   2.0% ||
    gather:                               5596.308  5596.308  17.6% |------|
    hmm1:                                  566.625   566.625   1.8% ||
    hmm2:                                  738.848   738.848   2.3% ||
    iFFT:                                  662.849   662.849   2.1% ||
    potential:                            6746.121   185.759   0.6% |
     collect:                             1054.852  1054.852   3.3% ||
     p1:                                  3041.093  3041.093   9.6% |---|
     p2:                                  1137.824  1137.824   3.6% ||
     sum:                                 1326.593  1326.593   4.2% |-|
    splines:                                 0.035     0.035   0.0% |
  vbar:                                     18.892    18.892   0.1% |
 Orthonormalize:                            24.157     0.017   0.0% |
  calc_s_matrix:                             4.007     4.007   0.0% |
  inverse-cholesky:                          5.581     5.581   0.0% |
  projections:                               0.003     0.003   0.0% |
  rotate_psi_s:                             14.550    14.550   0.0% |
Set symmetry:                                0.002     0.002   0.0% |
Other:                                     142.394   142.394   0.4% |
-------------------------------------------------------------------
Total:                                             31722.113 100.0%

Memory usage: 1.19 GiB
Date: Sat Mar 11 05:03:30 2023
