
  ___ ___ ___ _ _ _  
 |   |   |_  | | | | 
 | | | | | . | | | | 
 |__ |  _|___|_____|  22.8.0
 |___|_|             

User:   vazumah@r418.ib.bridges2.psc.edu
Date:   Fri Mar 10 11:20:32 2023
Arch:   x86_64
Pid:    53304
CWD:    /jet/home/vazumah/Calcs/LiMEAS/proton_donors/methanol_x/ontop/9.702_9.702/N2_y
Python: 3.11.0
gpaw:   /jet/home/vazumah/.conda/envs/GPAW_mpich/lib/python3.11/site-packages/gpaw
_gpaw:  /jet/home/vazumah/.conda/envs/GPAW_mpich/lib/python3.11/site-packages/
        _gpaw.cpython-311-x86_64-linux-gnu.so
ase:    /jet/home/vazumah/.conda/envs/GPAW_mpich/lib/python3.11/site-packages/ase (version 3.22.1)
numpy:  /jet/home/vazumah/.conda/envs/GPAW_mpich/lib/python3.11/site-packages/numpy (version 1.24.2)
scipy:  /jet/home/vazumah/.conda/envs/GPAW_mpich/lib/python3.11/site-packages/scipy (version 1.10.1)
libxc:  5.2.3
units:  Angstrom and eV
cores: 128
OpenMP: True
OMP_NUM_THREADS: 1

Input parameters:
  h: 0.16
  kpts: {size: [4, 4, 1]}
  occupations: {name: fermi-dirac,
                width: 0.05}
  poissonsolver: {dipolelayer: xy}
  xc: BEEF-vdW

System changes: positions, numbers, cell, pbc, initial_charges, initial_magmoms 

Initialize ...

species:
  Li:
    name: Lithium
    id: 830b4218f175192f93f959cfc0aad614
    Z: 3.0
    valence: 1
    core: 2
    charge: 0.0
    file: /jet/home/vazumah/datasets/gpaw-setups-0.9.20000/Li.PBE.gz
    compensation charges: {type: gauss,
                           rc: 0.33,
                           lmax: 2}
    cutoffs: {filter: 1.91,
              core: 2.55}
    valence states:
      #              energy  rcut
      - 2s(1.00)    -2.874   1.058
      - 2p(0.00)    -1.090   1.058
      -  s          24.337   1.058
  
    # Using partial waves for Li as LCAO basis

  O:
    name: Oxygen
    id: 32ecd46bf208036f09c70b0ec9a88b78
    Z: 8.0
    valence: 6
    core: 2
    charge: 0.0
    file: /jet/home/vazumah/datasets/gpaw-setups-0.9.20000/O.PBE.gz
    compensation charges: {type: gauss,
                           rc: 0.21,
                           lmax: 2}
    cutoffs: {filter: 1.17,
              core: 0.83}
    valence states:
      #              energy  rcut
      - 2s(2.00)   -23.961   0.688
      - 2p(4.00)    -9.029   0.598
      -  s           3.251   0.688
      -  p          18.182   0.598
      -  d           0.000   0.619
  
    # Using partial waves for O as LCAO basis

  C:
    name: Carbon
    id: 4aa54d4b901d75f77cc0ea3eec22967b
    Z: 6.0
    valence: 4
    core: 2
    charge: 0.0
    file: /jet/home/vazumah/datasets/gpaw-setups-0.9.20000/C.PBE.gz
    compensation charges: {type: gauss,
                           rc: 0.20,
                           lmax: 2}
    cutoffs: {filter: 1.14,
              core: 1.14}
    valence states:
      #              energy  rcut
      - 2s(2.00)   -13.751   0.635
      - 2p(2.00)    -5.284   0.635
      -  s          13.461   0.635
      -  p          21.927   0.635
      -  d           0.000   0.635
  
    # Using partial waves for C as LCAO basis

  H:
    name: Hydrogen
    id: d65de229564ff8ea4db303e23b6d1ecf
    Z: 1.0
    valence: 1
    core: 0
    charge: 0.0
    file: /jet/home/vazumah/datasets/gpaw-setups-0.9.20000/H.PBE.gz
    compensation charges: {type: gauss,
                           rc: 0.15,
                           lmax: 2}
    cutoffs: {filter: 0.85,
              core: 0.53}
    valence states:
      #              energy  rcut
      - 1s(1.00)    -6.494   0.476
      -  s          20.717   0.476
      -  p           0.000   0.476
  
    # Using partial waves for H as LCAO basis

  N:
    name: Nitrogen
    id: f7500608b86eaa90eef8b1d9a670dc53
    Z: 7.0
    valence: 5
    core: 2
    charge: 0.0
    file: /jet/home/vazumah/datasets/gpaw-setups-0.9.20000/N.PBE.gz
    compensation charges: {type: gauss,
                           rc: 0.18,
                           lmax: 2}
    cutoffs: {filter: 1.11,
              core: 0.96}
    valence states:
      #              energy  rcut
      - 2s(2.00)   -18.583   0.603
      - 2p(3.00)    -7.089   0.529
      -  s           8.629   0.603
      -  p          20.123   0.529
      -  d           0.000   0.577
  
    # Using partial waves for N as LCAO basis

Reference energy: -13382.245603  # eV

Spin-paired calculation

Convergence criteria:
 Maximum [total energy] change in last 3 cyles: 0.0005 eV / electron
 Maximum integral of absolute [dens]ity change: 0.0001 electrons / valence electron
 Maximum integral of absolute [eigenst]ate change: 4e-08 eV^2 / valence electron
 Maximum number of scf [iter]ations: 333
 (Square brackets indicate name in SCF output, whereas a 'c' in
 the SCF output indicates the quantity has converged.)

Symmetries present (total): 1

  ( 1  0  0)
  ( 0  1  0)
  ( 0  0  1)

16 k-points: 4 x 4 x 1 Monkhorst-Pack grid
8 k-points in the irreducible part of the Brillouin zone
       k-points in crystal coordinates                weights
   0:     0.12500000   -0.37500000    0.00000000          2/16
   1:     0.12500000   -0.12500000    0.00000000          2/16
   2:     0.12500000    0.12500000    0.00000000          2/16
   3:     0.12500000    0.37500000    0.00000000          2/16
   4:     0.37500000   -0.37500000    0.00000000          2/16
   5:     0.37500000   -0.12500000    0.00000000          2/16
   6:     0.37500000    0.12500000    0.00000000          2/16
   7:     0.37500000    0.37500000    0.00000000          2/16

Wave functions: Uniform real-space grid
  Kinetic energy operator: 6*3+1=19 point O(h^6) finite-difference Laplacian
  ScaLapack parameters: grid=1x1, blocksize=None
  Wavefunction extrapolation:
    Improved wavefunction reuse through dual PAW basis 

Occupation numbers: Fermi-Dirac:
  width: 0.0500  # eV
 

Eigensolver
   Davidson(niter=2) 

Densities:
  Coarse grid: 60*60*168 grid
  Fine grid: 120*120*336 grid
  Total Charge: 0.000000 

Density mixing:
  Method: separate
  Backend: pulay
  Linear mixing parameter: 0.05
  old densities: 5
  Damping of long wavelength oscillations: 50 

Hamiltonian:
  XC and Coulomb potentials evaluated on a 120*120*336 grid
  Using the BEEF-vdW Exchange-Correlation functional
  Interpolation: tri-quintic (5. degree polynomial)
  Poisson solver: FastPoissonSolver using
    Stencil: 6*3+1=19 point O(h^6) finite-difference Laplacian
    FFT axes: [0, 1]
    FST axes: [2]

Dipole correction along z-axis 

XC parameters: BEEF-vdW with 2 nearest neighbor stencil

Memory estimate:
  Process memory now: 129.01 MiB
  Calculator: 77.36 MiB
    Density: 22.77 MiB
      Arrays: 7.40 MiB
      Localized functions: 12.55 MiB
      Mixer: 2.82 MiB
    Hamiltonian: 5.83 MiB
      Arrays: 4.84 MiB
      XC: 0.00 MiB
      Poisson: 0.00 MiB
      vbar: 0.99 MiB
    Wavefunctions: 48.76 MiB
      Arrays psit_nG: 22.52 MiB
      Eigensolver: 25.58 MiB
      Projections: 0.01 MiB
      Projectors: 0.64 MiB

Total number of cores used: 128
Parallelization over k-points: 8
Domain decomposition: 2 x 2 x 4

Number of atoms: 44
Number of atomic orbitals: 164
Number of bands in calculation: 40
Number of valence electrons: 60
Bands to converge: occupied

... initialized

Initializing position-dependent things.

Density initialized from atomic densities
Creating initial wave functions:
  40 bands from LCAO basis set

       .-----------------------.  
      /|                       |  
     / |                       |  
    /  |                       |  
   /   |                       |  
  /    |                       |  
 *     |                       |  
 |     |                       |  
 |     |                       |  
 |     |   H                   |  
 |     |   C                  H|  
 |     |   H                   |  
 |     |                       N  
 |     |                       |  
 |     |                       |  
 |     |                       |  
 O   LH|     Li      Li        |  
 |     |  Li      Li      Ni   |  
 | Li  |   Li      Li          |  
 |     |Li      Li      Li     |  
 Li    | Li      Li            |  
 |   LLi     LLi     LLi       |  
 |     |  Li      Li      Li   |  
 | Li  |   Li      Li          |  
 |     |Li      Li      Li     |  
 Li    | Li      Li            |  
 |    Li      Li      Li       |  
 |     |                       |  
 |     |                       |  
 |     |                       |  
 |     |                       |  
 |     |                       |  
 |     |                       |  
 |     .-----------------------.  
 |    /                       /   
 |   /                       /    
 |  /                       /     
 | /                       /      
 |/                       /       
 *-----------------------*        

Positions:
   0 Li     1.617037    1.617037   10.000000    ( 0.0000,  0.0000,  0.0000)
   1 Li     4.851111    1.617037   10.000000    ( 0.0000,  0.0000,  0.0000)
   2 Li     8.085185    1.617037   10.000000    ( 0.0000,  0.0000,  0.0000)
   3 Li     1.617037    4.851111   10.000000    ( 0.0000,  0.0000,  0.0000)
   4 Li     4.851111    4.851111   10.000000    ( 0.0000,  0.0000,  0.0000)
   5 Li     8.085185    4.851111   10.000000    ( 0.0000,  0.0000,  0.0000)
   6 Li     1.617037    8.085185   10.000000    ( 0.0000,  0.0000,  0.0000)
   7 Li     4.851111    8.085185   10.000000    ( 0.0000,  0.0000,  0.0000)
   8 Li     8.085185    8.085185   10.000000    ( 0.0000,  0.0000,  0.0000)
   9 Li     0.000000    0.000000   11.617037    ( 0.0000,  0.0000,  0.0000)
  10 Li     3.234074    0.000000   11.617037    ( 0.0000,  0.0000,  0.0000)
  11 Li     6.468148    0.000000   11.617037    ( 0.0000,  0.0000,  0.0000)
  12 Li     0.000000    3.234074   11.617037    ( 0.0000,  0.0000,  0.0000)
  13 Li     3.234074    3.234074   11.617037    ( 0.0000,  0.0000,  0.0000)
  14 Li     6.468148    3.234074   11.617037    ( 0.0000,  0.0000,  0.0000)
  15 Li     0.000000    6.468148   11.617037    ( 0.0000,  0.0000,  0.0000)
  16 Li     3.234074    6.468148   11.617037    ( 0.0000,  0.0000,  0.0000)
  17 Li     6.468148    6.468148   11.617037    ( 0.0000,  0.0000,  0.0000)
  18 Li     1.617038    1.617038   13.469728    ( 0.0000,  0.0000,  0.0000)
  19 Li     4.851111    1.617038   13.469729    ( 0.0000,  0.0000,  0.0000)
  20 Li     8.085184    1.617038   13.469728    ( 0.0000,  0.0000,  0.0000)
  21 Li     1.617038    4.851111   13.469729    ( 0.0000,  0.0000,  0.0000)
  22 Li     4.851111    4.851111   13.469730    ( 0.0000,  0.0000,  0.0000)
  23 Li     8.085184    4.851111   13.469729    ( 0.0000,  0.0000,  0.0000)
  24 Li     1.617038    8.085184   13.469728    ( 0.0000,  0.0000,  0.0000)
  25 Li     4.851111    8.085184   13.469729    ( 0.0000,  0.0000,  0.0000)
  26 Li     8.085184    8.085184   13.469728    ( 0.0000,  0.0000,  0.0000)
  27 Li    -0.000000   -0.000000   15.445939    ( 0.0000,  0.0000,  0.0000)
  28 Li     3.234074    0.000000   15.445939    ( 0.0000,  0.0000,  0.0000)
  29 Li     6.468148    0.000000   15.445939    ( 0.0000,  0.0000,  0.0000)
  30 Li     0.000000    3.234074   15.445939    ( 0.0000,  0.0000,  0.0000)
  31 Li     3.234076    3.234076   15.445938    ( 0.0000,  0.0000,  0.0000)
  32 Li     6.468146    3.234076   15.445938    ( 0.0000,  0.0000,  0.0000)
  33 Li     0.000000    6.468148   15.445939    ( 0.0000,  0.0000,  0.0000)
  34 Li     3.234076    6.468146   15.445938    ( 0.0000,  0.0000,  0.0000)
  35 Li     6.468146    6.468146   15.445938    ( 0.0000,  0.0000,  0.0000)
  36 O      9.702222    9.702222   18.445939    ( 0.0000,  0.0000,  0.0000)
  37 C     11.132184    9.687148   18.451439    ( 0.0000,  0.0000,  0.0000)
  38 H     11.536456    8.937195   17.764289    ( 0.0000,  0.0000,  0.0000)
  39 H     11.535697    9.508739   19.453228    ( 0.0000,  0.0000,  0.0000)
  40 H     11.451628   10.672863   18.118510    ( 0.0000,  0.0000,  0.0000)
  41 H      9.390567    8.839093   18.736944    ( 0.0000,  0.0000,  0.0000)
  42 N      9.702000    9.702000   17.195939    ( 0.0000,  0.0000,  0.0000)
  43 N      9.702000   10.798622   17.195939    ( 0.0000,  0.0000,  0.0000)

Unit cell:
           periodic     x           y           z      points  spacing
  1. axis:    yes    9.702222    0.000000    0.000000    60     0.1617
  2. axis:    yes    0.000000    9.702222    0.000000    60     0.1617
  3. axis:    no     0.000000    0.000000   26.601111   168     0.1583

  Lengths:   9.702222   9.702222  26.601111
  Angles:   90.000000  90.000000  90.000000

Effective grid spacing dv^(1/3) = 0.1606

     iter     time        total  log10-change:
                         energy  eigst   dens
iter:   1 11:20:46  -442.768605
iter:   2 11:20:53  -149.222914  +2.41  -0.05
iter:   3 11:21:01  -151.620780  +3.26  -0.27
iter:   4 11:21:08  -236.568690  +2.99  -0.32
Writing to output.gpw (mode='')

iter:   5 11:21:15  -241.834255  +2.53  -0.36
iter:   6 11:21:25  -258.128753  +2.22  -0.62
iter:   7 11:21:32  -274.364581  +1.90  -0.82
iter:   8 11:21:39  -279.581314  +1.52  -0.70
iter:   9 11:21:46  -281.723450  +1.35  -0.67
Writing to output.gpw (mode='')

iter:  10 11:21:53  -278.707545  +1.18  -0.74
iter:  11 11:22:00  -278.709559  +1.05  -0.78
iter:  12 11:22:07  -293.901669  +1.55  -0.79
iter:  13 11:22:14  -276.351253  +0.88  -0.73
iter:  14 11:22:21  -281.479358  +1.28  -0.88
Writing to output.gpw (mode='')

iter:  15 11:22:29  -274.180169  +0.80  -0.73
iter:  16 11:22:36  -273.783651  +0.41  -0.88
iter:  17 11:22:43  -272.729667  +0.89  -0.92
iter:  18 11:22:50  -273.013171  +0.54  -1.07
iter:  19 11:22:57  -272.592220  +0.03  -1.05
Writing to output.gpw (mode='')

iter:  20 11:23:04  -272.538716  +0.04  -1.22
iter:  21 11:23:11  -272.475371  -0.21  -1.40
iter:  22 11:23:18  -272.361021  -0.12  -1.38
iter:  23 11:23:25  -272.369220  -0.29  -1.60
iter:  24 11:23:32  -272.351338c -0.83  -1.62
Writing to output.gpw (mode='')

iter:  25 11:23:39  -272.350534c -0.86  -1.78
iter:  26 11:23:46  -272.355072c -1.25  -2.06
iter:  27 11:23:53  -272.358980c -1.35  -2.11
iter:  28 11:24:00  -272.365195c -1.18  -2.15
iter:  29 11:24:07  -272.370322c -1.48  -2.35
Writing to output.gpw (mode='')

iter:  30 11:24:14  -272.374234c -1.55  -2.44
iter:  31 11:24:21  -272.376711c -1.89  -2.45
iter:  32 11:24:28  -272.379315c -1.83  -2.44
iter:  33 11:24:35  -272.381472c -1.97  -2.43
iter:  34 11:24:50  -272.383289c -1.93  -2.40
Writing to output.gpw (mode='')

iter:  35 11:24:57  -272.385658c -1.88  -2.55
iter:  36 11:25:04  -272.386412c -2.16  -2.48
iter:  37 11:25:11  -272.387787c -2.05  -2.57
iter:  38 11:25:18  -272.388848c -2.24  -2.59
iter:  39 11:25:25  -272.390011c -2.01  -2.58
Writing to output.gpw (mode='')

iter:  40 11:25:32  -272.390735c -2.41  -2.59
iter:  41 11:25:39  -272.391293c -2.53  -2.58
iter:  42 11:25:46  -272.392026c -2.51  -2.56
iter:  43 11:25:53  -272.392385c -2.77  -2.59
iter:  44 11:26:00  -272.392643c -2.91  -2.57
Writing to output.gpw (mode='')

iter:  45 11:26:07  -272.393336c -2.56  -2.58
iter:  46 11:26:14  -272.393632c -2.76  -2.67
iter:  47 11:26:22  -272.393747c -2.98  -2.70
iter:  48 11:26:29  -272.394756c -2.72  -2.67
iter:  49 11:26:36  -272.394329c -2.83  -2.63
Writing to output.gpw (mode='')

iter:  50 11:26:43  -272.393973c -2.66  -2.69
iter:  51 11:26:50  -272.394103c -3.14  -2.85
iter:  52 11:26:57  -272.394386c -3.08  -2.90
iter:  53 11:27:04  -272.394515c -3.24  -3.11
iter:  54 11:27:11  -272.394577c -3.34  -3.19
Writing to output.gpw (mode='')

iter:  55 11:27:18  -272.394607c -3.37  -3.26
iter:  56 11:27:25  -272.394620c -3.58  -3.39
iter:  57 11:27:32  -272.394665c -3.65  -3.42
iter:  58 11:27:39  -272.394678c -3.66  -3.65
iter:  59 11:27:46  -272.394691c -3.58  -3.72
Writing to output.gpw (mode='')

iter:  60 11:27:53  -272.394710c -3.77  -3.78
iter:  61 11:28:00  -272.394726c -3.95  -3.90
iter:  62 11:28:08  -272.394742c -3.90  -3.91
iter:  63 11:28:15  -272.394780c -4.06  -3.95
iter:  64 11:28:22  -272.394781c -4.16  -4.17c
Writing to output.gpw (mode='')

iter:  65 11:28:29  -272.394786c -4.08  -4.19c
iter:  66 11:28:36  -272.394801c -4.24  -4.19c
iter:  67 11:28:43  -272.394804c -4.21  -4.29c
iter:  68 11:28:50  -272.394807c -4.28  -4.48c
iter:  69 11:28:57  -272.394814c -4.38  -4.57c
Writing to output.gpw (mode='')

iter:  70 11:29:04  -272.394825c -4.32  -4.57c
iter:  71 11:29:11  -272.394828c -4.63  -4.60c
iter:  72 11:29:18  -272.394829c -4.53  -4.56c
iter:  73 11:29:25  -272.394831c -4.68  -4.50c
iter:  74 11:29:32  -272.394832c -4.82  -4.42c
Writing to output.gpw (mode='')

iter:  75 11:29:45  -272.394837c -4.60  -4.40c
iter:  76 11:29:54  -272.394839c -4.73  -4.38c
iter:  77 11:30:02  -272.394834c -4.65  -4.34c
iter:  78 11:30:09  -272.394835c -5.02  -4.20c
iter:  79 11:30:16  -272.394837c -5.07  -4.18c
Writing to output.gpw (mode='')

iter:  80 11:30:23  -272.394843c -4.81  -4.19c
iter:  81 11:30:30  -272.394841c -4.77  -4.21c
iter:  82 11:30:38  -272.394837c -4.95  -4.17c
iter:  83 11:30:45  -272.394857c -4.92  -4.01c
iter:  84 11:30:52  -272.394853c -5.33  -4.31c
Writing to output.gpw (mode='')

iter:  85 11:30:59  -272.394859c -5.29  -4.20c
iter:  86 11:31:06  -272.394861c -5.01  -4.32c
iter:  87 11:31:13  -272.394862c -5.30  -4.37c
iter:  88 11:31:20  -272.394861c -5.17  -4.35c
iter:  89 11:31:28  -272.394861c -5.48  -4.32c
Writing to output.gpw (mode='')

iter:  90 11:31:35  -272.394859c -5.54  -4.36c
iter:  91 11:31:42  -272.394860c -5.48  -4.32c
iter:  92 11:31:49  -272.394864c -5.42  -4.33c
iter:  93 11:31:56  -272.394869c -5.46  -4.34c
iter:  94 11:32:03  -272.394868c -5.73  -4.39c
Writing to output.gpw (mode='')

iter:  95 11:32:11  -272.394869c -5.65  -4.46c
iter:  96 11:32:18  -272.394868c -5.63  -4.64c
iter:  97 11:32:25  -272.394867c -5.67  -4.78c
iter:  98 11:32:32  -272.394867c -5.69  -4.83c
iter:  99 11:32:39  -272.394868c -5.69  -4.84c
Writing to output.gpw (mode='')

iter: 100 11:32:46  -272.394872c -5.75  -4.84c
iter: 101 11:32:53  -272.394870c -5.90  -4.87c
iter: 102 11:33:01  -272.394869c -5.90  -5.08c
iter: 103 11:33:08  -272.394869c -6.10  -5.17c
iter: 104 11:33:15  -272.394869c -6.03  -5.23c
Writing to output.gpw (mode='')

iter: 105 11:33:22  -272.394869c -6.06  -5.32c
iter: 106 11:33:29  -272.394869c -6.15  -5.54c
iter: 107 11:33:36  -272.394869c -6.05  -5.66c
iter: 108 11:33:43  -272.394870c -5.93  -5.68c
iter: 109 11:33:51  -272.394869c -6.30  -5.65c
Writing to output.gpw (mode='')

iter: 110 11:33:58  -272.394870c -6.31  -5.54c
iter: 111 11:34:05  -272.394870c -6.37  -5.70c
iter: 112 11:34:12  -272.394870c -6.39  -5.67c
iter: 113 11:34:19  -272.394870c -6.33  -5.64c
iter: 114 11:34:26  -272.394870c -6.41  -5.72c
Writing to output.gpw (mode='')

iter: 115 11:34:33  -272.394870c -6.46  -5.69c
iter: 116 11:34:46  -272.394870c -6.57  -5.70c
iter: 117 11:34:56  -272.394869c -6.41  -5.61c
iter: 118 11:35:03  -272.394869c -6.57  -5.58c
iter: 119 11:35:10  -272.394869c -6.55  -5.58c
Writing to output.gpw (mode='')

iter: 120 11:35:17  -272.394869c -6.52  -5.47c
iter: 121 11:35:24  -272.394869c -6.54  -5.49c
iter: 122 11:35:31  -272.394869c -6.82  -5.43c
iter: 123 11:35:38  -272.394869c -6.66  -5.47c
iter: 124 11:35:45  -272.394870c -6.83  -5.45c
Writing to output.gpw (mode='')

iter: 125 11:35:52  -272.394870c -6.97  -5.53c
iter: 126 11:35:59  -272.394870c -6.99  -5.44c
iter: 127 11:36:06  -272.394870c -6.96  -5.76c
iter: 128 11:36:13  -272.394870c -6.95  -5.86c
iter: 129 11:36:20  -272.394870c -6.98  -5.94c
Writing to output.gpw (mode='')

iter: 130 11:36:27  -272.394870c -6.96  -6.07c
iter: 131 11:36:34  -272.394870c -6.96  -6.11c
iter: 132 11:36:41  -272.394870c -7.15  -6.15c
iter: 133 11:36:49  -272.394870c -7.16  -6.15c
iter: 134 11:36:56  -272.394870c -7.24  -6.48c
Writing to output.gpw (mode='')

iter: 135 11:37:03  -272.394870c -7.24  -6.64c
iter: 136 11:37:10  -272.394870c -7.26  -6.57c
iter: 137 11:37:17  -272.394870c -7.28  -6.54c
iter: 138 11:37:27  -272.394870c -7.30  -6.49c
iter: 139 11:37:34  -272.394870c -7.24  -6.36c
Writing to output.gpw (mode='')

iter: 140 11:37:41  -272.394870c -7.26  -6.29c
iter: 141 11:37:48  -272.394870c -7.31  -6.23c
iter: 142 11:37:55  -272.394870c -7.43c -6.19c

Converged after 142 iterations.

Dipole moment: (-13.207610, -9.639600, 0.488842) |e|*Ang

Energy contributions relative to reference atoms: (reference = -13382.245603)

Kinetic:       +184.358386
Potential:     -158.628039
External:        +0.000000
XC:            -298.717868
Entropy (-ST):   -0.151360
Local:           +0.668332
--------------------------
Free energy:   -272.470550
Extrapolated:  -272.394870

Dipole-layer corrected work functions: 3.362342, 2.422619 eV

Showing only first 2 kpts
 Kpt  Band  Eigenvalues  Occupancy
  0    28     -3.14259    1.98664
  0    29     -3.00953    1.82444
  0    30     -2.74975    0.10889
  0    31     -2.66592    0.02131

  1    28     -2.94374    1.47195
  1    29     -2.91647    1.23538
  1    30     -2.85183    0.61451
  1    31     -2.77894    0.18712


Fermi level: -2.89248

Gap: 0.020 eV
Transition (v -> c):
  (s=0, k=7, n=29, [0.38, 0.38, 0.00]) -> (s=0, k=7, n=30, [0.38, 0.38, 0.00])
Writing to output.gpw (mode='')


Forces in eV/Ang:
  0 Li    0.01248    0.00314   -0.27479
  1 Li   -0.00020   -0.00060   -0.26464
  2 Li   -0.01176    0.00256   -0.27287
  3 Li   -0.00398    0.00792   -0.26883
  4 Li   -0.00065   -0.00149   -0.27626
  5 Li    0.00351    0.00805   -0.26889
  6 Li    0.00133   -0.01260   -0.27656
  7 Li   -0.00031    0.00484   -0.26773
  8 Li   -0.00132   -0.01155   -0.27504
  9 Li    0.00064    0.00434    0.33045
 10 Li    0.01688    0.00110    0.25757
 11 Li   -0.01919    0.00043    0.26179
 12 Li   -0.00054   -0.00189    0.28480
 13 Li    0.00526    0.00123    0.26604
 14 Li   -0.00489    0.00012    0.26445
 15 Li   -0.00018    0.00052    0.24724
 16 Li   -0.01114   -0.00466    0.26336
 17 Li    0.01249   -0.00318    0.26719
 18 Li    0.03445   -0.00026   -0.05503
 19 Li   -0.00043   -0.00061    0.07148
 20 Li   -0.03689    0.00203   -0.06978
 21 Li   -0.02137   -0.00865    0.06342
 22 Li    0.00316    0.00716    0.00234
 23 Li    0.01936   -0.01087    0.06112
 24 Li    0.00910    0.00214    0.00776
 25 Li   -0.00185   -0.00617    0.05323
 26 Li   -0.00562    0.00402   -0.00144
 27 Li   -0.05086   -0.12486   -1.82939
 28 Li    0.19795   -0.00972   -0.20829
 29 Li   -0.12646   -0.02153   -0.06073
 30 Li    0.00589   -0.29315    0.24366
 31 Li    0.05971    0.03532   -0.04092
 32 Li   -0.05397    0.02923   -0.02401
 33 Li   -0.00299   -0.05076   -0.06196
 34 Li   -0.00005   -0.00599   -0.02860
 35 Li    0.00306   -0.00027   -0.01190
 36 O     0.63088   -7.04587   16.11980
 37 C     5.22744   -0.30297    3.72046
 38 H    -0.32728   -0.10647    0.05726
 39 H    -0.36250   -0.14283    0.12656
 40 H    -0.06052   -0.13064    0.23455
 41 H    -0.70985   -3.09708    2.02170
 42 N    -3.61032   -8.05311   -8.86079
 43 N    -0.83176   19.28697  -11.53369

System changes: positions 

Initializing position-dependent things.

Density initialized from wave functions
       .-----------------------.  
      /|                       |  
     / |                       |  
    /  |                       |  
   /   |                       |  
  /    |                       |  
 *     |                       |  
 |     |                       |  
 |     |                       |  
 |     |   H                   |  
 |     O   C                  H|  
 |     |   H                   |  
 |     |                       N  
 |     |                       |  
 |     |       Li      Li      Li 
 |     |                       |  
 |    H|     Li      Li      Li|  
 |     |  Li      Li      Ni   |  
 | Li  |   Li      Li          |  
 |     |Li      Li      Li     |  
 |     |                       |  
 |   LLi     LLi     LLi       |  
 |     |  Li      Li      Li   |  
 | Li  |   Li      Li          |  
 |     |Li      Li      Li     |  
 Li    | Li      Li            |  
 |    Li      Li      Li       |  
 |     |                       |  
 |     |                       |  
 |     |                       |  
 |     |                       |  
 |     |                       |  
 |     |                       |  
 |     .-----------------------.  
 |    /                       /   
 |   /                       /    
 |  /                       /     
 | /                       /      
 |/                       /       
 *-----------------------*        

Positions:
   0 Li     1.617037    1.617037   10.000000    ( 0.0000,  0.0000,  0.0000)
   1 Li     4.851111    1.617037   10.000000    ( 0.0000,  0.0000,  0.0000)
   2 Li     8.085185    1.617037   10.000000    ( 0.0000,  0.0000,  0.0000)
   3 Li     1.617037    4.851111   10.000000    ( 0.0000,  0.0000,  0.0000)
   4 Li     4.851111    4.851111   10.000000    ( 0.0000,  0.0000,  0.0000)
   5 Li     8.085185    4.851111   10.000000    ( 0.0000,  0.0000,  0.0000)
   6 Li     1.617037    8.085185   10.000000    ( 0.0000,  0.0000,  0.0000)
   7 Li     4.851111    8.085185   10.000000    ( 0.0000,  0.0000,  0.0000)
   8 Li     8.085185    8.085185   10.000000    ( 0.0000,  0.0000,  0.0000)
   9 Li     0.000000    0.000000   11.617037    ( 0.0000,  0.0000,  0.0000)
  10 Li     3.234074    0.000000   11.617037    ( 0.0000,  0.0000,  0.0000)
  11 Li     6.468148    0.000000   11.617037    ( 0.0000,  0.0000,  0.0000)
  12 Li     0.000000    3.234074   11.617037    ( 0.0000,  0.0000,  0.0000)
  13 Li     3.234074    3.234074   11.617037    ( 0.0000,  0.0000,  0.0000)
  14 Li     6.468148    3.234074   11.617037    ( 0.0000,  0.0000,  0.0000)
  15 Li     0.000000    6.468148   11.617037    ( 0.0000,  0.0000,  0.0000)
  16 Li     3.234074    6.468148   11.617037    ( 0.0000,  0.0000,  0.0000)
  17 Li     6.468148    6.468148   11.617037    ( 0.0000,  0.0000,  0.0000)
  18 Li     1.617099    1.617038   13.469630    ( 0.0000,  0.0000,  0.0000)
  19 Li     4.851110    1.617037   13.469857    ( 0.0000,  0.0000,  0.0000)
  20 Li     8.085118    1.617042   13.469604    ( 0.0000,  0.0000,  0.0000)
  21 Li     1.617000    4.851096   13.469842    ( 0.0000,  0.0000,  0.0000)
  22 Li     4.851117    4.851124   13.469734    ( 0.0000,  0.0000,  0.0000)
  23 Li     8.085218    4.851092   13.469838    ( 0.0000,  0.0000,  0.0000)
  24 Li     1.617054    8.085188   13.469742    ( 0.0000,  0.0000,  0.0000)
  25 Li     4.851108    8.085173   13.469824    ( 0.0000,  0.0000,  0.0000)
  26 Li     8.085174    8.085191   13.469725    ( 0.0000,  0.0000,  0.0000)
  27 Li    -0.000090   -0.000222   15.442685    ( 0.0000,  0.0000,  0.0000)
  28 Li     3.234426   -0.000017   15.445568    ( 0.0000,  0.0000,  0.0000)
  29 Li     6.467923   -0.000038   15.445831    ( 0.0000,  0.0000,  0.0000)
  30 Li     0.000010    3.233552   15.446372    ( 0.0000,  0.0000,  0.0000)
  31 Li     3.234183    3.234139   15.445865    ( 0.0000,  0.0000,  0.0000)
  32 Li     6.468050    3.234128   15.445895    ( 0.0000,  0.0000,  0.0000)
  33 Li    -0.000005    6.468058   15.445829    ( 0.0000,  0.0000,  0.0000)
  34 Li     3.234076    6.468135   15.445887    ( 0.0000,  0.0000,  0.0000)
  35 Li     6.468151    6.468145   15.445917    ( 0.0000,  0.0000,  0.0000)
  36 O      9.703344    9.689689   18.474612    ( 0.0000,  0.0000,  0.0000)
  37 C     11.141483    9.686610   18.458056    ( 0.0000,  0.0000,  0.0000)
  38 H     11.535874    8.937005   17.764391    ( 0.0000,  0.0000,  0.0000)
  39 H     11.535052    9.508485   19.453453    ( 0.0000,  0.0000,  0.0000)
  40 H     11.451521   10.672631   18.118928    ( 0.0000,  0.0000,  0.0000)
  41 H      9.389304    8.833584   18.740540    ( 0.0000,  0.0000,  0.0000)
  42 N      9.695578    9.687676   17.180178    ( 0.0000,  0.0000,  0.0000)
  43 N      9.700521   10.832928   17.175424    ( 0.0000,  0.0000,  0.0000)

Unit cell:
           periodic     x           y           z      points  spacing
  1. axis:    yes    9.702222    0.000000    0.000000    60     0.1617
  2. axis:    yes    0.000000    9.702222    0.000000    60     0.1617
  3. axis:    no     0.000000    0.000000   26.601111   168     0.1583

  Lengths:   9.702222   9.702222  26.601111
  Angles:   90.000000  90.000000  90.000000

Effective grid spacing dv^(1/3) = 0.1606

     iter     time        total  log10-change:
                         energy  eigst   dens
iter:   1 11:38:04  -275.382985  -0.05
iter:   2 11:38:11  -274.450232  +0.01  -1.20
iter:   3 11:38:18  -274.064526  -0.65  -1.22
iter:   4 11:38:25  -273.972990  -0.78  -1.56
Writing to output.gpw (mode='')

iter:   5 11:38:32  -273.959207  -1.51  -1.87
iter:   6 11:38:39  -274.001046  -0.95  -2.07
iter:   7 11:38:46  -273.986403  -0.93  -1.70
iter:   8 11:38:54  -273.962483  -1.86  -2.03
iter:   9 11:39:01  -273.958812c -2.21  -2.07
Writing to output.gpw (mode='')

iter:  10 11:39:08  -273.957947c -1.52  -2.11
iter:  11 11:39:15  -273.935699c -1.77  -2.11
iter:  12 11:39:22  -273.937833c -2.80  -2.50
iter:  13 11:39:29  -273.936924c -3.01  -2.53
iter:  14 11:39:36  -273.936431c -2.92  -2.56
Writing to output.gpw (mode='')

iter:  15 11:39:49  -273.936260c -3.15  -2.56
iter:  16 11:39:57  -273.936114c -2.45  -2.61
iter:  17 11:40:04  -273.936025c -3.29  -2.68
iter:  18 11:40:11  -273.936355c -3.40  -2.81
iter:  19 11:40:18  -273.936313c -3.50  -2.97
Writing to output.gpw (mode='')

iter:  20 11:40:25  -273.936210c -3.69  -3.14
iter:  21 11:40:32  -273.936196c -3.80  -3.19
iter:  22 11:40:39  -273.936157c -3.65  -3.35
iter:  23 11:40:46  -273.936170c -4.40  -3.41
iter:  24 11:40:54  -273.936156c -4.31  -3.51
Writing to output.gpw (mode='')

iter:  25 11:41:01  -273.936239c -4.50  -3.61
iter:  26 11:41:08  -273.936221c -4.86  -3.82
iter:  27 11:41:15  -273.936217c -4.64  -3.97
iter:  28 11:41:22  -273.936217c -4.75  -3.96
iter:  29 11:41:29  -273.936230c -4.92  -3.99
Writing to output.gpw (mode='')

iter:  30 11:41:36  -273.936225c -5.05  -4.13c
iter:  31 11:41:43  -273.936223c -5.29  -4.31c
iter:  32 11:41:51  -273.936230c -5.32  -4.31c
iter:  33 11:41:58  -273.936227c -5.45  -4.38c
iter:  34 11:42:05  -273.936228c -5.69  -4.64c
Writing to output.gpw (mode='')

iter:  35 11:42:12  -273.936230c -5.69  -4.65c
iter:  36 11:42:19  -273.936229c -5.73  -4.72c
iter:  37 11:42:26  -273.936230c -5.58  -4.78c
iter:  38 11:42:33  -273.936232c -5.70  -4.84c
iter:  39 11:42:40  -273.936232c -5.83  -4.93c
Writing to output.gpw (mode='')

iter:  40 11:42:48  -273.936232c -5.94  -4.95c
iter:  41 11:42:55  -273.936231c -6.15  -5.03c
iter:  42 11:43:02  -273.936232c -6.23  -4.98c
iter:  43 11:43:09  -273.936232c -6.30  -5.05c
iter:  44 11:43:16  -273.936232c -6.40  -5.03c
Writing to output.gpw (mode='')

iter:  45 11:43:23  -273.936232c -6.28  -4.99c
iter:  46 11:43:31  -273.936233c -6.24  -4.95c
iter:  47 11:43:38  -273.936233c -6.60  -4.88c
iter:  48 11:43:45  -273.936233c -6.75  -4.91c
iter:  49 11:43:52  -273.936234c -6.56  -4.95c
Writing to output.gpw (mode='')

iter:  50 11:44:00  -273.936233c -6.88  -5.16c
iter:  51 11:44:07  -273.936234c -6.71  -5.02c
iter:  52 11:44:14  -273.936234c -6.93  -5.31c
iter:  53 11:44:21  -273.936234c -7.04  -5.36c
iter:  54 11:44:29  -273.936234c -6.96  -5.52c
Writing to output.gpw (mode='')

iter:  55 11:44:36  -273.936234c -6.96  -5.53c
iter:  56 11:44:48  -273.936234c -6.99  -5.55c
iter:  57 11:44:56  -273.936234c -7.18  -5.63c
iter:  58 11:45:03  -273.936234c -7.31  -5.67c
iter:  59 11:45:10  -273.936234c -7.29  -5.70c
Writing to output.gpw (mode='')

iter:  60 11:45:18  -273.936234c -7.31  -5.71c
iter:  61 11:45:25  -273.936234c -7.41c -5.84c

Converged after 61 iterations.

Dipole moment: (-12.545999, -6.875512, 0.471352) |e|*Ang

Energy contributions relative to reference atoms: (reference = -13382.245603)

Kinetic:       +172.667629
Potential:     -150.274780
External:        +0.000000
XC:            -296.924909
Entropy (-ST):   -0.153442
Local:           +0.672548
--------------------------
Free energy:   -274.012955
Extrapolated:  -273.936234

Dipole-layer corrected work functions: 3.364599, 2.458498 eV

Showing only first 2 kpts
 Kpt  Band  Eigenvalues  Occupancy
  0    28     -3.16107    1.98649
  0    29     -3.02496    1.81242
  0    30     -2.77959    0.13332
  0    31     -2.69742    0.02724

  1    28     -2.96060    1.45461
  1    29     -2.94386    1.31229
  1    30     -2.86437    0.56036
  1    31     -2.79415    0.17446


Fermi level: -2.91155

Gap: 0.022 eV
Transition (v -> c):
  (s=0, k=7, n=29, [0.38, 0.38, 0.00]) -> (s=0, k=7, n=30, [0.38, 0.38, 0.00])
Writing to output.gpw (mode='')


Forces in eV/Ang:
  0 Li    0.01339    0.00380   -0.27598
  1 Li   -0.00082   -0.00066   -0.26361
  2 Li   -0.01213    0.00294   -0.27401
  3 Li   -0.00415    0.00818   -0.26839
  4 Li   -0.00082   -0.00119   -0.27739
  5 Li    0.00369    0.00928   -0.26838
  6 Li    0.00151   -0.01394   -0.27794
  7 Li    0.00010    0.00476   -0.26697
  8 Li   -0.00183   -0.01322   -0.27666
  9 Li    0.00040    0.00431    0.33679
 10 Li    0.01608    0.00134    0.25817
 11 Li   -0.01821    0.00057    0.26347
 12 Li   -0.00023   -0.00048    0.28656
 13 Li    0.00651    0.00048    0.26626
 14 Li   -0.00628   -0.00009    0.26541
 15 Li   -0.00033   -0.00038    0.24514
 16 Li   -0.01014   -0.00428    0.26234
 17 Li    0.01169   -0.00368    0.26605
 18 Li    0.03568    0.00180   -0.06246
 19 Li    0.00019   -0.00247    0.07417
 20 Li   -0.03839    0.00559   -0.08096
 21 Li   -0.02207   -0.00763    0.06354
 22 Li    0.00317    0.00664    0.00179
 23 Li    0.02010   -0.01093    0.06071
 24 Li    0.00989   -0.00111   -0.00074
 25 Li   -0.00192   -0.00301    0.05674
 26 Li   -0.00645    0.00012   -0.00887
 27 Li   -0.04729   -0.10201   -1.89462
 28 Li    0.18803   -0.00701   -0.19609
 29 Li   -0.11523   -0.02064   -0.04849
 30 Li    0.00628   -0.33877    0.29178
 31 Li    0.05929    0.03662   -0.03805
 32 Li   -0.05391    0.03225   -0.02085
 33 Li   -0.00415   -0.05107   -0.06485
 34 Li    0.00286   -0.00982   -0.03165
 35 Li    0.00120   -0.00214   -0.01337
 36 O     0.89216   -5.38436   12.27240
 37 C     4.48098   -0.31174    3.19408
 38 H    -0.28539   -0.10211    0.13338
 39 H    -0.13897   -0.16104    0.38337
 40 H    -0.08941   -0.12220    0.25224
 41 H    -0.73318   -3.16329    2.01279
 42 N    -3.36791   -2.08151   -6.60522
 43 N    -0.81404   11.73861   -9.69495

System changes: positions 

Initializing position-dependent things.

Density initialized from wave functions
       .-----------------------.  
      /|                       |  
     / |                       |  
    /  |                       |  
   /   |                       |  
  /    |                       |  
 *     |                       |  
 |     |                       |  
 |     |                       |  
 |     |   H                   |  
 |     O   C                  H|  
 |     |   H                   |  
 |     |                       |  
 |     |                       |  
 |     |       Li      Li      Li 
 |     |                       |  
 |    H|     Li      Li      Li|  
 |     |  Li      Li      Ni   |  
 | Li  |   Li      Li    N     |  
 |     |Li      Li      Li     |  
 |     |                       |  
 |   LLi     LLi     LLi       |  
 |     |  Li      Li      Li   |  
 | Li  |   Li      Li          |  
 |     |Li      Li      Li     |  
 Li    | Li      Li            |  
 |    Li      Li      Li       |  
 |     |                       |  
 |     |                       |  
 |     |                       |  
 |     |                       |  
 |     |                       |  
 |     |                       |  
 |     .-----------------------.  
 |    /                       /   
 |   /                       /    
 |  /                       /     
 | /                       /      
 |/                       /       
 *-----------------------*        

Positions:
   0 Li     1.617037    1.617037   10.000000    ( 0.0000,  0.0000,  0.0000)
   1 Li     4.851111    1.617037   10.000000    ( 0.0000,  0.0000,  0.0000)
   2 Li     8.085185    1.617037   10.000000    ( 0.0000,  0.0000,  0.0000)
   3 Li     1.617037    4.851111   10.000000    ( 0.0000,  0.0000,  0.0000)
   4 Li     4.851111    4.851111   10.000000    ( 0.0000,  0.0000,  0.0000)
   5 Li     8.085185    4.851111   10.000000    ( 0.0000,  0.0000,  0.0000)
   6 Li     1.617037    8.085185   10.000000    ( 0.0000,  0.0000,  0.0000)
   7 Li     4.851111    8.085185   10.000000    ( 0.0000,  0.0000,  0.0000)
   8 Li     8.085185    8.085185   10.000000    ( 0.0000,  0.0000,  0.0000)
   9 Li     0.000000    0.000000   11.617037    ( 0.0000,  0.0000,  0.0000)
  10 Li     3.234074    0.000000   11.617037    ( 0.0000,  0.0000,  0.0000)
  11 Li     6.468148    0.000000   11.617037    ( 0.0000,  0.0000,  0.0000)
  12 Li     0.000000    3.234074   11.617037    ( 0.0000,  0.0000,  0.0000)
  13 Li     3.234074    3.234074   11.617037    ( 0.0000,  0.0000,  0.0000)
  14 Li     6.468148    3.234074   11.617037    ( 0.0000,  0.0000,  0.0000)
  15 Li     0.000000    6.468148   11.617037    ( 0.0000,  0.0000,  0.0000)
  16 Li     3.234074    6.468148   11.617037    ( 0.0000,  0.0000,  0.0000)
  17 Li     6.468148    6.468148   11.617037    ( 0.0000,  0.0000,  0.0000)
  18 Li     1.617270    1.617057   13.469304    ( 0.0000,  0.0000,  0.0000)
  19 Li     4.851114    1.617016   13.470212    ( 0.0000,  0.0000,  0.0000)
  20 Li     8.084934    1.617086   13.469173    ( 0.0000,  0.0000,  0.0000)
  21 Li     1.616895    4.851066   13.470135    ( 0.0000,  0.0000,  0.0000)
  22 Li     4.851131    4.851152   13.469740    ( 0.0000,  0.0000,  0.0000)
  23 Li     8.085314    4.851041   13.470115    ( 0.0000,  0.0000,  0.0000)
  24 Li     1.617104    8.085166   13.469694    ( 0.0000,  0.0000,  0.0000)
  25 Li     4.851099    8.085175   13.470103    ( 0.0000,  0.0000,  0.0000)
  26 Li     8.085140    8.085171   13.469645    ( 0.0000,  0.0000,  0.0000)
  27 Li    -0.000289   -0.000571   15.433630    ( 0.0000,  0.0000,  0.0000)
  28 Li     3.235238   -0.000035   15.444731    ( 0.0000,  0.0000,  0.0000)
  29 Li     6.467452   -0.000129   15.445672    ( 0.0000,  0.0000,  0.0000)
  30 Li     0.000041    3.231755   15.447967    ( 0.0000,  0.0000,  0.0000)
  31 Li     3.234453    3.234314   15.445705    ( 0.0000,  0.0000,  0.0000)
  32 Li     6.467802    3.234293   15.445816    ( 0.0000,  0.0000,  0.0000)
  33 Li    -0.000030    6.467821   15.445515    ( 0.0000,  0.0000,  0.0000)
  34 Li     3.234105    6.468070   15.445726    ( 0.0000,  0.0000,  0.0000)
  35 Li     6.468147    6.468125   15.445848    ( 0.0000,  0.0000,  0.0000)
  36 O      9.708819    9.673653   18.510846    ( 0.0000,  0.0000,  0.0000)
  37 C     11.158170    9.685130   18.469981    ( 0.0000,  0.0000,  0.0000)
  38 H     11.534781    8.936559   17.765404    ( 0.0000,  0.0000,  0.0000)
  39 H     11.535587    9.507649   19.456564    ( 0.0000,  0.0000,  0.0000)
  40 H     11.450958   10.672113   18.120181    ( 0.0000,  0.0000,  0.0000)
  41 H      9.385810    8.818689   18.749750    ( 0.0000,  0.0000,  0.0000)
  42 N      9.681363    9.709464   17.161648    ( 0.0000,  0.0000,  0.0000)
  43 N      9.696870   10.847271   17.140495    ( 0.0000,  0.0000,  0.0000)

Unit cell:
           periodic     x           y           z      points  spacing
  1. axis:    yes    9.702222    0.000000    0.000000    60     0.1617
  2. axis:    yes    0.000000    9.702222    0.000000    60     0.1617
  3. axis:    no     0.000000    0.000000   26.601111   168     0.1583

  Lengths:   9.702222   9.702222  26.601111
  Angles:   90.000000  90.000000  90.000000

Effective grid spacing dv^(1/3) = 0.1606

     iter     time        total  log10-change:
                         energy  eigst   dens
iter:   1 11:45:33  -275.258427  -0.46
iter:   2 11:45:41  -275.222082  -0.77  -1.62
iter:   3 11:45:48  -275.210391  -1.22  -1.78
iter:   4 11:45:55  -275.198688c -1.22  -2.10
Writing to output.gpw (mode='')

iter:   5 11:46:02  -275.197509c -1.46  -2.26
iter:   6 11:46:09  -275.194129c -1.74  -2.21
iter:   7 11:46:16  -275.188238c -1.84  -2.25
iter:   8 11:46:23  -275.188410c -2.23  -2.59
iter:   9 11:46:31  -275.188731c -2.32  -2.67
Writing to output.gpw (mode='')

iter:  10 11:46:38  -275.189134c -2.53  -2.90
iter:  11 11:46:45  -275.188996c -2.83  -2.91
iter:  12 11:46:52  -275.189289c -3.11  -3.00
iter:  13 11:46:59  -275.189266c -3.27  -3.08
iter:  14 11:47:06  -275.189287c -3.37  -3.19
Writing to output.gpw (mode='')

iter:  15 11:47:14  -275.189294c -3.59  -3.28
iter:  16 11:47:21  -275.189319c -3.62  -3.43
iter:  17 11:47:28  -275.189316c -3.90  -3.50
iter:  18 11:47:35  -275.189394c -4.03  -3.53
iter:  19 11:47:42  -275.189349c -4.13  -3.54
Writing to output.gpw (mode='')

iter:  20 11:47:49  -275.189376c -4.49  -3.71
iter:  21 11:47:57  -275.189373c -4.48  -3.82
iter:  22 11:48:04  -275.189376c -4.64  -3.90
iter:  23 11:48:11  -275.189374c -4.58  -3.98
iter:  24 11:48:18  -275.189377c -4.75  -3.99
Writing to output.gpw (mode='')

iter:  25 11:48:26  -275.189380c -5.13  -4.09c
iter:  26 11:48:33  -275.189383c -5.07  -4.13c
iter:  27 11:48:40  -275.189390c -5.18  -4.24c
iter:  28 11:48:47  -275.189388c -5.34  -4.41c
iter:  29 11:48:54  -275.189389c -5.50  -4.44c
Writing to output.gpw (mode='')

iter:  30 11:49:01  -275.189388c -5.45  -4.49c
iter:  31 11:49:09  -275.189388c -5.52  -4.65c
iter:  32 11:49:16  -275.189390c -5.76  -4.63c
iter:  33 11:49:23  -275.189390c -6.02  -4.72c
iter:  34 11:49:30  -275.189394c -5.97  -4.74c
Writing to output.gpw (mode='')

iter:  35 11:49:37  -275.189393c -6.16  -4.87c
iter:  36 11:49:51  -275.189393c -6.16  -4.93c
iter:  37 11:50:00  -275.189393c -6.30  -4.97c
iter:  38 11:50:09  -275.189393c -6.30  -4.96c
iter:  39 11:50:22  -275.189393c -6.31  -4.95c
Writing to output.gpw (mode='')

iter:  40 11:50:30  -275.189392c -6.43  -4.88c
iter:  41 11:50:37  -275.189392c -6.60  -4.72c
iter:  42 11:50:44  -275.189394c -6.82  -4.68c
iter:  43 11:50:52  -275.189394c -6.94  -5.14c
iter:  44 11:50:59  -275.189393c -6.65  -5.21c
Writing to output.gpw (mode='')

iter:  45 11:51:06  -275.189394c -6.96  -4.97c
iter:  46 11:51:13  -275.189394c -7.22  -5.44c
iter:  47 11:51:20  -275.189394c -7.19  -5.49c
iter:  48 11:51:28  -275.189394c -6.95  -5.56c
iter:  49 11:51:35  -275.189394c -7.27  -5.71c
Writing to output.gpw (mode='')

iter:  50 11:51:42  -275.189394c -7.04  -5.65c
iter:  51 11:51:49  -275.189394c -7.47c -5.72c

Converged after 51 iterations.

Dipole moment: (-11.169019, -7.495555, 0.480572) |e|*Ang

Energy contributions relative to reference atoms: (reference = -13382.245603)

Kinetic:       +168.901991
Potential:     -148.348923
External:        +0.000000
XC:            -296.345656
Entropy (-ST):   -0.151783
Local:           +0.679085
--------------------------
Free energy:   -275.265286
Extrapolated:  -275.189394

Dipole-layer corrected work functions: 3.363582, 2.439758 eV

Showing only first 2 kpts
 Kpt  Band  Eigenvalues  Occupancy
  0    28     -3.15239    1.98681
  0    29     -3.01955    1.82709
  0    30     -2.76625    0.12496
  0    31     -2.67801    0.02256

  1    28     -2.95345    1.47602
  1    29     -2.93418    1.31412
  1    30     -2.85348    0.55225
  1    31     -2.79001    0.19361


Fermi level: -2.90167

Gap: 0.023 eV
Transition (v -> c):
  (s=0, k=7, n=29, [0.38, 0.38, 0.00]) -> (s=0, k=7, n=30, [0.38, 0.38, 0.00])
Writing to output.gpw (mode='')


Forces in eV/Ang:
  0 Li    0.01470    0.00374   -0.27612
  1 Li   -0.00198   -0.00090   -0.26267
  2 Li   -0.01228    0.00275   -0.27387
  3 Li   -0.00408    0.00808   -0.26801
  4 Li   -0.00126   -0.00117   -0.27790
  5 Li    0.00403    0.00994   -0.26750
  6 Li    0.00158   -0.01374   -0.27795
  7 Li   -0.00018    0.00523   -0.26671
  8 Li   -0.00178   -0.01384   -0.27694
  9 Li    0.00024    0.00476    0.33967
 10 Li    0.01698    0.00117    0.25657
 11 Li   -0.01875    0.00022    0.26382
 12 Li   -0.00006    0.00028    0.28728
 13 Li    0.00783    0.00091    0.26428
 14 Li   -0.00789    0.00036    0.26580
 15 Li   -0.00071   -0.00126    0.24432
 16 Li   -0.00998   -0.00468    0.26279
 17 Li    0.01216   -0.00380    0.26584
 18 Li    0.04005    0.00436   -0.06734
 19 Li    0.00032   -0.00309    0.07510
 20 Li   -0.04155    0.00850   -0.08812
 21 Li   -0.02166   -0.00968    0.06447
 22 Li    0.00299    0.00746    0.00006
 23 Li    0.01996   -0.01272    0.06252
 24 Li    0.01028   -0.00115   -0.00074
 25 Li   -0.00119   -0.00353    0.05626
 26 Li   -0.00769   -0.00129   -0.01070
 27 Li   -0.02575   -0.16714   -2.06464
 28 Li    0.18705   -0.00747   -0.19444
 29 Li   -0.11909   -0.02364   -0.05116
 30 Li    0.00715   -0.31582    0.27708
 31 Li    0.06003    0.03530   -0.03889
 32 Li   -0.05678    0.03534   -0.02370
 33 Li   -0.00417   -0.05629   -0.06778
 34 Li    0.00193   -0.00970   -0.03150
 35 Li    0.00213   -0.00179   -0.01204
 36 O     1.08180   -4.09740   10.16143
 37 C     3.36750   -0.35047    2.41739
 38 H    -0.20205   -0.10269    0.17190
 39 H     0.17170   -0.20760    0.70644
 40 H    -0.04781   -0.10385    0.31365
 41 H    -0.59613   -2.84751    1.72337
 42 N    -3.06940   -1.65643   -5.30602
 43 N    -0.75958    9.86095   -8.11430

System changes: positions 

Initializing position-dependent things.

Density initialized from wave functions
       .-----------------------.  
      /|                       |  
     / |                       |  
    /  |                       |  
   /   |                       |  
  /    |                       |  
 *     |                       |  
 |     |                       |  
 |     |                       |  
 |     |   H                   |  
 |     O   C                  H|  
 |     |   H                   |  
 |     |                       |  
 |     |                       |  
 |     |       Li      Li      Li 
 |     |                       |  
 |    H|     Li      Li      Li|  
 |     |  Li      Li      Ni   |  
 | Li  |   Li      Li    N     |  
 |     |Li      Li      Li     |  
 |     |                       |  
 |   LLi     LLi     LLi       |  
 |     |  Li      Li      Li   |  
 | Li  |   Li      Li          |  
 |     |Li      Li      Li     |  
 Li    | Li      Li            |  
 |    Li      Li      Li       |  
 |     |                       |  
 |     |                       |  
 |     |                       |  
 |     |                       |  
 |     |                       |  
 |     |                       |  
 |     .-----------------------.  
 |    /                       /   
 |   /                       /    
 |  /                       /     
 | /                       /      
 |/                       /       
 *-----------------------*        

Positions:
   0 Li     1.617037    1.617037   10.000000    ( 0.0000,  0.0000,  0.0000)
   1 Li     4.851111    1.617037   10.000000    ( 0.0000,  0.0000,  0.0000)
   2 Li     8.085185    1.617037   10.000000    ( 0.0000,  0.0000,  0.0000)
   3 Li     1.617037    4.851111   10.000000    ( 0.0000,  0.0000,  0.0000)
   4 Li     4.851111    4.851111   10.000000    ( 0.0000,  0.0000,  0.0000)
   5 Li     8.085185    4.851111   10.000000    ( 0.0000,  0.0000,  0.0000)
   6 Li     1.617037    8.085185   10.000000    ( 0.0000,  0.0000,  0.0000)
   7 Li     4.851111    8.085185   10.000000    ( 0.0000,  0.0000,  0.0000)
   8 Li     8.085185    8.085185   10.000000    ( 0.0000,  0.0000,  0.0000)
   9 Li     0.000000    0.000000   11.617037    ( 0.0000,  0.0000,  0.0000)
  10 Li     3.234074    0.000000   11.617037    ( 0.0000,  0.0000,  0.0000)
  11 Li     6.468148    0.000000   11.617037    ( 0.0000,  0.0000,  0.0000)
  12 Li     0.000000    3.234074   11.617037    ( 0.0000,  0.0000,  0.0000)
  13 Li     3.234074    3.234074   11.617037    ( 0.0000,  0.0000,  0.0000)
  14 Li     6.468148    3.234074   11.617037    ( 0.0000,  0.0000,  0.0000)
  15 Li     0.000000    6.468148   11.617037    ( 0.0000,  0.0000,  0.0000)
  16 Li     3.234074    6.468148   11.617037    ( 0.0000,  0.0000,  0.0000)
  17 Li     6.468148    6.468148   11.617037    ( 0.0000,  0.0000,  0.0000)
  18 Li     1.617604    1.617121   13.468736    ( 0.0000,  0.0000,  0.0000)
  19 Li     4.851121    1.616979   13.470778    ( 0.0000,  0.0000,  0.0000)
  20 Li     8.084598    1.617191   13.468416    ( 0.0000,  0.0000,  0.0000)
  21 Li     1.616738    4.850983   13.470611    ( 0.0000,  0.0000,  0.0000)
  22 Li     4.851151    4.851210   13.469722    ( 0.0000,  0.0000,  0.0000)
  23 Li     8.085462    4.850933   13.470582    ( 0.0000,  0.0000,  0.0000)
  24 Li     1.617186    8.085140   13.469645    ( 0.0000,  0.0000,  0.0000)
  25 Li     4.851096    8.085161   13.470525    ( 0.0000,  0.0000,  0.0000)
  26 Li     8.085069    8.085130   13.469514    ( 0.0000,  0.0000,  0.0000)
  27 Li    -0.000273   -0.002225   15.416876    ( 0.0000,  0.0000,  0.0000)
  28 Li     3.236535   -0.000080   15.443398    ( 0.0000,  0.0000,  0.0000)
  29 Li     6.466613   -0.000321   15.445341    ( 0.0000,  0.0000,  0.0000)
  30 Li     0.000103    3.229431   15.450094    ( 0.0000,  0.0000,  0.0000)
  31 Li     3.234892    3.234566   15.445431    ( 0.0000,  0.0000,  0.0000)
  32 Li     6.467366    3.234591   15.445636    ( 0.0000,  0.0000,  0.0000)
  33 Li    -0.000067    6.467367   15.444984    ( 0.0000,  0.0000,  0.0000)
  34 Li     3.234126    6.467981   15.445483    ( 0.0000,  0.0000,  0.0000)
  35 Li     6.468161    6.468106   15.445764    ( 0.0000,  0.0000,  0.0000)
  36 O      9.719616    9.663453   18.546803    ( 0.0000,  0.0000,  0.0000)
  37 C     11.169223    9.682213   18.478158    ( 0.0000,  0.0000,  0.0000)
  38 H     11.534245    8.935832   17.767368    ( 0.0000,  0.0000,  0.0000)
  39 H     11.540634    9.505652   19.465763    ( 0.0000,  0.0000,  0.0000)
  40 H     11.450821   10.671561   18.123071    ( 0.0000,  0.0000,  0.0000)
  41 H      9.382547    8.800425   18.759711    ( 0.0000,  0.0000,  0.0000)
  42 N      9.662913    9.731485   17.145816    ( 0.0000,  0.0000,  0.0000)
  43 N      9.691923   10.864225   17.104605    ( 0.0000,  0.0000,  0.0000)

Unit cell:
           periodic     x           y           z      points  spacing
  1. axis:    yes    9.702222    0.000000    0.000000    60     0.1617
  2. axis:    yes    0.000000    9.702222    0.000000    60     0.1617
  3. axis:    no     0.000000    0.000000   26.601111   168     0.1583

  Lengths:   9.702222   9.702222  26.601111
  Angles:   90.000000  90.000000  90.000000

Effective grid spacing dv^(1/3) = 0.1606

     iter     time        total  log10-change:
                         energy  eigst   dens
iter:   1 11:51:58  -276.282287  -0.49
iter:   2 11:52:05  -276.283458  -0.97  -1.89
iter:   3 11:52:12  -276.282589c -1.29  -2.01
iter:   4 11:52:19  -276.270242c -1.33  -2.19
Writing to output.gpw (mode='')

iter:   5 11:52:26  -276.269251c -1.55  -2.36
iter:   6 11:52:33  -276.267428c -1.90  -2.39
iter:   7 11:52:41  -276.263550c -1.99  -2.39
iter:   8 11:52:48  -276.263745c -2.35  -2.66
iter:   9 11:52:55  -276.264009c -2.61  -2.72
Writing to output.gpw (mode='')

iter:  10 11:53:02  -276.263834c -2.86  -2.78
iter:  11 11:53:10  -276.263969c -3.01  -3.06
iter:  12 11:53:19  -276.263974c -3.53  -3.03
iter:  13 11:53:27  -276.263873c -3.62  -3.14
iter:  14 11:53:34  -276.263933c -3.71  -3.34
Writing to output.gpw (mode='')

iter:  15 11:53:41  -276.263964c -3.98  -3.43
iter:  16 11:53:48  -276.263962c -4.05  -3.57
iter:  17 11:53:56  -276.263973c -4.13  -3.47
iter:  18 11:54:03  -276.263987c -4.40  -3.53
iter:  19 11:54:10  -276.263994c -4.35  -3.74
Writing to output.gpw (mode='')

iter:  20 11:54:17  -276.263998c -4.96  -3.99
iter:  21 11:54:24  -276.263995c -5.12  -4.13c
iter:  22 11:54:32  -276.263993c -4.97  -4.13c
iter:  23 11:54:40  -276.263994c -5.21  -4.20c
iter:  24 11:54:53  -276.263997c -5.28  -4.34c
Writing to output.gpw (mode='')

iter:  25 11:55:00  -276.263997c -5.21  -4.36c
iter:  26 11:55:07  -276.264000c -5.40  -4.41c
iter:  27 11:55:15  -276.263995c -5.38  -4.44c
iter:  28 11:55:22  -276.263998c -5.60  -4.42c
iter:  29 11:55:29  -276.263999c -5.55  -4.53c
Writing to output.gpw (mode='')

iter:  30 11:55:36  -276.263999c -5.88  -4.77c
iter:  31 11:55:43  -276.263999c -6.13  -4.85c
iter:  32 11:55:51  -276.263999c -6.06  -4.88c
iter:  33 11:55:58  -276.263999c -6.04  -4.92c
iter:  34 11:56:05  -276.263999c -6.19  -5.06c
Writing to output.gpw (mode='')

iter:  35 11:56:12  -276.264000c -6.39  -5.14c
iter:  36 11:56:20  -276.264000c -6.34  -5.21c
iter:  37 11:56:27  -276.264000c -6.57  -5.29c
iter:  38 11:56:34  -276.264000c -6.63  -5.44c
iter:  39 11:56:41  -276.264000c -6.76  -5.53c
Writing to output.gpw (mode='')

iter:  40 11:56:48  -276.264000c -6.82  -5.60c
iter:  41 11:56:56  -276.264000c -6.95  -5.65c
iter:  42 11:57:03  -276.264000c -6.94  -5.64c
iter:  43 11:57:10  -276.264000c -7.00  -5.70c
iter:  44 11:57:17  -276.264000c -7.21  -5.79c
Writing to output.gpw (mode='')

iter:  45 11:57:24  -276.264000c -7.13  -5.98c
iter:  46 11:57:31  -276.264000c -7.11  -6.04c
iter:  47 11:57:39  -276.264000c -7.33  -6.13c
iter:  48 11:57:46  -276.264000c -7.39  -6.18c
iter:  49 11:57:53  -276.264000c -7.66c -6.34c

Converged after 49 iterations.

Dipole moment: (-9.603574, -8.372141, 0.473985) |e|*Ang

Energy contributions relative to reference atoms: (reference = -13382.245603)

Kinetic:       +165.044170
Potential:     -146.217337
External:        +0.000000
XC:            -295.697494
Entropy (-ST):   -0.150673
Local:           +0.681998
--------------------------
Free energy:   -276.339336
Extrapolated:  -276.264000

Dipole-layer corrected work functions: 3.363919, 2.452756 eV

Showing only first 2 kpts
 Kpt  Band  Eigenvalues  Occupancy
  0    28     -3.16018    1.98710
  0    29     -3.03096    1.84148
  0    30     -2.77153    0.12175
  0    31     -2.67851    0.01997

  1    28     -2.96203    1.49068
  1    29     -2.94001    1.30657
  1    30     -2.85826    0.53724
  1    31     -2.80156    0.21136


Fermi level: -2.90834

Gap: 0.024 eV
Transition (v -> c):
  (s=0, k=7, n=29, [0.38, 0.38, 0.00]) -> (s=0, k=7, n=30, [0.38, 0.38, 0.00])
Writing to output.gpw (mode='')


Forces in eV/Ang:
  0 Li    0.01594    0.00366   -0.27635
  1 Li   -0.00311   -0.00110   -0.26182
  2 Li   -0.01244    0.00275   -0.27406
  3 Li   -0.00405    0.00792   -0.26740
  4 Li   -0.00147   -0.00105   -0.27875
  5 Li    0.00419    0.01056   -0.26676
  6 Li    0.00180   -0.01347   -0.27827
  7 Li   -0.00039    0.00561   -0.26640
  8 Li   -0.00185   -0.01462   -0.27751
  9 Li    0.00010    0.00517    0.34333
 10 Li    0.01765    0.00095    0.25541
 11 Li   -0.01909   -0.00020    0.26408
 12 Li    0.00011    0.00123    0.28791
 13 Li    0.00951    0.00146    0.26230
 14 Li   -0.00968    0.00076    0.26587
 15 Li   -0.00106   -0.00216    0.24357
 16 Li   -0.00954   -0.00514    0.26278
 17 Li    0.01230   -0.00390    0.26541
 18 Li    0.04427    0.00797   -0.07162
 19 Li    0.00082   -0.00368    0.07520
 20 Li   -0.04481    0.01233   -0.09565
 21 Li   -0.02116   -0.01156    0.06495
 22 Li    0.00270    0.00801   -0.00103
 23 Li    0.01970   -0.01428    0.06391
 24 Li    0.01177   -0.00292   -0.00311
 25 Li   -0.00027   -0.00379    0.05608
 26 Li   -0.01017   -0.00416   -0.01507
 27 Li    0.00042   -0.22982   -2.09665
 28 Li    0.18190   -0.00691   -0.18954
 29 Li   -0.12071   -0.02572   -0.05300
 30 Li    0.00797   -0.29351    0.26383
 31 Li    0.05893    0.03312   -0.03955
 32 Li   -0.05870    0.03823   -0.02616
 33 Li   -0.00410   -0.06054   -0.06877
 34 Li    0.00147   -0.00978   -0.03185
 35 Li    0.00209   -0.00209   -0.01165
 36 O     0.93319   -3.37634    8.90032
 37 C     2.69128   -0.37014    2.11508
 38 H    -0.13565   -0.13399    0.16638
 39 H     0.33572   -0.19296    0.66401
 40 H    -0.02469   -0.12535    0.35266
 41 H    -0.30397   -2.15676    1.35351
 42 N    -2.81691   -1.21796   -4.72820
 43 N    -0.74752    8.09821   -6.61474

System changes: positions 

Initializing position-dependent things.

Density initialized from wave functions
       .-----------------------.  
      /|                       |  
     / |                       |  
    /  |                       |  
   /   |                       |  
  /    |                       |  
 *     |                       |  
 |     |                       |  
 |     |                       |  
 |     |   H                   |  
 |     O   C                  H|  
 |     |   H                   |  
 |     |                       |  
 |     |                       |  
 |     Li      Li      Li      |  
 |     |                       |  
 |    H|     Li      Li      Li|  
 |     |  Li      Li      Ni   |  
 | Li  |   Li      Li    N     |  
 |     |Li      Li      Li     |  
 |     |                       |  
 |   LLi     LLi     LLi       |  
 |     |  Li      Li      Li   |  
 | Li  |   Li      Li          |  
 |     |Li      Li      Li     |  
 Li    | Li      Li            |  
 |    Li      Li      Li       |  
 |     |                       |  
 |     |                       |  
 |     |                       |  
 |     |                       |  
 |     |                       |  
 |     |                       |  
 |     .-----------------------.  
 |    /                       /   
 |   /                       /    
 |  /                       /     
 | /                       /      
 |/                       /       
 *-----------------------*        

Positions:
   0 Li     1.617037    1.617037   10.000000    ( 0.0000,  0.0000,  0.0000)
   1 Li     4.851111    1.617037   10.000000    ( 0.0000,  0.0000,  0.0000)
   2 Li     8.085185    1.617037   10.000000    ( 0.0000,  0.0000,  0.0000)
   3 Li     1.617037    4.851111   10.000000    ( 0.0000,  0.0000,  0.0000)
   4 Li     4.851111    4.851111   10.000000    ( 0.0000,  0.0000,  0.0000)
   5 Li     8.085185    4.851111   10.000000    ( 0.0000,  0.0000,  0.0000)
   6 Li     1.617037    8.085185   10.000000    ( 0.0000,  0.0000,  0.0000)
   7 Li     4.851111    8.085185   10.000000    ( 0.0000,  0.0000,  0.0000)
   8 Li     8.085185    8.085185   10.000000    ( 0.0000,  0.0000,  0.0000)
   9 Li     0.000000    0.000000   11.617037    ( 0.0000,  0.0000,  0.0000)
  10 Li     3.234074    0.000000   11.617037    ( 0.0000,  0.0000,  0.0000)
  11 Li     6.468148    0.000000   11.617037    ( 0.0000,  0.0000,  0.0000)
  12 Li     0.000000    3.234074   11.617037    ( 0.0000,  0.0000,  0.0000)
  13 Li     3.234074    3.234074   11.617037    ( 0.0000,  0.0000,  0.0000)
  14 Li     6.468148    3.234074   11.617037    ( 0.0000,  0.0000,  0.0000)
  15 Li     0.000000    6.468148   11.617037    ( 0.0000,  0.0000,  0.0000)
  16 Li     3.234074    6.468148   11.617037    ( 0.0000,  0.0000,  0.0000)
  17 Li     6.468148    6.468148   11.617037    ( 0.0000,  0.0000,  0.0000)
  18 Li     1.618058    1.617241   13.468009    ( 0.0000,  0.0000,  0.0000)
  19 Li     4.851135    1.616930   13.471461    ( 0.0000,  0.0000,  0.0000)
  20 Li     8.084153    1.617360   13.467424    ( 0.0000,  0.0000,  0.0000)
  21 Li     1.616554    4.850859   13.471194    ( 0.0000,  0.0000,  0.0000)
  22 Li     4.851172    4.851288   13.469691    ( 0.0000,  0.0000,  0.0000)
  23 Li     8.085636    4.850784   13.471165    ( 0.0000,  0.0000,  0.0000)
  24 Li     1.617305    8.085090   13.469566    ( 0.0000,  0.0000,  0.0000)
  25 Li     4.851104    8.085137   13.471030    ( 0.0000,  0.0000,  0.0000)
  26 Li     8.084952    8.085048   13.469309    ( 0.0000,  0.0000,  0.0000)
  27 Li     0.000063   -0.005013   15.396598    ( 0.0000,  0.0000,  0.0000)
  28 Li     3.238058   -0.000129   15.441821    ( 0.0000,  0.0000,  0.0000)
  29 Li     6.465560   -0.000579   15.444897    ( 0.0000,  0.0000,  0.0000)
  30 Li     0.000186    3.226945   15.452445    ( 0.0000,  0.0000,  0.0000)
  31 Li     3.235410    3.234841   15.445085    ( 0.0000,  0.0000,  0.0000)
  32 Li     6.466815    3.234982   15.445383    ( 0.0000,  0.0000,  0.0000)
  33 Li    -0.000108    6.466767   15.444337    ( 0.0000,  0.0000,  0.0000)
  34 Li     3.234142    6.467878   15.445188    ( 0.0000,  0.0000,  0.0000)
  35 Li     6.468178    6.468080   15.445668    ( 0.0000,  0.0000,  0.0000)
  36 O      9.729622    9.655152   18.584631    ( 0.0000,  0.0000,  0.0000)
  37 C     11.177152    9.678498   18.486732    ( 0.0000,  0.0000,  0.0000)
  38 H     11.534260    8.934486   17.769440    ( 0.0000,  0.0000,  0.0000)
  39 H     11.547931    9.503594   19.475015    ( 0.0000,  0.0000,  0.0000)
  40 H     11.450929   10.670512   18.126958    ( 0.0000,  0.0000,  0.0000)
  41 H      9.382497    8.787512   18.767250    ( 0.0000,  0.0000,  0.0000)
  42 N      9.642904    9.753104   17.127508    ( 0.0000,  0.0000,  0.0000)
  43 N      9.685899   10.877447   17.075266    ( 0.0000,  0.0000,  0.0000)

Unit cell:
           periodic     x           y           z      points  spacing
  1. axis:    yes    9.702222    0.000000    0.000000    60     0.1617
  2. axis:    yes    0.000000    9.702222    0.000000    60     0.1617
  3. axis:    no     0.000000    0.000000   26.601111   168     0.1583

  Lengths:   9.702222   9.702222  26.601111
  Angles:   90.000000  90.000000  90.000000

Effective grid spacing dv^(1/3) = 0.1606

     iter     time        total  log10-change:
                         energy  eigst   dens
iter:   1 11:58:01  -277.172496  -0.50
iter:   2 11:58:08  -277.168874  -0.95  -1.84
iter:   3 11:58:16  -277.166195c -1.28  -1.97
iter:   4 11:58:23  -277.156032c -1.36  -2.18
Writing to output.gpw (mode='')

iter:   5 11:58:30  -277.154130c -1.56  -2.31
iter:   6 11:58:37  -277.149592c -1.87  -2.29
iter:   7 11:58:44  -277.142423c -1.91  -2.28
iter:   8 11:58:51  -277.141786c -2.25  -2.48
iter:   9 11:58:58  -277.141870c -2.38  -2.66
Writing to output.gpw (mode='')

iter:  10 11:59:05  -277.141482c -2.92  -2.72
iter:  11 11:59:12  -277.141682c -2.76  -3.00
iter:  12 11:59:19  -277.141605c -3.36  -3.01
iter:  13 11:59:26  -277.141596c -3.65  -3.16
iter:  14 11:59:33  -277.141674c -3.78  -3.27
Writing to output.gpw (mode='')

iter:  15 11:59:47  -277.141706c -3.80  -3.29
iter:  16 11:59:55  -277.141703c -4.15  -3.42
iter:  17 12:00:02  -277.141695c -4.20  -3.43
iter:  18 12:00:09  -277.141702c -4.27  -3.55
iter:  19 12:00:16  -277.141702c -4.24  -3.71
Writing to output.gpw (mode='')

iter:  20 12:00:23  -277.141698c -4.49  -3.77
iter:  21 12:00:30  -277.141707c -4.76  -3.89
iter:  22 12:00:38  -277.141710c -4.86  -3.98
iter:  23 12:00:45  -277.141713c -4.94  -4.06c
iter:  24 12:00:52  -277.141715c -5.06  -4.22c
Writing to output.gpw (mode='')

iter:  25 12:00:59  -277.141719c -4.96  -4.26c
iter:  26 12:01:06  -277.141718c -5.31  -4.43c
iter:  27 12:01:13  -277.141718c -5.19  -4.44c
iter:  28 12:01:20  -277.141720c -5.36  -4.43c
iter:  29 12:01:27  -277.141722c -5.45  -4.52c
Writing to output.gpw (mode='')

iter:  30 12:01:34  -277.141723c -5.65  -4.55c
iter:  31 12:01:41  -277.141723c -5.70  -4.75c
iter:  32 12:01:49  -277.141722c -5.86  -4.77c
iter:  33 12:01:56  -277.141722c -5.93  -4.81c
iter:  34 12:02:03  -277.141723c -6.04  -4.96c
Writing to output.gpw (mode='')

iter:  35 12:02:10  -277.141723c -6.31  -4.95c
iter:  36 12:02:17  -277.141723c -6.13  -5.06c
iter:  37 12:02:24  -277.141723c -6.17  -5.10c
iter:  38 12:02:31  -277.141724c -6.51  -5.13c
iter:  39 12:02:38  -277.141723c -6.57  -5.27c
Writing to output.gpw (mode='')

iter:  40 12:02:45  -277.141724c -6.59  -5.34c
iter:  41 12:02:52  -277.141724c -6.73  -5.44c
iter:  42 12:02:59  -277.141724c -6.65  -5.54c
iter:  43 12:03:06  -277.141724c -6.99  -5.57c
iter:  44 12:03:13  -277.141724c -7.08  -5.48c
Writing to output.gpw (mode='')

iter:  45 12:03:21  -277.141724c -6.94  -5.53c
iter:  46 12:03:28  -277.141723c -7.14  -5.32c
iter:  47 12:03:35  -277.141724c -7.21  -5.22c
iter:  48 12:03:42  -277.141724c -7.12  -5.36c
iter:  49 12:03:49  -277.141724c -7.15  -5.63c
Writing to output.gpw (mode='')

iter:  50 12:03:56  -277.141724c -7.11  -5.71c
iter:  51 12:04:03  -277.141724c -7.35  -5.75c
iter:  52 12:04:10  -277.141724c -7.32  -5.75c
iter:  53 12:04:17  -277.141724c -7.46c -5.87c

Converged after 53 iterations.

Dipole moment: (-7.643508, -9.070821, 0.459211) |e|*Ang

Energy contributions relative to reference atoms: (reference = -13382.245603)

Kinetic:       +162.602202
Potential:     -145.078330
External:        +0.000000
XC:            -295.275402
Entropy (-ST):   -0.149808
Local:           +0.684710
--------------------------
Free energy:   -277.216628
Extrapolated:  -277.141724

Dipole-layer corrected work functions: 3.365277, 2.482516 eV

Showing only first 2 kpts
 Kpt  Band  Eigenvalues  Occupancy
  0    28     -3.17696    1.98740
  0    29     -3.05275    1.85874
  0    30     -2.78473    0.11646
  0    31     -2.69001    0.01843

  1    28     -2.97767    1.49124
  1    29     -2.95404    1.29260
  1    30     -2.87196    0.52282
  1    31     -2.82337    0.23622


Fermi level: -2.92390

Gap: 0.026 eV
Transition (v -> c):
  (s=0, k=7, n=29, [0.38, 0.38, 0.00]) -> (s=0, k=4, n=30, [0.38, -0.38, 0.00])
Writing to output.gpw (mode='')


Forces in eV/Ang:
  0 Li    0.01717    0.00359   -0.27648
  1 Li   -0.00411   -0.00132   -0.26133
  2 Li   -0.01274    0.00292   -0.27439
  3 Li   -0.00425    0.00778   -0.26669
  4 Li   -0.00143   -0.00095   -0.27987
  5 Li    0.00438    0.01118   -0.26613
  6 Li    0.00196   -0.01323   -0.27854
  7 Li   -0.00047    0.00610   -0.26606
  8 Li   -0.00192   -0.01552   -0.27797
  9 Li   -0.00008    0.00547    0.34690
 10 Li    0.01842    0.00062    0.25449
 11 Li   -0.01941   -0.00070    0.26396
 12 Li    0.00029    0.00258    0.28782
 13 Li    0.01115    0.00205    0.26044
 14 Li   -0.01132    0.00135    0.26554
 15 Li   -0.00139   -0.00316    0.24275
 16 Li   -0.00874   -0.00554    0.26252
 17 Li    0.01199   -0.00420    0.26460
 18 Li    0.04724    0.01179   -0.07409
 19 Li    0.00157   -0.00414    0.07448
 20 Li   -0.04721    0.01639   -0.10191
 21 Li   -0.02030   -0.01335    0.06521
 22 Li    0.00224    0.00859   -0.00165
 23 Li    0.01912   -0.01579    0.06530
 24 Li    0.01392   -0.00524   -0.00558
 25 Li    0.00076   -0.00427    0.05549
 26 Li   -0.01336   -0.00739   -0.01921
 27 Li    0.02945   -0.29010   -2.11601
 28 Li    0.17467   -0.00654   -0.18330
 29 Li   -0.12172   -0.02771   -0.05580
 30 Li    0.00911   -0.26161    0.24320
 31 Li    0.05688    0.03068   -0.04051
 32 Li   -0.06014    0.04094   -0.02893
 33 Li   -0.00377   -0.06449   -0.06978
 34 Li    0.00063   -0.00932   -0.03210
 35 Li    0.00201   -0.00242   -0.01217
 36 O     0.89105   -2.72255    7.96885
 37 C     2.13263   -0.38551    1.91023
 38 H    -0.10258   -0.14015    0.17806
 39 H     0.46572   -0.17678    0.58044
 40 H    -0.02041   -0.16839    0.38846
 41 H    -0.11963   -1.77276    1.10271
 42 N    -2.62955   -1.03407   -4.40003
 43 N    -0.70133    7.00029   -5.50446

System changes: positions 

Initializing position-dependent things.

Density initialized from wave functions
       .-----------------------.  
      /|                       |  
     / |                       |  
    /  |                       |  
   /   |                       |  
  /    |                       |  
 *     |                       |  
 |     |                       |  
 |     |                       |  
 |     |   H                   |  
 |     O   C                  H|  
 |     |   H                   |  
 |     |                       |  
 |     |                       |  
 |     Li      Li      Li      |  
 |     |                       |  
 |    H|     Li      Li      Li|  
 |     |  Li      Li      Ni   |  
 | Li  |   Li      Li    N     |  
 |     |Li      Li      Li     |  
 |     |                       |  
 |   LLi     LLi     LLi       |  
 |     |  Li      Li      Li   |  
 | Li  |   Li      Li          |  
 |     |Li      Li      Li     |  
 Li    | Li      Li            |  
 |    Li      Li      Li       |  
 |     |                       |  
 |     |                       |  
 |     |                       |  
 |     |                       |  
 |     |                       |  
 |     |                       |  
 |     .-----------------------.  
 |    /                       /   
 |   /                       /    
 |  /                       /     
 | /                       /      
 |/                       /       
 *-----------------------*        

Positions:
   0 Li     1.617037    1.617037   10.000000    ( 0.0000,  0.0000,  0.0000)
   1 Li     4.851111    1.617037   10.000000    ( 0.0000,  0.0000,  0.0000)
   2 Li     8.085185    1.617037   10.000000    ( 0.0000,  0.0000,  0.0000)
   3 Li     1.617037    4.851111   10.000000    ( 0.0000,  0.0000,  0.0000)
   4 Li     4.851111    4.851111   10.000000    ( 0.0000,  0.0000,  0.0000)
   5 Li     8.085185    4.851111   10.000000    ( 0.0000,  0.0000,  0.0000)
   6 Li     1.617037    8.085185   10.000000    ( 0.0000,  0.0000,  0.0000)
   7 Li     4.851111    8.085185   10.000000    ( 0.0000,  0.0000,  0.0000)
   8 Li     8.085185    8.085185   10.000000    ( 0.0000,  0.0000,  0.0000)
   9 Li     0.000000    0.000000   11.617037    ( 0.0000,  0.0000,  0.0000)
  10 Li     3.234074    0.000000   11.617037    ( 0.0000,  0.0000,  0.0000)
  11 Li     6.468148    0.000000   11.617037    ( 0.0000,  0.0000,  0.0000)
  12 Li     0.000000    3.234074   11.617037    ( 0.0000,  0.0000,  0.0000)
  13 Li     3.234074    3.234074   11.617037    ( 0.0000,  0.0000,  0.0000)
  14 Li     6.468148    3.234074   11.617037    ( 0.0000,  0.0000,  0.0000)
  15 Li     0.000000    6.468148   11.617037    ( 0.0000,  0.0000,  0.0000)
  16 Li     3.234074    6.468148   11.617037    ( 0.0000,  0.0000,  0.0000)
  17 Li     6.468148    6.468148   11.617037    ( 0.0000,  0.0000,  0.0000)
  18 Li     1.618597    1.617419   13.467175    ( 0.0000,  0.0000,  0.0000)
  19 Li     4.851160    1.616872   13.472217    ( 0.0000,  0.0000,  0.0000)
  20 Li     8.083629    1.617594   13.466250    ( 0.0000,  0.0000,  0.0000)
  21 Li     1.616359    4.850699   13.471853    ( 0.0000,  0.0000,  0.0000)
  22 Li     4.851190    4.851382   13.469653    ( 0.0000,  0.0000,  0.0000)
  23 Li     8.085825    4.850600   13.471839    ( 0.0000,  0.0000,  0.0000)
  24 Li     1.617466    8.085005   13.469453    ( 0.0000,  0.0000,  0.0000)
  25 Li     4.851125    8.085100   13.471590    ( 0.0000,  0.0000,  0.0000)
  26 Li     8.084781    8.084921   13.469035    ( 0.0000,  0.0000,  0.0000)
  27 Li     0.000775   -0.008825   15.373844    ( 0.0000,  0.0000,  0.0000)
  28 Li     3.239691   -0.000182   15.440111    ( 0.0000,  0.0000,  0.0000)
  29 Li     6.464356   -0.000891   15.444353    ( 0.0000,  0.0000,  0.0000)
  30 Li     0.000294    3.224559   15.454808    ( 0.0000,  0.0000,  0.0000)
  31 Li     3.235965    3.235121   15.444680    ( 0.0000,  0.0000,  0.0000)
  32 Li     6.466182    3.235449   15.445065    ( 0.0000,  0.0000,  0.0000)
  33 Li    -0.000149    6.466050   15.443601    ( 0.0000,  0.0000,  0.0000)
  34 Li     3.234148    6.467772   15.444854    ( 0.0000,  0.0000,  0.0000)
  35 Li     6.468196    6.468048   15.445549    ( 0.0000,  0.0000,  0.0000)
  36 O      9.740003    9.650327   18.622958    ( 0.0000,  0.0000,  0.0000)
  37 C     11.181768    9.674192   18.495757    ( 0.0000,  0.0000,  0.0000)
  38 H     11.534462    8.932927   17.771823    ( 0.0000,  0.0000,  0.0000)
  39 H     11.557029    9.501575   19.483552    ( 0.0000,  0.0000,  0.0000)
  40 H     11.451027   10.668708   18.131671    ( 0.0000,  0.0000,  0.0000)
  41 H      9.384382    8.776813   18.773281    ( 0.0000,  0.0000,  0.0000)
  42 N      9.621875    9.773610   17.106443    ( 0.0000,  0.0000,  0.0000)
  43 N      9.679636   10.889189   17.051303    ( 0.0000,  0.0000,  0.0000)

Unit cell:
           periodic     x           y           z      points  spacing
  1. axis:    yes    9.702222    0.000000    0.000000    60     0.1617
  2. axis:    yes    0.000000    9.702222    0.000000    60     0.1617
  3. axis:    no     0.000000    0.000000   26.601111   168     0.1583

  Lengths:   9.702222   9.702222  26.601111
  Angles:   90.000000  90.000000  90.000000

Effective grid spacing dv^(1/3) = 0.1606

     iter     time        total  log10-change:
                         energy  eigst   dens
iter:   1 12:04:26  -277.925126  -0.54
iter:   2 12:04:33  -277.922270  -0.97  -1.87
iter:   3 12:04:47  -277.919631c -1.30  -1.99
iter:   4 12:04:55  -277.915229c -1.43  -2.19
Writing to output.gpw (mode='')

iter:   5 12:05:02  -277.910942c -1.61  -2.25
iter:   6 12:05:09  -277.905128c -1.83  -2.19
iter:   7 12:05:16  -277.893932c -1.93  -2.19
iter:   8 12:05:23  -277.892331c -2.09  -2.43
iter:   9 12:05:31  -277.892294c -2.22  -2.64
Writing to output.gpw (mode='')

iter:  10 12:05:38  -277.892020c -3.01  -2.71
iter:  11 12:05:45  -277.892166c -2.68  -2.80
iter:  12 12:05:52  -277.891989c -3.18  -2.93
iter:  13 12:05:59  -277.892029c -3.18  -3.07
iter:  14 12:06:06  -277.892203c -3.49  -3.15
Writing to output.gpw (mode='')

iter:  15 12:06:14  -277.892200c -3.71  -3.10
iter:  16 12:06:21  -277.892169c -3.47  -3.26
iter:  17 12:06:28  -277.892107c -3.88  -3.40
iter:  18 12:06:35  -277.892122c -4.02  -3.43
iter:  19 12:06:42  -277.892119c -4.33  -3.65
Writing to output.gpw (mode='')

iter:  20 12:06:50  -277.892151c -4.26  -3.72
iter:  21 12:06:57  -277.892141c -4.48  -3.82
iter:  22 12:07:04  -277.892147c -4.43  -3.91
iter:  23 12:07:11  -277.892165c -4.69  -3.94
iter:  24 12:07:19  -277.892167c -4.74  -4.08c
Writing to output.gpw (mode='')

iter:  25 12:07:26  -277.892161c -4.95  -4.17c
iter:  26 12:07:33  -277.892164c -4.88  -4.29c
iter:  27 12:07:40  -277.892170c -4.95  -4.33c
iter:  28 12:07:48  -277.892170c -4.98  -4.31c
iter:  29 12:07:55  -277.892172c -5.35  -4.31c
Writing to output.gpw (mode='')

iter:  30 12:08:02  -277.892176c -5.34  -4.33c
iter:  31 12:08:09  -277.892176c -5.22  -4.37c
iter:  32 12:08:16  -277.892176c -5.60  -4.50c
iter:  33 12:08:24  -277.892178c -5.80  -4.51c
iter:  34 12:08:31  -277.892180c -5.75  -4.58c
Writing to output.gpw (mode='')

iter:  35 12:08:38  -277.892180c -6.02  -4.69c
iter:  36 12:08:46  -277.892180c -6.22  -4.96c
iter:  37 12:08:53  -277.892180c -5.96  -5.01c
iter:  38 12:09:00  -277.892181c -6.14  -5.06c
iter:  39 12:09:07  -277.892181c -5.96  -5.32c
Writing to output.gpw (mode='')

iter:  40 12:09:16  -277.892181c -6.27  -5.33c
iter:  41 12:09:23  -277.892181c -6.37  -5.33c
iter:  42 12:09:31  -277.892181c -6.36  -5.47c
iter:  43 12:09:38  -277.892181c -6.49  -5.48c
iter:  44 12:09:51  -277.892181c -6.51  -5.47c
Writing to output.gpw (mode='')

iter:  45 12:09:58  -277.892181c -6.54  -5.33c
iter:  46 12:10:05  -277.892181c -6.48  -5.41c
iter:  47 12:10:12  -277.892182c -6.82  -5.44c
iter:  48 12:10:20  -277.892181c -6.78  -5.42c
iter:  49 12:10:27  -277.892182c -7.00  -5.32c
Writing to output.gpw (mode='')

iter:  50 12:10:34  -277.892182c -7.02  -5.63c
iter:  51 12:10:41  -277.892182c -7.07  -5.70c
iter:  52 12:10:49  -277.892182c -7.09  -5.78c
iter:  53 12:10:56  -277.892182c -7.17  -5.80c
iter:  54 12:11:03  -277.892182c -6.99  -5.93c
Writing to output.gpw (mode='')

iter:  55 12:11:10  -277.892182c -7.33  -5.98c
iter:  56 12:11:18  -277.892182c -7.27  -6.01c
iter:  57 12:11:25  -277.892182c -7.45c -6.05c

Converged after 57 iterations.

Dipole moment: (-5.600257, -9.671612, 0.434126) |e|*Ang

Energy contributions relative to reference atoms: (reference = -13382.245603)

Kinetic:       +160.771193
Potential:     -144.314144
External:        +0.000000
XC:            -294.959856
Entropy (-ST):   -0.149222
Local:           +0.685235
--------------------------
Free energy:   -277.966794
Extrapolated:  -277.892182

Dipole-layer corrected work functions: 3.367472, 2.532933 eV

Showing only first 2 kpts
 Kpt  Band  Eigenvalues  Occupancy
  0    28     -3.20451    1.98771
  0    29     -3.08622    1.87644
  0    30     -2.80826    0.11052
  0    31     -2.71412    0.01764

  1    28     -3.00236    1.47894
  1    29     -2.97844    1.27509
  1    30     -2.89649    0.50922
  1    31     -2.85600    0.26383


Fermi level: -2.95020

Gap: 0.025 eV
Transition (v -> c):
  (s=0, k=7, n=29, [0.38, 0.38, 0.00]) -> (s=0, k=4, n=30, [0.38, -0.38, 0.00])
Writing to output.gpw (mode='')


Forces in eV/Ang:
  0 Li    0.01827    0.00357   -0.27656
  1 Li   -0.00495   -0.00152   -0.26117
  2 Li   -0.01311    0.00319   -0.27482
  3 Li   -0.00459    0.00768   -0.26588
  4 Li   -0.00125   -0.00094   -0.28112
  5 Li    0.00463    0.01172   -0.26557
  6 Li    0.00206   -0.01306   -0.27879
  7 Li   -0.00048    0.00669   -0.26564
  8 Li   -0.00194   -0.01641   -0.27840
  9 Li   -0.00025    0.00560    0.35015
 10 Li    0.01908    0.00029    0.25393
 11 Li   -0.01958   -0.00117    0.26363
 12 Li    0.00046    0.00424    0.28705
 13 Li    0.01267    0.00266    0.25872
 14 Li   -0.01274    0.00199    0.26491
 15 Li   -0.00167   -0.00416    0.24211
 16 Li   -0.00756   -0.00599    0.26188
 17 Li    0.01118   -0.00464    0.26354
 18 Li    0.04875    0.01573   -0.07493
 19 Li    0.00241   -0.00450    0.07313
 20 Li   -0.04848    0.02043   -0.10642
 21 Li   -0.01914   -0.01481    0.06514
 22 Li    0.00161    0.00910   -0.00165
 23 Li    0.01825   -0.01709    0.06639
 24 Li    0.01680   -0.00834   -0.00865
 25 Li    0.00179   -0.00477    0.05471
 26 Li   -0.01720   -0.01107   -0.02356
 27 Li    0.06098   -0.34262   -2.12629
 28 Li    0.16542   -0.00631   -0.17536
 29 Li   -0.12164   -0.02942   -0.05863
 30 Li    0.01065   -0.22724    0.21999
 31 Li    0.05428    0.02839   -0.04165
 32 Li   -0.06105    0.04335   -0.03159
 33 Li   -0.00322   -0.06750   -0.07035
 34 Li   -0.00046   -0.00859   -0.03240
 35 Li    0.00187   -0.00276   -0.01331
 36 O     0.78678   -2.33671    7.21565
 37 C     1.71659   -0.35068    1.72143
 38 H    -0.09941   -0.13060    0.20268
 39 H     0.57684   -0.16357    0.48991
 40 H    -0.02253   -0.22013    0.41878
 41 H     0.04848   -1.39541    0.89440
 42 N    -2.44348   -1.11561   -4.04013
 43 N    -0.61779    6.33238   -4.66299

System changes: positions 

Initializing position-dependent things.

Density initialized from wave functions
       .-----------------------.  
      /|                       |  
     / |                       |  
    /  |                       |  
   /   |                       |  
  /    |                       |  
 *     |                       |  
 |     |                       |  
 |     |                       |  
 |     |   H                   |  
 |     O   C                  H|  
 |     |   H                   |  
 |     |                       |  
 |     |                       |  
 |     Li      Li      Li      |  
 |     |                       |  
 |    H|     Li      Li      Li|  
 |     |  Li      Li      Ni   |  
 | Li  |   Li      Li    N     |  
 |     |Li      Li      Li     |  
 |     |                       |  
 |   LLi     LLi     LLi       |  
 |     |  Li      Li      Li   |  
 | Li  |   Li      Li          |  
 |     |Li      Li      Li     |  
 Li    | Li      Li            |  
 |    Li      Li      Li       |  
 |     |                       |  
 |     |                       |  
 |     |                       |  
 |     |                       |  
 |     |                       |  
 |     |                       |  
 |     .-----------------------.  
 |    /                       /   
 |   /                       /    
 |  /                       /     
 | /                       /      
 |/                       /       
 *-----------------------*        

Positions:
   0 Li     1.617037    1.617037   10.000000    ( 0.0000,  0.0000,  0.0000)
   1 Li     4.851111    1.617037   10.000000    ( 0.0000,  0.0000,  0.0000)
   2 Li     8.085185    1.617037   10.000000    ( 0.0000,  0.0000,  0.0000)
   3 Li     1.617037    4.851111   10.000000    ( 0.0000,  0.0000,  0.0000)
   4 Li     4.851111    4.851111   10.000000    ( 0.0000,  0.0000,  0.0000)
   5 Li     8.085185    4.851111   10.000000    ( 0.0000,  0.0000,  0.0000)
   6 Li     1.617037    8.085185   10.000000    ( 0.0000,  0.0000,  0.0000)
[...]

iter:  10 20:55:54  -284.320666c -4.80  -3.81
iter:  11 20:56:02  -284.320668c -5.22  -3.95
iter:  12 20:56:09  -284.320672c -5.29  -4.02c
iter:  13 20:56:16  -284.320675c -5.62  -4.26c
iter:  14 20:56:23  -284.320676c -5.82  -4.27c
Writing to output.gpw (mode='')

iter:  15 20:56:30  -284.320671c -6.00  -4.28c
iter:  16 20:56:37  -284.320665c -6.05  -4.40c
iter:  17 20:56:44  -284.320665c -6.52  -4.58c
iter:  18 20:56:51  -284.320664c -6.71  -4.64c
iter:  19 20:56:59  -284.320664c -6.85  -4.71c
Writing to output.gpw (mode='')

iter:  20 20:57:06  -284.320665c -7.08  -4.86c
iter:  21 20:57:13  -284.320666c -7.04  -4.96c
iter:  22 20:57:20  -284.320666c -7.39  -5.07c
iter:  23 20:57:27  -284.320666c -7.44c -5.12c

Converged after 23 iterations.

Dipole moment: (-1.611466, 13.882562, -0.196664) |e|*Ang

Energy contributions relative to reference atoms: (reference = -13382.245603)

Kinetic:       +129.743419
Potential:     -121.027209
External:        +0.000000
XC:            -293.685194
Entropy (-ST):   -0.161424
Local:           +0.729030
--------------------------
Free energy:   -284.401378
Extrapolated:  -284.320666

Dipole-layer corrected work functions: 3.405420, 3.783475 eV

Showing only first 2 kpts
 Kpt  Band  Eigenvalues  Occupancy
  0    28     -3.82729    1.98119
  0    29     -3.63289    1.36658
  0    30     -3.56282    0.69388
  0    31     -3.38143    0.02784

  1    28     -3.83685    1.98443
  1    29     -3.74026    1.89729
  1    30     -3.53551    0.47057
  1    31     -3.34979    0.01488


Fermi level: -3.59445

No gap
Writing to output.gpw (mode='')


Forces in eV/Ang:
  0 Li   -0.00619    0.01264   -0.29640
  1 Li    0.00544   -0.00990   -0.29361
  2 Li   -0.00073    0.00093   -0.25712
  3 Li    0.00605    0.00850   -0.29186
  4 Li   -0.01565    0.01594   -0.28628
  5 Li    0.00962   -0.00349   -0.29500
  6 Li    0.01289   -0.01388   -0.28733
  7 Li   -0.00760   -0.00637   -0.29281
  8 Li   -0.01082    0.00696   -0.29618
  9 Li   -0.04692    0.04126    0.29311
 10 Li   -0.00523    0.01579    0.30137
 11 Li    0.03973    0.03031    0.33817
 12 Li   -0.04270   -0.03395    0.32955
 13 Li    0.02488   -0.00932    0.28223
 14 Li    0.04552   -0.03881    0.27308
 15 Li   -0.02097   -0.01065    0.28789
 16 Li    0.00574   -0.01611    0.29426
 17 Li    0.02298   -0.02367    0.28357
 18 Li    0.00068    0.00176    0.00037
 19 Li    0.00405   -0.00832    0.00101
 20 Li    0.01282    0.00121   -0.00704
 21 Li    0.00302    0.00653   -0.00315
 22 Li   -0.00463   -0.00322   -0.00683
 23 Li    0.00039   -0.00379   -0.00866
 24 Li    0.00841   -0.00917   -0.00092
 25 Li    0.00812    0.00052    0.00125
 26 Li   -0.00873   -0.00202   -0.00649
 27 Li    0.00077    0.00509    0.02532
 28 Li    0.01251    0.00220    0.00073
 29 Li   -0.01112    0.00700    0.00649
 30 Li   -0.00255    0.00995   -0.00930
 31 Li   -0.00748   -0.00308   -0.00891
 32 Li    0.00744   -0.00163   -0.00290
 33 Li   -0.00458    0.00244   -0.00205
 34 Li   -0.00396    0.00368   -0.00085
 35 Li    0.00755    0.01010   -0.00963
 36 O    -0.03276    0.02439   -0.00512
 37 C     0.01900    0.00715    0.01025
 38 H     0.00280    0.01852   -0.00147
 39 H     0.02664   -0.03016    0.00571
 40 H    -0.04103    0.00267   -0.01352
 41 H     0.03460   -0.00544   -0.00794
 42 N     0.00697   -0.02919   -0.01523
 43 N    -0.00472    0.04575   -0.02012

System changes: positions 

Initializing position-dependent things.

Density initialized from wave functions
       .-----------------------.  
      /|                       |  
     / |                       |  
    /  |                       |  
   /   |                       |  
  /    |                       |  
 *     |                       |  
 |     |                       |  
 |     |                       |  
 |     |O  C H                H|  
 |     |                       |  
 |     |   H                   |  
 |     |                       |  
 |     |                       |  
 |     |       Li      Li      |  
 |    H|                       |  
 |   Li|     Li      Li        |  
 |     |  Li      Li      Li   |  
 | Li  |    Li      Li N       |  
 |     |Li      Li   N  Li     |  
 |     |                 Li    |  
 |   LLi     LLi     LLi       |  
 |     |  Li      Li      Li   |  
 | Li  |   Li      Li          |  
 |     |Li      Li      Li     |  
 Li    | Li      Li            |  
 |    Li      Li      Li       |  
 |     |                       |  
 |     |                       |  
 |     |                       |  
 |     |                       |  
 |     |                       |  
 |     |                       |  
 |     .-----------------------.  
 |    /                       /   
 |   /                       /    
 |  /                       /     
 | /                       /      
 |/                       /       
 *-----------------------*        

Positions:
   0 Li     1.617037    1.617037   10.000000    ( 0.0000,  0.0000,  0.0000)
   1 Li     4.851111    1.617037   10.000000    ( 0.0000,  0.0000,  0.0000)
   2 Li     8.085185    1.617037   10.000000    ( 0.0000,  0.0000,  0.0000)
   3 Li     1.617037    4.851111   10.000000    ( 0.0000,  0.0000,  0.0000)
   4 Li     4.851111    4.851111   10.000000    ( 0.0000,  0.0000,  0.0000)
   5 Li     8.085185    4.851111   10.000000    ( 0.0000,  0.0000,  0.0000)
   6 Li     1.617037    8.085185   10.000000    ( 0.0000,  0.0000,  0.0000)
   7 Li     4.851111    8.085185   10.000000    ( 0.0000,  0.0000,  0.0000)
   8 Li     8.085185    8.085185   10.000000    ( 0.0000,  0.0000,  0.0000)
   9 Li     0.000000    0.000000   11.617037    ( 0.0000,  0.0000,  0.0000)
  10 Li     3.234074    0.000000   11.617037    ( 0.0000,  0.0000,  0.0000)
  11 Li     6.468148    0.000000   11.617037    ( 0.0000,  0.0000,  0.0000)
  12 Li     0.000000    3.234074   11.617037    ( 0.0000,  0.0000,  0.0000)
  13 Li     3.234074    3.234074   11.617037    ( 0.0000,  0.0000,  0.0000)
  14 Li     6.468148    3.234074   11.617037    ( 0.0000,  0.0000,  0.0000)
  15 Li     0.000000    6.468148   11.617037    ( 0.0000,  0.0000,  0.0000)
  16 Li     3.234074    6.468148   11.617037    ( 0.0000,  0.0000,  0.0000)
  17 Li     6.468148    6.468148   11.617037    ( 0.0000,  0.0000,  0.0000)
  18 Li     1.615508    1.670774   13.493311    ( 0.0000,  0.0000,  0.0000)
  19 Li     4.873678    1.583671   13.511374    ( 0.0000,  0.0000,  0.0000)
  20 Li     8.071153    1.622356   13.603808    ( 0.0000,  0.0000,  0.0000)
  21 Li     1.659249    4.871423   13.499233    ( 0.0000,  0.0000,  0.0000)
  22 Li     4.937998    4.778314   13.505737    ( 0.0000,  0.0000,  0.0000)
  23 Li     8.132911    4.823341   13.529483    ( 0.0000,  0.0000,  0.0000)
  24 Li     1.544149    8.135007   13.482891    ( 0.0000,  0.0000,  0.0000)
  25 Li     4.821088    8.036887   13.489398    ( 0.0000,  0.0000,  0.0000)
  26 Li     8.040229    8.066793   13.507620    ( 0.0000,  0.0000,  0.0000)
  27 Li    -0.222344    0.202373   15.494475    ( 0.0000,  0.0000,  0.0000)
  28 Li     3.101653   -0.046630   15.389951    ( 0.0000,  0.0000,  0.0000)
  29 Li     6.370272   -0.148745   15.503990    ( 0.0000,  0.0000,  0.0000)
  30 Li     0.163180    3.319503   15.526915    ( 0.0000,  0.0000,  0.0000)
  31 Li     3.422412    3.290455   15.458706    ( 0.0000,  0.0000,  0.0000)
  32 Li     6.751379    2.948178   15.654489    ( 0.0000,  0.0000,  0.0000)
  33 Li     0.053722    6.582993   15.450817    ( 0.0000,  0.0000,  0.0000)
  34 Li     3.235033    6.468019   15.435504    ( 0.0000,  0.0000,  0.0000)
  35 Li     6.409655    6.288335   15.475693    ( 0.0000,  0.0000,  0.0000)
  36 O     10.325191    9.020620   19.749275    ( 0.0000,  0.0000,  0.0000)
  37 C     11.472150    9.505546   19.047589    ( 0.0000,  0.0000,  0.0000)
  38 H     11.635430    8.967418   18.102700    ( 0.0000,  0.0000,  0.0000)
  39 H     12.328884    9.329678   19.697085    ( 0.0000,  0.0000,  0.0000)
  40 H     11.408772   10.580366   18.835794    ( 0.0000,  0.0000,  0.0000)
  41 H      9.537070    9.227258   19.232509    ( 0.0000,  0.0000,  0.0000)
  42 N      7.678172   10.837984   15.645115    ( 0.0000,  0.0000,  0.0000)
  43 N      8.572293   11.722436   15.643971    ( 0.0000,  0.0000,  0.0000)

Unit cell:
           periodic     x           y           z      points  spacing
  1. axis:    yes    9.702222    0.000000    0.000000    60     0.1617
  2. axis:    yes    0.000000    9.702222    0.000000    60     0.1617
  3. axis:    no     0.000000    0.000000   26.601111   168     0.1583

  Lengths:   9.702222   9.702222  26.601111
  Angles:   90.000000  90.000000  90.000000

Effective grid spacing dv^(1/3) = 0.1606

     iter     time        total  log10-change:
                         energy  eigst   dens
iter:   1 20:57:36  -284.323973  -2.45
iter:   2 20:57:43  -284.321645  -2.98  -2.34
iter:   3 20:57:50  -284.321285c -3.85  -2.59
iter:   4 20:57:57  -284.321181c -4.01  -2.88
Writing to output.gpw (mode='')

iter:   5 20:58:04  -284.321172c -4.08  -3.13
iter:   6 20:58:11  -284.321194c -3.75  -3.26
iter:   7 20:58:19  -284.321189c -3.96  -3.55
iter:   8 20:58:26  -284.321118c -4.68  -3.63
iter:   9 20:58:33  -284.321128c -4.94  -3.73
Writing to output.gpw (mode='')

iter:  10 20:58:40  -284.321151c -4.94  -3.81
iter:  11 20:58:47  -284.321142c -5.46  -3.96
iter:  12 20:58:54  -284.321159c -5.27  -4.08c
iter:  13 20:59:01  -284.321155c -5.85  -4.19c
iter:  14 20:59:08  -284.321150c -5.83  -4.29c
Writing to output.gpw (mode='')

iter:  15 20:59:16  -284.321150c -6.27  -4.41c
iter:  16 20:59:23  -284.321150c -6.39  -4.49c
iter:  17 20:59:30  -284.321150c -6.32  -4.54c
iter:  18 20:59:37  -284.321151c -6.85  -4.58c
iter:  19 20:59:50  -284.321151c -6.84  -4.72c
Writing to output.gpw (mode='')

iter:  20 20:59:59  -284.321151c -7.19  -4.78c
iter:  21 21:00:06  -284.321151c -7.16  -4.81c
iter:  22 21:00:13  -284.321151c -7.54c -4.99c

Converged after 22 iterations.

Dipole moment: (-1.610750, 13.829775, -0.197179) |e|*Ang

Energy contributions relative to reference atoms: (reference = -13382.245603)

Kinetic:       +129.619975
Potential:     -120.932257
External:        +0.000000
XC:            -293.657020
Entropy (-ST):   -0.161416
Local:           +0.728859
--------------------------
Free energy:   -284.401859
Extrapolated:  -284.321151

Dipole-layer corrected work functions: 3.405512, 3.784558 eV

Showing only first 2 kpts
 Kpt  Band  Eigenvalues  Occupancy
  0    28     -3.82794    1.98121
  0    29     -3.63341    1.36596
  0    30     -3.56323    0.69223
  0    31     -3.38235    0.02802

  1    28     -3.83743    1.98443
  1    29     -3.74128    1.89812
  1    30     -3.53567    0.46749
  1    31     -3.35013    0.01481


Fermi level: -3.59503

No gap
Writing to output.gpw (mode='')


Forces in eV/Ang:
  0 Li   -0.00626    0.01273   -0.29633
  1 Li    0.00546   -0.00980   -0.29361
  2 Li   -0.00078    0.00104   -0.25676
  3 Li    0.00601    0.00854   -0.29169
  4 Li   -0.01562    0.01591   -0.28657
  5 Li    0.00962   -0.00356   -0.29497
  6 Li    0.01298   -0.01402   -0.28727
  7 Li   -0.00753   -0.00628   -0.29252
  8 Li   -0.01094    0.00696   -0.29594
  9 Li   -0.04613    0.04058    0.29295
 10 Li   -0.00485    0.01582    0.30133
 11 Li    0.03900    0.03073    0.33699
 12 Li   -0.04207   -0.03335    0.32845
 13 Li    0.02513   -0.00934    0.28216
 14 Li    0.04519   -0.03929    0.27241
 15 Li   -0.02116   -0.01105    0.28747
 16 Li    0.00641   -0.01689    0.29342
 17 Li    0.02238   -0.02494    0.28253
 18 Li   -0.00079   -0.00103    0.00265
 19 Li    0.00340   -0.00722   -0.00098
 20 Li    0.01371   -0.00012   -0.00186
 21 Li    0.00370    0.00707   -0.00572
 22 Li   -0.00408   -0.00187   -0.00549
 23 Li   -0.00071   -0.00322   -0.00825
 24 Li    0.00559   -0.00554    0.00216
 25 Li    0.00772    0.00144    0.00177
 26 Li   -0.00524    0.00027   -0.00257
 27 Li    0.00115    0.00355    0.01939
 28 Li    0.01091    0.00199   -0.00117
 29 Li   -0.00995    0.00371    0.00613
 30 Li   -0.00279    0.00662   -0.00850
 31 Li   -0.00647   -0.00270   -0.00769
 32 Li    0.00387    0.00858   -0.00318
 33 Li   -0.00413    0.00430   -0.00331
 34 Li   -0.00321    0.00222   -0.00010
 35 Li    0.00639    0.00949   -0.00943
 36 O     0.00604    0.02003   -0.03268
 37 C     0.01881    0.00575    0.00422
 38 H    -0.02266    0.01246    0.02508
 39 H     0.01295   -0.00521   -0.00452
 40 H    -0.02275   -0.01652    0.00859
 41 H     0.01733   -0.00433   -0.01203
 42 N     0.02376   -0.03348   -0.01635
 43 N    -0.03289    0.02130   -0.01377

Timing:                                      incl.     excl.
-------------------------------------------------------------------
Density initialized from wave functions:     4.988     4.985   0.0% |
 Symmetrize density:                         0.003     0.003   0.0% |
Forces:                                     43.214    43.214   0.1% |
Hamiltonian:                               665.660     0.016   0.0% |
 Atomic:                                     0.032     0.032   0.0% |
  XC Correction:                             0.000     0.000   0.0% |
 Calculate atomic Hamiltonians:              0.060     0.060   0.0% |
 Communicate:                                9.442     9.442   0.0% |
 Hartree integrate/restrict:                 2.552     2.552   0.0% |
 Initialize Hamiltonian:                     0.000     0.000   0.0% |
 Poisson:                                   32.303    11.678   0.0% |
  Communicate from 1D:                       3.158     3.158   0.0% |
  Communicate from 2D:                       3.138     3.138   0.0% |
  Communicate to 1D:                         1.881     1.881   0.0% |
  Communicate to 2D:                         4.060     4.060   0.0% |
  FFT 1D:                                    4.086     4.086   0.0% |
  FFT 2D:                                    4.302     4.302   0.0% |
 XC 3D grid:                               620.710    98.171   0.3% |
  VdW-DF integral:                         522.539     4.378   0.0% |
   Convolution:                             48.104    48.104   0.1% |
   FFT:                                     21.184    21.184   0.1% |
   gather:                                 179.515   179.515   0.5% |
   hmm1:                                    17.512    17.512   0.1% |
   hmm2:                                    22.778    22.778   0.1% |
   iFFT:                                    21.684    21.684   0.1% |
   potential:                              203.564     5.646   0.0% |
    collect:                                32.015    32.015   0.1% |
    p1:                                     94.138    94.138   0.3% |
    p2:                                     35.301    35.301   0.1% |
    sum:                                    36.462    36.462   0.1% |
   splines:                                  3.820     3.820   0.0% |
 vbar:                                       0.546     0.546   0.0% |
LCAO initialization:                         1.043     0.183   0.0% |
 LCAO eigensolver:                           0.245     0.001   0.0% |
  Calculate projections:                     0.000     0.000   0.0% |
  DenseAtomicCorrection:                     0.000     0.000   0.0% |
  Distribute overlap matrix:                 0.153     0.153   0.0% |
  Orbital Layouts:                           0.090     0.090   0.0% |
  Potential matrix:                          0.001     0.001   0.0% |
  Sum over cells:                            0.001     0.001   0.0% |
 LCAO to grid:                               0.520     0.520   0.0% |
 Set positions (LCAO WFS):                   0.096     0.048   0.0% |
  Basic WFS set positions:                   0.001     0.001   0.0% |
  Basis functions set positions:             0.000     0.000   0.0% |
  P tci:                                     0.000     0.000   0.0% |
  ST tci:                                    0.018     0.018   0.0% |
  mktci:                                     0.029     0.029   0.0% |
Redistribute:                                0.072     0.072   0.0% |
SCF-cycle:                               33967.907   512.093   1.5% ||
 Davidson:                                7893.240  2351.473   6.8% |--|
  Apply hamiltonian:                       508.556   508.556   1.5% ||
  Subspace diag:                          1502.603     0.536   0.0% |
   calc_h_matrix:                          725.956   208.191   0.6% |
    Apply hamiltonian:                     517.765   517.765   1.5% ||
   diagonalize:                             92.208    92.208   0.3% |
   rotate_psi:                             683.903   683.903   2.0% ||
  calc. matrices:                         2427.761  1217.662   3.5% ||
   Apply hamiltonian:                     1210.098  1210.098   3.5% ||
  diagonalize:                              20.272    20.272   0.1% |
  rotate_psi:                             1082.576  1082.576   3.1% ||
 Density:                                  161.312     0.114   0.0% |
  Atomic density matrices:                  17.344    17.344   0.0% |
  Mix:                                      74.136    74.136   0.2% |
  Multipole moments:                         8.048     8.048   0.0% |
  Pseudo density:                           61.670    61.571   0.2% |
   Symmetrize density:                       0.099     0.099   0.0% |
 Hamiltonian:                            25382.284     0.568   0.0% |
  Atomic:                                    1.052     1.041   0.0% |
   XC Correction:                            0.011     0.011   0.0% |
  Calculate atomic Hamiltonians:             1.678     1.678   0.0% |
  Communicate:                             329.910   329.910   0.9% |
  Hartree integrate/restrict:               97.995    97.995   0.3% |
  Poisson:                                1226.125   456.813   1.3% ||
   Communicate from 1D:                    120.333   120.333   0.3% |
   Communicate from 2D:                    123.624   123.624   0.4% |
   Communicate to 1D:                       68.208    68.208   0.2% |
   Communicate to 2D:                      147.085   147.085   0.4% |
   FFT 1D:                                 158.323   158.323   0.5% |
   FFT 2D:                                 151.740   151.740   0.4% |
  XC 3D grid:                            23703.964  3732.726  10.7% |---|
   VdW-DF integral:                      19971.238   162.674   0.5% |
    Convolution:                          1814.899  1814.899   5.2% |-|
    FFT:                                   777.669   777.669   2.2% ||
    gather:                               6968.066  6968.066  20.0% |-------|
    hmm1:                                  660.612   660.612   1.9% ||
    hmm2:                                  861.789   861.789   2.5% ||
    iFFT:                                  821.966   821.966   2.4% ||
    potential:                            7903.522   217.207   0.6% |
     collect:                             1230.290  1230.290   3.5% ||
     p1:                                  3578.229  3578.229  10.3% |---|
     p2:                                  1330.612  1330.612   3.8% |-|
     sum:                                 1547.183  1547.183   4.4% |-|
    splines:                                 0.042     0.042   0.0% |
  vbar:                                     20.992    20.992   0.1% |
 Orthonormalize:                            18.978     0.016   0.0% |
  calc_s_matrix:                             2.982     2.982   0.0% |
  inverse-cholesky:                          5.341     5.341   0.0% |
  projections:                               0.003     0.003   0.0% |
  rotate_psi_s:                             10.636    10.636   0.0% |
Set symmetry:                                0.015     0.015   0.0% |
Other:                                      99.024    99.024   0.3% |
-------------------------------------------------------------------
Total:                                             34781.923 100.0%

Memory usage: 1.14 GiB
Date: Fri Mar 10 21:00:14 2023
