
  ___ ___ ___ _ _ _  
 |   |   |_  | | | | 
 | | | | | . | | | | 
 |__ |  _|___|_____|  22.8.0
 |___|_|             

User:   vazumah@c20.hercules
Date:   Sat Feb 25 22:50:37 2023
Arch:   x86_64
Pid:    20163
CWD:    /home/vazumah/Python_projects/LiNRR/Li_adsorb_studies/proton_donors/on_pure_surface/Li_BCC100/adsorbates/CH3CH2OH_z/bridge/8.085_1.617
Python: 3.10.8
gpaw:   /home/vazumah/.conda/envs/GPAW/lib/python3.10/site-packages/gpaw
_gpaw:  /home/vazumah/.conda/envs/GPAW/lib/python3.10/site-packages/
        _gpaw.cpython-310-x86_64-linux-gnu.so
ase:    /home/vazumah/.conda/envs/GPAW/lib/python3.10/site-packages/ase (version 3.22.1)
numpy:  /home/vazumah/.conda/envs/GPAW/lib/python3.10/site-packages/numpy (version 1.24.1)
scipy:  /home/vazumah/.conda/envs/GPAW/lib/python3.10/site-packages/scipy (version 1.10.0)
libxc:  5.2.3
units:  Angstrom and eV
cores: 24
OpenMP: True
OMP_NUM_THREADS: 1

Input parameters:
  h: 0.16

System changes: positions, numbers, cell, pbc, initial_charges, initial_magmoms 

Initialize ...

species:
  Li:
    name: Lithium
    id: b73562207f97a71b6967473b66fe8b65
    Z: 3.0
    valence: 1
    core: 2
    charge: 0.0
    file: /home/vazumah/.conda/envs/GPAW/share/gpaw/Li.LDA.gz
    compensation charges: {type: gauss,
                           rc: 0.33,
                           lmax: 2}
    cutoffs: {filter: 1.91,
              core: 2.55}
    valence states:
      #              energy  rcut
      - 2s(1.00)    -2.874   1.058
      - 2p(0.00)    -1.126   1.058
      -  s          24.338   1.058
  
    # Using partial waves for Li as LCAO basis

  O:
    name: Oxygen
    id: 9b9d51c344dea68c822856295a461509
    Z: 8.0
    valence: 6
    core: 2
    charge: 0.0
    file: /home/vazumah/.conda/envs/GPAW/share/gpaw/O.LDA.gz
    compensation charges: {type: gauss,
                           rc: 0.21,
                           lmax: 2}
    cutoffs: {filter: 1.17,
              core: 0.83}
    valence states:
      #              energy  rcut
      - 2s(2.00)   -23.752   0.688
      - 2p(4.00)    -9.195   0.598
      -  s           3.459   0.688
      -  p          18.016   0.598
      -  d           0.000   0.619
  
    # Using partial waves for O as LCAO basis

  C:
    name: Carbon
    id: d60576a1f549371a163e72552ca58787
    Z: 6.0
    valence: 4
    core: 2
    charge: 0.0
    file: /home/vazumah/.conda/envs/GPAW/share/gpaw/C.LDA.gz
    compensation charges: {type: gauss,
                           rc: 0.20,
                           lmax: 2}
    cutoffs: {filter: 1.14,
              core: 1.14}
    valence states:
      #              energy  rcut
      - 2s(2.00)   -13.639   0.635
      - 2p(2.00)    -5.414   0.635
      -  s          13.573   0.635
      -  p          21.797   0.635
      -  d           0.000   0.635
  
    # Using partial waves for C as LCAO basis

  H:
    name: Hydrogen
    id: 4766778ce56282eaa64abeb28b7c1de3
    Z: 1.0
    valence: 1
    core: 0
    charge: 0.0
    file: /home/vazumah/.conda/envs/GPAW/share/gpaw/H.LDA.gz
    compensation charges: {type: gauss,
                           rc: 0.15,
                           lmax: 2}
    cutoffs: {filter: 0.85,
              core: 0.53}
    valence states:
      #              energy  rcut
      - 1s(1.00)    -6.353   0.476
      -  s          20.858   0.476
      -  p           0.000   0.476
  
    # Using partial waves for H as LCAO basis

Reference energy: -11324.203537  # eV

Spin-paired calculation

Convergence criteria:
 Maximum [total energy] change in last 3 cyles: 0.0005 eV / electron
 Maximum integral of absolute [dens]ity change: 0.0001 electrons / valence electron
 Maximum integral of absolute [eigenst]ate change: 4e-08 eV^2 / valence electron
 Maximum number of scf [iter]ations: 333
 (Square brackets indicate name in SCF output, whereas a 'c' in
 the SCF output indicates the quantity has converged.)

Symmetries present (total): 1

  ( 1  0  0)
  ( 0  1  0)
  ( 0  0  1)

1 k-point (Gamma)
1 k-point in the irreducible part of the Brillouin zone
       k-points in crystal coordinates                weights
   0:     0.00000000    0.00000000    0.00000000          1/1

Wave functions: Uniform real-space grid
  Kinetic energy operator: 6*3+1=19 point O(h^6) finite-difference Laplacian
  ScaLapack parameters: grid=1x1, blocksize=None
  Wavefunction extrapolation:
    Improved wavefunction reuse through dual PAW basis 

Occupation numbers: Fermi-Dirac:
  width: 0.1000  # eV
 

Eigensolver
   Davidson(niter=2) 

Densities:
  Coarse grid: 60*60*156 grid
  Fine grid: 120*120*312 grid
  Total Charge: 0.000000 

Density mixing:
  Method: separate
  Backend: pulay
  Linear mixing parameter: 0.05
  old densities: 5
  Damping of long wavelength oscillations: 50 

Hamiltonian:
  XC and Coulomb potentials evaluated on a 120*120*312 grid
  Using the LDA Exchange-Correlation functional
  Interpolation: tri-quintic (5. degree polynomial)
  Poisson solver: FastPoissonSolver using
    Stencil: 6*3+1=19 point O(h^6) finite-difference Laplacian
    FFT axes: [0, 1]
    FST axes: [2]
 

Memory estimate:
  Process memory now: 232.64 MiB
  Calculator: 32.66 MiB
    Density: 14.59 MiB
      Arrays: 4.55 MiB
      Localized functions: 8.32 MiB
      Mixer: 1.72 MiB
    Hamiltonian: 3.63 MiB
      Arrays: 2.97 MiB
      XC: 0.00 MiB
      Poisson: 0.00 MiB
      vbar: 0.66 MiB
    Wavefunctions: 14.44 MiB
      Arrays psit_nG: 6.52 MiB
      Eigensolver: 7.49 MiB
      Projections: 0.00 MiB
      Projectors: 0.42 MiB

Total number of cores used: 24
Domain decomposition: 2 x 2 x 6

Number of atoms: 45
Number of atomic orbitals: 162
Number of bands in calculation: 38
Number of valence electrons: 56
Bands to converge: occupied

... initialized

Initializing position-dependent things.

Density initialized from atomic densities
Creating initial wave functions:
  38 bands from LCAO basis set

       .-----------------------.  
      /|                       |  
     / |                       |  
    /  |                       |  
   /   |                       |  
  /    |                       |  
 *     |                       |  
 |     |              H        |  
 |     |                  H    |  
 |     |                       |  
 |     |            H          |  
 |     |           HC  Hi      |  
 |     Li      Li              |  
 |     |           C           |  
 |   Li|     Li      Li        |  
 |     |  Li      LO H    Li   |  
 | Li  |   Li      Li          |  
 |     |Li      Li      Li     |  
 |     |                       |  
 |   LLi     LLi     LLi       |  
 |     |  Li      Li      Li   |  
 | Li  |   Li      Li          |  
 |     |Li      Li      Li     |  
 Li    | Li      Li            |  
 |    Li      Li      Li       |  
 |     |                       |  
 |     |                       |  
 |     |                       |  
 |     |                       |  
 |     |                       |  
 |     |                       |  
 |     .-----------------------.  
 |    /                       /   
 |   /                       /    
 |  /                       /     
 | /                       /      
 |/                       /       
 *-----------------------*        

Positions:
   0 Li     1.617037    1.617037   10.000000    ( 0.0000,  0.0000,  0.0000)
   1 Li     4.851111    1.617037   10.000000    ( 0.0000,  0.0000,  0.0000)
   2 Li     8.085185    1.617037   10.000000    ( 0.0000,  0.0000,  0.0000)
   3 Li     1.617037    4.851111   10.000000    ( 0.0000,  0.0000,  0.0000)
   4 Li     4.851111    4.851111   10.000000    ( 0.0000,  0.0000,  0.0000)
   5 Li     8.085185    4.851111   10.000000    ( 0.0000,  0.0000,  0.0000)
   6 Li     1.617037    8.085185   10.000000    ( 0.0000,  0.0000,  0.0000)
   7 Li     4.851111    8.085185   10.000000    ( 0.0000,  0.0000,  0.0000)
   8 Li     8.085185    8.085185   10.000000    ( 0.0000,  0.0000,  0.0000)
   9 Li     0.000000    0.000000   11.617037    ( 0.0000,  0.0000,  0.0000)
  10 Li     3.234074    0.000000   11.617037    ( 0.0000,  0.0000,  0.0000)
  11 Li     6.468148    0.000000   11.617037    ( 0.0000,  0.0000,  0.0000)
  12 Li     0.000000    3.234074   11.617037    ( 0.0000,  0.0000,  0.0000)
  13 Li     3.234074    3.234074   11.617037    ( 0.0000,  0.0000,  0.0000)
  14 Li     6.468148    3.234074   11.617037    ( 0.0000,  0.0000,  0.0000)
  15 Li     0.000000    6.468148   11.617037    ( 0.0000,  0.0000,  0.0000)
  16 Li     3.234074    6.468148   11.617037    ( 0.0000,  0.0000,  0.0000)
  17 Li     6.468148    6.468148   11.617037    ( 0.0000,  0.0000,  0.0000)
  18 Li     1.621148    1.628079   13.466510    ( 0.0000,  0.0000,  0.0000)
  19 Li     4.860410    1.569902   13.528257    ( 0.0000,  0.0000,  0.0000)
  20 Li     8.027769    1.591064   13.524204    ( 0.0000,  0.0000,  0.0000)
  21 Li     1.626730    4.858156   13.461573    ( 0.0000,  0.0000,  0.0000)
  22 Li     4.838946    4.857897   13.476597    ( 0.0000,  0.0000,  0.0000)
  23 Li     8.079398    4.848341   13.491737    ( 0.0000,  0.0000,  0.0000)
  24 Li     1.624610    8.064252   13.458184    ( 0.0000,  0.0000,  0.0000)
  25 Li     4.883130    8.121495   13.568442    ( 0.0000,  0.0000,  0.0000)
  26 Li     8.008314    8.083765   13.524553    ( 0.0000,  0.0000,  0.0000)
  27 Li     0.036582   -0.019204   15.340249    ( 0.0000,  0.0000,  0.0000)
  28 Li     3.124594   -0.003006   15.441967    ( 0.0000,  0.0000,  0.0000)
  29 Li     6.356788   -0.061138   15.904595    ( 0.0000,  0.0000,  0.0000)
  30 Li     0.003755    3.206611   15.419375    ( 0.0000,  0.0000,  0.0000)
  31 Li     3.215555    3.250601   15.420301    ( 0.0000,  0.0000,  0.0000)
  32 Li     6.440467    3.279798   15.410039    ( 0.0000,  0.0000,  0.0000)
  33 Li     0.025116    6.449833   15.405559    ( 0.0000,  0.0000,  0.0000)
  34 Li     3.247083    6.477223   15.443972    ( 0.0000,  0.0000,  0.0000)
  35 Li     6.456830    6.407548   15.478965    ( 0.0000,  0.0000,  0.0000)
  36 O      6.987254    0.632686   17.617929    ( 0.0000,  0.0000,  0.0000)
  37 C      7.159708    0.163339   18.982882    ( 0.0000,  0.0000,  0.0000)
  38 C      7.495816    1.297172   19.939755    ( 0.0000,  0.0000,  0.0000)
  39 H      6.211258   -0.310986   19.242327    ( 0.0000,  0.0000,  0.0000)
  40 H      7.941228   -0.605157   19.003407    ( 0.0000,  0.0000,  0.0000)
  41 H      7.564448    0.908615   20.958741    ( 0.0000,  0.0000,  0.0000)
  42 H      8.458980    1.748588   19.688399    ( 0.0000,  0.0000,  0.0000)
  43 H      6.733641    2.078226   19.914880    ( 0.0000,  0.0000,  0.0000)
  44 H      7.779669    1.139815   17.352353    ( 0.0000,  0.0000,  0.0000)

Unit cell:
           periodic     x           y           z      points  spacing
  1. axis:    yes    9.702222    0.000000    0.000000    60     0.1617
  2. axis:    yes    0.000000    9.702222    0.000000    60     0.1617
  3. axis:    no     0.000000    0.000000   24.851111   156     0.1593

  Lengths:   9.702222   9.702222  24.851111
  Angles:   90.000000  90.000000  90.000000

Effective grid spacing dv^(1/3) = 0.1609

     iter     time        total  log10-change:
                         energy  eigst   dens
iter:   1 22:51:06  -179.647002
iter:   2 22:51:30   -85.326965  +1.70  -0.18
iter:   3 22:51:52   -55.950663  +2.82  -0.38
iter:   4 22:52:14   -78.105932  +2.56  -0.50
iter:   5 22:52:36   -97.023489  +2.56  -0.56
iter:   6 22:52:57  -109.945761  +2.19  -0.74
iter:   7 22:53:21  -117.435808  +1.88  -0.80
iter:   8 22:53:43  -123.174766  +1.64  -0.78
iter:   9 22:54:05  -138.285672  +1.75  -0.75
iter:  10 22:54:26  -126.793977  +0.87  -0.60
iter:  11 22:54:49  -123.302546  +1.18  -0.80
iter:  12 22:55:11  -121.074828  +0.47  -0.74
iter:  13 22:55:34  -120.882365  -0.02  -0.81
iter:  14 22:55:59  -123.137782  +0.39  -0.81
iter:  15 22:56:22  -123.303110  +0.00  -0.74
iter:  16 22:56:45  -120.588631  -0.14  -0.74
iter:  17 22:57:08  -123.795467  +1.29  -0.82
iter:  18 22:57:31  -118.135438  +0.87  -0.75
iter:  19 22:57:53  -118.323123  +0.32  -1.09
iter:  20 22:58:15  -118.421389  +0.56  -1.18
iter:  21 22:58:38  -118.675361  -0.04  -1.32
iter:  22 22:59:01  -118.372480  +0.35  -1.27
iter:  23 22:59:25  -118.435594  +0.00  -1.59
iter:  24 22:59:48  -118.418103  -0.72  -1.59
iter:  25 23:00:11  -118.447841  -0.35  -1.70
iter:  26 23:00:34  -118.377280  -1.13  -1.67
iter:  27 23:00:57  -118.386811  -1.09  -2.17
iter:  28 23:01:18  -118.387448c -1.62  -2.10
iter:  29 23:01:41  -118.384275c -1.96  -2.21
iter:  30 23:02:02  -118.384453c -1.91  -2.44
iter:  31 23:02:25  -118.385366c -2.21  -2.48
iter:  32 23:02:49  -118.385352c -2.37  -2.56
iter:  33 23:03:11  -118.385827c -2.56  -2.73
iter:  34 23:03:35  -118.385202c -2.70  -2.76
iter:  35 23:03:58  -118.385299c -2.73  -2.99
iter:  36 23:04:22  -118.385608c -2.87  -3.03
iter:  37 23:04:44  -118.385710c -3.13  -3.15
iter:  38 23:05:07  -118.385720c -3.35  -3.19
iter:  39 23:05:30  -118.385921c -3.34  -3.23
iter:  40 23:05:52  -118.386113c -3.47  -3.45
iter:  41 23:06:14  -118.386148c -3.71  -3.64
iter:  42 23:06:35  -118.386165c -3.80  -3.71
iter:  43 23:06:59  -118.386174c -3.79  -3.75
iter:  44 23:07:21  -118.386200c -3.84  -3.84
iter:  45 23:07:43  -118.386227c -4.12  -3.94
iter:  46 23:08:05  -118.386234c -4.30  -3.95
iter:  47 23:08:30  -118.386235c -4.31  -3.96
iter:  48 23:08:52  -118.386234c -4.32  -3.96
iter:  49 23:09:14  -118.386243c -4.59  -3.97
iter:  50 23:09:36  -118.386248c -4.77  -4.06c
iter:  51 23:09:58  -118.386238c -4.86  -4.19c
iter:  52 23:10:19  -118.386237c -4.97  -4.29c
iter:  53 23:10:40  -118.386245c -5.16  -4.37c
iter:  54 23:11:03  -118.386239c -5.11  -4.50c
iter:  55 23:11:26  -118.386238c -5.21  -4.63c
iter:  56 23:11:47  -118.386237c -5.55  -4.80c
iter:  57 23:12:10  -118.386236c -5.55  -4.83c
iter:  58 23:12:33  -118.386236c -5.65  -4.94c
iter:  59 23:12:54  -118.386236c -5.75  -5.01c
iter:  60 23:13:16  -118.386237c -5.85  -5.01c
iter:  61 23:13:41  -118.386237c -5.83  -4.99c
iter:  62 23:14:04  -118.386237c -6.07  -4.94c
iter:  63 23:14:27  -118.386236c -6.05  -4.87c
iter:  64 23:14:50  -118.386236c -6.17  -4.89c
iter:  65 23:15:14  -118.386236c -6.26  -4.82c
iter:  66 23:15:36  -118.386236c -6.32  -4.81c
iter:  67 23:15:59  -118.386235c -6.46  -4.80c
iter:  68 23:16:21  -118.386235c -6.54  -4.69c
iter:  69 23:16:45  -118.386236c -6.48  -4.74c
iter:  70 23:17:07  -118.386236c -6.66  -4.73c
iter:  71 23:17:31  -118.386237c -6.77  -4.69c
iter:  72 23:17:56  -118.386237c -6.80  -4.91c
iter:  73 23:18:21  -118.386239c -6.61  -5.03c
iter:  74 23:18:45  -118.386240c -6.63  -5.12c
iter:  75 23:19:08  -118.386240c -6.98  -5.18c
iter:  76 23:19:30  -118.386240c -6.90  -5.34c
iter:  77 23:19:52  -118.386239c -7.13  -5.50c
iter:  78 23:20:16  -118.386240c -7.05  -5.53c
iter:  79 23:20:37  -118.386240c -7.28  -5.67c
iter:  80 23:21:01  -118.386240c -7.43c -5.77c

Converged after 80 iterations.

Dipole moment: (-3.265779, -12.206724, 0.561777) |e|*Ang

Energy contributions relative to reference atoms: (reference = -11324.203537)

Kinetic:       +123.885046
Potential:     -116.976958
External:        +0.000000
XC:            -124.987772
Entropy (-ST):   -1.027867
Local:           +0.207378
--------------------------
Free energy:   -118.900173
Extrapolated:  -118.386240

 Band  Eigenvalues  Occupancy
    0    -25.92484    2.00000
    1    -18.86130    2.00000
    2    -15.85657    2.00000
    3    -12.89159    2.00000
    4    -11.79948    2.00000
    5    -11.21184    2.00000
    6     -9.69424    2.00000
    7     -9.50976    2.00000
    8     -8.61873    2.00000
    9     -7.32665    2.00000
   10     -6.05348    2.00000
   11     -5.07008    2.00000
   12     -4.91196    2.00000
   13     -4.90544    2.00000
   14     -4.89509    2.00000
   15     -4.89283    2.00000
   16     -3.96474    1.99999
   17     -3.94172    1.99999
   18     -3.92714    1.99999
   19     -3.92015    1.99999
   20     -3.76122    1.99993
   21     -3.75272    1.99992
   22     -3.75141    1.99992
   23     -3.74305    1.99992
   24     -3.69661    1.99986
   25     -2.74091    1.02261
   26     -2.73952    1.01565
   27     -2.72748    0.95549
   28     -2.71606    0.89872
   29     -2.67173    0.68754
   30     -2.63700    0.54029
   31     -2.61701    0.46516
   32     -2.58383    0.35729
   33     -2.38431    0.05745
   34     -1.74474    0.00010
   35     -1.72807    0.00008
   36     -1.69397    0.00006
   37     -1.65523    0.00004

Fermi level: -2.73639

Gap: 0.012 eV
Transition (v -> c):
  (s=0, k=0, n=26, [0.00, 0.00, 0.00]) -> (s=0, k=0, n=27, [0.00, 0.00, 0.00])
Timing:                               incl.     excl.
------------------------------------------------------------
Hamiltonian:                          1.326     0.000   0.0% |
 Atomic:                              0.041     0.015   0.0% |
  XC Correction:                      0.026     0.026   0.0% |
 Calculate atomic Hamiltonians:       0.247     0.247   0.0% |
 Communicate:                         0.079     0.079   0.0% |
 Hartree integrate/restrict:          0.055     0.055   0.0% |
 Initialize Hamiltonian:              0.000     0.000   0.0% |
 Poisson:                             0.663     0.081   0.0% |
  Communicate from 1D:                0.057     0.057   0.0% |
  Communicate from 2D:                0.182     0.182   0.0% |
  Communicate to 1D:                  0.047     0.047   0.0% |
  Communicate to 2D:                  0.190     0.190   0.0% |
  FFT 1D:                             0.057     0.057   0.0% |
  FFT 2D:                             0.048     0.048   0.0% |
 XC 3D grid:                          0.240     0.240   0.0% |
 vbar:                                0.002     0.002   0.0% |
HirshfeldPartitioning initialize:     3.890     3.890   0.0% |
LCAO initialization:                  1.646     0.696   0.0% |
 LCAO eigensolver:                    0.621     0.000   0.0% |
  Calculate projections:              0.000     0.000   0.0% |
  DenseAtomicCorrection:              0.000     0.000   0.0% |
  Distribute overlap matrix:          0.557     0.557   0.0% |
  Orbital Layouts:                    0.064     0.064   0.0% |
  Potential matrix:                   0.000     0.000   0.0% |
 LCAO to grid:                        0.002     0.002   0.0% |
 Set positions (LCAO WFS):            0.326     0.074   0.0% |
  Basic WFS set positions:            0.004     0.004   0.0% |
  Basis functions set positions:      0.001     0.001   0.0% |
  P tci:                              0.000     0.000   0.0% |
  ST tci:                             0.038     0.038   0.0% |
  mktci:                              0.209     0.209   0.0% |
SCF-cycle:                         1817.132     1.304   0.0% |
 Davidson:                         1696.575  1419.759   0.5% |
  Apply hamiltonian:                 44.099    44.099   0.0% |
  Subspace diag:                     62.859     0.014   0.0% |
   calc_h_matrix:                    46.673     2.918   0.0% |
    Apply hamiltonian:               43.755    43.755   0.0% |
   diagonalize:                       9.674     9.674   0.0% |
   rotate_psi:                        6.497     6.497   0.0% |
  calc. matrices:                   153.851    45.867   0.0% |
   Apply hamiltonian:               107.984   107.984   0.0% |
  diagonalize:                        0.446     0.446   0.0% |
  rotate_psi:                        15.560    15.560   0.0% |
 Density:                            30.855     0.003   0.0% |
  Atomic density matrices:            2.810     2.810   0.0% |
  Mix:                               24.947    24.947   0.0% |
  Multipole moments:                  1.455     1.455   0.0% |
  Pseudo density:                     1.639     1.637   0.0% |
   Symmetrize density:                0.002     0.002   0.0% |
 Hamiltonian:                        86.945     0.011   0.0% |
  Atomic:                             2.750     0.307   0.0% |
   XC Correction:                     2.443     2.443   0.0% |
  Calculate atomic Hamiltonians:      9.447     9.447   0.0% |
  Communicate:                        6.239     6.239   0.0% |
  Hartree integrate/restrict:         5.197     5.197   0.0% |
  Poisson:                           47.157     2.872   0.0% |
   Communicate from 1D:              10.486    10.486   0.0% |
   Communicate from 2D:              11.130    11.130   0.0% |
   Communicate to 1D:                 5.163     5.163   0.0% |
   Communicate to 2D:                10.861    10.861   0.0% |
   FFT 1D:                            3.731     3.731   0.0% |
   FFT 2D:                            2.914     2.914   0.0% |
  XC 3D grid:                        15.969    15.969   0.0% |
  vbar:                               0.175     0.175   0.0% |
 Orthonormalize:                      1.453     0.000   0.0% |
  calc_s_matrix:                      0.025     0.025   0.0% |
  inverse-cholesky:                   1.374     1.374   0.0% |
  projections:                        0.000     0.000   0.0% |
  rotate_psi_s:                       0.053     0.053   0.0% |
Set symmetry:                         0.001     0.001   0.0% |
Other:                            305800.666 305800.666  99.4% |---------------------------------------|
------------------------------------------------------------
Total:                                      307624.661 100.0%

Memory usage: 4.53 GiB
Date: Wed Mar  1 12:17:42 2023
