
  ___ ___ ___ _ _ _  
 |   |   |_  | | | | 
 | | | | | . | | | | 
 |__ |  _|___|_____|  22.8.0
 |___|_|             

User:   vazumah@f017
Date:   Thu Mar  9 08:06:31 2023
Arch:   x86_64
Pid:    7847
CWD:    /home/vazumah/Research_Projects/LiMEAS/LiNRR_proton_donors/on_pure_surface/Li_BCC100/adsorbates/ethanediol_z/bridge/8.085_1.617
Python: 3.10.6
gpaw:   /home/vazumah/anaconda3/envs/NAME/lib/python3.10/site-packages/gpaw
_gpaw:  /home/vazumah/anaconda3/envs/NAME/lib/python3.10/site-packages/
        _gpaw.cpython-310-x86_64-linux-gnu.so
ase:    /home/vazumah/anaconda3/envs/NAME/lib/python3.10/site-packages/ase (version 3.22.1)
numpy:  /home/vazumah/anaconda3/envs/NAME/lib/python3.10/site-packages/numpy (version 1.23.3)
scipy:  /home/vazumah/anaconda3/envs/NAME/lib/python3.10/site-packages/scipy (version 1.9.1)
libxc:  5.2.3
units:  Angstrom and eV
cores: 32
OpenMP: True
OMP_NUM_THREADS: 1

Input parameters:
  h: 0.16
  kpts: {size: [4, 4, 1]}
  occupations: {name: fermi-dirac,
                width: 0.05}
  poissonsolver: {dipolelayer: xy}
  xc: BEEF-vdW

System changes: positions, numbers, cell, pbc, initial_charges, initial_magmoms 

Initialize ...

species:
  Li:
    name: Lithium
    id: 830b4218f175192f93f959cfc0aad614
    Z: 3.0
    valence: 1
    core: 2
    charge: 0.0
    file: /home/vazumah/anaconda3/envs/NAME/share/gpaw/Li.PBE.gz
    compensation charges: {type: gauss,
                           rc: 0.33,
                           lmax: 2}
    cutoffs: {filter: 1.91,
              core: 2.55}
    valence states:
      #              energy  rcut
      - 2s(1.00)    -2.874   1.058
      - 2p(0.00)    -1.090   1.058
      -  s          24.337   1.058
  
    # Using partial waves for Li as LCAO basis

  O:
    name: Oxygen
    id: 32ecd46bf208036f09c70b0ec9a88b78
    Z: 8.0
    valence: 6
    core: 2
    charge: 0.0
    file: /home/vazumah/anaconda3/envs/NAME/share/gpaw/O.PBE.gz
    compensation charges: {type: gauss,
                           rc: 0.21,
                           lmax: 2}
    cutoffs: {filter: 1.17,
              core: 0.83}
    valence states:
      #              energy  rcut
      - 2s(2.00)   -23.961   0.688
      - 2p(4.00)    -9.029   0.598
      -  s           3.251   0.688
      -  p          18.182   0.598
      -  d           0.000   0.619
  
    # Using partial waves for O as LCAO basis

  C:
    name: Carbon
    id: 4aa54d4b901d75f77cc0ea3eec22967b
    Z: 6.0
    valence: 4
    core: 2
    charge: 0.0
    file: /home/vazumah/anaconda3/envs/NAME/share/gpaw/C.PBE.gz
    compensation charges: {type: gauss,
                           rc: 0.20,
                           lmax: 2}
    cutoffs: {filter: 1.14,
              core: 1.14}
    valence states:
      #              energy  rcut
      - 2s(2.00)   -13.751   0.635
      - 2p(2.00)    -5.284   0.635
      -  s          13.461   0.635
      -  p          21.927   0.635
      -  d           0.000   0.635
  
    # Using partial waves for C as LCAO basis

  H:
    name: Hydrogen
    id: d65de229564ff8ea4db303e23b6d1ecf
    Z: 1.0
    valence: 1
    core: 0
    charge: 0.0
    file: /home/vazumah/anaconda3/envs/NAME/share/gpaw/H.PBE.gz
    compensation charges: {type: gauss,
                           rc: 0.15,
                           lmax: 2}
    cutoffs: {filter: 0.85,
              core: 0.53}
    valence states:
      #              energy  rcut
      - 1s(1.00)    -6.494   0.476
      -  s          20.717   0.476
      -  p           0.000   0.476
  
    # Using partial waves for H as LCAO basis

Reference energy: -13512.263335  # eV

Spin-paired calculation

Convergence criteria:
 Maximum [total energy] change in last 3 cyles: 0.0005 eV / electron
 Maximum integral of absolute [dens]ity change: 0.0001 electrons / valence electron
 Maximum integral of absolute [eigenst]ate change: 4e-08 eV^2 / valence electron
 Maximum number of scf [iter]ations: 333
 (Square brackets indicate name in SCF output, whereas a 'c' in
 the SCF output indicates the quantity has converged.)

Symmetries present (total): 1

  ( 1  0  0)
  ( 0  1  0)
  ( 0  0  1)

16 k-points: 4 x 4 x 1 Monkhorst-Pack grid
8 k-points in the irreducible part of the Brillouin zone
       k-points in crystal coordinates                weights
   0:     0.12500000   -0.37500000    0.00000000          2/16
   1:     0.12500000   -0.12500000    0.00000000          2/16
   2:     0.12500000    0.12500000    0.00000000          2/16
   3:     0.12500000    0.37500000    0.00000000          2/16
   4:     0.37500000   -0.37500000    0.00000000          2/16
   5:     0.37500000   -0.12500000    0.00000000          2/16
   6:     0.37500000    0.12500000    0.00000000          2/16
   7:     0.37500000    0.37500000    0.00000000          2/16

Wave functions: Uniform real-space grid
  Kinetic energy operator: 6*3+1=19 point O(h^6) finite-difference Laplacian
  ScaLapack parameters: grid=1x1, blocksize=None
  Wavefunction extrapolation:
    Improved wavefunction reuse through dual PAW basis 

Occupation numbers: Fermi-Dirac:
  width: 0.0500  # eV
 

Eigensolver
   Davidson(niter=2) 

Densities:
  Coarse grid: 60*60*156 grid
  Fine grid: 120*120*312 grid
  Total Charge: 0.000000 

Density mixing:
  Method: separate
  Backend: pulay
  Linear mixing parameter: 0.05
  old densities: 5
  Damping of long wavelength oscillations: 50 

Hamiltonian:
  XC and Coulomb potentials evaluated on a 120*120*312 grid
  Using the BEEF-vdW Exchange-Correlation functional
  Interpolation: tri-quintic (5. degree polynomial)
  Poisson solver: FastPoissonSolver using
    Stencil: 6*3+1=19 point O(h^6) finite-difference Laplacian
    FFT axes: [0, 1]
    FST axes: [2]

Dipole correction along z-axis 

XC parameters: BEEF-vdW with 2 nearest neighbor stencil

Memory estimate:
  Process memory now: 211.68 MiB
  Calculator: 298.81 MiB
    Density: 88.21 MiB
      Arrays: 27.47 MiB
      Localized functions: 50.30 MiB
      Mixer: 10.44 MiB
    Hamiltonian: 21.93 MiB
      Arrays: 17.96 MiB
      XC: 0.00 MiB
      Poisson: 0.00 MiB
      vbar: 3.97 MiB
    Wavefunctions: 188.67 MiB
      Arrays psit_nG: 87.67 MiB
      Eigensolver: 98.38 MiB
      Projections: 0.04 MiB
      Projectors: 2.58 MiB

Total number of cores used: 32
Parallelization over k-points: 8
Domain decomposition: 1 x 1 x 4

Number of atoms: 46
Number of atomic orbitals: 166
Number of bands in calculation: 42
Number of valence electrons: 62
Bands to converge: occupied

... initialized

Initializing position-dependent things.

Density initialized from atomic densities
Creating initial wave functions:
  42 bands from LCAO basis set

       .-----------------------.  
      /|                       |  
     / |                       |  
    /  |                       |  
   /   |                       |  
  /    |                       |  
 *     |                       |  
 |     |                       |  
 |     |               H       |  
 |     |             O         |  
 |     |               C  H    |  
 |     |           H HCH       |  
 |     |                       |  
 |     |              O H      |  
 |   Li|     Li      Li        |  
 |     |  Li      Li      Li   |  
 | Li  |   Li      Li          |  
 |     |Li      Li      Li     |  
 Li    | Li      Li            |  
 |   LLi     LLi     LLi       |  
 |     |  Li      Li      Li   |  
 | Li  |   Li      Li          |  
 |     |Li      Li      Li     |  
 Li    | Li      Li            |  
 |    Li      Li      Li       |  
 |     |                       |  
 |     |                       |  
 |     |                       |  
 |     |                       |  
 |     |                       |  
 |     |                       |  
 |     .-----------------------.  
 |    /                       /   
 |   /                       /    
 |  /                       /     
 | /                       /      
 |/                       /       
 *-----------------------*        

Positions:
   0 Li     1.617037    1.617037   10.000000    ( 0.0000,  0.0000,  0.0000)
   1 Li     4.851111    1.617037   10.000000    ( 0.0000,  0.0000,  0.0000)
   2 Li     8.085185    1.617037   10.000000    ( 0.0000,  0.0000,  0.0000)
   3 Li     1.617037    4.851111   10.000000    ( 0.0000,  0.0000,  0.0000)
   4 Li     4.851111    4.851111   10.000000    ( 0.0000,  0.0000,  0.0000)
   5 Li     8.085185    4.851111   10.000000    ( 0.0000,  0.0000,  0.0000)
   6 Li     1.617037    8.085185   10.000000    ( 0.0000,  0.0000,  0.0000)
   7 Li     4.851111    8.085185   10.000000    ( 0.0000,  0.0000,  0.0000)
   8 Li     8.085185    8.085185   10.000000    ( 0.0000,  0.0000,  0.0000)
   9 Li     0.000000    0.000000   11.617037    ( 0.0000,  0.0000,  0.0000)
  10 Li     3.234074    0.000000   11.617037    ( 0.0000,  0.0000,  0.0000)
  11 Li     6.468148    0.000000   11.617037    ( 0.0000,  0.0000,  0.0000)
  12 Li     0.000000    3.234074   11.617037    ( 0.0000,  0.0000,  0.0000)
  13 Li     3.234074    3.234074   11.617037    ( 0.0000,  0.0000,  0.0000)
  14 Li     6.468148    3.234074   11.617037    ( 0.0000,  0.0000,  0.0000)
  15 Li     0.000000    6.468148   11.617037    ( 0.0000,  0.0000,  0.0000)
  16 Li     3.234074    6.468148   11.617037    ( 0.0000,  0.0000,  0.0000)
  17 Li     6.468148    6.468148   11.617037    ( 0.0000,  0.0000,  0.0000)
  18 Li     1.617038    1.617038   13.469728    ( 0.0000,  0.0000,  0.0000)
  19 Li     4.851111    1.617038   13.469729    ( 0.0000,  0.0000,  0.0000)
  20 Li     8.085184    1.617038   13.469728    ( 0.0000,  0.0000,  0.0000)
  21 Li     1.617038    4.851111   13.469729    ( 0.0000,  0.0000,  0.0000)
  22 Li     4.851111    4.851111   13.469730    ( 0.0000,  0.0000,  0.0000)
  23 Li     8.085184    4.851111   13.469729    ( 0.0000,  0.0000,  0.0000)
  24 Li     1.617038    8.085184   13.469728    ( 0.0000,  0.0000,  0.0000)
  25 Li     4.851111    8.085184   13.469729    ( 0.0000,  0.0000,  0.0000)
  26 Li     8.085184    8.085184   13.469728    ( 0.0000,  0.0000,  0.0000)
  27 Li    -0.000000   -0.000000   15.445939    ( 0.0000,  0.0000,  0.0000)
  28 Li     3.234074    0.000000   15.445939    ( 0.0000,  0.0000,  0.0000)
  29 Li     6.468148    0.000000   15.445939    ( 0.0000,  0.0000,  0.0000)
  30 Li     0.000000    3.234074   15.445939    ( 0.0000,  0.0000,  0.0000)
  31 Li     3.234076    3.234076   15.445938    ( 0.0000,  0.0000,  0.0000)
  32 Li     6.468146    3.234076   15.445938    ( 0.0000,  0.0000,  0.0000)
  33 Li     0.000000    6.468148   15.445939    ( 0.0000,  0.0000,  0.0000)
  34 Li     3.234076    6.468146   15.445938    ( 0.0000,  0.0000,  0.0000)
  35 Li     6.468146    6.468146   15.445938    ( 0.0000,  0.0000,  0.0000)
  36 O      8.085185    1.617037   18.445939    ( 0.0000,  0.0000,  0.0000)
  37 O      7.852496    1.661030   21.344137    ( 0.0000,  0.0000,  0.0000)
  38 C      7.672808    2.788249   19.174500    ( 0.0000,  0.0000,  0.0000)
  39 C      8.241959    2.801939   20.583686    ( 0.0000,  0.0000,  0.0000)
  40 H      7.965641    3.702639   18.646375    ( 0.0000,  0.0000,  0.0000)
  41 H      6.583241    2.740951   19.207249    ( 0.0000,  0.0000,  0.0000)
  42 H      7.865478    3.676205   21.120404    ( 0.0000,  0.0000,  0.0000)
  43 H      9.341020    2.877440   20.533956    ( 0.0000,  0.0000,  0.0000)
  44 H      9.032506    1.691552   18.276515    ( 0.0000,  0.0000,  0.0000)
  45 H      7.948935    0.893910   20.764672    ( 0.0000,  0.0000,  0.0000)

Unit cell:
           periodic     x           y           z      points  spacing
  1. axis:    yes    9.702222    0.000000    0.000000    60     0.1617
  2. axis:    yes    0.000000    9.702222    0.000000    60     0.1617
  3. axis:    no     0.000000    0.000000   24.851111   156     0.1593

  Lengths:   9.702222   9.702222  24.851111
  Angles:   90.000000  90.000000  90.000000

Effective grid spacing dv^(1/3) = 0.1609

     iter     time        total  log10-change:
                         energy  eigst   dens
iter:   1 08:07:18  -562.039145
iter:   2 08:07:47   -83.304201  +2.50  -0.00
iter:   3 08:08:19     2.588061  +3.14  -0.18
iter:   4 08:09:07  -136.336430  +3.10  -0.21
Writing to output.gpw (mode='')

iter:   5 08:09:56  -208.872966  +2.94  -0.21
iter:   6 08:10:48  -271.702435  +2.64  -0.43
iter:   7 08:11:31  -299.824952  +2.31  -0.56
iter:   8 08:12:22  -324.073171  +2.12  -0.53
iter:   9 08:13:11  -401.467792  +2.41  -0.45
Writing to output.gpw (mode='')

iter:  10 08:14:02  -326.926265  +1.68  -0.38
iter:  11 08:15:24  -299.908757  +1.49  -0.53
iter:  12 08:16:21  -301.487612  +1.19  -0.73
iter:  13 08:16:57  -302.148852  +1.42  -0.72
iter:  14 08:17:34  -323.730287  +1.49  -0.61
Writing to output.gpw (mode='')

iter:  15 08:18:10  -298.453435  +0.82  -0.41
iter:  16 08:18:48  -300.477892  +1.35  -0.69
iter:  17 08:19:47  -296.678514  +0.56  -0.76
iter:  18 08:20:25  -293.415144  +0.40  -0.78
iter:  19 08:21:04  -295.332908  +0.54  -0.85
Writing to output.gpw (mode='')

iter:  20 08:21:42  -293.174161  +0.47  -0.84
iter:  21 08:22:19  -292.163301  +0.61  -0.90
iter:  22 08:22:58  -292.517002  +0.45  -1.05
iter:  23 08:23:35  -291.958507  +0.50  -1.13
iter:  24 08:24:13  -291.228465  -0.12  -1.19
Writing to output.gpw (mode='')

iter:  25 08:24:52  -291.065488  -0.40  -1.38
iter:  26 08:25:31  -291.039180  -0.79  -1.44
iter:  27 08:26:08  -291.078083  -0.75  -1.54
iter:  28 08:26:53  -290.958627  -0.73  -1.63
iter:  29 08:27:43  -290.922501  -1.13  -1.66
Writing to output.gpw (mode='')

iter:  30 08:28:16  -290.885958  -1.25  -1.68
iter:  31 08:28:53  -290.824304  -1.31  -1.74
iter:  32 08:29:29  -290.767586  -1.26  -1.79
iter:  33 08:30:05  -290.762753  -1.69  -1.93
iter:  34 08:30:42  -290.754878c -1.39  -1.95
Writing to output.gpw (mode='')

iter:  35 08:31:19  -290.738433c -1.42  -1.95
iter:  36 08:31:55  -290.740059c -1.92  -2.23
iter:  37 08:32:32  -290.743164c -2.21  -2.27
iter:  38 08:33:31  -290.741719c -1.91  -2.35
iter:  39 08:34:57  -290.741550c -2.51  -2.53
Writing to output.gpw (mode='')

iter:  40 08:37:24  -290.741096c -2.49  -2.65
iter:  41 08:41:09  -290.740860c -2.29  -2.66
iter:  42 08:44:01  -290.740903c -2.73  -2.69
iter:  43 08:46:43  -290.741084c -2.96  -2.80
iter:  44 08:51:57  -290.741424c -2.92  -2.81
Writing to output.gpw (mode='')

iter:  45 08:56:51  -290.741523c -2.99  -3.19
iter:  46 09:03:07  -290.741575c -3.46  -3.10
iter:  47 09:12:52  -290.741654c -3.21  -3.19
iter:  48 09:19:18  -290.741699c -3.65  -3.37
iter:  49 09:28:52  -290.741754c -3.53  -3.43
Writing to output.gpw (mode='')

iter:  50 09:34:42  -290.741810c -3.56  -3.46
iter:  51 09:42:33  -290.741836c -3.88  -3.53
iter:  52 09:52:42  -290.741859c -3.87  -3.57
iter:  53 10:01:37  -290.741881c -4.04  -3.74
iter:  54 10:13:17  -290.741895c -4.01  -3.83
Writing to output.gpw (mode='')

iter:  55 10:24:19  -290.741901c -4.28  -3.76
iter:  56 10:31:35  -290.741908c -4.29  -3.96
iter:  57 10:39:31  -290.741915c -4.31  -3.98
iter:  58 10:48:20  -290.741922c -4.50  -4.06c
iter:  59 10:56:13  -290.741928c -4.43  -4.23c
Writing to output.gpw (mode='')

iter:  60 11:05:41  -290.741933c -4.70  -4.41c
iter:  61 11:13:32  -290.741936c -4.87  -4.39c
iter:  62 11:20:16  -290.741938c -4.81  -4.40c
iter:  63 11:29:17  -290.741941c -4.89  -4.49c
iter:  64 11:39:21  -290.741943c -5.02  -4.77c
Writing to output.gpw (mode='')

iter:  65 11:45:15  -290.741944c -5.09  -4.77c
iter:  66 11:54:22  -290.741946c -4.79  -4.72c
iter:  67 12:01:16  -290.741947c -5.07  -4.68c
iter:  68 12:08:00  -290.741948c -5.01  -4.64c
iter:  69 12:14:47  -290.741949c -5.19  -4.58c
Writing to output.gpw (mode='')

iter:  70 12:19:50  -290.741949c -5.32  -4.55c
iter:  71 12:24:07  -290.741950c -5.36  -4.53c
iter:  72 12:29:51  -290.741950c -5.41  -4.51c
iter:  73 12:34:41  -290.741950c -5.61  -4.48c
iter:  74 12:37:31  -290.741950c -5.59  -4.48c
Writing to output.gpw (mode='')

iter:  75 12:40:50  -290.741950c -5.63  -4.50c
iter:  76 12:45:50  -290.741950c -5.87  -4.44c
iter:  77 12:50:38  -290.741951c -5.94  -4.66c
iter:  78 12:54:03  -290.741951c -5.71  -4.68c
iter:  79 13:00:25  -290.741951c -5.71  -4.76c
Writing to output.gpw (mode='')

iter:  80 13:06:31  -290.741951c -6.11  -4.89c
iter:  81 13:14:04  -290.741951c -5.98  -4.95c
iter:  82 13:18:38  -290.741951c -6.10  -5.10c
iter:  83 13:22:38  -290.741951c -6.22  -5.19c
iter:  84 13:27:12  -290.741951c -6.19  -5.22c
Writing to output.gpw (mode='')

iter:  85 13:30:44  -290.741951c -6.15  -5.27c
iter:  86 13:37:24  -290.741951c -6.41  -5.42c
iter:  87 13:40:28  -290.741951c -6.38  -5.50c
iter:  88 13:45:03  -290.741951c -6.59  -5.54c
iter:  89 13:48:57  -290.741951c -6.49  -5.64c
Writing to output.gpw (mode='')

iter:  90 13:52:42  -290.741951c -6.45  -5.72c
iter:  91 13:57:11  -290.741951c -6.68  -5.79c
iter:  92 14:03:38  -290.741951c -6.77  -5.77c
iter:  93 14:11:51  -290.741951c -6.83  -5.70c
iter:  94 14:20:52  -290.741951c -7.00  -5.81c
Writing to output.gpw (mode='')

iter:  95 14:32:17  -290.741951c -6.89  -5.78c
iter:  96 14:37:47  -290.741951c -7.04  -5.74c
iter:  97 14:42:50  -290.741951c -7.14  -5.68c
iter:  98 14:49:02  -290.741951c -7.12  -5.73c
iter:  99 14:53:35  -290.741951c -7.11  -5.78c
Writing to output.gpw (mode='')

iter: 100 15:01:39  -290.741951c -7.10  -5.77c
iter: 101 15:12:25  -290.741951c -7.08  -5.74c
iter: 102 15:22:05  -290.741951c -7.39  -5.80c
iter: 103 15:31:45  -290.741951c -7.40c -5.74c

Converged after 103 iterations.

Dipole moment: (0.258683, -2.837626, -0.205893) |e|*Ang

Energy contributions relative to reference atoms: (reference = -13512.263335)

Kinetic:       +138.873672
Potential:     -130.865006
External:        +0.000000
XC:            -299.282372
Entropy (-ST):   -0.152799
Local:           +0.608154
--------------------------
Free energy:   -290.818350
Extrapolated:  -290.741951

Dipole-layer corrected work functions: 3.381312, 3.777108 eV

Showing only first 2 kpts
 Kpt  Band  Eigenvalues  Occupancy
  0    29     -3.83234    1.98742
  0    30     -3.74617    1.93150
  0    31     -3.41640    0.07421
  0    32     -3.32586    0.01252

  1    29     -3.60456    1.24816
  1    30     -3.57676    0.97547
  1    31     -3.53687    0.60019
  1    32     -3.52741    0.52386


Fermi level: -3.57921

No gap
Writing to output.gpw (mode='')


Forces in eV/Ang:
  0 Li    0.00212   -0.00027   -0.27352
  1 Li   -0.00479   -0.00010   -0.27136
  2 Li    0.00286    0.00064   -0.27366
  3 Li   -0.00199   -0.00283   -0.27332
  4 Li    0.00323    0.00052   -0.27151
  5 Li   -0.00124    0.00426   -0.27334
  6 Li   -0.00127    0.00313   -0.27297
  7 Li    0.00236   -0.00039   -0.27177
  8 Li   -0.00110   -0.00492   -0.27362
  9 Li    0.00184   -0.00170    0.26079
 10 Li   -0.00315    0.00286    0.25961
 11 Li    0.00112   -0.00047    0.26558
 12 Li    0.00134    0.00202    0.25948
 13 Li   -0.00349   -0.00250    0.26126
 14 Li    0.00198    0.00084    0.26386
 15 Li   -0.00240   -0.00028    0.26137
 16 Li    0.00509   -0.00043    0.26535
 17 Li   -0.00272   -0.00032    0.25312
 18 Li   -0.00726   -0.00065    0.05091
 19 Li    0.00338    0.00008    0.03420
 20 Li    0.00314    0.00011   -0.00127
 21 Li    0.00013    0.00266    0.03147
 22 Li    0.00206   -0.00452    0.04100
 23 Li   -0.00212   -0.00126    0.04370
 24 Li   -0.00006   -0.00203    0.03198
 25 Li    0.00194    0.00437    0.03809
 26 Li   -0.00190    0.00121    0.03313
 27 Li    0.02158   -0.01630   -0.04332
 28 Li   -0.01189    0.01072   -0.01121
 29 Li    0.00552    0.00351    0.03317
 30 Li    0.02880    0.02145   -0.07254
 31 Li   -0.01187   -0.00829   -0.00906
 32 Li   -0.00541    0.00574   -0.01893
 33 Li   -0.00639   -0.00629   -0.01709
 34 Li    0.00215   -0.00228   -0.01756
 35 Li    0.00443   -0.00590   -0.02194
 36 O    -0.17455   -0.06310   -0.04667
 37 O    -0.07817   -0.01731   -0.01885
 38 C    -0.02545    0.01083    0.09389
 39 C     0.03791   -0.00935    0.02959
 40 H     0.02162    0.07779   -0.06073
 41 H    -0.04126   -0.01751   -0.00263
 42 H     0.03424    0.02052    0.00546
 43 H    -0.03276    0.02049    0.00040
 44 H     0.19212   -0.00410   -0.06844
 45 H     0.01968   -0.04060    0.01326

System changes: positions 

Initializing position-dependent things.

Density initialized from wave functions
       .-----------------------.  
      /|                       |  
     / |                       |  
    /  |                       |  
   /   |                       |  
  /    |                       |  
 *     |                       |  
 |     |                       |  
 |     |               H       |  
 |     |             O         |  
 |     |               C  H    |  
 |     |           H HCH       |  
 |     Li                      |  
 |     |              O H      |  
 |     |     Li      Li      Li|  
 |     |  Li      Li      Li   |  
 | Li  |   Li      Li          |  
 |     |Li      Li      Li     |  
 |     | Li      Li            |  
 |   LLi     LLi     LLi       |  
 |     |  Li      Li      Li   |  
 | Li  |   Li      Li          |  
 |     |Li      Li      Li     |  
 Li    | Li      Li            |  
 |    Li      Li      Li       |  
 |     |                       |  
 |     |                       |  
 |     |                       |  
 |     |                       |  
 |     |                       |  
 |     |                       |  
 |     .-----------------------.  
 |    /                       /   
 |   /                       /    
 |  /                       /     
 | /                       /      
 |/                       /       
 *-----------------------*        

Positions:
   0 Li     1.617037    1.617037   10.000000    ( 0.0000,  0.0000,  0.0000)
   1 Li     4.851111    1.617037   10.000000    ( 0.0000,  0.0000,  0.0000)
   2 Li     8.085185    1.617037   10.000000    ( 0.0000,  0.0000,  0.0000)
   3 Li     1.617037    4.851111   10.000000    ( 0.0000,  0.0000,  0.0000)
   4 Li     4.851111    4.851111   10.000000    ( 0.0000,  0.0000,  0.0000)
   5 Li     8.085185    4.851111   10.000000    ( 0.0000,  0.0000,  0.0000)
   6 Li     1.617037    8.085185   10.000000    ( 0.0000,  0.0000,  0.0000)
   7 Li     4.851111    8.085185   10.000000    ( 0.0000,  0.0000,  0.0000)
   8 Li     8.085185    8.085185   10.000000    ( 0.0000,  0.0000,  0.0000)
   9 Li     0.000000    0.000000   11.617037    ( 0.0000,  0.0000,  0.0000)
  10 Li     3.234074    0.000000   11.617037    ( 0.0000,  0.0000,  0.0000)
  11 Li     6.468148    0.000000   11.617037    ( 0.0000,  0.0000,  0.0000)
  12 Li     0.000000    3.234074   11.617037    ( 0.0000,  0.0000,  0.0000)
  13 Li     3.234074    3.234074   11.617037    ( 0.0000,  0.0000,  0.0000)
  14 Li     6.468148    3.234074   11.617037    ( 0.0000,  0.0000,  0.0000)
  15 Li     0.000000    6.468148   11.617037    ( 0.0000,  0.0000,  0.0000)
  16 Li     3.234074    6.468148   11.617037    ( 0.0000,  0.0000,  0.0000)
  17 Li     6.468148    6.468148   11.617037    ( 0.0000,  0.0000,  0.0000)
  18 Li     1.616934    1.617029   13.470455    ( 0.0000,  0.0000,  0.0000)
  19 Li     4.851159    1.617040   13.470218    ( 0.0000,  0.0000,  0.0000)
  20 Li     8.085229    1.617040   13.469710    ( 0.0000,  0.0000,  0.0000)
  21 Li     1.617040    4.851149   13.470179    ( 0.0000,  0.0000,  0.0000)
  22 Li     4.851140    4.851046   13.470316    ( 0.0000,  0.0000,  0.0000)
  23 Li     8.085153    4.851093   13.470354    ( 0.0000,  0.0000,  0.0000)
  24 Li     1.617037    8.085155   13.470185    ( 0.0000,  0.0000,  0.0000)
  25 Li     4.851139    8.085246   13.470274    ( 0.0000,  0.0000,  0.0000)
  26 Li     8.085157    8.085201   13.470201    ( 0.0000,  0.0000,  0.0000)
  27 Li     0.000308   -0.000233   15.445320    ( 0.0000,  0.0000,  0.0000)
  28 Li     3.233904    0.000153   15.445779    ( 0.0000,  0.0000,  0.0000)
  29 Li     6.468227    0.000050   15.446413    ( 0.0000,  0.0000,  0.0000)
  30 Li     0.000411    3.234380   15.444903    ( 0.0000,  0.0000,  0.0000)
  31 Li     3.233907    3.233958   15.445809    ( 0.0000,  0.0000,  0.0000)
  32 Li     6.468068    3.234158   15.445668    ( 0.0000,  0.0000,  0.0000)
  33 Li    -0.000091    6.468058   15.445695    ( 0.0000,  0.0000,  0.0000)
  34 Li     3.234107    6.468113   15.445687    ( 0.0000,  0.0000,  0.0000)
  35 Li     6.468209    6.468061   15.445625    ( 0.0000,  0.0000,  0.0000)
  36 O      8.082692    1.616135   18.445273    ( 0.0000,  0.0000,  0.0000)
  37 O      7.851379    1.660783   21.343868    ( 0.0000,  0.0000,  0.0000)
  38 C      7.672444    2.788403   19.175841    ( 0.0000,  0.0000,  0.0000)
  39 C      8.242501    2.801805   20.584109    ( 0.0000,  0.0000,  0.0000)
  40 H      7.965950    3.703751   18.645507    ( 0.0000,  0.0000,  0.0000)
  41 H      6.582652    2.740700   19.207212    ( 0.0000,  0.0000,  0.0000)
  42 H      7.865967    3.676498   21.120482    ( 0.0000,  0.0000,  0.0000)
  43 H      9.340552    2.877733   20.533962    ( 0.0000,  0.0000,  0.0000)
  44 H      9.035251    1.691493   18.275537    ( 0.0000,  0.0000,  0.0000)
  45 H      7.949216    0.893330   20.764861    ( 0.0000,  0.0000,  0.0000)

Unit cell:
           periodic     x           y           z      points  spacing
  1. axis:    yes    9.702222    0.000000    0.000000    60     0.1617
  2. axis:    yes    0.000000    9.702222    0.000000    60     0.1617
  3. axis:    no     0.000000    0.000000   24.851111   156     0.1593

  Lengths:   9.702222   9.702222  24.851111
  Angles:   90.000000  90.000000  90.000000

Effective grid spacing dv^(1/3) = 0.1609

     iter     time        total  log10-change:
                         energy  eigst   dens
iter:   1 15:45:12  -290.743876  -2.81
iter:   2 15:55:22  -290.743763  -3.52  -2.88
iter:   3 16:04:33  -290.743627c -4.14  -2.90
iter:   4 16:13:19  -290.743439c -2.80  -3.05
Writing to output.gpw (mode='')

iter:   5 16:21:39  -290.743199c -3.73  -2.88
iter:   6 16:30:22  -290.743177c -3.92  -3.17
iter:   7 16:40:19  -290.743196c -3.74  -3.33
iter:   8 16:52:23  -290.743157c -4.41  -3.31
iter:   9 17:00:25  -290.743153c -4.85  -3.48
Writing to output.gpw (mode='')

iter:  10 17:07:54  -290.743138c -4.23  -3.48
iter:  11 17:14:16  -290.743137c -4.71  -3.86
iter:  12 17:21:31  -290.743137c -5.50  -3.85
iter:  13 17:29:12  -290.743136c -5.61  -3.85
iter:  14 17:35:47  -290.743140c -5.21  -3.96
Writing to output.gpw (mode='')

iter:  15 17:43:55  -290.743141c -5.77  -4.15c
iter:  16 17:50:01  -290.743141c -5.97  -4.26c
iter:  17 18:00:38  -290.743140c -6.58  -4.29c
iter:  18 18:09:36  -290.743139c -6.25  -4.35c
iter:  19 18:19:20  -290.743138c -6.57  -4.62c
Writing to output.gpw (mode='')

iter:  20 18:27:13  -290.743139c -6.96  -4.75c
iter:  21 18:35:25  -290.743139c -6.96  -4.79c
iter:  22 18:42:29  -290.743139c -7.17  -4.94c
iter:  23 18:47:27  -290.743139c -7.28  -5.08c
iter:  24 18:51:44  -290.743139c -7.53c -5.06c

Converged after 24 iterations.

Dipole moment: (0.254405, -2.836894, -0.205653) |e|*Ang

Energy contributions relative to reference atoms: (reference = -13512.263335)

Kinetic:       +138.533841
Potential:     -130.619389
External:        +0.000000
XC:            -299.189185
Entropy (-ST):   -0.152797
Local:           +0.607993
--------------------------
Free energy:   -290.819537
Extrapolated:  -290.743139

Dipole-layer corrected work functions: 3.381279, 3.776615 eV

Showing only first 2 kpts
 Kpt  Band  Eigenvalues  Occupancy
  0    29     -3.83198    1.98740
  0    30     -3.74592    1.93151
  0    31     -3.41605    0.07408
  0    32     -3.32548    0.01249

  1    29     -3.60429    1.24811
  1    30     -3.57639    0.97445
  1    31     -3.53675    0.60140
  1    32     -3.52721    0.52433


Fermi level: -3.57895

No gap
Writing to output.gpw (mode='')


Forces in eV/Ang:
  0 Li    0.00211   -0.00025   -0.27359
  1 Li   -0.00481   -0.00009   -0.27136
  2 Li    0.00289    0.00064   -0.27373
  3 Li   -0.00199   -0.00282   -0.27337
  4 Li    0.00322    0.00054   -0.27154
  5 Li   -0.00123    0.00429   -0.27339
  6 Li   -0.00127    0.00310   -0.27301
  7 Li    0.00236   -0.00041   -0.27180
  8 Li   -0.00109   -0.00495   -0.27364
  9 Li    0.00199   -0.00178    0.26117
 10 Li   -0.00323    0.00291    0.26009
 11 Li    0.00103   -0.00055    0.26586
 12 Li    0.00146    0.00214    0.25995
 13 Li   -0.00356   -0.00255    0.26177
 14 Li    0.00192    0.00097    0.26424
 15 Li   -0.00247   -0.00031    0.26182
 16 Li    0.00523   -0.00044    0.26579
 17 Li   -0.00279   -0.00037    0.25354
 18 Li   -0.00696   -0.00069    0.04932
 19 Li    0.00336   -0.00002    0.03339
 20 Li    0.00295   -0.00001   -0.00150
 21 Li    0.00032    0.00279    0.03034
 22 Li    0.00196   -0.00447    0.03993
 23 Li   -0.00217   -0.00114    0.04225
 24 Li    0.00007   -0.00211    0.03097
 25 Li    0.00198    0.00443    0.03729
 26 Li   -0.00200    0.00123    0.03226
 27 Li    0.02127   -0.01587   -0.04219
 28 Li   -0.01170    0.01055   -0.01066
 29 Li    0.00563    0.00361    0.03356
 30 Li    0.02826    0.02089   -0.07087
 31 Li   -0.01171   -0.00814   -0.00854
 32 Li   -0.00504    0.00549   -0.01788
 33 Li   -0.00624   -0.00616   -0.01653
 34 Li    0.00209   -0.00226   -0.01697
 35 Li    0.00433   -0.00577   -0.02129
 36 O     0.06864   -0.01925   -0.06900
 37 O    -0.06707   -0.01614   -0.01533
 38 C    -0.02032    0.03732    0.02230
 39 C    -0.00412   -0.01176    0.02983
 40 H     0.00488    0.02755   -0.02662
 41 H    -0.03429   -0.00867    0.00879
 42 H     0.03601    0.01411    0.00687
 43 H    -0.00586    0.01475    0.00286
 44 H    -0.05202   -0.02746   -0.02921
 45 H     0.01900   -0.03309    0.01512

System changes: positions 

Initializing position-dependent things.

Density initialized from wave functions
       .-----------------------.  
      /|                       |  
     / |                       |  
    /  |                       |  
   /   |                       |  
  /    |                       |  
 *     |                       |  
 |     |                       |  
 |     |               H       |  
 |     |             O         |  
 |     |               C  H    |  
 |     |           H HCH       |  
 |     Li                      |  
 |     |              O H      |  
 |     |     Li      Li      Li|  
 |     |  Li      Li      Li   |  
 | Li  |   Li      Li          |  
 |     |Li      Li      Li     |  
 |     | Li      Li            |  
 |   LLi     LLi     LLi       |  
 |     |  Li      Li      Li   |  
 | Li  |   Li      Li          |  
 |     |Li      Li      Li     |  
 Li    | Li      Li            |  
 |    Li      Li      Li       |  
 |     |                       |  
 |     |                       |  
 |     |                       |  
 |     |                       |  
 |     |                       |  
 |     |                       |  
 |     .-----------------------.  
 |    /                       /   
 |   /                       /    
 |  /                       /     
 | /                       /      
 |/                       /       
 *-----------------------*        

Positions:
   0 Li     1.617037    1.617037   10.000000    ( 0.0000,  0.0000,  0.0000)
   1 Li     4.851111    1.617037   10.000000    ( 0.0000,  0.0000,  0.0000)
   2 Li     8.085185    1.617037   10.000000    ( 0.0000,  0.0000,  0.0000)
   3 Li     1.617037    4.851111   10.000000    ( 0.0000,  0.0000,  0.0000)
   4 Li     4.851111    4.851111   10.000000    ( 0.0000,  0.0000,  0.0000)
   5 Li     8.085185    4.851111   10.000000    ( 0.0000,  0.0000,  0.0000)
   6 Li     1.617037    8.085185   10.000000    ( 0.0000,  0.0000,  0.0000)
   7 Li     4.851111    8.085185   10.000000    ( 0.0000,  0.0000,  0.0000)
   8 Li     8.085185    8.085185   10.000000    ( 0.0000,  0.0000,  0.0000)
   9 Li     0.000000    0.000000   11.617037    ( 0.0000,  0.0000,  0.0000)
  10 Li     3.234074    0.000000   11.617037    ( 0.0000,  0.0000,  0.0000)
  11 Li     6.468148    0.000000   11.617037    ( 0.0000,  0.0000,  0.0000)
  12 Li     0.000000    3.234074   11.617037    ( 0.0000,  0.0000,  0.0000)
  13 Li     3.234074    3.234074   11.617037    ( 0.0000,  0.0000,  0.0000)
  14 Li     6.468148    3.234074   11.617037    ( 0.0000,  0.0000,  0.0000)
  15 Li     0.000000    6.468148   11.617037    ( 0.0000,  0.0000,  0.0000)
  16 Li     3.234074    6.468148   11.617037    ( 0.0000,  0.0000,  0.0000)
  17 Li     6.468148    6.468148   11.617037    ( 0.0000,  0.0000,  0.0000)
  18 Li     1.616756    1.617012   13.471715    ( 0.0000,  0.0000,  0.0000)
  19 Li     4.851244    1.617040   13.471069    ( 0.0000,  0.0000,  0.0000)
  20 Li     8.085305    1.617040   13.469673    ( 0.0000,  0.0000,  0.0000)
  21 Li     1.617047    4.851219   13.470955    ( 0.0000,  0.0000,  0.0000)
  22 Li     4.851191    4.850933   13.471334    ( 0.0000,  0.0000,  0.0000)
  23 Li     8.085099    4.851063   13.471434    ( 0.0000,  0.0000,  0.0000)
  24 Li     1.617038    8.085102   13.470976    ( 0.0000,  0.0000,  0.0000)
  25 Li     4.851188    8.085358   13.471223    ( 0.0000,  0.0000,  0.0000)
  26 Li     8.085107    8.085232   13.471024    ( 0.0000,  0.0000,  0.0000)
  27 Li     0.000849   -0.000638   15.444244    ( 0.0000,  0.0000,  0.0000)
  28 Li     3.233606    0.000421   15.445505    ( 0.0000,  0.0000,  0.0000)
  29 Li     6.468369    0.000141   15.447259    ( 0.0000,  0.0000,  0.0000)
  30 Li     0.001131    3.234913   15.443097    ( 0.0000,  0.0000,  0.0000)
  31 Li     3.233609    3.233751   15.445589    ( 0.0000,  0.0000,  0.0000)
  32 Li     6.467938    3.234299   15.445207    ( 0.0000,  0.0000,  0.0000)
  33 Li    -0.000250    6.467902   15.445272    ( 0.0000,  0.0000,  0.0000)
  34 Li     3.234161    6.468056   15.445253    ( 0.0000,  0.0000,  0.0000)
  35 Li     6.468319    6.467914   15.445081    ( 0.0000,  0.0000,  0.0000)
  36 O      8.082611    1.615321   18.443694    ( 0.0000,  0.0000,  0.0000)
  37 O      7.849599    1.660366   21.343454    ( 0.0000,  0.0000,  0.0000)
  38 C      7.671892    2.789150   19.176941    ( 0.0000,  0.0000,  0.0000)
  39 C      8.242711    2.801526   20.584862    ( 0.0000,  0.0000,  0.0000)
  40 H      7.966198    3.704824   18.644578    ( 0.0000,  0.0000,  0.0000)
  41 H      6.581732    2.740415   19.207349    ( 0.0000,  0.0000,  0.0000)
  42 H      7.866865    3.676903   21.120645    ( 0.0000,  0.0000,  0.0000)
  43 H      9.340202    2.878149   20.534015    ( 0.0000,  0.0000,  0.0000)
  44 H      9.035760    1.690973   18.274505    ( 0.0000,  0.0000,  0.0000)
  45 H      7.949702    0.892437   20.765230    ( 0.0000,  0.0000,  0.0000)

Unit cell:
           periodic     x           y           z      points  spacing
  1. axis:    yes    9.702222    0.000000    0.000000    60     0.1617
  2. axis:    yes    0.000000    9.702222    0.000000    60     0.1617
  3. axis:    no     0.000000    0.000000   24.851111   156     0.1593

  Lengths:   9.702222   9.702222  24.851111
  Angles:   90.000000  90.000000  90.000000

Effective grid spacing dv^(1/3) = 0.1609

     iter     time        total  log10-change:
                         energy  eigst   dens
iter:   1 18:57:07  -290.745093  -2.97
iter:   2 19:04:33  -290.744396  -3.56  -2.58
iter:   3 19:09:40  -290.744296c -4.26  -2.92
iter:   4 19:14:21  -290.744116c -3.54  -3.13
Writing to output.gpw (mode='')

iter:   5 19:19:49  -290.744108c -4.78  -3.35
iter:   6 19:26:02  -290.744099c -5.03  -3.53
iter:   7 19:29:54  -290.744119c -3.86  -3.63
iter:   8 19:33:29  -290.744082c -4.53  -3.44
iter:   9 19:39:57  -290.744079c -4.62  -3.73
Writing to output.gpw (mode='')

iter:  10 19:43:25  -290.744092c -5.15  -3.91
iter:  11 19:47:50  -290.744086c -5.69  -3.75
iter:  12 19:53:38  -290.744085c -5.08  -3.87
iter:  13 19:56:40  -290.744083c -6.05  -4.16c
iter:  14 19:59:41  -290.744084c -5.78  -4.27c
Writing to output.gpw (mode='')

iter:  15 20:03:25  -290.744084c -6.64  -4.34c
iter:  16 20:07:21  -290.744084c -5.99  -4.55c
iter:  17 20:10:15  -290.744084c -6.57  -4.41c
iter:  18 20:13:58  -290.744084c -6.93  -4.39c
iter:  19 20:18:27  -290.744083c -6.56  -4.55c
Writing to output.gpw (mode='')

iter:  20 20:23:54  -290.744083c -6.96  -4.80c
iter:  21 20:28:08  -290.744083c -6.98  -4.86c
iter:  22 20:31:33  -290.744083c -6.88  -4.87c
iter:  23 20:34:11  -290.744083c -7.36  -4.86c
iter:  24 20:38:04  -290.744083c -7.11  -5.18c
Writing to output.gpw (mode='')

iter:  25 20:41:36  -290.744083c -8.15c -5.25c

Converged after 25 iterations.

Dipole moment: (0.239102, -2.837005, -0.203662) |e|*Ang

Energy contributions relative to reference atoms: (reference = -13512.263335)

Kinetic:       +138.330122
Potential:     -130.470086
External:        +0.000000
XC:            -299.135662
Entropy (-ST):   -0.152798
Local:           +0.607943
--------------------------
Free energy:   -290.820482
Extrapolated:  -290.744083

Dipole-layer corrected work functions: 3.381234, 3.772743 eV

Showing only first 2 kpts
 Kpt  Band  Eigenvalues  Occupancy
  0    29     -3.82981    1.98734
  0    30     -3.74398    1.93154
  0    31     -3.41392    0.07384
  0    32     -3.32329    0.01244

  1    29     -3.60223    1.24722
  1    30     -3.57431    0.97323
  1    31     -3.53506    0.60368
  1    32     -3.52540    0.52545


Fermi level: -3.57699

No gap

Forces in eV/Ang:
  0 Li    0.00212   -0.00024   -0.27365
  1 Li   -0.00482   -0.00008   -0.27138
  2 Li    0.00290    0.00063   -0.27379
  3 Li   -0.00201   -0.00284   -0.27345
  4 Li    0.00323    0.00050   -0.27162
  5 Li   -0.00123    0.00431   -0.27347
  6 Li   -0.00130    0.00311   -0.27309
  7 Li    0.00238   -0.00038   -0.27185
  8 Li   -0.00109   -0.00497   -0.27367
  9 Li    0.00224   -0.00190    0.26188
 10 Li   -0.00335    0.00303    0.26093
 11 Li    0.00088   -0.00069    0.26635
 12 Li    0.00165    0.00231    0.26081
 13 Li   -0.00366   -0.00267    0.26268
 14 Li    0.00181    0.00117    0.26490
 15 Li   -0.00260   -0.00035    0.26265
 16 Li    0.00542   -0.00043    0.26667
 17 Li   -0.00285   -0.00044    0.25436
 18 Li   -0.00642   -0.00077    0.04646
 19 Li    0.00335   -0.00021    0.03204
 20 Li    0.00259   -0.00023   -0.00187
 21 Li    0.00065    0.00297    0.02838
 22 Li    0.00180   -0.00438    0.03802
 23 Li   -0.00225   -0.00099    0.03981
 24 Li    0.00026   -0.00222    0.02920
 25 Li    0.00207    0.00455    0.03586
 26 Li   -0.00218    0.00131    0.03071
 27 Li    0.02067   -0.01535   -0.04070
 28 Li   -0.01127    0.01026   -0.00986
 29 Li    0.00578    0.00369    0.03378
 30 Li    0.02728    0.02008   -0.06849
 31 Li   -0.01129   -0.00790   -0.00775
 32 Li   -0.00458    0.00522   -0.01673
 33 Li   -0.00605   -0.00596   -0.01561
 34 Li    0.00194   -0.00221   -0.01603
 35 Li    0.00424   -0.00557   -0.02024
 36 O     0.07214    0.02959   -0.03398
 37 O    -0.05400   -0.01329   -0.01085
 38 C     0.00329    0.02237   -0.04471
 39 C    -0.02948   -0.01263    0.01075
 40 H    -0.01001   -0.00943    0.00229
 41 H    -0.01762   -0.00550    0.01137
 42 H     0.03231    0.00925    0.01348
 43 H     0.00757    0.00474    0.00730
 44 H    -0.07554   -0.02531   -0.02424
 45 H     0.01869   -0.02371    0.01655

System changes: positions 

Initializing position-dependent things.

Density initialized from wave functions
       .-----------------------.  
      /|                       |  
     / |                       |  
    /  |                       |  
   /   |                       |  
  /    |                       |  
 *     |                       |  
 |     |                       |  
 |     |               H       |  
 |     |             O         |  
 |     |               C  H    |  
 |     |           H HCH       |  
 |     Li                      |  
 |     |              O H      |  
 |     |     Li      Li      Li|  
 |     |  Li      Li      Li   |  
 | Li  |   Li      Li          |  
 |     |Li      Li      Li     |  
 |     | Li      Li            |  
 |   LLi     LLi     LLi       |  
 |     |  Li      Li      Li   |  
 | Li  |   Li      Li          |  
 |     |Li      Li      Li     |  
 Li    | Li      Li            |  
 |    Li      Li      Li       |  
 |     |                       |  
 |     |                       |  
 |     |                       |  
 |     |                       |  
 |     |                       |  
 |     |                       |  
 |     .-----------------------.  
 |    /                       /   
 |   /                       /    
 |  /                       /     
 | /                       /      
 |/                       /       
 *-----------------------*        

Positions:
   0 Li     1.617037    1.617037   10.000000    ( 0.0000,  0.0000,  0.0000)
   1 Li     4.851111    1.617037   10.000000    ( 0.0000,  0.0000,  0.0000)
   2 Li     8.085185    1.617037   10.000000    ( 0.0000,  0.0000,  0.0000)
   3 Li     1.617037    4.851111   10.000000    ( 0.0000,  0.0000,  0.0000)
   4 Li     4.851111    4.851111   10.000000    ( 0.0000,  0.0000,  0.0000)
   5 Li     8.085185    4.851111   10.000000    ( 0.0000,  0.0000,  0.0000)
   6 Li     1.617037    8.085185   10.000000    ( 0.0000,  0.0000,  0.0000)
   7 Li     4.851111    8.085185   10.000000    ( 0.0000,  0.0000,  0.0000)
   8 Li     8.085185    8.085185   10.000000    ( 0.0000,  0.0000,  0.0000)
   9 Li     0.000000    0.000000   11.617037    ( 0.0000,  0.0000,  0.0000)
  10 Li     3.234074    0.000000   11.617037    ( 0.0000,  0.0000,  0.0000)
  11 Li     6.468148    0.000000   11.617037    ( 0.0000,  0.0000,  0.0000)
  12 Li     0.000000    3.234074   11.617037    ( 0.0000,  0.0000,  0.0000)
  13 Li     3.234074    3.234074   11.617037    ( 0.0000,  0.0000,  0.0000)
  14 Li     6.468148    3.234074   11.617037    ( 0.0000,  0.0000,  0.0000)
  15 Li     0.000000    6.468148   11.617037    ( 0.0000,  0.0000,  0.0000)
  16 Li     3.234074    6.468148   11.617037    ( 0.0000,  0.0000,  0.0000)
  17 Li     6.468148    6.468148   11.617037    ( 0.0000,  0.0000,  0.0000)
  18 Li     1.616159    1.616949   13.475971    ( 0.0000,  0.0000,  0.0000)
  19 Li     4.851540    1.617032   13.473968    ( 0.0000,  0.0000,  0.0000)
  20 Li     8.085554    1.617033   13.469532    ( 0.0000,  0.0000,  0.0000)
  21 Li     1.617084    4.851468   13.473568    ( 0.0000,  0.0000,  0.0000)
  22 Li     4.851359    4.850542   13.474791    ( 0.0000,  0.0000,  0.0000)
  23 Li     8.084906    4.850967   13.475082    ( 0.0000,  0.0000,  0.0000)
  24 Li     1.617049    8.084914   13.473650    ( 0.0000,  0.0000,  0.0000)
  25 Li     4.851365    8.085751   13.474462    ( 0.0000,  0.0000,  0.0000)
  26 Li     8.084926    8.085343   13.473817    ( 0.0000,  0.0000,  0.0000)
  27 Li     0.002702   -0.002022   15.440569    ( 0.0000,  0.0000,  0.0000)
  28 Li     3.232591    0.001341   15.444587    ( 0.0000,  0.0000,  0.0000)
  29 Li     6.468867    0.000459   15.450209    ( 0.0000,  0.0000,  0.0000)
  30 Li     0.003588    3.236730   15.436924    ( 0.0000,  0.0000,  0.0000)
  31 Li     3.232594    3.233042   15.444858    ( 0.0000,  0.0000,  0.0000)
  32 Li     6.467505    3.234777   15.443657    ( 0.0000,  0.0000,  0.0000)
  33 Li    -0.000795    6.467365   15.443843    ( 0.0000,  0.0000,  0.0000)
  34 Li     3.234340    6.467859   15.443786    ( 0.0000,  0.0000,  0.0000)
  35 Li     6.468698    6.467412   15.443237    ( 0.0000,  0.0000,  0.0000)
  36 O      8.082773    1.614584   18.439643    ( 0.0000,  0.0000,  0.0000)
  37 O      7.843974    1.659037   21.342206    ( 0.0000,  0.0000,  0.0000)
  38 C      7.670965    2.791150   19.177874    ( 0.0000,  0.0000,  0.0000)
  39 C      8.242329    2.800515   20.586681    ( 0.0000,  0.0000,  0.0000)
  40 H      7.966419    3.706944   18.642602    ( 0.0000,  0.0000,  0.0000)
  41 H      6.579241    2.739566   19.207947    ( 0.0000,  0.0000,  0.0000)
  42 H      7.869833    3.678099   21.121491    ( 0.0000,  0.0000,  0.0000)
  43 H      9.339582    2.879170   20.534391    ( 0.0000,  0.0000,  0.0000)
  44 H      9.036245    1.689227   18.271174    ( 0.0000,  0.0000,  0.0000)
  45 H      7.951376    0.889734   20.766573    ( 0.0000,  0.0000,  0.0000)

Unit cell:
           periodic     x           y           z      points  spacing
  1. axis:    yes    9.702222    0.000000    0.000000    60     0.1617
  2. axis:    yes    0.000000    9.702222    0.000000    60     0.1617
  3. axis:    no     0.000000    0.000000   24.851111   156     0.1593

  Lengths:   9.702222   9.702222  24.851111
  Angles:   90.000000  90.000000  90.000000

Effective grid spacing dv^(1/3) = 0.1609

     iter     time        total  log10-change:
                         energy  eigst   dens
iter:   1 20:45:15  -290.759147  -2.02
iter:   2 20:52:47  -290.749422  -2.57  -1.99
iter:   3 20:59:48  -290.747199c -3.45  -2.35
iter:   4 21:06:52  -290.746309c -3.31  -2.70
Writing to output.gpw (mode='')

iter:   5 21:12:31  -290.746137c -3.41  -2.93
iter:   6 21:18:48  -290.746037c -3.56  -3.10
iter:   7 21:24:18  -290.746004c -3.49  -3.27
iter:   8 21:28:39  -290.745998c -4.05  -3.44
iter:   9 21:34:00  -290.746000c -4.29  -3.54
Writing to output.gpw (mode='')

iter:  10 21:38:43  -290.746013c -4.12  -3.56
iter:  11 21:44:39  -290.746008c -4.93  -3.72
iter:  12 21:52:20  -290.746009c -5.26  -3.96
iter:  13 21:56:03  -290.746005c -5.17  -3.95
iter:  14 21:59:47  -290.746001c -5.56  -4.03c
Writing to output.gpw (mode='')

iter:  15 22:02:56  -290.746001c -5.65  -4.28c
iter:  16 22:05:57  -290.746001c -6.40  -4.33c
iter:  17 22:10:00  -290.745999c -6.20  -4.40c
iter:  18 22:14:32  -290.745999c -6.65  -4.52c
iter:  19 22:18:34  -290.745999c -6.49  -4.60c
Writing to output.gpw (mode='')

iter:  20 22:21:12  -290.745999c -6.98  -4.58c
iter:  21 22:23:51  -290.746000c -6.81  -4.71c
iter:  22 22:27:06  -290.746000c -7.08  -4.76c
iter:  23 22:29:19  -290.746001c -7.15  -4.87c
iter:  24 22:31:55  -290.746001c -6.87  -4.89c
Writing to output.gpw (mode='')

iter:  25 22:36:16  -290.746001c -7.42c -4.84c

Converged after 25 iterations.

Dipole moment: (0.188572, -2.837770, -0.199264) |e|*Ang

Energy contributions relative to reference atoms: (reference = -13512.263335)

Kinetic:       +137.903676
Potential:     -130.152658
External:        +0.000000
XC:            -299.027716
Entropy (-ST):   -0.152805
Local:           +0.607100
--------------------------
Free energy:   -290.822403
Extrapolated:  -290.746001

Dipole-layer corrected work functions: 3.381231, 3.764285 eV

Showing only first 2 kpts
 Kpt  Band  Eigenvalues  Occupancy
  0    29     -3.82492    1.98718
  0    30     -3.73980    1.93161
  0    31     -3.40914    0.07306
  0    32     -3.31834    0.01226

  1    29     -3.59765    1.24386
  1    30     -3.56967    0.96912
  1    31     -3.53175    0.61149
  1    32     -3.52167    0.52934


Fermi level: -3.57276

No gap

Forces in eV/Ang:
  0 Li    0.00216   -0.00020   -0.27402
  1 Li   -0.00491   -0.00003   -0.27156
  2 Li    0.00297    0.00064   -0.27413
  3 Li   -0.00206   -0.00283   -0.27383
  4 Li    0.00319    0.00042   -0.27199
  5 Li   -0.00117    0.00440   -0.27383
  6 Li   -0.00138    0.00305   -0.27347
  7 Li    0.00238   -0.00034   -0.27212
  8 Li   -0.00103   -0.00508   -0.27389
  9 Li    0.00309   -0.00235    0.26417
 10 Li   -0.00376    0.00336    0.26372
 11 Li    0.00037   -0.00117    0.26794
 12 Li    0.00230    0.00291    0.26361
 13 Li   -0.00399   -0.00304    0.26569
 14 Li    0.00145    0.00190    0.26710
 15 Li   -0.00300   -0.00049    0.26539
 16 Li    0.00607   -0.00040    0.26952
 17 Li   -0.00306   -0.00070    0.25713
 18 Li   -0.00460   -0.00103    0.03695
 19 Li    0.00330   -0.00084    0.02756
 20 Li    0.00138   -0.00093   -0.00262
 21 Li    0.00177    0.00360    0.02181
 22 Li    0.00124   -0.00401    0.03157
 23 Li   -0.00251   -0.00046    0.03164
 24 Li    0.00093   -0.00260    0.02330
 25 Li    0.00234    0.00489    0.03107
 26 Li   -0.00275    0.00155    0.02561
 27 Li    0.01866   -0.01364   -0.03596
 28 Li   -0.00984    0.00927   -0.00698
 29 Li    0.00626    0.00389    0.03424
 30 Li    0.02405    0.01742   -0.06074
 31 Li   -0.00991   -0.00708   -0.00499
 32 Li   -0.00314    0.00440   -0.01294
 33 Li   -0.00540   -0.00527   -0.01239
 34 Li    0.00143   -0.00206   -0.01269
 35 Li    0.00394   -0.00488   -0.01652
 36 O     0.03587    0.11040    0.04005
 37 O    -0.00660    0.00157   -0.00481
 38 C     0.01669   -0.03377   -0.12370
 39 C    -0.04942   -0.00248   -0.05008
 40 H    -0.03195   -0.05634    0.04522
 41 H     0.04344    0.00405    0.00580
 42 H     0.01527   -0.00820    0.02596
 43 H     0.01067   -0.02770    0.01975
 44 H    -0.08240   -0.01040   -0.01823
 45 H     0.01775   -0.00060    0.01920

System changes: positions 

Initializing position-dependent things.

Density initialized from wave functions
       .-----------------------.  
      /|                       |  
     / |                       |  
    /  |                       |  
   /   |                       |  
  /    |                       |  
 *     |                       |  
 |     |                       |  
 |     |               H       |  
 |     |             O         |  
 |     |               C  H    |  
 |     |           H HCH       |  
 |     Li                      |  
 |     |              O H      |  
 |     |     Li      Li      Li|  
 |     |  Li      Li      Li   |  
 | Li  |   Li      Li          |  
 |     |Li      Li      Li     |  
 |     | Li      Li            |  
 |   LLi     LLi     LLi       |  
 |     |  Li      Li      Li   |  
 | Li  |   Li      Li          |  
 |     |Li      Li      Li     |  
 Li    | Li      Li            |  
 |    Li      Li      Li       |  
 |     |                       |  
 |     |                       |  
 |     |                       |  
 |     |                       |  
 |     |                       |  
 |     |                       |  
 |     .-----------------------.  
 |    /                       /   
 |   /                       /    
 |  /                       /     
 | /                       /      
 |/                       /       
 *-----------------------*        

Positions:
   0 Li     1.617037    1.617037   10.000000    ( 0.0000,  0.0000,  0.0000)
   1 Li     4.851111    1.617037   10.000000    ( 0.0000,  0.0000,  0.0000)
   2 Li     8.085185    1.617037   10.000000    ( 0.0000,  0.0000,  0.0000)
   3 Li     1.617037    4.851111   10.000000    ( 0.0000,  0.0000,  0.0000)
   4 Li     4.851111    4.851111   10.000000    ( 0.0000,  0.0000,  0.0000)
   5 Li     8.085185    4.851111   10.000000    ( 0.0000,  0.0000,  0.0000)
   6 Li     1.617037    8.085185   10.000000    ( 0.0000,  0.0000,  0.0000)
   7 Li     4.851111    8.085185   10.000000    ( 0.0000,  0.0000,  0.0000)
   8 Li     8.085185    8.085185   10.000000    ( 0.0000,  0.0000,  0.0000)
   9 Li     0.000000    0.000000   11.617037    ( 0.0000,  0.0000,  0.0000)
  10 Li     3.234074    0.000000   11.617037    ( 0.0000,  0.0000,  0.0000)
  11 Li     6.468148    0.000000   11.617037    ( 0.0000,  0.0000,  0.0000)
  12 Li     0.000000    3.234074   11.617037    ( 0.0000,  0.0000,  0.0000)
  13 Li     3.234074    3.234074   11.617037    ( 0.0000,  0.0000,  0.0000)
  14 Li     6.468148    3.234074   11.617037    ( 0.0000,  0.0000,  0.0000)
  15 Li     0.000000    6.468148   11.617037    ( 0.0000,  0.0000,  0.0000)
  16 Li     3.234074    6.468148   11.617037    ( 0.0000,  0.0000,  0.0000)
  17 Li     6.468148    6.468148   11.617037    ( 0.0000,  0.0000,  0.0000)
  18 Li     1.615583    1.616879   13.480158    ( 0.0000,  0.0000,  0.0000)
  19 Li     4.851844    1.617011   13.476864    ( 0.0000,  0.0000,  0.0000)
  20 Li     8.085785    1.617011   13.469369    ( 0.0000,  0.0000,  0.0000)
  21 Li     1.617147    4.851739   13.476123    ( 0.0000,  0.0000,  0.0000)
  22 Li     4.851520    4.850147   13.478221    ( 0.0000,  0.0000,  0.0000)
  23 Li     8.084701    4.850878   13.478671    ( 0.0000,  0.0000,  0.0000)
  24 Li     1.617075    8.084711   13.476282    ( 0.0000,  0.0000,  0.0000)
  25 Li     4.851553    8.086164   13.477701    ( 0.0000,  0.0000,  0.0000)
  26 Li     8.084726    8.085463   13.476589    ( 0.0000,  0.0000,  0.0000)
  27 Li     0.004571   -0.003413   15.436879    ( 0.0000,  0.0000,  0.0000)
  28 Li     3.231574    0.002269   15.443703    ( 0.0000,  0.0000,  0.0000)
  29 Li     6.469392    0.000792   15.453265    ( 0.0000,  0.0000,  0.0000)
  30 Li     0.006054    3.238547   15.430721    ( 0.0000,  0.0000,  0.0000)
  31 Li     3.231575    3.232328   15.444164    ( 0.0000,  0.0000,  0.0000)
  32 Li     6.467089    3.235252   15.442141    ( 0.0000,  0.0000,  0.0000)
  33 Li    -0.001342    6.466826   15.442438    ( 0.0000,  0.0000,  0.0000)
  34 Li     3.234513    6.467658   15.442344    ( 0.0000,  0.0000,  0.0000)
  35 Li     6.469083    6.466909   15.441415    ( 0.0000,  0.0000,  0.0000)
  36 O      8.082852    1.615589   18.436924    ( 0.0000,  0.0000,  0.0000)
  37 O      7.839209    1.657989   21.341048    ( 0.0000,  0.0000,  0.0000)
  38 C      7.670243    2.792098   19.177087    ( 0.0000,  0.0000,  0.0000)
  39 C      8.241450    2.799692   20.587272    ( 0.0000,  0.0000,  0.0000)
  40 H      7.966159    3.708062   18.641522    ( 0.0000,  0.0000,  0.0000)
  41 H      6.577992    2.738918   19.208466    ( 0.0000,  0.0000,  0.0000)
  42 H      7.872535    3.678943   21.122623    ( 0.0000,  0.0000,  0.0000)
  43 H      9.339048    2.879519   20.535048    ( 0.0000,  0.0000,  0.0000)
  44 H      9.035940    1.687678   18.267969    ( 0.0000,  0.0000,  0.0000)
  45 H      7.953083    0.887448   20.768019    ( 0.0000,  0.0000,  0.0000)

Unit cell:
           periodic     x           y           z      points  spacing
  1. axis:    yes    9.702222    0.000000    0.000000    60     0.1617
  2. axis:    yes    0.000000    9.702222    0.000000    60     0.1617
  3. axis:    no     0.000000    0.000000   24.851111   156     0.1593

  Lengths:   9.702222   9.702222  24.851111
  Angles:   90.000000  90.000000  90.000000

Effective grid spacing dv^(1/3) = 0.1609

     iter     time        total  log10-change:
                         energy  eigst   dens
iter:   1 22:41:03  -290.763813  -2.05
iter:   2 22:43:40  -290.750924  -2.56  -1.94
iter:   3 22:45:30  -290.747984c -3.66  -2.31
iter:   4 22:47:52  -290.747631c -3.74  -2.79
Writing to output.gpw (mode='')

iter:   5 22:49:44  -290.747477c -3.64  -2.96
iter:   6 22:51:26  -290.747422c -3.68  -3.18
iter:   7 22:53:19  -290.747409c -3.64  -3.39
iter:   8 22:55:20  -290.747407c -4.36  -3.56
iter:   9 22:57:30  -290.747410c -4.65  -3.70
Writing to output.gpw (mode='')

iter:  10 22:59:35  -290.747415c -4.54  -3.72
iter:  11 23:01:57  -290.747417c -5.24  -3.88
iter:  12 23:04:36  -290.747416c -5.49  -4.05c
iter:  13 23:06:33  -290.747416c -5.63  -4.12c
iter:  14 23:09:24  -290.747413c -5.82  -4.18c
Writing to output.gpw (mode='')

iter:  15 23:12:20  -290.747412c -5.80  -4.32c
iter:  16 23:16:30  -290.747412c -6.16  -4.42c
iter:  17 23:19:04  -290.747412c -6.48  -4.53c
iter:  18 23:21:06  -290.747412c -6.55  -4.55c
iter:  19 23:23:33  -290.747411c -6.63  -4.60c
Writing to output.gpw (mode='')

iter:  20 23:25:32  -290.747411c -6.98  -4.89c
iter:  21 23:27:27  -290.747412c -6.89  -4.91c
iter:  22 23:29:30  -290.747412c -7.17  -4.97c
iter:  23 23:31:46  -290.747412c -7.22  -5.19c
iter:  24 23:33:57  -290.747412c -7.43c -5.20c

Converged after 24 iterations.

Dipole moment: (0.136359, -2.838523, -0.197147) |e|*Ang

Energy contributions relative to reference atoms: (reference = -13512.263335)

Kinetic:       +137.731879
Potential:     -130.020173
External:        +0.000000
XC:            -298.989751
Entropy (-ST):   -0.152814
Local:           +0.607040
--------------------------
Free energy:   -290.823820
Extrapolated:  -290.747412

Dipole-layer corrected work functions: 3.381196, 3.760180 eV

Showing only first 2 kpts
 Kpt  Band  Eigenvalues  Occupancy
  0    29     -3.82218    1.98701
  0    30     -3.73778    1.93167
  0    31     -3.40655    0.07234
  0    32     -3.31554    0.01208

  1    29     -3.59521    1.24038
  1    30     -3.56721    0.96527
  1    31     -3.53061    0.61934
  1    32     -3.52009    0.53317


Fermi level: -3.57069

No gap
Writing to output.gpw (mode='')


Forces in eV/Ang:
  0 Li    0.00219   -0.00017   -0.27436
  1 Li   -0.00497   -0.00000   -0.27167
  2 Li    0.00300    0.00062   -0.27442
  3 Li   -0.00209   -0.00284   -0.27417
  4 Li    0.00317    0.00033   -0.27231
  5 Li   -0.00116    0.00447   -0.27417
  6 Li   -0.00144    0.00303   -0.27381
  7 Li    0.00242   -0.00027   -0.27233
  8 Li   -0.00103   -0.00514   -0.27406
  9 Li    0.00391   -0.00279    0.26640
 10 Li   -0.00411    0.00368    0.26652
 11 Li   -0.00016   -0.00164    0.26946
 12 Li    0.00293    0.00347    0.26635
 13 Li   -0.00427   -0.00343    0.26867
 14 Li    0.00105    0.00258    0.26922
 15 Li   -0.00342   -0.00060    0.26811
 16 Li    0.00680   -0.00032    0.27233
 17 Li   -0.00333   -0.00092    0.25988
 18 Li   -0.00274   -0.00131    0.02756
 19 Li    0.00327   -0.00149    0.02314
 20 Li    0.00017   -0.00164   -0.00305
 21 Li    0.00295    0.00427    0.01533
 22 Li    0.00066   -0.00364    0.02522
 23 Li   -0.00282    0.00006    0.02355
 24 Li    0.00166   -0.00298    0.01747
 25 Li    0.00260    0.00525    0.02634
 26 Li   -0.00336    0.00181    0.02059
 27 Li    0.01669   -0.01195   -0.03154
 28 Li   -0.00840    0.00826   -0.00410
 29 Li    0.00669    0.00403    0.03431
 30 Li    0.02087    0.01473   -0.05325
 31 Li   -0.00851   -0.00626   -0.00223
 32 Li   -0.00178    0.00361   -0.00942
 33 Li   -0.00470   -0.00454   -0.00917
 34 Li    0.00093   -0.00188   -0.00937
 35 Li    0.00360   -0.00412   -0.01281
 36 O    -0.00918    0.11677    0.06758
 37 O     0.03628    0.01916   -0.00632
 38 C     0.03316   -0.04825   -0.11987
 39 C    -0.04611    0.01009   -0.07793
 40 H    -0.04170   -0.06583    0.05859
 41 H     0.06697    0.00871   -0.00468
 42 H    -0.00056   -0.02718    0.02414
 43 H     0.00102   -0.05303    0.02288
 44 H    -0.06270    0.00859   -0.01479
 45 H     0.01690    0.01417    0.01936

System changes: positions 

Initializing position-dependent things.

Density initialized from wave functions
       .-----------------------.  
      /|                       |  
     / |                       |  
    /  |                       |  
   /   |                       |  
  /    |                       |  
 *     |                       |  
 |     |                       |  
 |     |               H       |  
 |     |             O         |  
 |     |               C  H    |  
 |     |           H HCH       |  
 |     Li                      |  
 |     |              O H      |  
 |     |     Li      Li      Li|  
 |     |  Li      Li      Li   |  
 | Li  |   Li      Li          |  
 |     |Li      Li      Li     |  
 |     | Li      Li            |  
 |   LLi     LLi     LLi       |  
 |     |  Li      Li      Li   |  
 | Li  |   Li      Li          |  
 |     |Li      Li      Li     |  
 Li    | Li      Li            |  
 |    Li      Li      Li       |  
 |     |                       |  
 |     |                       |  
 |     |                       |  
 |     |                       |  
 |     |                       |  
 |     |                       |  
 |     .-----------------------.  
 |    /                       /   
 |   /                       /    
 |  /                       /     
 | /                       /      
 |/                       /       
 *-----------------------*        

Positions:
   0 Li     1.617037    1.617037   10.000000    ( 0.0000,  0.0000,  0.0000)
   1 Li     4.851111    1.617037   10.000000    ( 0.0000,  0.0000,  0.0000)
   2 Li     8.085185    1.617037   10.000000    ( 0.0000,  0.0000,  0.0000)
   3 Li     1.617037    4.851111   10.000000    ( 0.0000,  0.0000,  0.0000)
   4 Li     4.851111    4.851111   10.000000    ( 0.0000,  0.0000,  0.0000)
   5 Li     8.085185    4.851111   10.000000    ( 0.0000,  0.0000,  0.0000)
   6 Li     1.617037    8.085185   10.000000    ( 0.0000,  0.0000,  0.0000)
   7 Li     4.851111    8.085185   10.000000    ( 0.0000,  0.0000,  0.0000)
   8 Li     8.085185    8.085185   10.000000    ( 0.0000,  0.0000,  0.0000)
   9 Li     0.000000    0.000000   11.617037    ( 0.0000,  0.0000,  0.0000)
  10 Li     3.234074    0.000000   11.617037    ( 0.0000,  0.0000,  0.0000)
  11 Li     6.468148    0.000000   11.617037    ( 0.0000,  0.0000,  0.0000)
  12 Li     0.000000    3.234074   11.617037    ( 0.0000,  0.0000,  0.0000)
  13 Li     3.234074    3.234074   11.617037    ( 0.0000,  0.0000,  0.0000)
  14 Li     6.468148    3.234074   11.617037    ( 0.0000,  0.0000,  0.0000)
  15 Li     0.000000    6.468148   11.617037    ( 0.0000,  0.0000,  0.0000)
  16 Li     3.234074    6.468148   11.617037    ( 0.0000,  0.0000,  0.0000)
  17 Li     6.468148    6.468148   11.617037    ( 0.0000,  0.0000,  0.0000)
  18 Li     1.614686    1.616747   13.486844    ( 0.0000,  0.0000,  0.0000)
  19 Li     4.852358    1.616947   13.481578    ( 0.0000,  0.0000,  0.0000)
  20 Li     8.086123    1.616942   13.469070    ( 0.0000,  0.0000,  0.0000)
  21 Li     1.617305    4.852229   13.480170    ( 0.0000,  0.0000,  0.0000)
  22 Li     4.851769    4.849493   13.483755    ( 0.0000,  0.0000,  0.0000)
  23 Li     8.084340    4.850752   13.484399    ( 0.0000,  0.0000,  0.0000)
  24 Li     1.617150    8.084351   13.480488    ( 0.0000,  0.0000,  0.0000)
  25 Li     4.851884    8.086880   13.482986    ( 0.0000,  0.0000,  0.0000)
  26 Li     8.084362    8.085676   13.481069    ( 0.0000,  0.0000,  0.0000)
  27 Li     0.007654   -0.005698   15.430821    ( 0.0000,  0.0000,  0.0000)
  28 Li     3.229912    0.003798   15.442331    ( 0.0000,  0.0000,  0.0000)
  29 Li     6.470303    0.001364   15.458459    ( 0.0000,  0.0000,  0.0000)
  30 Li     0.010097    3.241511   15.420536    ( 0.0000,  0.0000,  0.0000)
  31 Li     3.229908    3.231152   15.443109    ( 0.0000,  0.0000,  0.0000)
  32 Li     6.466447    3.236022   15.439729    ( 0.0000,  0.0000,  0.0000)
  33 Li    -0.002241    6.465944   15.440198    ( 0.0000,  0.0000,  0.0000)
  34 Li     3.234786    6.467326   15.440046    ( 0.0000,  0.0000,  0.0000)
  35 Li     6.469721    6.466088   15.438488    ( 0.0000,  0.0000,  0.0000)
  36 O      8.082401    1.618690   18.433946    ( 0.0000,  0.0000,  0.0000)
  37 O      7.833093    1.656946   21.339128    ( 0.0000,  0.0000,  0.0000)
  38 C      7.669734    2.792723   19.174545    ( 0.0000,  0.0000,  0.0000)
  39 C      8.239598    2.798798   20.586679    ( 0.0000,  0.0000,  0.0000)
  40 H      7.965060    3.708833   18.640805    ( 0.0000,  0.0000,  0.0000)
  41 H      6.577370    2.738124   19.209013    ( 0.0000,  0.0000,  0.0000)
  42 H      7.876430    3.679539   21.124643    ( 0.0000,  0.0000,  0.0000)
  43 H      9.338021    2.878901   20.536422    ( 0.0000,  0.0000,  0.0000)
  44 H      9.034692    1.685703   18.262917    ( 0.0000,  0.0000,  0.0000)
  45 H      7.955936    0.884350   20.770518    ( 0.0000,  0.0000,  0.0000)

Unit cell:
           periodic     x           y           z      points  spacing
  1. axis:    yes    9.702222    0.000000    0.000000    60     0.1617
  2. axis:    yes    0.000000    9.702222    0.000000    60     0.1617
  3. axis:    no     0.000000    0.000000   24.851111   156     0.1593

  Lengths:   9.702222   9.702222  24.851111
  Angles:   90.000000  90.000000  90.000000

Effective grid spacing dv^(1/3) = 0.1609

     iter     time        total  log10-change:
                         energy  eigst   dens
iter:   1 23:36:06  -290.798949  -1.60
iter:   2 23:38:55  -290.759619  -2.11  -1.71
iter:   3 23:41:24  -290.750439  -3.34  -2.07
iter:   4 23:43:24  -290.749702c -3.33  -2.62
Writing to output.gpw (mode='')

iter:   5 23:45:24  -290.749522c -3.38  -2.83
iter:   6 23:47:45  -290.749391c -3.25  -3.00
iter:   7 23:49:53  -290.749405c -3.31  -3.29
iter:   8 23:51:44  -290.749406c -4.12  -3.33
iter:   9 23:54:00  -290.749402c -4.23  -3.50
Writing to output.gpw (mode='')

iter:  10 23:56:36  -290.749404c -4.33  -3.65
iter:  11 23:58:47  -290.749404c -4.84  -3.74
iter:  12 00:01:30  -290.749408c -4.79  -3.85
iter:  13 00:04:31  -290.749405c -5.00  -4.00c
iter:  14 00:07:17  -290.749406c -5.12  -4.05c
Writing to output.gpw (mode='')

iter:  15 00:10:55  -290.749405c -5.64  -4.07c
iter:  16 00:13:43  -290.749405c -5.93  -4.27c
iter:  17 00:16:16  -290.749402c -5.74  -4.33c
iter:  18 00:19:08  -290.749403c -6.35  -4.47c
iter:  19 00:21:55  -290.749404c -6.22  -4.59c
Writing to output.gpw (mode='')

iter:  20 00:24:01  -290.749404c -6.55  -4.72c
iter:  21 00:26:22  -290.749404c -6.51  -4.81c
iter:  22 00:28:31  -290.749405c -6.60  -4.96c
iter:  23 00:30:13  -290.749404c -6.65  -5.00c
iter:  24 00:34:01  -290.749404c -6.96  -5.04c
Writing to output.gpw (mode='')

iter:  25 00:37:47  -290.749404c -7.21  -5.13c
iter:  26 00:41:41  -290.749405c -7.34  -5.29c
iter:  27 00:44:47  -290.749405c -7.32  -5.33c
iter:  28 00:48:39  -290.749405c -7.48c -5.52c

Converged after 28 iterations.

Dipole moment: (0.048065, -2.839372, -0.196021) |e|*Ang

Energy contributions relative to reference atoms: (reference = -13512.263335)

Kinetic:       +137.749542
Potential:     -130.023119
External:        +0.000000
XC:            -299.006727
Entropy (-ST):   -0.152831
Local:           +0.607315
--------------------------
Free energy:   -290.825820
Extrapolated:  -290.749405

Dipole-layer corrected work functions: 3.381185, 3.758006 eV

Showing only first 2 kpts
 Kpt  Band  Eigenvalues  Occupancy
  0    29     -3.82002    1.98673
  0    30     -3.73675    1.93176
  0    31     -3.40465    0.07122
  0    32     -3.31329    0.01181

  1    29     -3.59352    1.23474
  1    30     -3.56552    0.95929
  1    31     -3.53101    0.63220
  1    32     -3.51975    0.53908


Fermi level: -3.56960

No gap
Writing to output.gpw (mode='')


Forces in eV/Ang:
  0 Li    0.00216   -0.00010   -0.27494
  1 Li   -0.00500    0.00007   -0.27189
  2 Li    0.00308    0.00061   -0.27489
  3 Li   -0.00213   -0.00282   -0.27471
  4 Li    0.00307    0.00019   -0.27285
  5 Li   -0.00109    0.00453   -0.27473
  6 Li   -0.00157    0.00291   -0.27435
  7 Li    0.00243   -0.00020   -0.27271
  8 Li   -0.00096   -0.00518   -0.27435
  9 Li    0.00521   -0.00352    0.26996
 10 Li   -0.00468    0.00413    0.27101
 11 Li   -0.00099   -0.00238    0.27178
 12 Li    0.00394    0.00440    0.27075
 13 Li   -0.00471   -0.00403    0.27349
 14 Li    0.00042    0.00366    0.27260
 15 Li   -0.00407   -0.00077    0.27254
 16 Li    0.00800   -0.00017    0.27673
 17 Li   -0.00379   -0.00128    0.26435
 18 Li    0.00031   -0.00177    0.01250
 19 Li    0.00320   -0.00251    0.01617
 20 Li   -0.00172   -0.00271   -0.00344
 21 Li    0.00488    0.00538    0.00493
 22 Li   -0.00026   -0.00304    0.01512
 23 Li   -0.00329    0.00095    0.01058
 24 Li    0.00283   -0.00366    0.00814
 25 Li    0.00303    0.00580    0.01888
 26 Li   -0.00432    0.00214    0.01266
 27 Li    0.01346   -0.00912   -0.02450
 28 Li   -0.00607    0.00661    0.00053
 29 Li    0.00734    0.00418    0.03407
 30 Li    0.01557    0.01024   -0.04111
 31 Li   -0.00627   -0.00492    0.00213
 32 Li    0.00040    0.00240   -0.00391
 33 Li   -0.00358   -0.00334   -0.00410
 34 Li    0.00011   -0.00160   -0.00403
 35 Li    0.00304   -0.00288   -0.00685
 36 O    -0.05525    0.07021    0.05863
 37 O     0.05833    0.03677   -0.01286
 38 C     0.03344   -0.04026   -0.05230
 39 C    -0.01285    0.02107   -0.07822
 40 H    -0.04038   -0.04067    0.04822
 41 H     0.07477    0.01373   -0.02201
 42 H    -0.02570   -0.04861    0.00762
 43 H    -0.01598   -0.07950    0.01650
 44 H    -0.03103    0.03564   -0.01153
 45 H     0.01575    0.03006    0.01596

System changes: positions 

Initializing position-dependent things.

Density initialized from wave functions
       .-----------------------.  
      /|                       |  
     / |                       |  
    /  |                       |  
   /   |                       |  
  /    |                       |  
 *     |                       |  
 |     |                       |  
 |     |               H       |  
 |     |             O         |  
 |     |               C  H    |  
 |     |           H HCH       |  
 |     Li                      |  
 |     |              O H      |  
 |     |     Li      Li      Li|  
 |     |  Li      Li      Li   |  
 | Li  |   Li      Li          |  
 |     |Li      Li      Li     |  
 |     | Li      Li            |  
 |   LLi     LLi     LLi       |  
 |     |  Li      Li      Li   |  
 | Li  |   Li      Li          |  
 |     |Li      Li      Li     |  
 Li    | Li      Li            |  
 |    Li      Li      Li       |  
 |     |                       |  
 |     |                       |  
 |     |                       |  
 |     |                       |  
 |     |                       |  
 |     |                       |  
 |     .-----------------------.  
 |    /                       /   
 |   /                       /    
 |  /                       /     
 | /                       /      
 |/                       /       
 *-----------------------*        

Positions:
   0 Li     1.617037    1.617037   10.000000    ( 0.0000,  0.0000,  0.0000)
   1 Li     4.851111    1.617037   10.000000    ( 0.0000,  0.0000,  0.0000)
   2 Li     8.085185    1.617037   10.000000    ( 0.0000,  0.0000,  0.0000)
   3 Li     1.617037    4.851111   10.000000    ( 0.0000,  0.0000,  0.0000)
   4 Li     4.851111    4.851111   10.000000    ( 0.0000,  0.0000,  0.0000)
   5 Li     8.085185    4.851111   10.000000    ( 0.0000,  0.0000,  0.0000)
   6 Li     1.617037    8.085185   10.000000    ( 0.0000,  0.0000,  0.0000)
   7 Li     4.851111    8.085185   10.000000    ( 0.0000,  0.0000,  0.0000)
   8 Li     8.085185    8.085185   10.000000    ( 0.0000,  0.0000,  0.0000)
   9 Li     0.000000    0.000000   11.617037    ( 0.0000,  0.0000,  0.0000)
  10 Li     3.234074    0.000000   11.617037    ( 0.0000,  0.0000,  0.0000)
  11 Li     6.468148    0.000000   11.617037    ( 0.0000,  0.0000,  0.0000)
  12 Li     0.000000    3.234074   11.617037    ( 0.0000,  0.0000,  0.0000)
  13 Li     3.234074    3.234074   11.617037    ( 0.0000,  0.0000,  0.0000)
  14 Li     6.468148    3.234074   11.617037    ( 0.0000,  0.0000,  0.0000)
  15 Li     0.000000    6.468148   11.617037    ( 0.0000,  0.0000,  0.0000)
  16 Li     3.234074    6.468148   11.617037    ( 0.0000,  0.0000,  0.0000)
  17 Li     6.468148    6.468148   11.617037    ( 0.0000,  0.0000,  0.0000)
  18 Li     1.613892    1.616592   13.493084    ( 0.0000,  0.0000,  0.0000)
  19 Li     4.852884    1.616837   13.486133    ( 0.0000,  0.0000,  0.0000)
  20 Li     8.086390    1.616824   13.468733    ( 0.0000,  0.0000,  0.0000)
  21 Li     1.617549    4.852779   13.483892    ( 0.0000,  0.0000,  0.0000)
  22 Li     4.851985    4.848845   13.489020    ( 0.0000,  0.0000,  0.0000)
  23 Li     8.083949    4.850658   13.489742    ( 0.0000,  0.0000,  0.0000)
  24 Li     1.617277    8.083951   13.484420    ( 0.0000,  0.0000,  0.0000)
  25 Li     4.852244    8.087641   13.488107    ( 0.0000,  0.0000,  0.0000)
  26 Li     8.083946    8.085912   13.485340    ( 0.0000,  0.0000,  0.0000)
  27 Li     0.010692   -0.007930   15.424891    ( 0.0000,  0.0000,  0.0000)
  28 Li     3.228298    0.005304   15.441115    ( 0.0000,  0.0000,  0.0000)
  29 Li     6.471270    0.001963   15.463811    ( 0.0000,  0.0000,  0.0000)
  30 Li     0.014036    3.244373   15.410570    ( 0.0000,  0.0000,  0.0000)
  31 Li     3.228286    3.229999   15.442209    ( 0.0000,  0.0000,  0.0000)
  32 Li     6.465880    3.236760   15.437490    ( 0.0000,  0.0000,  0.0000)
  33 Li    -0.003119    6.465086   15.438108    ( 0.0000,  0.0000,  0.0000)
  34 Li     3.235032    6.466996   15.437906    ( 0.0000,  0.0000,  0.0000)
  35 Li     6.470355    6.465293   15.435728    ( 0.0000,  0.0000,  0.0000)
  36 O      8.081167    1.622319   18.431980    ( 0.0000,  0.0000,  0.0000)
  37 O      7.828576    1.656735   21.337088    ( 0.0000,  0.0000,  0.0000)
  38 C      7.669738    2.792755   19.171906    ( 0.0000,  0.0000,  0.0000)
  39 C      8.237952    2.798408   20.584869    ( 0.0000,  0.0000,  0.0000)
  40 H      7.963391    3.709073   18.640859    ( 0.0000,  0.0000,  0.0000)
  41 H      6.578114    2.737681   19.209018    ( 0.0000,  0.0000,  0.0000)
  42 H      7.879377    3.679098   21.126478    ( 0.0000,  0.0000,  0.0000)
  43 H      9.336690    2.876787   20.537903    ( 0.0000,  0.0000,  0.0000)
  44 H      9.032843    1.684657   18.258165    ( 0.0000,  0.0000,  0.0000)
  45 H      7.958817    0.882132   20.773058    ( 0.0000,  0.0000,  0.0000)

Unit cell:
           periodic     x           y           z      points  spacing
  1. axis:    yes    9.702222    0.000000    0.000000    60     0.1617
  2. axis:    yes    0.000000    9.702222    0.000000    60     0.1617
  3. axis:    no     0.000000    0.000000   24.851111   156     0.1593

  Lengths:   9.702222   9.702222  24.851111
  Angles:   90.000000  90.000000  90.000000

Effective grid spacing dv^(1/3) = 0.1609

     iter     time        total  log10-change:
                         energy  eigst   dens
iter:   1 00:52:38  -290.801966  -1.61
iter:   2 00:55:11  -290.761103  -2.10  -1.70
iter:   3 00:57:50  -290.751614  -3.39  -2.06
iter:   4 01:00:59  -290.751038c -3.32  -2.66
Writing to output.gpw (mode='')

iter:   5 01:04:06  -290.750929c -3.46  -2.89
iter:   6 01:07:08  -290.750833c -3.26  -3.03
iter:   7 01:09:41  -290.750861c -3.43  -3.36
iter:   8 01:12:13  -290.750882c -4.09  -3.34
iter:   9 01:14:56  -290.750872c -4.34  -3.49
Writing to output.gpw (mode='')

iter:  10 01:17:53  -290.750867c -4.37  -3.65
iter:  11 01:20:13  -290.750867c -4.81  -3.78
iter:  12 01:23:33  -290.750865c -4.69  -3.88
iter:  13 01:25:56  -290.750864c -4.98  -3.98
iter:  14 01:29:11  -290.750868c -5.20  -4.07c
Writing to output.gpw (mode='')

iter:  15 01:32:44  -290.750869c -5.57  -4.13c
iter:  16 01:35:40  -290.750869c -5.84  -4.30c
iter:  17 01:38:34  -290.750867c -5.73  -4.36c
iter:  18 01:40:59  -290.750868c -6.31  -4.50c
iter:  19 01:43:50  -290.750868c -6.04  -4.60c
Writing to output.gpw (mode='')

iter:  20 01:46:05  -290.750868c -6.24  -4.66c
iter:  21 01:49:45  -290.750867c -6.47  -4.73c
iter:  22 01:52:01  -290.750868c -6.74  -4.86c
iter:  23 01:54:36  -290.750868c -6.57  -4.92c
iter:  24 01:58:01  -290.750868c -7.10  -5.03c
Writing to output.gpw (mode='')

iter:  25 02:02:32  -290.750868c -6.96  -5.12c
iter:  26 02:07:48  -290.750869c -6.78  -5.23c
iter:  27 02:12:35  -290.750869c -7.15  -5.28c
iter:  28 02:16:05  -290.750869c -7.30  -5.36c
iter:  29 02:18:55  -290.750869c -7.56c -5.41c

Converged after 29 iterations.

Dipole moment: (-0.042019, -2.839792, -0.196393) |e|*Ang

Energy contributions relative to reference atoms: (reference = -13512.263335)

Kinetic:       +138.015953
Potential:     -130.211521
External:        +0.000000
XC:            -299.086273
Entropy (-ST):   -0.152847
Local:           +0.607396
--------------------------
Free energy:   -290.827292
Extrapolated:  -290.750869

Dipole-layer corrected work functions: 3.381159, 3.758694 eV

Showing only first 2 kpts
 Kpt  Band  Eigenvalues  Occupancy
  0    29     -3.81936    1.98646
  0    30     -3.73713    1.93181
  0    31     -3.40424    0.07020
  0    32     -3.31256    0.01156

  1    29     -3.59327    1.22932
  1    30     -3.56531    0.95387
  1    31     -3.53277    0.64466
  1    32     -3.52073    0.54426


Fermi level: -3.56993

No gap
Writing to output.gpw (mode='')


Forces in eV/Ang:
  0 Li    0.00214   -0.00002   -0.27551
  1 Li   -0.00505    0.00015   -0.27206
  2 Li    0.00318    0.00060   -0.27533
  3 Li   -0.00217   -0.00281   -0.27521
  4 Li    0.00298    0.00006   -0.27336
  5 Li   -0.00101    0.00459   -0.27528
  6 Li   -0.00170    0.00280   -0.27485
  7 Li    0.00244   -0.00014   -0.27307
  8 Li   -0.00090   -0.00524   -0.27461
  9 Li    0.00644   -0.00425    0.27329
 10 Li   -0.00516    0.00453    0.27521
 11 Li   -0.00182   -0.00309    0.27388
 12 Li    0.00490    0.00527    0.27488
 13 Li   -0.00508   -0.00463    0.27798
 14 Li   -0.00022    0.00465    0.27577
 15 Li   -0.00472   -0.00090    0.27668
 16 Li    0.00927    0.00004    0.28080
 17 Li   -0.00432   -0.00158    0.26853
 18 Li    0.00332   -0.00223   -0.00190
 19 Li    0.00315   -0.00348    0.00958
 20 Li   -0.00352   -0.00372   -0.00353
 21 Li    0.00678    0.00650   -0.00493
 22 Li   -0.00115   -0.00245    0.00554
 23 Li   -0.00377    0.00181   -0.00174
 24 Li    0.00399   -0.00433   -0.00067
 25 Li    0.00344    0.00632    0.01182
 26 Li   -0.00523    0.00247    0.00518
 27 Li    0.01019   -0.00624   -0.01751
 28 Li   -0.00379    0.00493    0.00497
 29 Li    0.00796    0.00433    0.03367
 30 Li    0.01027    0.00583   -0.02913
 31 Li   -0.00407   -0.00355    0.00629
 32 Li    0.00251    0.00122    0.00135
 33 Li   -0.00245   -0.00217    0.00076
 34 Li   -0.00066   -0.00131    0.00109
 35 Li    0.00244   -0.00168   -0.00108
 36 O    -0.06362    0.00208    0.01533
 37 O     0.04838    0.04430   -0.01443
 38 C     0.02296   -0.00815    0.02208
 39 C     0.01632    0.01396   -0.04147
 40 H    -0.02795    0.00191    0.02209
 41 H     0.05036    0.01663   -0.03110
 42 H    -0.04584   -0.05359   -0.01561
 43 H    -0.01492   -0.08864    0.00181
 44 H    -0.01450    0.05502   -0.00752
 45 H     0.01616    0.03514    0.00672

System changes: positions 

Initializing position-dependent things.

Density initialized from wave functions
       .-----------------------.  
      /|                       |  
     / |                       |  
    /  |                       |  
   /   |                       |  
  /    |                       |  
 *     |                       |  
 |     |                       |  
 |     |               H       |  
 |     |             O         |  
 |     |               C  H    |  
 |     |           H HCH       |  
 |     Li                      |  
 |     |              O H      |  
 |     |     Li      Li      Li|  
 |     |  Li      Li      Li   |  
 | Li  |   Li      Li          |  
 |     |Li      Li      Li     |  
 |     | Li      Li            |  
 |   LLi     LLi     LLi       |  
 |     |  Li      Li      Li   |  
 | Li  |   Li      Li          |  
 |     |Li      Li      Li     |  
 Li    | Li      Li            |  
 |    Li      Li      Li       |  
 |     |                       |  
 |     |                       |  
 |     |                       |  
 |     |                       |  
 |     |                       |  
 |     |                       |  
 |     .-----------------------.  
 |    /                       /   
 |   /                       /    
 |  /                       /     
 | /                       /      
 |/                       /       
 *-----------------------*        

Positions:
   0 Li     1.617037    1.617037   10.000000    ( 0.0000,  0.0000,  0.0000)
   1 Li     4.851111    1.617037   10.000000    ( 0.0000,  0.0000,  0.0000)
   2 Li     8.085185    1.617037   10.000000    ( 0.0000,  0.0000,  0.0000)
   3 Li     1.617037    4.851111   10.000000    ( 0.0000,  0.0000,  0.0000)
   4 Li     4.851111    4.851111   10.000000    ( 0.0000,  0.0000,  0.0000)
   5 Li     8.085185    4.851111   10.000000    ( 0.0000,  0.0000,  0.0000)
   6 Li     1.617037    8.085185   10.000000    ( 0.0000,  0.0000,  0.0000)
   7 Li     4.851111    8.085185   10.000000    ( 0.0000,  0.0000,  0.0000)
   8 Li     8.085185    8.085185   10.000000    ( 0.0000,  0.0000,  0.0000)
   9 Li     0.000000    0.000000   11.617037    ( 0.0000,  0.0000,  0.0000)
  10 Li     3.234074    0.000000   11.617037    ( 0.0000,  0.0000,  0.0000)
  11 Li     6.468148    0.000000   11.617037    ( 0.0000,  0.0000,  0.0000)
  12 Li     0.000000    3.234074   11.617037    ( 0.0000,  0.0000,  0.0000)
  13 Li     3.234074    3.234074   11.617037    ( 0.0000,  0.0000,  0.0000)
  14 Li     6.468148    3.234074   11.617037    ( 0.0000,  0.0000,  0.0000)
[...]
  40 H      7.958014    3.718304   18.642340    ( 0.0000,  0.0000,  0.0000)
  41 H      6.575812    2.746408   19.205199    ( 0.0000,  0.0000,  0.0000)
  42 H      7.873786    3.671608   21.120245    ( 0.0000,  0.0000,  0.0000)
  43 H      9.339833    2.847639   20.535595    ( 0.0000,  0.0000,  0.0000)
  44 H      9.016780    1.700535   18.238569    ( 0.0000,  0.0000,  0.0000)
  45 H      7.974293    0.882960   20.778214    ( 0.0000,  0.0000,  0.0000)

Unit cell:
           periodic     x           y           z      points  spacing
  1. axis:    yes    9.702222    0.000000    0.000000    60     0.1617
  2. axis:    yes    0.000000    9.702222    0.000000    60     0.1617
  3. axis:    no     0.000000    0.000000   24.851111   156     0.1593

  Lengths:   9.702222   9.702222  24.851111
  Angles:   90.000000  90.000000  90.000000

Effective grid spacing dv^(1/3) = 0.1609

     iter     time        total  log10-change:
                         energy  eigst   dens
iter:   1 15:29:44  -290.755848  -2.53
iter:   2 15:34:48  -290.755823  -3.34  -2.89
iter:   3 15:40:51  -290.755806c -3.86  -2.99
iter:   4 15:45:06  -290.755643c -3.76  -3.01
Writing to output.gpw (mode='')

iter:   5 15:49:06  -290.755601c -3.75  -3.25
iter:   6 15:53:23  -290.755583c -3.94  -3.36
iter:   7 15:58:57  -290.755624c -3.90  -3.52
iter:   8 16:04:38  -290.755572c -4.27  -3.37
iter:   9 16:09:10  -290.755574c -4.63  -3.79
Writing to output.gpw (mode='')

iter:  10 16:13:58  -290.755575c -5.53  -3.80
iter:  11 16:17:48  -290.755576c -5.45  -3.96
iter:  12 16:21:36  -290.755574c -5.38  -4.09c
iter:  13 16:26:59  -290.755575c -5.84  -4.17c
iter:  14 16:32:13  -290.755574c -6.01  -4.26c
Writing to output.gpw (mode='')

iter:  15 16:39:39  -290.755574c -6.52  -4.26c
iter:  16 16:43:51  -290.755572c -6.07  -4.32c
iter:  17 16:49:56  -290.755572c -6.81  -4.46c
iter:  18 16:54:11  -290.755572c -6.38  -4.57c
iter:  19 17:00:36  -290.755572c -6.97  -4.66c
Writing to output.gpw (mode='')

iter:  20 17:05:58  -290.755572c -6.73  -4.77c
iter:  21 17:10:54  -290.755572c -6.95  -4.79c
iter:  22 17:16:19  -290.755572c -7.63c -5.03c

Converged after 22 iterations.

Dipole moment: (-0.330381, -2.864334, -0.196067) |e|*Ang

Energy contributions relative to reference atoms: (reference = -13512.263335)

Kinetic:       +138.338596
Potential:     -130.467870
External:        +0.000000
XC:            -299.156436
Entropy (-ST):   -0.152889
Local:           +0.606583
--------------------------
Free energy:   -290.832017
Extrapolated:  -290.755572

Dipole-layer corrected work functions: 3.380951, 3.757860 eV

Showing only first 2 kpts
 Kpt  Band  Eigenvalues  Occupancy
  0    29     -3.81664    1.98586
  0    30     -3.73640    1.93155
  0    31     -3.40253    0.06861
  0    32     -3.30980    0.01106

  1    29     -3.59194    1.22156
  1    30     -3.56421    0.94813
  1    31     -3.53540    0.67246
  1    32     -3.52044    0.54603


Fermi level: -3.56941

No gap
Writing to output.gpw (mode='')


Forces in eV/Ang:
  0 Li    0.00220    0.00008   -0.27713
  1 Li   -0.00525    0.00018   -0.27182
  2 Li    0.00330    0.00046   -0.27612
  3 Li   -0.00222   -0.00258   -0.27555
  4 Li    0.00262   -0.00042   -0.27461
  5 Li   -0.00097    0.00484   -0.27669
  6 Li   -0.00202    0.00238   -0.27582
  7 Li    0.00252    0.00031   -0.27391
  8 Li   -0.00095   -0.00539   -0.27479
  9 Li    0.00887   -0.00731    0.28097
 10 Li   -0.00355    0.00419    0.28279
 11 Li   -0.00520   -0.00510    0.27488
 12 Li    0.00676    0.00700    0.28535
 13 Li   -0.00309   -0.00728    0.28640
 14 Li   -0.00331    0.00570    0.28206
 15 Li   -0.00781    0.00060    0.28493
 16 Li    0.01778    0.00315    0.28748
 17 Li   -0.00848   -0.00056    0.27735
 18 Li    0.01095   -0.00250   -0.03072
 19 Li    0.00327   -0.00475   -0.00396
 20 Li   -0.00708   -0.00519   -0.00063
 21 Li    0.00881    0.00608   -0.02128
 22 Li   -0.00215   -0.00013   -0.01377
 23 Li   -0.00372    0.00366   -0.02497
 24 Li    0.00613   -0.00399   -0.01689
 25 Li    0.00400    0.00596   -0.00380
 26 Li   -0.00598    0.00269   -0.00986
 27 Li    0.00113    0.00372    0.00288
 28 Li    0.00282   -0.00108    0.01271
 29 Li    0.00857    0.00400    0.02692
 30 Li   -0.00426   -0.00589    0.00078
 31 Li    0.00208    0.00104    0.01102
 32 Li    0.00788   -0.00034    0.01186
 33 Li    0.00084    0.00020    0.00753
 34 Li   -0.00191    0.00002    0.01162
 35 Li   -0.00013    0.00092    0.01147
 36 O    -0.02598    0.06038    0.00524
 37 O     0.00180   -0.00161   -0.03929
 38 C    -0.00415   -0.01267    0.00202
 39 C    -0.03166    0.00329   -0.04063
 40 H    -0.00402   -0.05066    0.03207
 41 H     0.01176    0.02115    0.01881
 42 H     0.05516   -0.00261    0.00448
 43 H    -0.05555    0.02624    0.00238
 44 H    -0.01910   -0.00295   -0.03107
 45 H     0.00212   -0.03646    0.01144

System changes: positions 

Initializing position-dependent things.

Density initialized from wave functions
       .-----------------------.  
      /|                       |  
     / |                       |  
    /  |                       |  
   /   |                       |  
  /    |                       |  
 *     |                       |  
 |     |                       |  
 |     |               H       |  
 |     |             O         |  
 |     |               C  H    |  
 |     |           H HCH       |  
 |     Li                      |  
 |     |              O H      |  
 |     |     Li      Li      Li|  
 |     |  Li      Li      Li   |  
 | Li  |   Li      Li          |  
 |     |Li      Li      Li     |  
 |     | Li      Li            |  
 |   LLi     LLi     LLi       |  
 |     |  Li      Li      Li   |  
 | Li  |   Li      Li          |  
 |     |Li      Li      Li     |  
 Li    | Li      Li            |  
 |    Li      Li      Li       |  
 |     |                       |  
 |     |                       |  
 |     |                       |  
 |     |                       |  
 |     |                       |  
 |     |                       |  
 |     .-----------------------.  
 |    /                       /   
 |   /                       /    
 |  /                       /     
 | /                       /      
 |/                       /       
 *-----------------------*        

Positions:
   0 Li     1.617037    1.617037   10.000000    ( 0.0000,  0.0000,  0.0000)
   1 Li     4.851111    1.617037   10.000000    ( 0.0000,  0.0000,  0.0000)
   2 Li     8.085185    1.617037   10.000000    ( 0.0000,  0.0000,  0.0000)
   3 Li     1.617037    4.851111   10.000000    ( 0.0000,  0.0000,  0.0000)
   4 Li     4.851111    4.851111   10.000000    ( 0.0000,  0.0000,  0.0000)
   5 Li     8.085185    4.851111   10.000000    ( 0.0000,  0.0000,  0.0000)
   6 Li     1.617037    8.085185   10.000000    ( 0.0000,  0.0000,  0.0000)
   7 Li     4.851111    8.085185   10.000000    ( 0.0000,  0.0000,  0.0000)
   8 Li     8.085185    8.085185   10.000000    ( 0.0000,  0.0000,  0.0000)
   9 Li     0.000000    0.000000   11.617037    ( 0.0000,  0.0000,  0.0000)
  10 Li     3.234074    0.000000   11.617037    ( 0.0000,  0.0000,  0.0000)
  11 Li     6.468148    0.000000   11.617037    ( 0.0000,  0.0000,  0.0000)
  12 Li     0.000000    3.234074   11.617037    ( 0.0000,  0.0000,  0.0000)
  13 Li     3.234074    3.234074   11.617037    ( 0.0000,  0.0000,  0.0000)
  14 Li     6.468148    3.234074   11.617037    ( 0.0000,  0.0000,  0.0000)
  15 Li     0.000000    6.468148   11.617037    ( 0.0000,  0.0000,  0.0000)
  16 Li     3.234074    6.468148   11.617037    ( 0.0000,  0.0000,  0.0000)
  17 Li     6.468148    6.468148   11.617037    ( 0.0000,  0.0000,  0.0000)
  18 Li     1.616063    1.614485   13.500227    ( 0.0000,  0.0000,  0.0000)
  19 Li     4.856451    1.613703   13.501162    ( 0.0000,  0.0000,  0.0000)
  20 Li     8.083682    1.613478   13.465957    ( 0.0000,  0.0000,  0.0000)
  21 Li     1.623700    4.858960   13.485428    ( 0.0000,  0.0000,  0.0000)
  22 Li     4.851382    4.845952   13.501482    ( 0.0000,  0.0000,  0.0000)
  23 Li     8.080193    4.852173   13.496082    ( 0.0000,  0.0000,  0.0000)
  24 Li     1.621013    8.079776   13.489743    ( 0.0000,  0.0000,  0.0000)
  25 Li     4.855756    8.094094   13.505715    ( 0.0000,  0.0000,  0.0000)
  26 Li     8.078891    8.088344   13.496112    ( 0.0000,  0.0000,  0.0000)
  27 Li     0.023466   -0.015774   15.402202    ( 0.0000,  0.0000,  0.0000)
  28 Li     3.223038    0.011308   15.443583    ( 0.0000,  0.0000,  0.0000)
  29 Li     6.479579    0.006544   15.500093    ( 0.0000,  0.0000,  0.0000)
  30 Li     0.027872    3.253040   15.371664    ( 0.0000,  0.0000,  0.0000)
  31 Li     3.222701    3.225567   15.445873    ( 0.0000,  0.0000,  0.0000)
  32 Li     6.467483    3.239028   15.435337    ( 0.0000,  0.0000,  0.0000)
  33 Li    -0.006339    6.461951   15.435288    ( 0.0000,  0.0000,  0.0000)
  34 Li     3.234845    6.465499   15.435865    ( 0.0000,  0.0000,  0.0000)
  35 Li     6.473151    6.462730   15.431032    ( 0.0000,  0.0000,  0.0000)
  36 O      8.064888    1.630550   18.420036    ( 0.0000,  0.0000,  0.0000)
  37 O      7.821239    1.654627   21.336408    ( 0.0000,  0.0000,  0.0000)
  38 C      7.664056    2.798048   19.168609    ( 0.0000,  0.0000,  0.0000)
  39 C      8.238756    2.791555   20.580818    ( 0.0000,  0.0000,  0.0000)
  40 H      7.958493    3.718913   18.642979    ( 0.0000,  0.0000,  0.0000)
  41 H      6.572504    2.749617   19.206305    ( 0.0000,  0.0000,  0.0000)
  42 H      7.875056    3.672066   21.118153    ( 0.0000,  0.0000,  0.0000)
  43 H      9.340077    2.844690   20.534129    ( 0.0000,  0.0000,  0.0000)
  44 H      9.013292    1.703413   18.233464    ( 0.0000,  0.0000,  0.0000)
  45 H      7.977199    0.881035   20.778631    ( 0.0000,  0.0000,  0.0000)

Unit cell:
           periodic     x           y           z      points  spacing
  1. axis:    yes    9.702222    0.000000    0.000000    60     0.1617
  2. axis:    yes    0.000000    9.702222    0.000000    60     0.1617
  3. axis:    no     0.000000    0.000000   24.851111   156     0.1593

  Lengths:   9.702222   9.702222  24.851111
  Angles:   90.000000  90.000000  90.000000

Effective grid spacing dv^(1/3) = 0.1609

     iter     time        total  log10-change:
                         energy  eigst   dens
iter:   1 17:21:53  -290.756623  -2.45
iter:   2 17:25:56  -290.756564  -3.22  -2.72
iter:   3 17:29:54  -290.756487c -3.77  -2.91
iter:   4 17:33:12  -290.756398c -4.06  -3.03
Writing to output.gpw (mode='')

iter:   5 17:40:37  -290.756335c -3.52  -3.19
iter:   6 17:47:07  -290.756314c -4.38  -3.29
iter:   7 17:52:23  -290.756339c -3.93  -3.51
iter:   8 17:57:09  -290.756322c -4.75  -3.44
iter:   9 18:02:13  -290.756315c -4.58  -3.61
Writing to output.gpw (mode='')

iter:  10 18:06:20  -290.756314c -5.18  -3.83
iter:  11 18:10:29  -290.756311c -5.29  -3.94
iter:  12 18:16:17  -290.756312c -5.28  -3.99
iter:  13 18:20:38  -290.756309c -5.49  -4.09c
iter:  14 18:24:55  -290.756309c -5.78  -4.28c
Writing to output.gpw (mode='')

iter:  15 18:28:19  -290.756310c -6.12  -4.31c
iter:  16 18:31:15  -290.756310c -6.05  -4.39c
iter:  17 18:38:28  -290.756309c -6.81  -4.73c
iter:  18 18:46:11  -290.756309c -6.90  -4.85c
iter:  19 18:50:01  -290.756309c -7.21  -4.91c
Writing to output.gpw (mode='')

iter:  20 18:53:35  -290.756309c -7.33  -5.06c
iter:  21 19:00:58  -290.756310c -7.50c -5.14c

Converged after 21 iterations.

Dipole moment: (-0.368345, -2.876829, -0.196432) |e|*Ang

Energy contributions relative to reference atoms: (reference = -13512.263335)

Kinetic:       +138.175202
Potential:     -130.346572
External:        +0.000000
XC:            -299.115194
Entropy (-ST):   -0.152898
Local:           +0.606703
--------------------------
Free energy:   -290.832758
Extrapolated:  -290.756310

Dipole-layer corrected work functions: 3.380974, 3.758583 eV

Showing only first 2 kpts
 Kpt  Band  Eigenvalues  Occupancy
  0    29     -3.81696    1.98584
  0    30     -3.73669    1.93143
  0    31     -3.40306    0.06882
  0    32     -3.31014    0.01105

  1    29     -3.59241    1.22251
  1    30     -3.56480    0.95025
  1    31     -3.53579    0.67260
  1    32     -3.52050    0.54357


Fermi level: -3.56978

No gap
Writing to output.gpw (mode='')


Forces in eV/Ang:
  0 Li    0.00224    0.00006   -0.27731
  1 Li   -0.00528    0.00013   -0.27166
  2 Li    0.00326    0.00041   -0.27613
  3 Li   -0.00218   -0.00252   -0.27535
  4 Li    0.00258   -0.00046   -0.27471
  5 Li   -0.00105    0.00487   -0.27682
  6 Li   -0.00201    0.00234   -0.27585
  7 Li    0.00255    0.00040   -0.27399
  8 Li   -0.00106   -0.00538   -0.27471
  9 Li    0.00881   -0.00783    0.28126
 10 Li   -0.00260    0.00379    0.28243
 11 Li   -0.00576   -0.00528    0.27368
 12 Li    0.00670    0.00692    0.28611
 13 Li   -0.00212   -0.00774    0.28610
 14 Li   -0.00389    0.00534    0.28200
 15 Li   -0.00839    0.00124    0.28492
 16 Li    0.01983    0.00405    0.28685
 17 Li   -0.00956    0.00003    0.27738
 18 Li    0.01116   -0.00221   -0.02976
 19 Li    0.00331   -0.00443   -0.00388
 20 Li   -0.00689   -0.00496    0.00038
 21 Li    0.00794    0.00501   -0.01964
 22 Li   -0.00182    0.00023   -0.01341
 23 Li   -0.00327    0.00363   -0.02393
 24 Li    0.00591   -0.00332   -0.01602
 25 Li    0.00387    0.00541   -0.00402
 26 Li   -0.00550    0.00254   -0.00951
 27 Li    0.00077    0.00463    0.00373
 28 Li    0.00326   -0.00180    0.01219
 29 Li    0.00829    0.00371    0.02458
 30 Li   -0.00505   -0.00670    0.00226
 31 Li    0.00248    0.00153    0.00967
 32 Li    0.00817   -0.00004    0.01185
 33 Li    0.00114    0.00026    0.00634
 34 Li   -0.00179    0.00026    0.01147
 35 Li   -0.00050    0.00099    0.01157
 36 O    -0.03958    0.02421   -0.00617
 37 O     0.01293    0.03036   -0.06669
 38 C     0.01092   -0.00799    0.03254
 39 C    -0.02701    0.00865   -0.04492
 40 H    -0.01632   -0.04315    0.03654
 41 H     0.03982    0.01583    0.00894
 42 H     0.05488   -0.02301    0.01691
 43 H    -0.08420    0.02224    0.00509
 44 H    -0.01480    0.00454   -0.02715
 45 H    -0.00301   -0.03375    0.01862

System changes: positions 

Initializing position-dependent things.

Density initialized from wave functions
       .-----------------------.  
      /|                       |  
     / |                       |  
    /  |                       |  
   /   |                       |  
  /    |                       |  
 *     |                       |  
 |     |                       |  
 |     |               H       |  
 |     |             O         |  
 |     |               C  H    |  
 |     |           H HCH       |  
 |     Li                      |  
 |     |              O H      |  
 |     |     Li      Li      Li|  
 |     |  Li      Li      Li   |  
 | Li  |   Li      Li          |  
 |     |Li      Li      Li     |  
 |     | Li      Li            |  
 |   LLi     LLi     LLi       |  
 |     |  Li      Li      Li   |  
 | Li  |   Li      Li          |  
 |     |Li      Li      Li     |  
 Li    | Li      Li            |  
 |    Li      Li      Li       |  
 |     |                       |  
 |     |                       |  
 |     |                       |  
 |     |                       |  
 |     |                       |  
 |     |                       |  
 |     .-----------------------.  
 |    /                       /   
 |   /                       /    
 |  /                       /     
 | /                       /      
 |/                       /       
 *-----------------------*        

Positions:
   0 Li     1.617037    1.617037   10.000000    ( 0.0000,  0.0000,  0.0000)
   1 Li     4.851111    1.617037   10.000000    ( 0.0000,  0.0000,  0.0000)
   2 Li     8.085185    1.617037   10.000000    ( 0.0000,  0.0000,  0.0000)
   3 Li     1.617037    4.851111   10.000000    ( 0.0000,  0.0000,  0.0000)
   4 Li     4.851111    4.851111   10.000000    ( 0.0000,  0.0000,  0.0000)
   5 Li     8.085185    4.851111   10.000000    ( 0.0000,  0.0000,  0.0000)
   6 Li     1.617037    8.085185   10.000000    ( 0.0000,  0.0000,  0.0000)
   7 Li     4.851111    8.085185   10.000000    ( 0.0000,  0.0000,  0.0000)
   8 Li     8.085185    8.085185   10.000000    ( 0.0000,  0.0000,  0.0000)
   9 Li     0.000000    0.000000   11.617037    ( 0.0000,  0.0000,  0.0000)
  10 Li     3.234074    0.000000   11.617037    ( 0.0000,  0.0000,  0.0000)
  11 Li     6.468148    0.000000   11.617037    ( 0.0000,  0.0000,  0.0000)
  12 Li     0.000000    3.234074   11.617037    ( 0.0000,  0.0000,  0.0000)
  13 Li     3.234074    3.234074   11.617037    ( 0.0000,  0.0000,  0.0000)
  14 Li     6.468148    3.234074   11.617037    ( 0.0000,  0.0000,  0.0000)
  15 Li     0.000000    6.468148   11.617037    ( 0.0000,  0.0000,  0.0000)
  16 Li     3.234074    6.468148   11.617037    ( 0.0000,  0.0000,  0.0000)
  17 Li     6.468148    6.468148   11.617037    ( 0.0000,  0.0000,  0.0000)
  18 Li     1.618039    1.613726   13.496683    ( 0.0000,  0.0000,  0.0000)
  19 Li     4.857529    1.612426   13.503066    ( 0.0000,  0.0000,  0.0000)
  20 Li     8.082149    1.612105   13.465278    ( 0.0000,  0.0000,  0.0000)
  21 Li     1.626148    4.861029   13.482278    ( 0.0000,  0.0000,  0.0000)
  22 Li     4.850917    4.845406   13.501438    ( 0.0000,  0.0000,  0.0000)
  23 Li     8.078961    4.852981   13.493236    ( 0.0000,  0.0000,  0.0000)
  24 Li     1.622581    8.078399   13.487978    ( 0.0000,  0.0000,  0.0000)
  25 Li     4.856961    8.096135   13.508113    ( 0.0000,  0.0000,  0.0000)
  26 Li     8.077093    8.089175   13.496390    ( 0.0000,  0.0000,  0.0000)
  27 Li     0.025855   -0.016667   15.398643    ( 0.0000,  0.0000,  0.0000)
  28 Li     3.222517    0.012247   15.445984    ( 0.0000,  0.0000,  0.0000)
  29 Li     6.482300    0.007949   15.510503    ( 0.0000,  0.0000,  0.0000)
  30 Li     0.029663    3.253693   15.365076    ( 0.0000,  0.0000,  0.0000)
  31 Li     3.222023    3.224915   15.448314    ( 0.0000,  0.0000,  0.0000)
  32 Li     6.468914    3.239315   15.436795    ( 0.0000,  0.0000,  0.0000)
  33 Li    -0.006786    6.461457   15.436091    ( 0.0000,  0.0000,  0.0000)
  34 Li     3.234505    6.465222   15.437294    ( 0.0000,  0.0000,  0.0000)
  35 Li     6.473653    6.462439   15.431969    ( 0.0000,  0.0000,  0.0000)
  36 O      8.060123    1.635083   18.416601    ( 0.0000,  0.0000,  0.0000)
  37 O      7.819130    1.651428   21.335585    ( 0.0000,  0.0000,  0.0000)
  38 C      7.660373    2.799222   19.168241    ( 0.0000,  0.0000,  0.0000)
  39 C      8.237333    2.788993   20.579429    ( 0.0000,  0.0000,  0.0000)
  40 H      7.958949    3.719074   18.644791    ( 0.0000,  0.0000,  0.0000)
  41 H      6.568126    2.755059   19.208192    ( 0.0000,  0.0000,  0.0000)
  42 H      7.877827    3.672280   21.115132    ( 0.0000,  0.0000,  0.0000)
  43 H      9.338980    2.840432   20.531791    ( 0.0000,  0.0000,  0.0000)
  44 H      9.007285    1.708232   18.225191    ( 0.0000,  0.0000,  0.0000)
  45 H      7.981572    0.877566   20.779502    ( 0.0000,  0.0000,  0.0000)

Unit cell:
           periodic     x           y           z      points  spacing
  1. axis:    yes    9.702222    0.000000    0.000000    60     0.1617
  2. axis:    yes    0.000000    9.702222    0.000000    60     0.1617
  3. axis:    no     0.000000    0.000000   24.851111   156     0.1593

  Lengths:   9.702222   9.702222  24.851111
  Angles:   90.000000  90.000000  90.000000

Effective grid spacing dv^(1/3) = 0.1609

     iter     time        total  log10-change:
                         energy  eigst   dens
iter:   1 19:09:39  -290.758708  -2.04
iter:   2 19:18:06  -290.758088  -2.79  -2.42
iter:   3 19:24:45  -290.757813c -3.35  -2.69
iter:   4 19:33:56  -290.757512c -3.58  -2.83
Writing to output.gpw (mode='')

iter:   5 19:37:41  -290.757453c -3.19  -3.06
iter:   6 19:40:55  -290.757404c -4.02  -3.07
iter:   7 19:45:19  -290.757462c -3.65  -3.37
