
  ___ ___ ___ _ _ _  
 |   |   |_  | | | | 
 | | | | | . | | | | 
 |__ |  _|___|_____|  22.8.0
 |___|_|             

User:   vazumah@c18.hercules
Date:   Tue Feb  7 07:19:05 2023
Arch:   x86_64
Pid:    31707
CWD:    /home/vazumah/Python_projects/LiNRR/Li_adsorb_studies/proton_donors/ethanol_N2/Li_BCC_100/adsorbates/CH3CH2OH_y/bridge/8.085_1.617/N2_y
Python: 3.10.8
gpaw:   /home/vazumah/.conda/envs/GPAW/lib/python3.10/site-packages/gpaw
_gpaw:  /home/vazumah/.conda/envs/GPAW/lib/python3.10/site-packages/
        _gpaw.cpython-310-x86_64-linux-gnu.so
ase:    /home/vazumah/.conda/envs/GPAW/lib/python3.10/site-packages/ase (version 3.22.1)
numpy:  /home/vazumah/.conda/envs/GPAW/lib/python3.10/site-packages/numpy (version 1.24.1)
scipy:  /home/vazumah/.conda/envs/GPAW/lib/python3.10/site-packages/scipy (version 1.10.0)
libxc:  5.2.3
units:  Angstrom and eV
cores: 24
OpenMP: True
OMP_NUM_THREADS: 1

Input parameters:
  h: 0.16
  kpts: {size: [4, 4, 1]}
  occupations: {name: fermi-dirac,
                width: 0.05}
  poissonsolver: {dipolelayer: xy}
  xc: BEEF-vdW

System changes: positions, numbers, cell, pbc, initial_charges, initial_magmoms 

Initialize ...

species:
  Li:
    name: Lithium
    id: 830b4218f175192f93f959cfc0aad614
    Z: 3.0
    valence: 1
    core: 2
    charge: 0.0
    file: /home/vazumah/.conda/envs/GPAW/share/gpaw/Li.PBE.gz
    compensation charges: {type: gauss,
                           rc: 0.33,
                           lmax: 2}
    cutoffs: {filter: 1.91,
              core: 2.55}
    valence states:
      #              energy  rcut
      - 2s(1.00)    -2.874   1.058
      - 2p(0.00)    -1.090   1.058
      -  s          24.337   1.058
  
    # Using partial waves for Li as LCAO basis

  O:
    name: Oxygen
    id: 32ecd46bf208036f09c70b0ec9a88b78
    Z: 8.0
    valence: 6
    core: 2
    charge: 0.0
    file: /home/vazumah/.conda/envs/GPAW/share/gpaw/O.PBE.gz
    compensation charges: {type: gauss,
                           rc: 0.21,
                           lmax: 2}
    cutoffs: {filter: 1.17,
              core: 0.83}
    valence states:
      #              energy  rcut
      - 2s(2.00)   -23.961   0.688
      - 2p(4.00)    -9.029   0.598
      -  s           3.251   0.688
      -  p          18.182   0.598
      -  d           0.000   0.619
  
    # Using partial waves for O as LCAO basis

  C:
    name: Carbon
    id: 4aa54d4b901d75f77cc0ea3eec22967b
    Z: 6.0
    valence: 4
    core: 2
    charge: 0.0
    file: /home/vazumah/.conda/envs/GPAW/share/gpaw/C.PBE.gz
    compensation charges: {type: gauss,
                           rc: 0.20,
                           lmax: 2}
    cutoffs: {filter: 1.14,
              core: 1.14}
    valence states:
      #              energy  rcut
      - 2s(2.00)   -13.751   0.635
      - 2p(2.00)    -5.284   0.635
      -  s          13.461   0.635
      -  p          21.927   0.635
      -  d           0.000   0.635
  
    # Using partial waves for C as LCAO basis

  H:
    name: Hydrogen
    id: d65de229564ff8ea4db303e23b6d1ecf
    Z: 1.0
    valence: 1
    core: 0
    charge: 0.0
    file: /home/vazumah/.conda/envs/GPAW/share/gpaw/H.PBE.gz
    compensation charges: {type: gauss,
                           rc: 0.15,
                           lmax: 2}
    cutoffs: {filter: 0.85,
              core: 0.53}
    valence states:
      #              energy  rcut
      - 1s(1.00)    -6.494   0.476
      -  s          20.717   0.476
      -  p           0.000   0.476
  
    # Using partial waves for H as LCAO basis

  N:
    name: Nitrogen
    id: f7500608b86eaa90eef8b1d9a670dc53
    Z: 7.0
    valence: 5
    core: 2
    charge: 0.0
    file: /home/vazumah/.conda/envs/GPAW/share/gpaw/N.PBE.gz
    compensation charges: {type: gauss,
                           rc: 0.18,
                           lmax: 2}
    cutoffs: {filter: 1.11,
              core: 0.96}
    valence states:
      #              energy  rcut
      - 2s(2.00)   -18.583   0.603
      - 2p(3.00)    -7.089   0.529
      -  s           8.629   0.603
      -  p          20.123   0.529
      -  d           0.000   0.577
  
    # Using partial waves for N as LCAO basis

Reference energy: -14434.854043  # eV

Spin-paired calculation

Convergence criteria:
 Maximum [total energy] change in last 3 cyles: 0.0005 eV / electron
 Maximum integral of absolute [dens]ity change: 0.0001 electrons / valence electron
 Maximum integral of absolute [eigenst]ate change: 4e-08 eV^2 / valence electron
 Maximum number of scf [iter]ations: 333
 (Square brackets indicate name in SCF output, whereas a 'c' in
 the SCF output indicates the quantity has converged.)

Symmetries present (total): 1

  ( 1  0  0)
  ( 0  1  0)
  ( 0  0  1)

16 k-points: 4 x 4 x 1 Monkhorst-Pack grid
8 k-points in the irreducible part of the Brillouin zone
       k-points in crystal coordinates                weights
   0:     0.12500000   -0.37500000    0.00000000          2/16
   1:     0.12500000   -0.12500000    0.00000000          2/16
   2:     0.12500000    0.12500000    0.00000000          2/16
   3:     0.12500000    0.37500000    0.00000000          2/16
   4:     0.37500000   -0.37500000    0.00000000          2/16
   5:     0.37500000   -0.12500000    0.00000000          2/16
   6:     0.37500000    0.12500000    0.00000000          2/16
   7:     0.37500000    0.37500000    0.00000000          2/16

Wave functions: Uniform real-space grid
  Kinetic energy operator: 6*3+1=19 point O(h^6) finite-difference Laplacian
  ScaLapack parameters: grid=1x1, blocksize=None
  Wavefunction extrapolation:
    Improved wavefunction reuse through dual PAW basis 

Occupation numbers: Fermi-Dirac:
  width: 0.0500  # eV
 

Eigensolver
   Davidson(niter=2) 

Densities:
  Coarse grid: 60*60*156 grid
  Fine grid: 120*120*312 grid
  Total Charge: 0.000000 

Density mixing:
  Method: separate
  Backend: pulay
  Linear mixing parameter: 0.05
  old densities: 5
  Damping of long wavelength oscillations: 50 

Hamiltonian:
  XC and Coulomb potentials evaluated on a 120*120*312 grid
  Using the BEEF-vdW Exchange-Correlation functional
  Interpolation: tri-quintic (5. degree polynomial)
  Poisson solver: FastPoissonSolver using
    Stencil: 6*3+1=19 point O(h^6) finite-difference Laplacian
    FFT axes: [0, 1]
    FST axes: [2]

Dipole correction along z-axis 

XC parameters: BEEF-vdW with 2 nearest neighbor stencil

Memory estimate:
  Process memory now: 219.19 MiB
  Calculator: 411.72 MiB
    Density: 118.00 MiB
      Arrays: 36.75 MiB
      Localized functions: 67.24 MiB
      Mixer: 14.01 MiB
    Hamiltonian: 29.35 MiB
      Arrays: 24.03 MiB
      XC: 0.00 MiB
      Poisson: 0.00 MiB
      vbar: 5.32 MiB
    Wavefunctions: 264.37 MiB
      Arrays psit_nG: 123.27 MiB
      Eigensolver: 137.57 MiB
      Projections: 0.06 MiB
      Projectors: 3.47 MiB

Total number of cores used: 24
Parallelization over k-points: 8
Domain decomposition: 1 x 1 x 3

Number of atoms: 47
Number of atomic orbitals: 170
Number of bands in calculation: 44
Number of valence electrons: 66
Bands to converge: occupied

... initialized

Initializing position-dependent things.

Density initialized from atomic densities
Creating initial wave functions:
  44 bands from LCAO basis set

       .-----------------------.  
      /|                       |  
     / |                       |  
    /  |                       |  
   /   |                       |  
  /    |                       |  
 *     |                       |  
 |     |                       |  
 |     |                       |  
 |   H |              H        |  
 |     |              O H      |  
 |  CHH|                C      |  
 |     |                H      |  
 |     |              N        |  
 |   Li|     Li      Ni        |  
 |     |  Li      Li      Li   |  
 | Li  |   Li      Li          |  
 |     |Li      Li      Li     |  
 Li    | Li      Li            |  
 |   LLi     LLi     LLi       |  
 |     |  Li      Li      Li   |  
 | Li  |   Li      Li          |  
 |     |Li      Li      Li     |  
 Li    | Li      Li            |  
 |    Li      Li      Li       |  
 |     |                       |  
 |     |                       |  
 |     |                       |  
 |     |                       |  
 |     |                       |  
 |     |                       |  
 |     .-----------------------.  
 |    /                       /   
 |   /                       /    
 |  /                       /     
 | /                       /      
 |/                       /       
 *-----------------------*        

Positions:
   0 Li     1.617037    1.617037   10.000000    ( 0.0000,  0.0000,  0.0000)
   1 Li     4.851111    1.617037   10.000000    ( 0.0000,  0.0000,  0.0000)
   2 Li     8.085185    1.617037   10.000000    ( 0.0000,  0.0000,  0.0000)
   3 Li     1.617037    4.851111   10.000000    ( 0.0000,  0.0000,  0.0000)
   4 Li     4.851111    4.851111   10.000000    ( 0.0000,  0.0000,  0.0000)
   5 Li     8.085185    4.851111   10.000000    ( 0.0000,  0.0000,  0.0000)
   6 Li     1.617037    8.085185   10.000000    ( 0.0000,  0.0000,  0.0000)
   7 Li     4.851111    8.085185   10.000000    ( 0.0000,  0.0000,  0.0000)
   8 Li     8.085185    8.085185   10.000000    ( 0.0000,  0.0000,  0.0000)
   9 Li     0.000000    0.000000   11.617037    ( 0.0000,  0.0000,  0.0000)
  10 Li     3.234074    0.000000   11.617037    ( 0.0000,  0.0000,  0.0000)
  11 Li     6.468148    0.000000   11.617037    ( 0.0000,  0.0000,  0.0000)
  12 Li     0.000000    3.234074   11.617037    ( 0.0000,  0.0000,  0.0000)
  13 Li     3.234074    3.234074   11.617037    ( 0.0000,  0.0000,  0.0000)
  14 Li     6.468148    3.234074   11.617037    ( 0.0000,  0.0000,  0.0000)
  15 Li     0.000000    6.468148   11.617037    ( 0.0000,  0.0000,  0.0000)
  16 Li     3.234074    6.468148   11.617037    ( 0.0000,  0.0000,  0.0000)
  17 Li     6.468148    6.468148   11.617037    ( 0.0000,  0.0000,  0.0000)
  18 Li     1.617038    1.617038   13.469728    ( 0.0000,  0.0000,  0.0000)
  19 Li     4.851111    1.617038   13.469729    ( 0.0000,  0.0000,  0.0000)
  20 Li     8.085184    1.617038   13.469728    ( 0.0000,  0.0000,  0.0000)
  21 Li     1.617038    4.851111   13.469729    ( 0.0000,  0.0000,  0.0000)
  22 Li     4.851111    4.851111   13.469730    ( 0.0000,  0.0000,  0.0000)
  23 Li     8.085184    4.851111   13.469729    ( 0.0000,  0.0000,  0.0000)
  24 Li     1.617038    8.085184   13.469728    ( 0.0000,  0.0000,  0.0000)
  25 Li     4.851111    8.085184   13.469729    ( 0.0000,  0.0000,  0.0000)
  26 Li     8.085184    8.085184   13.469728    ( 0.0000,  0.0000,  0.0000)
  27 Li    -0.000000   -0.000000   15.445939    ( 0.0000,  0.0000,  0.0000)
  28 Li     3.234074    0.000000   15.445939    ( 0.0000,  0.0000,  0.0000)
  29 Li     6.468148    0.000000   15.445939    ( 0.0000,  0.0000,  0.0000)
  30 Li     0.000000    3.234074   15.445939    ( 0.0000,  0.0000,  0.0000)
  31 Li     3.234076    3.234076   15.445938    ( 0.0000,  0.0000,  0.0000)
  32 Li     6.468146    3.234076   15.445938    ( 0.0000,  0.0000,  0.0000)
  33 Li     0.000000    6.468148   15.445939    ( 0.0000,  0.0000,  0.0000)
  34 Li     3.234076    6.468146   15.445938    ( 0.0000,  0.0000,  0.0000)
  35 Li     6.468146    6.468146   15.445938    ( 0.0000,  0.0000,  0.0000)
  36 O      8.085185    1.617037   20.445939    ( 0.0000,  0.0000,  0.0000)
  37 C      9.267593    0.800279   20.450238    ( 0.0000,  0.0000,  0.0000)
  38 C     10.551807    1.619898   20.435704    ( 0.0000,  0.0000,  0.0000)
  39 H      9.258969    0.116744   21.310398    ( 0.0000,  0.0000,  0.0000)
  40 H      9.192204    0.190554   19.547442    ( 0.0000,  0.0000,  0.0000)
  41 H     11.428734    0.965951   20.420269    ( 0.0000,  0.0000,  0.0000)
  42 H     10.586519    2.268921   19.558886    ( 0.0000,  0.0000,  0.0000)
  43 H     10.621995    2.248385   21.328265    ( 0.0000,  0.0000,  0.0000)
  44 H      8.124352    2.200014   21.214164    ( 0.0000,  0.0000,  0.0000)
  45 N      8.085000    1.617000   18.445939    ( 0.0000,  0.0000,  0.0000)
  46 N      8.085000    0.520378   18.445939    ( 0.0000,  0.0000,  0.0000)

Unit cell:
           periodic     x           y           z      points  spacing
  1. axis:    yes    9.702222    0.000000    0.000000    60     0.1617
  2. axis:    yes    0.000000    9.702222    0.000000    60     0.1617
  3. axis:    no     0.000000    0.000000   24.851111   156     0.1593

  Lengths:   9.702222   9.702222  24.851111
  Angles:   90.000000  90.000000  90.000000

Effective grid spacing dv^(1/3) = 0.1609

     iter     time        total  log10-change:
                         energy  eigst   dens
iter:   1 07:22:30  -646.638650
iter:   2 07:25:02   -14.358779  +2.61  +0.03
iter:   3 07:27:39   109.307621  +3.20  -0.13
iter:   4 07:30:10  -148.997479  +3.27  -0.17
Writing to output.gpw (mode='')

iter:   5 07:32:46  -220.705016  +2.96  -0.17
iter:   6 07:35:17  -286.632100  +2.66  -0.44
iter:   7 07:37:58  -322.784130  +2.35  -0.52
iter:   8 07:40:31  -349.683612  +2.14  -0.52
iter:   9 07:43:04  -451.004513  +2.54  -0.44
Writing to output.gpw (mode='')

iter:  10 07:45:46  -335.273750  +1.82  -0.33
iter:  11 07:48:22  -316.296636  +1.41  -0.54
iter:  12 07:51:01  -315.454516  +1.17  -0.70
iter:  13 07:53:28  -314.879864  +1.40  -0.78
iter:  14 07:55:59  -313.940614  +0.96  -0.71
Writing to output.gpw (mode='')

iter:  15 07:58:35  -330.704312  +1.30  -0.72
iter:  16 08:01:15  -310.748875  +0.74  -0.52
iter:  17 08:03:53  -308.855495  +0.95  -0.80
iter:  18 08:06:21  -308.836296  +0.68  -0.88
iter:  19 08:08:58  -307.488951  +0.02  -0.86
Writing to output.gpw (mode='')

iter:  20 08:11:38  -306.941021  +0.38  -1.07
iter:  21 08:14:18  -308.874083  +0.89  -1.21
iter:  22 08:16:51  -307.536133  -0.10  -0.92
iter:  23 08:19:21  -306.897269  +0.60  -1.04
iter:  24 08:21:49  -306.593676  -0.44  -1.37
Writing to output.gpw (mode='')

iter:  25 08:24:24  -306.603040  -0.82  -1.66
iter:  26 08:27:08  -306.601893c -0.82  -1.70
iter:  27 08:29:40  -306.672099  -0.32  -1.78
iter:  28 08:32:06  -306.627173  -0.76  -1.67
iter:  29 08:34:34  -306.620490  -1.48  -1.85
Writing to output.gpw (mode='')

iter:  30 08:37:10  -306.632500c -1.16  -1.94
iter:  31 08:39:46  -306.631246c -1.09  -2.00
iter:  32 08:42:23  -306.626277c -1.64  -2.06
iter:  33 08:44:53  -306.629395c -1.72  -2.59
iter:  34 08:47:27  -306.631220c -1.94  -2.71
Writing to output.gpw (mode='')

iter:  35 08:50:15  -306.632856c -1.98  -2.72
iter:  36 08:52:47  -306.634740c -1.89  -2.72
iter:  37 08:55:18  -306.636425c -2.02  -2.78
iter:  38 08:57:47  -306.637567c -2.26  -2.91
iter:  39 09:00:15  -306.638544c -2.34  -3.03
Writing to output.gpw (mode='')

iter:  40 09:02:42  -306.639397c -2.39  -3.11
iter:  41 09:05:09  -306.640416c -2.18  -3.24
iter:  42 09:07:47  -306.640981c -2.59  -3.29
iter:  43 09:10:16  -306.641534c -2.51  -3.29
iter:  44 09:12:44  -306.641975c -2.76  -3.26
Writing to output.gpw (mode='')

iter:  45 09:15:15  -306.642319c -2.86  -3.19
iter:  46 09:17:48  -306.642644c -2.88  -3.31
iter:  47 09:20:18  -306.642906c -2.94  -3.38
iter:  48 09:22:55  -306.643185c -2.91  -3.41
iter:  49 09:25:25  -306.643469c -2.88  -3.54
Writing to output.gpw (mode='')

iter:  50 09:27:58  -306.643654c -3.16  -3.54
iter:  51 09:30:33  -306.643809c -3.13  -3.43
iter:  52 09:33:09  -306.643928c -3.24  -3.43
iter:  53 09:35:38  -306.644047c -3.35  -3.56
iter:  54 09:38:07  -306.644165c -3.30  -3.50
Writing to output.gpw (mode='')

iter:  55 09:40:36  -306.644276c -3.24  -3.58
iter:  56 09:43:15  -306.644382c -3.32  -3.64
iter:  57 09:45:53  -306.644455c -3.55  -3.68
iter:  58 09:48:20  -306.644542c -3.45  -3.60
iter:  59 09:50:56  -306.644595c -3.71  -3.69
Writing to output.gpw (mode='')

iter:  60 09:53:30  -306.644644c -3.63  -3.70
iter:  61 09:55:57  -306.644684c -3.68  -3.74
iter:  62 09:58:23  -306.644730c -3.68  -3.79
iter:  63 10:00:58  -306.644761c -3.85  -3.93
iter:  64 10:03:29  -306.644805c -3.70  -4.00
Writing to output.gpw (mode='')

iter:  65 10:06:03  -306.644822c -4.04  -3.97
iter:  66 10:08:37  -306.644849c -3.88  -4.11c
iter:  67 10:11:07  -306.644866c -4.04  -4.22c
iter:  68 10:13:47  -306.644890c -3.86  -4.28c
iter:  69 10:16:28  -306.644902c -4.22  -4.23c
Writing to output.gpw (mode='')

iter:  70 10:19:05  -306.644913c -4.19  -4.34c
iter:  71 10:21:36  -306.644927c -4.16  -4.40c
iter:  72 10:24:15  -306.644938c -4.32  -4.59c
iter:  73 10:26:55  -306.644945c -4.42  -4.51c
iter:  74 10:29:26  -306.644951c -4.66  -4.58c
Writing to output.gpw (mode='')

iter:  75 10:32:00  -306.644959c -4.47  -4.53c
iter:  76 10:34:35  -306.644964c -4.59  -4.47c
iter:  77 10:37:05  -306.644968c -4.67  -4.46c
iter:  78 10:39:34  -306.644971c -4.74  -4.42c
iter:  79 10:42:11  -306.644976c -4.68  -4.49c
Writing to output.gpw (mode='')

iter:  80 10:44:45  -306.644978c -4.92  -4.43c
iter:  81 10:47:15  -306.644980c -4.82  -4.55c
iter:  82 10:49:46  -306.644982c -4.88  -4.62c
iter:  83 10:52:18  -306.644984c -4.96  -4.70c
iter:  84 10:54:51  -306.644986c -5.00  -4.74c
Writing to output.gpw (mode='')

iter:  85 10:57:30  -306.644988c -5.05  -4.90c
iter:  86 11:00:08  -306.644989c -5.17  -4.95c
iter:  87 11:02:50  -306.644991c -5.14  -4.99c
iter:  88 11:05:32  -306.644992c -5.11  -5.04c
iter:  89 11:08:03  -306.644993c -5.14  -5.14c
Writing to output.gpw (mode='')

iter:  90 11:10:45  -306.644994c -5.04  -5.25c
iter:  91 11:13:27  -306.644995c -5.43  -5.32c
iter:  92 11:16:09  -306.644996c -5.37  -5.49c
iter:  93 11:18:35  -306.644996c -5.54  -5.62c
iter:  94 11:21:15  -306.644997c -5.53  -5.64c
Writing to output.gpw (mode='')

iter:  95 11:24:02  -306.644997c -5.71  -5.64c
iter:  96 11:26:35  -306.644998c -5.69  -5.57c
iter:  97 11:29:24  -306.644998c -5.69  -5.68c
iter:  98 11:32:02  -306.644998c -5.72  -5.70c
iter:  99 11:34:38  -306.644999c -5.70  -5.66c
Writing to output.gpw (mode='')

iter: 100 11:37:14  -306.644999c -5.74  -5.64c
iter: 101 11:39:53  -306.644999c -5.90  -5.54c
iter: 102 11:42:25  -306.644999c -5.99  -5.58c
iter: 103 11:44:58  -306.645000c -6.05  -5.42c
iter: 104 11:47:26  -306.645000c -6.11  -5.53c
Writing to output.gpw (mode='')

iter: 105 11:50:01  -306.645000c -6.00  -5.51c
iter: 106 11:52:33  -306.645000c -6.11  -5.47c
iter: 107 11:55:06  -306.645000c -6.21  -5.45c
iter: 108 11:57:40  -306.645000c -6.26  -5.42c
iter: 109 12:00:18  -306.645000c -6.26  -5.32c
Writing to output.gpw (mode='')

iter: 110 12:02:57  -306.645000c -6.21  -5.39c
iter: 111 12:05:22  -306.645000c -6.24  -5.41c
iter: 112 12:07:51  -306.645001c -6.28  -5.39c
iter: 113 12:10:29  -306.645001c -6.40  -5.40c
iter: 114 12:13:06  -306.645001c -6.36  -5.35c
Writing to output.gpw (mode='')

iter: 115 12:15:41  -306.645001c -6.41  -5.33c
iter: 116 12:18:21  -306.645001c -6.53  -5.33c
iter: 117 12:20:55  -306.645001c -6.44  -5.36c
iter: 118 12:23:31  -306.645001c -6.43  -5.31c
iter: 119 12:26:08  -306.645000c -6.24  -5.31c
Writing to output.gpw (mode='')

iter: 120 12:28:52  -306.645001c -6.35  -5.47c
iter: 121 12:31:28  -306.645001c -6.72  -5.57c
iter: 122 12:34:00  -306.645001c -6.62  -5.52c
iter: 123 12:36:38  -306.645001c -6.58  -5.65c
iter: 124 12:39:08  -306.645001c -6.63  -5.73c
Writing to output.gpw (mode='')

iter: 125 12:41:52  -306.645001c -6.82  -5.92c
iter: 126 12:44:20  -306.645001c -6.79  -5.96c
iter: 127 12:47:07  -306.645001c -6.89  -6.07c
iter: 128 12:49:40  -306.645001c -6.84  -6.12c
iter: 129 12:52:22  -306.645001c -6.91  -6.24c
Writing to output.gpw (mode='')

iter: 130 12:54:56  -306.645001c -6.98  -6.30c
iter: 131 12:57:33  -306.645001c -6.95  -6.35c
iter: 132 13:00:16  -306.645001c -7.14  -6.41c
iter: 133 13:03:01  -306.645001c -7.08  -6.53c
iter: 134 13:05:43  -306.645001c -6.97  -6.62c
Writing to output.gpw (mode='')

iter: 135 13:08:22  -306.645001c -7.30  -6.70c
iter: 136 13:11:03  -306.645001c -7.32  -6.72c
iter: 137 13:13:46  -306.645001c -7.41c -6.68c

Converged after 137 iterations.

Dipole moment: (6.677384, -15.006922, 0.423806) |e|*Ang

Energy contributions relative to reference atoms: (reference = -14434.854043)

Kinetic:       +162.563131
Potential:     -154.341757
External:        +0.000000
XC:            -315.534653
Entropy (-ST):   -0.153457
Local:           +0.745006
--------------------------
Free energy:   -306.721729
Extrapolated:  -306.645001

Dipole-layer corrected work functions: 3.389920, 2.575220 eV

Showing only first 2 kpts
 Kpt  Band  Eigenvalues  Occupancy
  0    31     -3.23501    1.98725
  0    32     -3.15243    1.93524
  0    33     -2.81598    0.06900
  0    34     -2.72866    0.01239

  1    31     -3.00422    1.21319
  1    32     -2.97764    0.95070
  1    33     -2.94224    0.61725
  1    34     -2.93555    0.56161


Fermi level: -2.98257

No gap
Writing to output.gpw (mode='')


Forces in eV/Ang:
  0 Li    0.00457   -0.00033   -0.27258
  1 Li   -0.00487    0.00005   -0.27256
  2 Li    0.00030    0.00195   -0.27124
  3 Li   -0.00261   -0.00221   -0.27472
  4 Li    0.00312   -0.00190   -0.27447
  5 Li   -0.00044    0.00415   -0.27316
  6 Li   -0.00138    0.00219   -0.27297
  7 Li    0.00142    0.00141   -0.27284
  8 Li   -0.00003   -0.00581   -0.27187
  9 Li    0.00002   -0.00102    0.26101
 10 Li   -0.00041    0.00205    0.25608
 11 Li    0.00049   -0.00161    0.26194
 12 Li    0.00187    0.00321    0.25733
 13 Li   -0.00000   -0.00585    0.25972
 14 Li   -0.00192    0.00395    0.25700
 15 Li   -0.00137   -0.00275    0.25690
 16 Li   -0.00029    0.00428    0.26901
 17 Li    0.00162   -0.00275    0.25525
 18 Li   -0.00714   -0.00135    0.04946
 19 Li    0.00751   -0.00153    0.04415
 20 Li   -0.00044    0.00254    0.00565
 21 Li    0.00072   -0.00070    0.03415
 22 Li   -0.00031   -0.00058    0.03526
 23 Li   -0.00047   -0.00337    0.04122
 24 Li   -0.00431    0.00261    0.04155
 25 Li    0.00445    0.00269    0.03923
 26 Li   -0.00020    0.00075    0.03732
 27 Li    0.03264   -0.02637   -0.05873
 28 Li   -0.00593    0.00611   -0.01683
 29 Li   -0.02820   -0.02623   -0.04322
 30 Li    0.02189    0.02698   -0.03972
 31 Li   -0.00438   -0.00939   -0.01655
 32 Li   -0.01689    0.02566   -0.03062
 33 Li   -0.00014    0.00029   -0.02250
 34 Li   -0.00225    0.00299   -0.01709
 35 Li    0.00250   -0.00107   -0.02460
 36 O     0.26571    0.15248    2.79031
 37 C     1.13722   -0.35566    1.71448
 38 C    -0.04625    0.04041    0.05402
 39 H    -0.09335    0.09266   -0.01226
 40 H     0.78907   -0.26105    1.37316
 41 H    -0.07466   -0.00916   -0.02718
 42 H     0.03540    0.02661   -0.03980
 43 H     0.03104    0.03772   -0.01636
 44 H     0.09363    0.08663    0.16678
 45 N    -0.84331    1.38739   -3.05860
 46 N    -1.30686   -1.22265   -2.92623

System changes: positions 

Initializing position-dependent things.

Density initialized from wave functions
       .-----------------------.  
      /|                       |  
     / |                       |  
    /  |                       |  
   /   |                       |  
  /    |                       |  
 *     |                       |  
 |     |                       |  
 |     |                       |  
 |   H |              H        |  
 |     |              O H      |  
 |  CHH|                C      |  
 |     Li              LH      |  
 |     |              N        |  
 |     |     Li      Ni      Li|  
 |     |  Li      Li      Li   |  
 | Li  |   Li      Li          |  
 |     |Li      Li      Li     |  
 |     | Li                    |  
 |   LLi     LLi     LLi       |  
 |     |  Li      Li      Li   |  
 | Li  |   Li      Li          |  
 |     |Li      Li      Li     |  
 Li    | Li      Li            |  
 |    Li      Li      Li       |  
 |     |                       |  
 |     |                       |  
 |     |                       |  
 |     |                       |  
 |     |                       |  
 |     |                       |  
 |     .-----------------------.  
 |    /                       /   
 |   /                       /    
 |  /                       /     
 | /                       /      
 |/                       /       
 *-----------------------*        

Positions:
   0 Li     1.617037    1.617037   10.000000    ( 0.0000,  0.0000,  0.0000)
   1 Li     4.851111    1.617037   10.000000    ( 0.0000,  0.0000,  0.0000)
   2 Li     8.085185    1.617037   10.000000    ( 0.0000,  0.0000,  0.0000)
   3 Li     1.617037    4.851111   10.000000    ( 0.0000,  0.0000,  0.0000)
   4 Li     4.851111    4.851111   10.000000    ( 0.0000,  0.0000,  0.0000)
   5 Li     8.085185    4.851111   10.000000    ( 0.0000,  0.0000,  0.0000)
   6 Li     1.617037    8.085185   10.000000    ( 0.0000,  0.0000,  0.0000)
   7 Li     4.851111    8.085185   10.000000    ( 0.0000,  0.0000,  0.0000)
   8 Li     8.085185    8.085185   10.000000    ( 0.0000,  0.0000,  0.0000)
   9 Li     0.000000    0.000000   11.617037    ( 0.0000,  0.0000,  0.0000)
  10 Li     3.234074    0.000000   11.617037    ( 0.0000,  0.0000,  0.0000)
  11 Li     6.468148    0.000000   11.617037    ( 0.0000,  0.0000,  0.0000)
  12 Li     0.000000    3.234074   11.617037    ( 0.0000,  0.0000,  0.0000)
  13 Li     3.234074    3.234074   11.617037    ( 0.0000,  0.0000,  0.0000)
  14 Li     6.468148    3.234074   11.617037    ( 0.0000,  0.0000,  0.0000)
  15 Li     0.000000    6.468148   11.617037    ( 0.0000,  0.0000,  0.0000)
  16 Li     3.234074    6.468148   11.617037    ( 0.0000,  0.0000,  0.0000)
  17 Li     6.468148    6.468148   11.617037    ( 0.0000,  0.0000,  0.0000)
  18 Li     1.616956    1.617022   13.470299    ( 0.0000,  0.0000,  0.0000)
  19 Li     4.851198    1.617021   13.470239    ( 0.0000,  0.0000,  0.0000)
  20 Li     8.085179    1.617067   13.469793    ( 0.0000,  0.0000,  0.0000)
  21 Li     1.617047    4.851103   13.470124    ( 0.0000,  0.0000,  0.0000)
  22 Li     4.851107    4.851104   13.470138    ( 0.0000,  0.0000,  0.0000)
  23 Li     8.085178    4.851072   13.470206    ( 0.0000,  0.0000,  0.0000)
  24 Li     1.616988    8.085214   13.470208    ( 0.0000,  0.0000,  0.0000)
  25 Li     4.851162    8.085215   13.470183    ( 0.0000,  0.0000,  0.0000)
  26 Li     8.085182    8.085193   13.470159    ( 0.0000,  0.0000,  0.0000)
  27 Li     0.000377   -0.000305   15.445261    ( 0.0000,  0.0000,  0.0000)
  28 Li     3.234005    0.000071   15.445744    ( 0.0000,  0.0000,  0.0000)
  29 Li     6.467823   -0.000303   15.445440    ( 0.0000,  0.0000,  0.0000)
  30 Li     0.000253    3.234385   15.445480    ( 0.0000,  0.0000,  0.0000)
  31 Li     3.234026    3.233968   15.445747    ( 0.0000,  0.0000,  0.0000)
  32 Li     6.467950    3.234373   15.445584    ( 0.0000,  0.0000,  0.0000)
  33 Li    -0.000002    6.468152   15.445679    ( 0.0000,  0.0000,  0.0000)
  34 Li     3.234050    6.468180   15.445741    ( 0.0000,  0.0000,  0.0000)
  35 Li     6.468174    6.468133   15.445654    ( 0.0000,  0.0000,  0.0000)
  36 O      8.088254    1.618798   20.478171    ( 0.0000,  0.0000,  0.0000)
  37 C      9.280729    0.796171   20.470042    ( 0.0000,  0.0000,  0.0000)
  38 C     10.551273    1.620365   20.436328    ( 0.0000,  0.0000,  0.0000)
  39 H      9.257891    0.117815   21.310256    ( 0.0000,  0.0000,  0.0000)
  40 H      9.201319    0.187538   19.563304    ( 0.0000,  0.0000,  0.0000)
  41 H     11.427872    0.965846   20.419955    ( 0.0000,  0.0000,  0.0000)
  42 H     10.586927    2.269228   19.558426    ( 0.0000,  0.0000,  0.0000)
  43 H     10.622354    2.248821   21.328076    ( 0.0000,  0.0000,  0.0000)
  44 H      8.125434    2.201014   21.216091    ( 0.0000,  0.0000,  0.0000)
  45 N      8.075259    1.633026   18.410608    ( 0.0000,  0.0000,  0.0000)
  46 N      8.069904    0.506255   18.412138    ( 0.0000,  0.0000,  0.0000)

Unit cell:
           periodic     x           y           z      points  spacing
  1. axis:    yes    9.702222    0.000000    0.000000    60     0.1617
  2. axis:    yes    0.000000    9.702222    0.000000    60     0.1617
  3. axis:    no     0.000000    0.000000   24.851111   156     0.1593

  Lengths:   9.702222   9.702222  24.851111
  Angles:   90.000000  90.000000  90.000000

Effective grid spacing dv^(1/3) = 0.1609

     iter     time        total  log10-change:
                         energy  eigst   dens
iter:   1 13:17:13  -307.035410  -0.71
iter:   2 13:19:57  -307.028619  -1.53  -2.10
iter:   3 13:22:29  -307.005226c -1.93  -2.16
iter:   4 13:25:03  -306.973241  -1.20  -2.20
Writing to output.gpw (mode='')

iter:   5 13:27:48  -306.963788  -1.72  -2.10
iter:   6 13:30:20  -306.965084c -2.69  -2.45
iter:   7 13:32:50  -306.961933c -2.14  -2.37
iter:   8 13:35:32  -306.965325c -2.14  -2.72
iter:   9 13:38:14  -306.963299c -2.45  -2.67
Writing to output.gpw (mode='')

iter:  10 13:40:52  -306.963511c -2.86  -2.65
iter:  11 13:43:35  -306.964473c -2.82  -2.60
iter:  12 13:46:04  -306.962879c -3.02  -2.72
iter:  13 13:48:39  -306.962413c -2.97  -2.80
iter:  14 13:51:17  -306.962284c -3.18  -2.90
Writing to output.gpw (mode='')

iter:  15 13:53:56  -306.962285c -3.55  -3.23
iter:  16 13:56:28  -306.962294c -3.70  -3.32
iter:  17 13:58:57  -306.962339c -3.52  -3.35
iter:  18 14:01:34  -306.962351c -3.91  -3.40
iter:  19 14:04:08  -306.962371c -4.10  -3.47
Writing to output.gpw (mode='')

iter:  20 14:06:41  -306.962373c -4.05  -3.51
iter:  21 14:09:12  -306.962394c -4.18  -3.62
iter:  22 14:11:42  -306.962397c -4.20  -3.75
iter:  23 14:14:23  -306.962400c -4.58  -3.86
iter:  24 14:16:53  -306.962401c -4.54  -3.90
Writing to output.gpw (mode='')

iter:  25 14:19:35  -306.962404c -4.60  -4.11c
iter:  26 14:22:09  -306.962406c -4.85  -4.15c
iter:  27 14:24:42  -306.962411c -4.87  -4.21c
iter:  28 14:27:23  -306.962412c -4.86  -4.22c
iter:  29 14:30:03  -306.962419c -4.91  -4.34c
Writing to output.gpw (mode='')

iter:  30 14:32:46  -306.962420c -4.95  -4.36c
iter:  31 14:35:27  -306.962422c -4.92  -4.41c
iter:  32 14:38:02  -306.962425c -5.20  -4.47c
iter:  33 14:40:37  -306.962426c -5.42  -4.54c
iter:  34 14:43:08  -306.962426c -4.90  -4.70c
Writing to output.gpw (mode='')

iter:  35 14:45:47  -306.962426c -5.58  -4.77c
iter:  36 14:48:23  -306.962427c -5.17  -4.74c
iter:  37 14:51:06  -306.962427c -5.57  -4.68c
iter:  38 14:53:38  -306.962428c -5.87  -4.68c
iter:  39 14:56:20  -306.962428c -5.78  -4.66c
Writing to output.gpw (mode='')

iter:  40 14:58:57  -306.962429c -5.61  -4.61c
iter:  41 15:01:42  -306.962429c -5.82  -4.72c
iter:  42 15:04:16  -306.962429c -6.06  -4.66c
iter:  43 15:06:50  -306.962429c -6.09  -4.58c
iter:  44 15:09:30  -306.962430c -6.17  -4.53c
Writing to output.gpw (mode='')

iter:  45 15:12:09  -306.962430c -6.52  -4.80c
iter:  46 15:14:47  -306.962430c -6.24  -4.79c
iter:  47 15:17:32  -306.962431c -6.48  -4.80c
iter:  48 15:20:11  -306.962431c -6.39  -4.82c
iter:  49 15:22:46  -306.962431c -6.64  -4.77c
Writing to output.gpw (mode='')

iter:  50 15:25:25  -306.962431c -6.53  -4.86c
iter:  51 15:28:14  -306.962431c -6.52  -4.87c
iter:  52 15:30:45  -306.962432c -6.69  -4.92c
iter:  53 15:33:26  -306.962432c -6.88  -5.06c
iter:  54 15:36:14  -306.962432c -6.82  -5.05c
Writing to output.gpw (mode='')

iter:  55 15:38:57  -306.962432c -6.78  -5.20c
iter:  56 15:41:36  -306.962432c -6.61  -5.29c
iter:  57 15:44:11  -306.962433c -7.09  -5.43c
iter:  58 15:46:50  -306.962433c -6.94  -5.57c
iter:  59 15:49:37  -306.962433c -6.90  -5.65c
Writing to output.gpw (mode='')

iter:  60 15:52:17  -306.962433c -7.23  -5.75c
iter:  61 15:54:49  -306.962433c -7.14  -5.83c
iter:  62 15:57:22  -306.962433c -7.28  -5.95c
iter:  63 15:59:58  -306.962433c -7.08  -6.02c
iter:  64 16:02:35  -306.962433c -7.25  -6.07c
Writing to output.gpw (mode='')

iter:  65 16:05:12  -306.962433c -7.28  -6.06c
iter:  66 16:07:39  -306.962433c -7.41c -5.92c

Converged after 66 iterations.

Dipole moment: (6.917097, -15.288569, 0.411582) |e|*Ang

Energy contributions relative to reference atoms: (reference = -14434.854043)

Kinetic:       +157.525803
Potential:     -150.511694
External:        +0.000000
XC:            -314.645558
Entropy (-ST):   -0.153761
Local:           +0.745897
--------------------------
Free energy:   -307.039313
Extrapolated:  -306.962433

Dipole-layer corrected work functions: 3.391024, 2.599822 eV

Showing only first 2 kpts
 Kpt  Band  Eigenvalues  Occupancy
  0    31     -3.24771    1.98721
  0    32     -3.16543    1.93542
  0    33     -2.82816    0.06810
  0    34     -2.74159    0.01240

  1    31     -3.01757    1.21789
  1    32     -2.98862    0.93206
  1    33     -2.95654    0.62963
  1    34     -2.94882    0.56502


Fermi level: -2.99542

No gap
Writing to output.gpw (mode='')


Forces in eV/Ang:
  0 Li    0.00516   -0.00022   -0.27278
  1 Li   -0.00551    0.00014   -0.27272
  2 Li    0.00035    0.00219   -0.27130
  3 Li   -0.00261   -0.00252   -0.27510
  4 Li    0.00313   -0.00218   -0.27478
  5 Li   -0.00045    0.00452   -0.27319
  6 Li   -0.00143    0.00220   -0.27297
  7 Li    0.00146    0.00137   -0.27284
  8 Li   -0.00004   -0.00631   -0.27167
  9 Li   -0.00002   -0.00108    0.26181
 10 Li   -0.00050    0.00193    0.25598
 11 Li    0.00061   -0.00170    0.26287
 12 Li    0.00229    0.00346    0.25729
 13 Li   -0.00004   -0.00619    0.25974
 14 Li   -0.00231    0.00420    0.25701
 15 Li   -0.00163   -0.00319    0.25716
 16 Li   -0.00027    0.00500    0.26971
 17 Li    0.00185   -0.00311    0.25543
 18 Li   -0.00701   -0.00140    0.04850
 19 Li    0.00739   -0.00160    0.04332
 20 Li   -0.00044    0.00311    0.00212
 21 Li    0.00094   -0.00046    0.03319
 22 Li   -0.00047   -0.00044    0.03448
 23 Li   -0.00052   -0.00378    0.04037
 24 Li   -0.00449    0.00269    0.04082
 25 Li    0.00463    0.00291    0.03862
 26 Li   -0.00021    0.00057    0.03684
 27 Li    0.03218   -0.02627   -0.05488
 28 Li   -0.00585    0.00606   -0.01666
 29 Li   -0.02739   -0.02662   -0.03949
 30 Li    0.02224    0.02833   -0.03882
 31 Li   -0.00436   -0.00942   -0.01635
 32 Li   -0.01711    0.02727   -0.02977
 33 Li   -0.00064    0.00117   -0.02144
 34 Li   -0.00219    0.00291   -0.01657
 35 Li    0.00294   -0.00029   -0.02354
 36 O     0.32521   -0.87949    1.07669
 37 C     0.52385    0.10066    0.84561
 38 C     0.13656    0.05183    0.15746
 39 H     0.02021   -0.22821    0.45993
 40 H     0.59688   -0.14192    1.23692
 41 H    -0.03858    0.01585   -0.02261
 42 H    -0.02408   -0.02170   -0.02200
 43 H     0.07064    0.06511   -0.00496
 44 H     0.20959    0.84975    1.16854
 45 N    -0.76084   -2.54906   -2.43450
 46 N    -1.08284    2.74997   -2.42547

System changes: positions 

Initializing position-dependent things.

Density initialized from wave functions
       .-----------------------.  
      /|                       |  
     / |                       |  
    /  |                       |  
   /   |                       |  
  /    |                       |  
 *     |                       |  
 |     |                       |  
 |     |                       |  
 |   H |              H        |  
 |     |              O H      |  
 |  CHH|                C      |  
 |     Li              LH      |  
 |     |              N        |  
 |     |     Li      Ni      Li|  
 |     |  Li      Li      Li   |  
 | Li  |   Li      Li          |  
 |     |Li      Li      Li     |  
 |     | Li                    |  
 |   LLi     LLi     LLi       |  
 |     |  Li      Li      Li   |  
 | Li  |   Li      Li          |  
 |     |Li      Li      Li     |  
 Li    | Li      Li            |  
 |    Li      Li      Li       |  
 |     |                       |  
 |     |                       |  
 |     |                       |  
 |     |                       |  
 |     |                       |  
 |     |                       |  
 |     .-----------------------.  
 |    /                       /   
 |   /                       /    
 |  /                       /     
 | /                       /      
 |/                       /       
 *-----------------------*        

Positions:
   0 Li     1.617037    1.617037   10.000000    ( 0.0000,  0.0000,  0.0000)
   1 Li     4.851111    1.617037   10.000000    ( 0.0000,  0.0000,  0.0000)
   2 Li     8.085185    1.617037   10.000000    ( 0.0000,  0.0000,  0.0000)
   3 Li     1.617037    4.851111   10.000000    ( 0.0000,  0.0000,  0.0000)
   4 Li     4.851111    4.851111   10.000000    ( 0.0000,  0.0000,  0.0000)
   5 Li     8.085185    4.851111   10.000000    ( 0.0000,  0.0000,  0.0000)
   6 Li     1.617037    8.085185   10.000000    ( 0.0000,  0.0000,  0.0000)
   7 Li     4.851111    8.085185   10.000000    ( 0.0000,  0.0000,  0.0000)
   8 Li     8.085185    8.085185   10.000000    ( 0.0000,  0.0000,  0.0000)
   9 Li     0.000000    0.000000   11.617037    ( 0.0000,  0.0000,  0.0000)
  10 Li     3.234074    0.000000   11.617037    ( 0.0000,  0.0000,  0.0000)
  11 Li     6.468148    0.000000   11.617037    ( 0.0000,  0.0000,  0.0000)
  12 Li     0.000000    3.234074   11.617037    ( 0.0000,  0.0000,  0.0000)
  13 Li     3.234074    3.234074   11.617037    ( 0.0000,  0.0000,  0.0000)
  14 Li     6.468148    3.234074   11.617037    ( 0.0000,  0.0000,  0.0000)
  15 Li     0.000000    6.468148   11.617037    ( 0.0000,  0.0000,  0.0000)
  16 Li     3.234074    6.468148   11.617037    ( 0.0000,  0.0000,  0.0000)
  17 Li     6.468148    6.468148   11.617037    ( 0.0000,  0.0000,  0.0000)
  18 Li     1.616862    1.617004   13.470950    ( 0.0000,  0.0000,  0.0000)
  19 Li     4.851297    1.617000   13.470821    ( 0.0000,  0.0000,  0.0000)
  20 Li     8.085173    1.617105   13.469847    ( 0.0000,  0.0000,  0.0000)
  21 Li     1.617058    4.851095   13.470571    ( 0.0000,  0.0000,  0.0000)
  22 Li     4.851102    4.851097   13.470601    ( 0.0000,  0.0000,  0.0000)
  23 Li     8.085172    4.851025   13.470748    ( 0.0000,  0.0000,  0.0000)
  24 Li     1.616930    8.085249   13.470755    ( 0.0000,  0.0000,  0.0000)
  25 Li     4.851223    8.085252   13.470700    ( 0.0000,  0.0000,  0.0000)
  26 Li     8.085179    8.085201   13.470651    ( 0.0000,  0.0000,  0.0000)
  27 Li     0.000808   -0.000654   15.444505    ( 0.0000,  0.0000,  0.0000)
  28 Li     3.233927    0.000151   15.445522    ( 0.0000,  0.0000,  0.0000)
  29 Li     6.467453   -0.000654   15.444888    ( 0.0000,  0.0000,  0.0000)
  30 Li     0.000546    3.234752   15.444958    ( 0.0000,  0.0000,  0.0000)
  31 Li     3.233968    3.233843   15.445528    ( 0.0000,  0.0000,  0.0000)
  32 Li     6.467725    3.234723   15.445183    ( 0.0000,  0.0000,  0.0000)
  33 Li    -0.000007    6.468161   15.445387    ( 0.0000,  0.0000,  0.0000)
  34 Li     3.234021    6.468219   15.445517    ( 0.0000,  0.0000,  0.0000)
  35 Li     6.468210    6.468124   15.445334    ( 0.0000,  0.0000,  0.0000)
  36 O      8.092143    1.614567   20.504828    ( 0.0000,  0.0000,  0.0000)
  37 C      9.292109    0.794215   20.487537    ( 0.0000,  0.0000,  0.0000)
  38 C     10.551767    1.620971   20.437672    ( 0.0000,  0.0000,  0.0000)
  39 H      9.257340    0.117100   21.312956    ( 0.0000,  0.0000,  0.0000)
  40 H      9.210630    0.184795   19.580708    ( 0.0000,  0.0000,  0.0000)
  41 H     11.427099    0.965876   20.419622    ( 0.0000,  0.0000,  0.0000)
  42 H     10.587037    2.269288   19.558006    ( 0.0000,  0.0000,  0.0000)
  43 H     10.623006    2.249488   21.327928    ( 0.0000,  0.0000,  0.0000)
  44 H      8.127380    2.206791   21.224378    ( 0.0000,  0.0000,  0.0000)
  45 N      8.064563    1.627582   18.373785    ( 0.0000,  0.0000,  0.0000)
  46 N      8.053912    0.514105   18.376324    ( 0.0000,  0.0000,  0.0000)

Unit cell:
           periodic     x           y           z      points  spacing
  1. axis:    yes    9.702222    0.000000    0.000000    60     0.1617
  2. axis:    yes    0.000000    9.702222    0.000000    60     0.1617
  3. axis:    no     0.000000    0.000000   24.851111   156     0.1593

  Lengths:   9.702222   9.702222  24.851111
  Angles:   90.000000  90.000000  90.000000

Effective grid spacing dv^(1/3) = 0.1609

     iter     time        total  log10-change:
                         energy  eigst   dens
iter:   1 16:10:56  -307.498677  -0.81
iter:   2 16:13:24  -307.312828  -0.80  -1.43
iter:   3 16:16:05  -307.274264  -1.70  -1.68
iter:   4 16:18:41  -307.255020  -1.12  -1.99
Writing to output.gpw (mode='')

iter:   5 16:21:18  -307.254966c -1.92  -2.26
iter:   6 16:24:01  -307.252382c -1.96  -2.35
iter:   7 16:26:41  -307.252007c -1.56  -2.45
iter:   8 16:29:15  -307.251443c -2.43  -2.45
iter:   9 16:31:42  -307.251199c -2.46  -2.53
Writing to output.gpw (mode='')

iter:  10 16:34:15  -307.250949c -2.98  -2.76
iter:  11 16:36:51  -307.250999c -3.20  -2.87
iter:  12 16:39:33  -307.251060c -3.36  -2.93
iter:  13 16:42:11  -307.251069c -3.23  -3.00
iter:  14 16:44:44  -307.251084c -3.62  -3.08
Writing to output.gpw (mode='')

iter:  15 16:47:15  -307.251137c -3.56  -3.12
iter:  16 16:49:55  -307.251136c -4.04  -3.39
iter:  17 16:52:29  -307.251153c -4.22  -3.51
iter:  18 16:54:55  -307.251169c -4.10  -3.55
iter:  19 16:57:25  -307.251163c -4.19  -3.62
Writing to output.gpw (mode='')

iter:  20 16:59:58  -307.251165c -4.24  -3.77
iter:  21 17:02:27  -307.251181c -4.55  -3.81
iter:  22 17:05:02  -307.251186c -4.62  -3.93
iter:  23 17:07:23  -307.251184c -4.77  -4.10c
iter:  24 17:09:58  -307.251184c -4.75  -4.21c
Writing to output.gpw (mode='')

iter:  25 17:12:39  -307.251190c -4.79  -4.26c
iter:  26 17:15:14  -307.251191c -4.92  -4.42c
iter:  27 17:17:44  -307.251194c -4.98  -4.50c
iter:  28 17:20:13  -307.251197c -5.04  -4.66c
iter:  29 17:22:46  -307.251198c -5.24  -4.71c
Writing to output.gpw (mode='')

iter:  30 17:25:26  -307.251198c -5.30  -4.70c
iter:  31 17:27:55  -307.251199c -5.30  -4.61c
iter:  32 17:30:23  -307.251200c -5.38  -4.61c
iter:  33 17:32:49  -307.251201c -5.40  -4.62c
iter:  34 17:35:17  -307.251202c -5.47  -4.64c
Writing to output.gpw (mode='')

iter:  35 17:37:46  -307.251204c -5.65  -4.68c
iter:  36 17:40:19  -307.251203c -5.81  -4.66c
iter:  37 17:42:47  -307.251204c -5.73  -4.66c
iter:  38 17:45:12  -307.251205c -5.86  -4.68c
iter:  39 17:47:35  -307.251205c -5.91  -4.68c
Writing to output.gpw (mode='')

iter:  40 17:50:10  -307.251205c -5.96  -4.66c
iter:  41 17:52:41  -307.251206c -5.88  -4.68c
iter:  42 17:55:08  -307.251207c -6.08  -4.75c
iter:  43 17:57:36  -307.251208c -6.11  -4.90c
iter:  44 18:00:09  -307.251208c -6.03  -5.01c
Writing to output.gpw (mode='')

iter:  45 18:02:46  -307.251208c -6.25  -5.22c
iter:  46 18:05:14  -307.251208c -6.37  -5.29c
iter:  47 18:07:43  -307.251208c -6.22  -5.33c
iter:  48 18:10:16  -307.251208c -6.32  -5.41c
iter:  49 18:12:59  -307.251208c -6.43  -5.45c
Writing to output.gpw (mode='')

iter:  50 18:15:33  -307.251208c -6.48  -5.55c
iter:  51 18:18:08  -307.251208c -6.51  -5.52c
iter:  52 18:20:38  -307.251208c -6.32  -5.50c
iter:  53 18:23:11  -307.251208c -6.68  -5.52c
iter:  54 18:25:43  -307.251208c -6.68  -5.49c
Writing to output.gpw (mode='')

iter:  55 18:28:23  -307.251208c -6.72  -5.53c
iter:  56 18:30:52  -307.251209c -6.64  -5.50c
iter:  57 18:33:28  -307.251209c -6.71  -5.47c
iter:  58 18:35:59  -307.251209c -6.81  -5.43c
iter:  59 18:38:31  -307.251209c -6.89  -5.46c
Writing to output.gpw (mode='')

iter:  60 18:41:06  -307.251209c -6.89  -5.39c
iter:  61 18:43:37  -307.251209c -6.94  -5.37c
iter:  62 18:46:06  -307.251208c -6.87  -5.34c
iter:  63 18:48:34  -307.251209c -6.98  -5.23c
iter:  64 18:51:03  -307.251210c -6.90  -5.50c
Writing to output.gpw (mode='')

iter:  65 18:53:32  -307.251210c -6.89  -5.56c
iter:  66 18:56:06  -307.251210c -7.00  -5.55c
iter:  67 18:58:42  -307.251210c -7.13  -5.58c
iter:  68 19:01:20  -307.251210c -7.19  -5.61c
iter:  69 19:03:49  -307.251210c -7.22  -5.67c
Writing to output.gpw (mode='')

iter:  70 19:06:22  -307.251210c -7.42c -5.73c

Converged after 70 iterations.

Dipole moment: (7.153555, -15.133555, 0.394874) |e|*Ang

Energy contributions relative to reference atoms: (reference = -14434.854043)

Kinetic:       +158.963347
Potential:     -151.847423
External:        +0.000000
XC:            -315.037552
Entropy (-ST):   -0.153643
Local:           +0.747240
--------------------------
Free energy:   -307.328031
Extrapolated:  -307.251210

Dipole-layer corrected work functions: 3.391399, 2.632315 eV

Showing only first 2 kpts
 Kpt  Band  Eigenvalues  Occupancy
  0    31     -3.26410    1.98720
  0    32     -3.18219    1.93582
  0    33     -2.84428    0.06769
  0    34     -2.75797    0.01239

  1    31     -3.03403    1.21816
  1    32     -3.00459    0.92741
  1    33     -2.97362    0.63522
  1    34     -2.96535    0.56576


Fermi level: -3.01186

No gap

Forces in eV/Ang:
  0 Li    0.00531   -0.00021   -0.27282
  1 Li   -0.00568    0.00014   -0.27270
  2 Li    0.00037    0.00219   -0.27127
  3 Li   -0.00266   -0.00258   -0.27523
  4 Li    0.00316   -0.00221   -0.27486
  5 Li   -0.00044    0.00472   -0.27319
  6 Li   -0.00150    0.00221   -0.27305
  7 Li    0.00154    0.00138   -0.27286
  8 Li   -0.00004   -0.00648   -0.27170
  9 Li    0.00008   -0.00121    0.26211
 10 Li   -0.00061    0.00207    0.25642
 11 Li    0.00059   -0.00181    0.26318
 12 Li    0.00242    0.00363    0.25751
 13 Li   -0.00006   -0.00639    0.26019
 14 Li   -0.00241    0.00436    0.25723
 15 Li   -0.00166   -0.00325    0.25746
 16 Li   -0.00020    0.00512    0.27011
 17 Li    0.00181   -0.00319    0.25570
 18 Li   -0.00710   -0.00131    0.04762
 19 Li    0.00749   -0.00159    0.04280
 20 Li   -0.00044    0.00307    0.00178
 21 Li    0.00109   -0.00028    0.03225
 22 Li   -0.00060   -0.00035    0.03349
 23 Li   -0.00052   -0.00379    0.03942
 24 Li   -0.00423    0.00246    0.03955
 25 Li    0.00441    0.00283    0.03777
 26 Li   -0.00024    0.00063    0.03632
 27 Li    0.03555   -0.02814   -0.06074
 28 Li   -0.00568    0.00635   -0.01591
 29 Li   -0.03026   -0.02897   -0.04555
 30 Li    0.02331    0.02939   -0.04060
 31 Li   -0.00425   -0.00971   -0.01556
 32 Li   -0.01842    0.02904   -0.03230
 33 Li   -0.00095    0.00125   -0.02103
 34 Li   -0.00207    0.00288   -0.01604
 35 Li    0.00316   -0.00016   -0.02306
 36 O     0.30125   -1.27659    0.20182
 37 C     0.04052    0.33033    0.19999
 38 C     0.26943    0.08653    0.21898
 39 H     0.13406   -0.45260    0.80491
 40 H     0.46564   -0.07061    1.09596
 41 H     0.01018    0.02703   -0.01668
 42 H    -0.06756   -0.06468    0.00422
 43 H     0.11322    0.09993    0.02038
 44 H     0.27204    1.12364    1.51428
 45 N    -0.66892   -1.12749   -1.97614
 46 N    -0.89438    1.32245   -1.97071

System changes: positions 

Initializing position-dependent things.

Density initialized from wave functions
       .-----------------------.  
      /|                       |  
     / |                       |  
    /  |                       |  
   /   |                       |  
  /    |                       |  
 *     |                       |  
 |     |                       |  
 |     |                       |  
 |   H |              H        |  
 |  C  |              O H      |  
 |   HH|                C      |  
 |     Li              LH      |  
 |     |              N        |  
 |     |     Li      Ni      Li|  
 |     |  Li      Li      Li   |  
 | Li  |   Li      Li          |  
 |     |Li      Li      Li     |  
 |     | Li                    |  
 |   LLi     LLi     LLi       |  
 |     |  Li      Li      Li   |  
 | Li  |   Li      Li          |  
 |     |Li      Li      Li     |  
 Li    | Li      Li            |  
 |    Li      Li      Li       |  
 |     |                       |  
 |     |                       |  
 |     |                       |  
 |     |                       |  
 |     |                       |  
 |     |                       |  
 |     .-----------------------.  
 |    /                       /   
 |   /                       /    
 |  /                       /     
 | /                       /      
 |/                       /       
 *-----------------------*        

Positions:
   0 Li     1.617037    1.617037   10.000000    ( 0.0000,  0.0000,  0.0000)
   1 Li     4.851111    1.617037   10.000000    ( 0.0000,  0.0000,  0.0000)
   2 Li     8.085185    1.617037   10.000000    ( 0.0000,  0.0000,  0.0000)
   3 Li     1.617037    4.851111   10.000000    ( 0.0000,  0.0000,  0.0000)
   4 Li     4.851111    4.851111   10.000000    ( 0.0000,  0.0000,  0.0000)
   5 Li     8.085185    4.851111   10.000000    ( 0.0000,  0.0000,  0.0000)
   6 Li     1.617037    8.085185   10.000000    ( 0.0000,  0.0000,  0.0000)
   7 Li     4.851111    8.085185   10.000000    ( 0.0000,  0.0000,  0.0000)
   8 Li     8.085185    8.085185   10.000000    ( 0.0000,  0.0000,  0.0000)
   9 Li     0.000000    0.000000   11.617037    ( 0.0000,  0.0000,  0.0000)
  10 Li     3.234074    0.000000   11.617037    ( 0.0000,  0.0000,  0.0000)
  11 Li     6.468148    0.000000   11.617037    ( 0.0000,  0.0000,  0.0000)
  12 Li     0.000000    3.234074   11.617037    ( 0.0000,  0.0000,  0.0000)
  13 Li     3.234074    3.234074   11.617037    ( 0.0000,  0.0000,  0.0000)
  14 Li     6.468148    3.234074   11.617037    ( 0.0000,  0.0000,  0.0000)
  15 Li     0.000000    6.468148   11.617037    ( 0.0000,  0.0000,  0.0000)
  16 Li     3.234074    6.468148   11.617037    ( 0.0000,  0.0000,  0.0000)
  17 Li     6.468148    6.468148   11.617037    ( 0.0000,  0.0000,  0.0000)
  18 Li     1.616750    1.616983   13.471710    ( 0.0000,  0.0000,  0.0000)
  19 Li     4.851415    1.616975   13.471502    ( 0.0000,  0.0000,  0.0000)
  20 Li     8.085166    1.617149   13.469899    ( 0.0000,  0.0000,  0.0000)
  21 Li     1.617073    4.851088   13.471090    ( 0.0000,  0.0000,  0.0000)
  22 Li     4.851095    4.851090   13.471138    ( 0.0000,  0.0000,  0.0000)
  23 Li     8.085164    4.850968   13.471378    ( 0.0000,  0.0000,  0.0000)
  24 Li     1.616863    8.085289   13.471388    ( 0.0000,  0.0000,  0.0000)
  25 Li     4.851292    8.085295   13.471302    ( 0.0000,  0.0000,  0.0000)
  26 Li     8.085175    8.085212   13.471229    ( 0.0000,  0.0000,  0.0000)
  27 Li     0.001354   -0.001089   15.443551    ( 0.0000,  0.0000,  0.0000)
  28 Li     3.233836    0.000250   15.445267    ( 0.0000,  0.0000,  0.0000)
  29 Li     6.466985   -0.001096   15.444176    ( 0.0000,  0.0000,  0.0000)
  30 Li     0.000905    3.235201   15.444322    ( 0.0000,  0.0000,  0.0000)
  31 Li     3.233900    3.233692   15.445278    ( 0.0000,  0.0000,  0.0000)
  32 Li     6.467443    3.235161   15.444681    ( 0.0000,  0.0000,  0.0000)
  33 Li    -0.000017    6.468174   15.445047    ( 0.0000,  0.0000,  0.0000)
  34 Li     3.233987    6.468265   15.445259    ( 0.0000,  0.0000,  0.0000)
  35 Li     6.468256    6.468116   15.444962    ( 0.0000,  0.0000,  0.0000)
  36 O      8.096608    1.603098   20.523336    ( 0.0000,  0.0000,  0.0000)
  37 C      9.299041    0.795346   20.499415    ( 0.0000,  0.0000,  0.0000)
  38 C     10.554183    1.622093   20.440151    ( 0.0000,  0.0000,  0.0000)
  39 H      9.258169    0.113136   21.320904    ( 0.0000,  0.0000,  0.0000)
  40 H      9.219833    0.182568   19.599511    ( 0.0000,  0.0000,  0.0000)
  41 H     11.426793    0.966085   20.419302    ( 0.0000,  0.0000,  0.0000)
  42 H     10.586568    2.268790   19.557832    ( 0.0000,  0.0000,  0.0000)
  43 H     10.624327    2.250716   21.328055    ( 0.0000,  0.0000,  0.0000)
  44 H      8.130607    2.218191   21.240027    ( 0.0000,  0.0000,  0.0000)
  45 N      8.053063    1.628802   18.336444    ( 0.0000,  0.0000,  0.0000)
  46 N      8.037483    0.515745   18.339890    ( 0.0000,  0.0000,  0.0000)

Unit cell:
           periodic     x           y           z      points  spacing
  1. axis:    yes    9.702222    0.000000    0.000000    60     0.1617
  2. axis:    yes    0.000000    9.702222    0.000000    60     0.1617
  3. axis:    no     0.000000    0.000000   24.851111   156     0.1593

  Lengths:   9.702222   9.702222  24.851111
  Angles:   90.000000  90.000000  90.000000

Effective grid spacing dv^(1/3) = 0.1609

     iter     time        total  log10-change:
                         energy  eigst   dens
iter:   1 19:09:37  -307.528188  -0.94
iter:   2 19:12:12  -307.501333  -1.44  -1.79
iter:   3 19:15:00  -307.495592c -2.24  -2.03
iter:   4 19:17:31  -307.491004c -2.01  -2.31
Writing to output.gpw (mode='')

iter:   5 19:20:06  -307.489817c -1.82  -2.57
iter:   6 19:22:54  -307.488887c -2.73  -2.45
iter:   7 19:25:28  -307.489483c -2.43  -2.79
iter:   8 19:28:00  -307.489006c -3.06  -2.79
iter:   9 19:30:31  -307.488971c -3.32  -2.89
Writing to output.gpw (mode='')

iter:  10 19:33:16  -307.489033c -3.22  -2.96
iter:  11 19:35:55  -307.489068c -3.67  -3.12
iter:  12 19:38:31  -307.489048c -3.95  -3.14
iter:  13 19:41:09  -307.489017c -4.00  -3.25
iter:  14 19:43:34  -307.488992c -4.01  -3.46
Writing to output.gpw (mode='')

iter:  15 19:46:13  -307.489005c -4.37  -3.54
iter:  16 19:48:51  -307.489011c -4.80  -3.74
iter:  17 19:51:26  -307.489023c -4.64  -3.81
iter:  18 19:54:00  -307.489024c -4.79  -3.90
iter:  19 19:56:31  -307.489026c -5.17  -4.17c
Writing to output.gpw (mode='')

iter:  20 19:59:04  -307.489027c -5.17  -4.20c
iter:  21 20:01:43  -307.489026c -5.33  -4.35c
iter:  22 20:04:20  -307.489028c -5.41  -4.46c
iter:  23 20:06:53  -307.489029c -5.24  -4.52c
iter:  24 20:09:20  -307.489029c -5.33  -4.66c
Writing to output.gpw (mode='')

iter:  25 20:11:52  -307.489030c -5.47  -4.64c
iter:  26 20:14:35  -307.489030c -5.52  -4.62c
iter:  27 20:17:05  -307.489030c -5.53  -4.62c
iter:  28 20:19:41  -307.489032c -5.79  -4.60c
iter:  29 20:22:12  -307.489032c -5.97  -4.65c
Writing to output.gpw (mode='')

iter:  30 20:24:49  -307.489033c -5.89  -4.64c
iter:  31 20:27:21  -307.489033c -5.87  -4.62c
iter:  32 20:29:52  -307.489034c -5.92  -4.60c
iter:  33 20:32:20  -307.489034c -6.10  -4.58c
iter:  34 20:34:53  -307.489035c -6.23  -4.65c
Writing to output.gpw (mode='')

iter:  35 20:37:32  -307.489036c -6.26  -4.77c
iter:  36 20:40:10  -307.489036c -6.36  -4.78c
iter:  37 20:42:37  -307.489036c -6.40  -4.83c
iter:  38 20:45:05  -307.489037c -6.32  -4.92c
iter:  39 20:47:46  -307.489037c -6.45  -4.92c
Writing to output.gpw (mode='')

iter:  40 20:50:26  -307.489037c -6.59  -4.95c
iter:  41 20:53:01  -307.489037c -6.62  -5.14c
iter:  42 20:55:36  -307.489037c -6.49  -5.24c
iter:  43 20:58:14  -307.489037c -6.82  -5.37c
iter:  44 21:00:44  -307.489038c -6.80  -5.44c
Writing to output.gpw (mode='')

iter:  45 21:03:14  -307.489037c -6.85  -5.54c
iter:  46 21:05:51  -307.489037c -6.84  -5.63c
iter:  47 21:08:18  -307.489038c -6.98  -5.65c
iter:  48 21:10:56  -307.489038c -7.22  -5.74c
iter:  49 21:13:31  -307.489038c -7.09  -5.77c
Writing to output.gpw (mode='')

iter:  50 21:16:01  -307.489038c -7.24  -5.67c
iter:  51 21:18:29  -307.489038c -7.12  -5.96c
iter:  52 21:21:12  -307.489038c -7.28  -6.06c
iter:  53 21:23:57  -307.489038c -7.16  -6.08c
iter:  54 21:26:30  -307.489038c -7.33  -5.99c
Writing to output.gpw (mode='')

iter:  55 21:29:05  -307.489038c -7.35  -6.00c
iter:  56 21:31:34  -307.489038c -7.47c -6.00c

Converged after 56 iterations.

Dipole moment: (7.332069, -15.074825, 0.382238) |e|*Ang

Energy contributions relative to reference atoms: (reference = -14434.854043)

Kinetic:       +157.685012
Potential:     -151.041795
External:        +0.000000
XC:            -314.803317
Entropy (-ST):   -0.153662
Local:           +0.747893
--------------------------
Free energy:   -307.565869
Extrapolated:  -307.489038

Dipole-layer corrected work functions: 3.391982, 2.657190 eV

Showing only first 2 kpts
 Kpt  Band  Eigenvalues  Occupancy
  0    31     -3.27675    1.98718
  0    32     -3.19519    1.93616
  0    33     -2.85660    0.06716
  0    34     -2.77073    0.01240

  1    31     -3.04695    1.21999
  1    32     -3.01631    0.91738
  1    33     -2.98734    0.64387
  1    34     -2.97829    0.56751


Fermi level: -3.02459

No gap
Writing to output.gpw (mode='')


Forces in eV/Ang:
  0 Li    0.00564   -0.00017   -0.27290
  1 Li   -0.00606    0.00017   -0.27273
  2 Li    0.00042    0.00229   -0.27129
  3 Li   -0.00271   -0.00272   -0.27544
  4 Li    0.00318   -0.00231   -0.27501
  5 Li   -0.00043    0.00501   -0.27319
  6 Li   -0.00154    0.00221   -0.27311
  7 Li    0.00158    0.00136   -0.27288
  8 Li   -0.00003   -0.00682   -0.27165
  9 Li    0.00016   -0.00136    0.26273
 10 Li   -0.00073    0.00215    0.25674
 11 Li    0.00061   -0.00193    0.26388
 12 Li    0.00268    0.00388    0.25774
 13 Li   -0.00011   -0.00667    0.26061
 14 Li   -0.00262    0.00458    0.25750
 15 Li   -0.00177   -0.00345    0.25782
 16 Li   -0.00012    0.00547    0.27070
 17 Li    0.00184   -0.00340    0.25601
 18 Li   -0.00709   -0.00126    0.04639
 19 Li    0.00746   -0.00160    0.04194
 20 Li   -0.00040    0.00326   -0.00001
 21 Li    0.00129   -0.00004    0.03107
 22 Li   -0.00078   -0.00024    0.03240
 23 Li   -0.00053   -0.00389    0.03831
 24 Li   -0.00406    0.00229    0.03818
 25 Li    0.00427    0.00284    0.03678
 26 Li   -0.00027    0.00054    0.03537
 27 Li    0.03740   -0.02926   -0.06262
 28 Li   -0.00549    0.00652   -0.01529
 29 Li   -0.03166   -0.03064   -0.04777
 30 Li    0.02412    0.03055   -0.04129
 31 Li   -0.00411   -0.00989   -0.01483
 32 Li   -0.01935    0.03085   -0.03367
 33 Li   -0.00131    0.00149   -0.02036
 34 Li   -0.00192    0.00282   -0.01540
 35 Li    0.00340    0.00009   -0.02235
 36 O     0.18231   -0.75609    0.41022
 37 C    -0.12387    0.26170    0.11928
 38 C     0.27788    0.11225    0.20013
 39 H     0.23594   -0.44000    0.83243
 40 H     0.33672   -0.08405    0.80845
 41 H     0.06743    0.01770   -0.00754
 42 H    -0.08249   -0.08811    0.03335
 43 H     0.15143    0.14244    0.06573
 44 H     0.27242    0.62144    0.90522
 45 N    -0.55216   -1.17805   -1.62909
 46 N    -0.72563    1.34856   -1.72619

System changes: positions 

Initializing position-dependent things.

Density initialized from wave functions
       .-----------------------.  
      /|                       |  
     / |                       |  
    /  |                       |  
   /   |                       |  
  /    |                       |  
 *     |                       |  
 |     |                       |  
 |     |                       |  
 |   H |              H        |  
 |  C  |              O H      |  
 |   HH|                 C     |  
 |     Li              LH      |  
 |     |              N        |  
 |     |     Li      Ni      Li|  
 |     |  Li      Li      Li   |  
 | Li  |   Li      Li          |  
 |     |Li      Li      Li     |  
 |     | Li                    |  
 |   LLi     LLi     LLi       |  
 |     |  Li      Li      Li   |  
 | Li  |   Li      Li          |  
 |     |Li      Li      Li     |  
 Li    | Li      Li            |  
 |    Li      Li      Li       |  
 |     |                       |  
 |     |                       |  
 |     |                       |  
 |     |                       |  
 |     |                       |  
 |     |                       |  
 |     .-----------------------.  
 |    /                       /   
 |   /                       /    
 |  /                       /     
 | /                       /      
 |/                       /       
 *-----------------------*        

Positions:
   0 Li     1.617037    1.617037   10.000000    ( 0.0000,  0.0000,  0.0000)
   1 Li     4.851111    1.617037   10.000000    ( 0.0000,  0.0000,  0.0000)
   2 Li     8.085185    1.617037   10.000000    ( 0.0000,  0.0000,  0.0000)
   3 Li     1.617037    4.851111   10.000000    ( 0.0000,  0.0000,  0.0000)
   4 Li     4.851111    4.851111   10.000000    ( 0.0000,  0.0000,  0.0000)
   5 Li     8.085185    4.851111   10.000000    ( 0.0000,  0.0000,  0.0000)
   6 Li     1.617037    8.085185   10.000000    ( 0.0000,  0.0000,  0.0000)
   7 Li     4.851111    8.085185   10.000000    ( 0.0000,  0.0000,  0.0000)
   8 Li     8.085185    8.085185   10.000000    ( 0.0000,  0.0000,  0.0000)
   9 Li     0.000000    0.000000   11.617037    ( 0.0000,  0.0000,  0.0000)
  10 Li     3.234074    0.000000   11.617037    ( 0.0000,  0.0000,  0.0000)
  11 Li     6.468148    0.000000   11.617037    ( 0.0000,  0.0000,  0.0000)
  12 Li     0.000000    3.234074   11.617037    ( 0.0000,  0.0000,  0.0000)
  13 Li     3.234074    3.234074   11.617037    ( 0.0000,  0.0000,  0.0000)
  14 Li     6.468148    3.234074   11.617037    ( 0.0000,  0.0000,  0.0000)
  15 Li     0.000000    6.468148   11.617037    ( 0.0000,  0.0000,  0.0000)
  16 Li     3.234074    6.468148   11.617037    ( 0.0000,  0.0000,  0.0000)
  17 Li     6.468148    6.468148   11.617037    ( 0.0000,  0.0000,  0.0000)
  18 Li     1.616622    1.616961   13.472556    ( 0.0000,  0.0000,  0.0000)
  19 Li     4.851549    1.616947   13.472265    ( 0.0000,  0.0000,  0.0000)
  20 Li     8.085159    1.617204   13.469929    ( 0.0000,  0.0000,  0.0000)
  21 Li     1.617093    4.851085   13.471661    ( 0.0000,  0.0000,  0.0000)
  22 Li     4.851083    4.851085   13.471731    ( 0.0000,  0.0000,  0.0000)
  23 Li     8.085154    4.850901   13.472078    ( 0.0000,  0.0000,  0.0000)
  24 Li     1.616790    8.085331   13.472087    ( 0.0000,  0.0000,  0.0000)
  25 Li     4.851369    8.085345   13.471972    ( 0.0000,  0.0000,  0.0000)
  26 Li     8.085171    8.085223   13.471872    ( 0.0000,  0.0000,  0.0000)
  27 Li     0.002010   -0.001604   15.442430    ( 0.0000,  0.0000,  0.0000)
  28 Li     3.233736    0.000366   15.444987    ( 0.0000,  0.0000,  0.0000)
  29 Li     6.466427   -0.001629   15.443323    ( 0.0000,  0.0000,  0.0000)
  30 Li     0.001329    3.235732   15.443584    ( 0.0000,  0.0000,  0.0000)
  31 Li     3.233826    3.233516   15.445006    ( 0.0000,  0.0000,  0.0000)
  32 Li     6.467105    3.235692   15.444085    ( 0.0000,  0.0000,  0.0000)
  33 Li    -0.000035    6.468194   15.444671    ( 0.0000,  0.0000,  0.0000)
  34 Li     3.233951    6.468317   15.444975    ( 0.0000,  0.0000,  0.0000)
  35 Li     6.468313    6.468111   15.444550    ( 0.0000,  0.0000,  0.0000)
  36 O      8.100008    1.595643   20.543947    ( 0.0000,  0.0000,  0.0000)
  37 C      9.303002    0.796572   20.509633    ( 0.0000,  0.0000,  0.0000)
  38 C     10.557511    1.623823   20.442936    ( 0.0000,  0.0000,  0.0000)
  39 H      9.260917    0.108022   21.331530    ( 0.0000,  0.0000,  0.0000)
  40 H      9.228024    0.180099   19.616412    ( 0.0000,  0.0000,  0.0000)
  41 H     11.427398    0.966237   20.419084    ( 0.0000,  0.0000,  0.0000)
  42 H     10.585672    2.267750   19.558121    ( 0.0000,  0.0000,  0.0000)
  43 H     10.626507    2.252824   21.328911    ( 0.0000,  0.0000,  0.0000)
  44 H      8.134536    2.225314   21.250847    ( 0.0000,  0.0000,  0.0000)
  45 N      8.041890    1.628338   18.300383    ( 0.0000,  0.0000,  0.0000)
  46 N      8.021771    0.519144   18.303263    ( 0.0000,  0.0000,  0.0000)

Unit cell:
           periodic     x           y           z      points  spacing
  1. axis:    yes    9.702222    0.000000    0.000000    60     0.1617
  2. axis:    yes    0.000000    9.702222    0.000000    60     0.1617
  3. axis:    no     0.000000    0.000000   24.851111   156     0.1593

  Lengths:   9.702222   9.702222  24.851111
  Angles:   90.000000  90.000000  90.000000

Effective grid spacing dv^(1/3) = 0.1609

     iter     time        total  log10-change:
                         energy  eigst   dens
iter:   1 21:34:50  -307.738831  -0.94
iter:   2 21:37:29  -307.691725  -1.26  -1.70
iter:   3 21:40:00  -307.682454  -2.17  -1.96
iter:   4 21:42:29  -307.676876c -1.78  -2.26
Writing to output.gpw (mode='')

iter:   5 21:44:56  -307.675974c -1.98  -2.52
iter:   6 21:47:31  -307.675249c -2.49  -2.52
iter:   7 21:50:12  -307.675659c -2.56  -2.78
iter:   8 21:52:51  -307.675369c -2.91  -2.76
iter:   9 21:55:28  -307.675431c -3.35  -2.90
Writing to output.gpw (mode='')

iter:  10 21:58:21  -307.675532c -3.41  -3.00
iter:  11 22:01:01  -307.675497c -3.87  -3.03
iter:  12 22:03:38  -307.675454c -3.43  -3.17
iter:  13 22:06:13  -307.675459c -4.26  -3.27
iter:  14 22:08:42  -307.675509c -3.80  -3.36
Writing to output.gpw (mode='')

iter:  15 22:11:15  -307.675466c -4.27  -3.48
iter:  16 22:13:52  -307.675472c -4.35  -3.79
iter:  17 22:16:27  -307.675486c -4.58  -3.78
iter:  18 22:19:04  -307.675491c -4.69  -3.86
iter:  19 22:21:41  -307.675491c -4.95  -4.05c
Writing to output.gpw (mode='')

iter:  20 22:24:26  -307.675494c -5.06  -4.10c
iter:  21 22:27:03  -307.675495c -4.97  -4.12c
iter:  22 22:29:40  -307.675500c -5.23  -4.15c
iter:  23 22:32:14  -307.675501c -5.30  -4.25c
iter:  24 22:34:54  -307.675499c -5.56  -4.40c
Writing to output.gpw (mode='')

iter:  25 22:37:31  -307.675501c -5.56  -4.47c
iter:  26 22:40:01  -307.675501c -5.61  -4.52c
iter:  27 22:42:35  -307.675502c -5.74  -4.60c
iter:  28 22:45:12  -307.675504c -5.76  -4.66c
iter:  29 22:47:48  -307.675504c -5.94  -5.00c
Writing to output.gpw (mode='')

iter:  30 22:50:25  -307.675505c -5.83  -5.07c
iter:  31 22:53:01  -307.675505c -6.04  -5.22c
iter:  32 22:55:33  -307.675506c -5.94  -5.24c
iter:  33 22:58:20  -307.675506c -6.10  -5.25c
iter:  34 23:01:02  -307.675506c -6.24  -5.13c
Writing to output.gpw (mode='')

iter:  35 23:03:43  -307.675506c -6.22  -5.24c
iter:  36 23:06:20  -307.675506c -6.36  -5.49c
iter:  37 23:08:57  -307.675506c -6.31  -5.46c
iter:  38 23:11:30  -307.675507c -6.22  -5.41c
iter:  39 23:14:10  -307.675507c -6.26  -5.37c
Writing to output.gpw (mode='')

iter:  40 23:16:48  -307.675507c -6.51  -5.34c
iter:  41 23:19:25  -307.675507c -6.41  -5.29c
iter:  42 23:22:04  -307.675507c -6.58  -5.29c
iter:  43 23:24:41  -307.675507c -6.68  -5.30c
iter:  44 23:27:19  -307.675507c -6.74  -5.25c
Writing to output.gpw (mode='')

iter:  45 23:29:52  -307.675507c -6.79  -5.30c
iter:  46 23:32:33  -307.675507c -6.62  -5.24c
iter:  47 23:35:05  -307.675507c -6.84  -5.17c
iter:  48 23:37:38  -307.675508c -6.88  -5.19c
iter:  49 23:40:14  -307.675508c -7.04  -5.20c
Writing to output.gpw (mode='')

iter:  50 23:42:45  -307.675508c -6.90  -5.22c
iter:  51 23:45:22  -307.675508c -7.03  -5.17c
iter:  52 23:48:02  -307.675509c -6.82  -5.23c
iter:  53 23:50:51  -307.675509c -6.96  -5.27c
iter:  54 23:53:28  -307.675509c -6.98  -5.36c
Writing to output.gpw (mode='')

iter:  55 23:56:07  -307.675509c -7.13  -5.44c
iter:  56 23:58:32  -307.675509c -7.35  -5.52c
iter:  57 00:01:07  -307.675509c -7.43c -5.56c

Converged after 57 iterations.

Dipole moment: (7.467032, -14.976871, 0.368553) |e|*Ang

Energy contributions relative to reference atoms: (reference = -14434.854043)

Kinetic:       +157.307844
Potential:     -150.892977
External:        +0.000000
XC:            -314.762138
Entropy (-ST):   -0.153639
Local:           +0.748582
--------------------------
Free energy:   -307.752328
Extrapolated:  -307.675509

Dipole-layer corrected work functions: 3.392491, 2.684005 eV

Showing only first 2 kpts
 Kpt  Band  Eigenvalues  Occupancy
  0    31     -3.29034    1.98716
  0    32     -3.20914    1.93652
  0    33     -2.86987    0.06665
  0    34     -2.78441    0.01240

  1    31     -3.06072    1.22105
  1    32     -3.02909    0.90869
  1    33     -3.00194    0.65212
  1    34     -2.99213    0.56897


Fermi level: -3.03825

No gap
Writing to output.gpw (mode='')


Forces in eV/Ang:
  0 Li    0.00594   -0.00016   -0.27299
  1 Li   -0.00640    0.00018   -0.27276
  2 Li    0.00046    0.00238   -0.27132
  3 Li   -0.00275   -0.00283   -0.27566
  4 Li    0.00321   -0.00238   -0.27517
  5 Li   -0.00042    0.00529   -0.27319
  6 Li   -0.00158    0.00223   -0.27320
  7 Li    0.00162    0.00136   -0.27292
  8 Li   -0.00003   -0.00713   -0.27166
  9 Li    0.00027   -0.00153    0.26338
 10 Li   -0.00086    0.00226    0.25716
 11 Li    0.00060   -0.00206    0.26462
 12 Li    0.00293    0.00414    0.25805
 13 Li   -0.00016   -0.00695    0.26112
 14 Li   -0.00281    0.00480    0.25785
 15 Li   -0.00188   -0.00362    0.25823
 16 Li   -0.00003    0.00577    0.27132
 17 Li    0.00185   -0.00359    0.25637
 18 Li   -0.00707   -0.00117    0.04501
 19 Li    0.00741   -0.00159    0.04094
 20 Li   -0.00037    0.00339   -0.00164
 21 Li    0.00151    0.00021    0.02978
 22 Li   -0.00097   -0.00012    0.03120
 23 Li   -0.00054   -0.00393    0.03708
 24 Li   -0.00381    0.00205    0.03664
 25 Li    0.00407    0.00279    0.03564
 26 Li   -0.00030    0.00044    0.03421
 27 Li    0.03954   -0.03051   -0.06526
 28 Li   -0.00530    0.00667   -0.01456
 29 Li   -0.03338   -0.03248   -0.05081
 30 Li    0.02499    0.03167   -0.04216
 31 Li   -0.00397   -0.01009   -0.01399
 32 Li   -0.02036    0.03267   -0.03524
 33 Li   -0.00162    0.00161   -0.01973
 34 Li   -0.00178    0.00279   -0.01468
 35 Li    0.00358    0.00022   -0.02167
 36 O     0.05784   -0.61160    0.17311
 37 C    -0.18965    0.17082    0.21529
 38 C     0.21894    0.09218    0.19031
 39 H     0.31637   -0.34276    0.73885
 40 H     0.20657   -0.09238    0.56346
 41 H     0.10842    0.01303    0.00116
 42 H    -0.08572   -0.08984    0.04509
 43 H     0.18378    0.17198    0.09655
 44 H     0.29984    0.51734    0.78091
 45 N    -0.50283   -0.76868   -1.34579
 46 N    -0.63218    0.89179   -1.40799

System changes: positions 

Initializing position-dependent things.

Density initialized from wave functions
       .-----------------------.  
      /|                       |  
     / |                       |  
    /  |                       |  
   /   |                       |  
  /    |                       |  
 *     |                       |  
 |     |                       |  
 |     |                       |  
 |   H |               H       |  
 |  C  |              O H      |  
 |   HH|                 C     |  
 |     Li              LH      |  
 |     |              N        |  
 |     |     Li      Ni      Li|  
 |     |  Li      Li      Li   |  
 | Li  |   Li      Li          |  
 |     |Li      Li      Li     |  
 |     | Li                    |  
 |   LLi     LLi     LLi       |  
 |     |  Li      Li      Li   |  
 | Li  |   Li      Li          |  
 |     |Li      Li      Li     |  
 Li    | Li      Li            |  
 |    Li      Li      Li       |  
 |     |                       |  
 |     |                       |  
 |     |                       |  
 |     |                       |  
 |     |                       |  
 |     |                       |  
 |     .-----------------------.  
 |    /                       /   
 |   /                       /    
 |  /                       /     
 | /                       /      
 |/                       /       
 *-----------------------*        

Positions:
   0 Li     1.617037    1.617037   10.000000    ( 0.0000,  0.0000,  0.0000)
   1 Li     4.851111    1.617037   10.000000    ( 0.0000,  0.0000,  0.0000)
   2 Li     8.085185    1.617037   10.000000    ( 0.0000,  0.0000,  0.0000)
   3 Li     1.617037    4.851111   10.000000    ( 0.0000,  0.0000,  0.0000)
   4 Li     4.851111    4.851111   10.000000    ( 0.0000,  0.0000,  0.0000)
   5 Li     8.085185    4.851111   10.000000    ( 0.0000,  0.0000,  0.0000)
   6 Li     1.617037    8.085185   10.000000    ( 0.0000,  0.0000,  0.0000)
   7 Li     4.851111    8.085185   10.000000    ( 0.0000,  0.0000,  0.0000)
   8 Li     8.085185    8.085185   10.000000    ( 0.0000,  0.0000,  0.0000)
   9 Li     0.000000    0.000000   11.617037    ( 0.0000,  0.0000,  0.0000)
  10 Li     3.234074    0.000000   11.617037    ( 0.0000,  0.0000,  0.0000)
  11 Li     6.468148    0.000000   11.617037    ( 0.0000,  0.0000,  0.0000)
  12 Li     0.000000    3.234074   11.617037    ( 0.0000,  0.0000,  0.0000)
  13 Li     3.234074    3.234074   11.617037    ( 0.0000,  0.0000,  0.0000)
  14 Li     6.468148    3.234074   11.617037    ( 0.0000,  0.0000,  0.0000)
  15 Li     0.000000    6.468148   11.617037    ( 0.0000,  0.0000,  0.0000)
  16 Li     3.234074    6.468148   11.617037    ( 0.0000,  0.0000,  0.0000)
  17 Li     6.468148    6.468148   11.617037    ( 0.0000,  0.0000,  0.0000)
  18 Li     1.616474    1.616936   13.473513    ( 0.0000,  0.0000,  0.0000)
  19 Li     4.851704    1.616915   13.473132    ( 0.0000,  0.0000,  0.0000)
  20 Li     8.085151    1.617270   13.469931    ( 0.0000,  0.0000,  0.0000)
  21 Li     1.617121    4.851085   13.472301    ( 0.0000,  0.0000,  0.0000)
  22 Li     4.851066    4.851080   13.472399    ( 0.0000,  0.0000,  0.0000)
  23 Li     8.085144    4.850822   13.472869    ( 0.0000,  0.0000,  0.0000)
  24 Li     1.616709    8.085375   13.472871    ( 0.0000,  0.0000,  0.0000)
  25 Li     4.851455    8.085402   13.472730    ( 0.0000,  0.0000,  0.0000)
  26 Li     8.085165    8.085234   13.472598    ( 0.0000,  0.0000,  0.0000)
  27 Li     0.002807   -0.002223   15.441089    ( 0.0000,  0.0000,  0.0000)
  28 Li     3.233623    0.000503   15.444674    ( 0.0000,  0.0000,  0.0000)
  29 Li     6.465750   -0.002280   15.442288    ( 0.0000,  0.0000,  0.0000)
  30 Li     0.001836    3.236370   15.442714    ( 0.0000,  0.0000,  0.0000)
  31 Li     3.233741    3.233309   15.444704    ( 0.0000,  0.0000,  0.0000)
  32 Li     6.466695    3.236341   15.443368    ( 0.0000,  0.0000,  0.0000)
  33 Li    -0.000062    6.468221   15.444247    ( 0.0000,  0.0000,  0.0000)
  34 Li     3.233912    6.468376   15.444659    ( 0.0000,  0.0000,  0.0000)
  35 Li     6.468382    6.468109   15.444085    ( 0.0000,  0.0000,  0.0000)
  36 O      8.101905    1.588376   20.561873    ( 0.0000,  0.0000,  0.0000)
  37 C      9.305605    0.797056   20.521886    ( 0.0000,  0.0000,  0.0000)
  38 C     10.560650    1.625533   20.446128    ( 0.0000,  0.0000,  0.0000)
  39 H      9.265648    0.103276   21.342962    ( 0.0000,  0.0000,  0.0000)
  40 H      9.235046    0.177243   19.631618    ( 0.0000,  0.0000,  0.0000)
  41 H     11.428862    0.966363   20.418986    ( 0.0000,  0.0000,  0.0000)
  42 H     10.584491    2.266436   19.558694    ( 0.0000,  0.0000,  0.0000)
  43 H     10.629647    2.255822   21.330458    ( 0.0000,  0.0000,  0.0000)
  44 H      8.139700    2.232513   21.262247    ( 0.0000,  0.0000,  0.0000)
  45 N      8.029922    1.628844   18.264247    ( 0.0000,  0.0000,  0.0000)
  46 N      8.005481    0.521300   18.266794    ( 0.0000,  0.0000,  0.0000)

Unit cell:
           periodic     x           y           z      points  spacing
  1. axis:    yes    9.702222    0.000000    0.000000    60     0.1617
  2. axis:    yes    0.000000    9.702222    0.000000    60     0.1617
  3. axis:    no     0.000000    0.000000   24.851111   156     0.1593

  Lengths:   9.702222   9.702222  24.851111
  Angles:   90.000000  90.000000  90.000000

Effective grid spacing dv^(1/3) = 0.1609

     iter     time        total  log10-change:
                         energy  eigst   dens
iter:   1 00:04:26  -307.863181  -0.98
iter:   2 00:07:03  -307.838465  -1.52  -1.83
iter:   3 00:09:39  -307.833921c -2.34  -2.08
iter:   4 00:12:24  -307.829723c -2.05  -2.37
Writing to output.gpw (mode='')

iter:   5 00:15:10  -307.828983c -1.98  -2.60
iter:   6 00:17:42  -307.828333c -2.86  -2.53
iter:   7 00:20:26  -307.828857c -2.61  -2.84
iter:   8 00:23:13  -307.828381c -3.13  -2.82
iter:   9 00:25:46  -307.828395c -3.39  -2.98
Writing to output.gpw (mode='')

iter:  10 00:28:22  -307.828483c -3.41  -3.05
iter:  11 00:31:04  -307.828526c -3.73  -3.13
iter:  12 00:33:43  -307.828503c -4.16  -3.14
iter:  13 00:36:20  -307.828441c -3.88  -3.23
iter:  14 00:39:00  -307.828432c -4.33  -3.53
Writing to output.gpw (mode='')

iter:  15 00:41:35  -307.828441c -4.58  -3.63
iter:  16 00:44:07  -307.828444c -4.79  -3.71
iter:  17 00:46:39  -307.828459c -4.73  -3.78
iter:  18 00:49:14  -307.828457c -5.18  -4.00
iter:  19 00:51:49  -307.828454c -4.94  -4.06c
Writing to output.gpw (mode='')

iter:  20 00:54:22  -307.828456c -5.18  -4.15c
iter:  21 00:56:56  -307.828459c -5.27  -4.33c
iter:  22 00:59:35  -307.828458c -5.25  -4.44c
iter:  23 01:02:20  -307.828460c -5.61  -4.43c
iter:  24 01:04:56  -307.828461c -5.57  -4.59c
Writing to output.gpw (mode='')

iter:  25 01:07:36  -307.828462c -5.52  -4.69c
iter:  26 01:10:14  -307.828462c -5.74  -4.72c
iter:  27 01:12:55  -307.828464c -5.78  -4.77c
iter:  28 01:15:32  -307.828464c -5.95  -4.92c
iter:  29 01:18:02  -307.828464c -5.79  -4.99c
Writing to output.gpw (mode='')

iter:  30 01:20:37  -307.828464c -6.14  -5.04c
iter:  31 01:23:16  -307.828465c -6.12  -5.04c
iter:  32 01:25:55  -307.828465c -6.17  -5.14c
iter:  33 01:28:29  -307.828466c -6.22  -5.24c
iter:  34 01:31:04  -307.828466c -6.43  -5.39c
Writing to output.gpw (mode='')

iter:  35 01:33:45  -307.828466c -6.50  -5.48c
iter:  36 01:36:28  -307.828466c -6.46  -5.50c
iter:  37 01:39:11  -307.828466c -6.46  -5.52c
iter:  38 01:41:49  -307.828466c -6.53  -5.54c
iter:  39 01:44:20  -307.828466c -6.75  -5.68c
Writing to output.gpw (mode='')

iter:  40 01:46:56  -307.828467c -6.66  -5.76c
iter:  41 01:49:34  -307.828467c -6.45  -5.81c
iter:  42 01:52:11  -307.828467c -6.72  -5.91c
iter:  43 01:54:48  -307.828467c -6.93  -5.94c
iter:  44 01:57:21  -307.828467c -6.89  -5.89c
Writing to output.gpw (mode='')

iter:  45 02:00:00  -307.828467c -7.04  -5.81c
iter:  46 02:02:41  -307.828467c -6.88  -5.82c
iter:  47 02:05:12  -307.828467c -6.94  -5.81c
iter:  48 02:07:42  -307.828467c -7.09  -5.79c
iter:  49 02:10:15  -307.828467c -7.15  -5.72c
Writing to output.gpw (mode='')

iter:  50 02:12:47  -307.828467c -7.14  -5.53c
iter:  51 02:15:15  -307.828467c -7.23  -5.75c
iter:  52 02:17:44  -307.828467c -7.27  -5.72c
iter:  53 02:20:10  -307.828467c -7.21  -5.73c
iter:  54 02:22:41  -307.828467c -7.31  -5.72c
Writing to output.gpw (mode='')

iter:  55 02:25:19  -307.828467c -7.24  -5.73c
iter:  56 02:27:50  -307.828468c -7.39  -5.69c
iter:  57 02:30:31  -307.828468c -7.57c -5.64c

Converged after 57 iterations.

Dipole moment: (7.577721, -14.904989, 0.356879) |e|*Ang

Energy contributions relative to reference atoms: (reference = -14434.854043)

Kinetic:       +156.452241
Potential:     -150.356489
External:        +0.000000
XC:            -314.595708
Entropy (-ST):   -0.153630
Local:           +0.748304
--------------------------
Free energy:   -307.905283
Extrapolated:  -307.828468

Dipole-layer corrected work functions: 3.393012, 2.706967 eV

Showing only first 2 kpts
 Kpt  Band  Eigenvalues  Occupancy
  0    31     -3.30201    1.98714
  0    32     -3.22117    1.93687
  0    33     -2.88118    0.06610
  0    34     -2.79622    0.01242

  1    31     -3.07261    1.22244
  1    32     -3.03985    0.89895
  1    33     -3.01473    0.66134
  1    34     -3.00406    0.57047


Fermi level: -3.04999

No gap
Writing to output.gpw (mode='')


Forces in eV/Ang:
  0 Li    0.00629   -0.00014   -0.27309
  1 Li   -0.00680    0.00019   -0.27280
  2 Li    0.00052    0.00250   -0.27138
  3 Li   -0.00280   -0.00296   -0.27590
  4 Li    0.00325   -0.00247   -0.27533
  5 Li   -0.00042    0.00561   -0.27319
  6 Li   -0.00162    0.00224   -0.27329
  7 Li    0.00166    0.00134   -0.27295
  8 Li   -0.00002   -0.00750   -0.27165
  9 Li    0.00041   -0.00172    0.26416
 10 Li   -0.00101    0.00237    0.25760
 11 Li    0.00060   -0.00221    0.26552
 12 Li    0.00324    0.00444    0.25842
 13 Li   -0.00024   -0.00726    0.26166
 14 Li   -0.00305    0.00507    0.25826
 15 Li   -0.00200   -0.00383    0.25868
 16 Li    0.00007    0.00612    0.27201
 17 Li    0.00186   -0.00381    0.25675
 18 Li   -0.00699   -0.00107    0.04336
 19 Li    0.00729   -0.00156    0.03968
 20 Li   -0.00031    0.00356   -0.00369
 21 Li    0.00176    0.00051    0.02830
 22 Li   -0.00119    0.00001    0.02985
 23 Li   -0.00055   -0.00395    0.03563
 24 Li   -0.00353    0.00178    0.03489
 25 Li    0.00383    0.00274    0.03431
 26 Li   -0.00034    0.00027    0.03274
 27 Li    0.04128   -0.03151   -0.06683
 28 Li   -0.00511    0.00677   -0.01378
 29 Li   -0.03465   -0.03413   -0.05277
 30 Li    0.02577    0.03272   -0.04260
 31 Li   -0.00382   -0.01024   -0.01310
 32 Li   -0.02123    0.03445   -0.03636
 33 Li   -0.00191    0.00174   -0.01899
[...]
  46 N      6.810855    1.248801   18.542547    ( 0.0000,  0.0000,  0.0000)

Unit cell:
           periodic     x           y           z      points  spacing
  1. axis:    yes    9.702222    0.000000    0.000000    60     0.1617
  2. axis:    yes    0.000000    9.702222    0.000000    60     0.1617
  3. axis:    no     0.000000    0.000000   24.851111   156     0.1593

  Lengths:   9.702222   9.702222  24.851111
  Angles:   90.000000  90.000000  90.000000

Effective grid spacing dv^(1/3) = 0.1609

     iter     time        total  log10-change:
                         energy  eigst   dens
iter:   1 04:58:48  -308.791480  -2.56
iter:   2 05:01:15  -308.791510  -3.33  -2.89
iter:   3 05:03:50  -308.791433c -3.84  -3.00
iter:   4 05:06:26  -308.791349c -3.75  -3.08
Writing to output.gpw (mode='')

iter:   5 05:08:57  -308.791359c -4.28  -3.27
iter:   6 05:11:34  -308.791388c -4.09  -3.49
iter:   7 05:14:05  -308.791358c -4.67  -3.65
iter:   8 05:16:38  -308.791329c -4.96  -3.71
iter:   9 05:19:26  -308.791325c -5.29  -3.86
Writing to output.gpw (mode='')

iter:  10 05:22:14  -308.791347c -5.61  -4.02c
iter:  11 05:24:53  -308.791333c -5.75  -4.12c
iter:  12 05:27:28  -308.791343c -6.11  -4.14c
iter:  13 05:29:58  -308.791343c -6.06  -4.26c
iter:  14 05:32:31  -308.791346c -6.19  -4.41c
Writing to output.gpw (mode='')

iter:  15 05:35:00  -308.791346c -6.51  -4.45c
iter:  16 05:37:29  -308.791343c -6.53  -4.55c
iter:  17 05:40:02  -308.791343c -7.04  -4.83c
iter:  18 05:42:34  -308.791343c -7.07  -4.87c
iter:  19 05:45:13  -308.791341c -7.06  -5.00c
Writing to output.gpw (mode='')

iter:  20 05:47:46  -308.791342c -7.57c -5.11c

Converged after 20 iterations.

Dipole moment: (1.801704, -4.430684, 0.163359) |e|*Ang

Energy contributions relative to reference atoms: (reference = -14434.854043)

Kinetic:       +147.835324
Potential:     -144.443118
External:        +0.000000
XC:            -312.866745
Entropy (-ST):   -0.156692
Local:           +0.761544
--------------------------
Free energy:   -308.869687
Extrapolated:  -308.791342

Dipole-layer corrected work functions: 3.399765, 3.085732 eV

Showing only first 2 kpts
 Kpt  Band  Eigenvalues  Occupancy
  0    31     -3.46730    1.97783
  0    32     -3.40407    1.92363
  0    33     -3.08925    0.08872
  0    34     -2.99963    0.01534

  1    31     -3.28425    1.39274
  1    32     -3.22819    0.85540
  1    33     -3.21355    0.71599
  1    34     -3.18919    0.51033


Fermi level: -3.24275

No gap

Forces in eV/Ang:
  0 Li    0.00205    0.00294   -0.27991
  1 Li   -0.00664    0.00189   -0.26638
  2 Li    0.00518    0.00260   -0.26597
  3 Li   -0.00129    0.00329   -0.28742
  4 Li    0.00093    0.00428   -0.26877
  5 Li   -0.00011    0.00704   -0.26823
  6 Li   -0.00095    0.00542   -0.27152
  7 Li   -0.00068   -0.00048   -0.28128
  8 Li   -0.00056   -0.00416   -0.28062
  9 Li   -0.00620   -0.00505    0.30006
 10 Li    0.01831    0.01145    0.30523
 11 Li   -0.01084   -0.01068    0.30838
 12 Li   -0.00177    0.01200    0.28318
 13 Li    0.00931   -0.00239    0.29006
 14 Li   -0.00978    0.00112    0.23135
 15 Li   -0.03892   -0.04276    0.29969
 16 Li    0.04501   -0.04524    0.29689
 17 Li   -0.00253   -0.04268    0.28856
 18 Li    0.01575    0.00293   -0.01177
 19 Li   -0.00140   -0.00050   -0.01065
 20 Li    0.00577   -0.00951    0.04689
 21 Li    0.00916    0.00135    0.00391
 22 Li    0.00145    0.00353    0.00294
 23 Li   -0.00084    0.00658   -0.00956
 24 Li    0.00179   -0.00262    0.00485
 25 Li   -0.00734   -0.00777   -0.01313
 26 Li    0.00551   -0.00719   -0.01228
 27 Li   -0.01295    0.01233    0.00608
 28 Li   -0.00324   -0.00467   -0.00183
 29 Li    0.01084    0.02067    0.00111
 30 Li    0.00484   -0.00665   -0.00070
 31 Li   -0.00113    0.00705   -0.00232
 32 Li    0.00252    0.00661   -0.08404
 33 Li   -0.00129   -0.00320   -0.00457
 34 Li   -0.00172   -0.00360   -0.01646
 35 Li   -0.00015    0.00472    0.00492
 36 O     0.02555    0.01887    0.06077
 37 C     0.06502   -0.01829    0.01330
 38 C     0.00758    0.01525   -0.03158
 39 H     0.00149   -0.00154    0.01069
 40 H    -0.10213    0.03946   -0.01206
 41 H     0.01992    0.06982    0.01706
 42 H    -0.01516   -0.01544   -0.01982
 43 H     0.03822   -0.03843   -0.00427
 44 H    -0.03674   -0.02017   -0.04606
 45 N    -0.00462   -0.07112    0.07438
 46 N    -0.03643    0.10015   -0.08499

System changes: positions 

Initializing position-dependent things.

Density initialized from wave functions
       .-----------------------.  
      /|                       |  
     / |                       |  
    /  |                       |  
   /   |                       |  
  /    |                       |  
 *     |                      H|  
 |     |                       |  
 |     |               H       |  
 |H   H|               O       |  
 |     |                 C     |  
 |  C H|                       |  
 |     Li              Li      |  
 |     |           N           |  
 |     |     Li    N Li      Li|  
 |     |  Li      LLi     Li   |  
 | Li  |   Li                  |  
 |     |Li      Li      Li     |  
 |     | Li                    |  
 |   LLi     LLi     LLi       |  
 |     |  Li      Li      Li   |  
 | Li  |   Li      Li          |  
 |     |Li      Li      Li     |  
 Li    | Li      Li            |  
 |    Li      Li      Li       |  
 |     |                       |  
 |     |                       |  
 |     |                       |  
 |     |                       |  
 |     |                       |  
 |     |                       |  
 |     .-----------------------.  
 |    /                       /   
 |   /                       /    
 |  /                       /     
 | /                       /      
 |/                       /       
 *-----------------------*        

Positions:
   0 Li     1.617037    1.617037   10.000000    ( 0.0000,  0.0000,  0.0000)
   1 Li     4.851111    1.617037   10.000000    ( 0.0000,  0.0000,  0.0000)
   2 Li     8.085185    1.617037   10.000000    ( 0.0000,  0.0000,  0.0000)
   3 Li     1.617037    4.851111   10.000000    ( 0.0000,  0.0000,  0.0000)
   4 Li     4.851111    4.851111   10.000000    ( 0.0000,  0.0000,  0.0000)
   5 Li     8.085185    4.851111   10.000000    ( 0.0000,  0.0000,  0.0000)
   6 Li     1.617037    8.085185   10.000000    ( 0.0000,  0.0000,  0.0000)
   7 Li     4.851111    8.085185   10.000000    ( 0.0000,  0.0000,  0.0000)
   8 Li     8.085185    8.085185   10.000000    ( 0.0000,  0.0000,  0.0000)
   9 Li     0.000000    0.000000   11.617037    ( 0.0000,  0.0000,  0.0000)
  10 Li     3.234074    0.000000   11.617037    ( 0.0000,  0.0000,  0.0000)
  11 Li     6.468148    0.000000   11.617037    ( 0.0000,  0.0000,  0.0000)
  12 Li     0.000000    3.234074   11.617037    ( 0.0000,  0.0000,  0.0000)
  13 Li     3.234074    3.234074   11.617037    ( 0.0000,  0.0000,  0.0000)
  14 Li     6.468148    3.234074   11.617037    ( 0.0000,  0.0000,  0.0000)
  15 Li     0.000000    6.468148   11.617037    ( 0.0000,  0.0000,  0.0000)
  16 Li     3.234074    6.468148   11.617037    ( 0.0000,  0.0000,  0.0000)
  17 Li     6.468148    6.468148   11.617037    ( 0.0000,  0.0000,  0.0000)
  18 Li     1.616059    1.629279   13.485116    ( 0.0000,  0.0000,  0.0000)
  19 Li     4.892030    1.630371   13.546294    ( 0.0000,  0.0000,  0.0000)
  20 Li     8.052832    1.628025   13.493348    ( 0.0000,  0.0000,  0.0000)
  21 Li     1.624855    4.859947   13.493686    ( 0.0000,  0.0000,  0.0000)
  22 Li     4.890530    4.770731   13.574025    ( 0.0000,  0.0000,  0.0000)
  23 Li     8.043611    4.768862   13.570275    ( 0.0000,  0.0000,  0.0000)
  24 Li     1.626475    8.067193   13.479549    ( 0.0000,  0.0000,  0.0000)
  25 Li     4.849966    8.037865   13.498385    ( 0.0000,  0.0000,  0.0000)
  26 Li     8.080807    8.037835   13.489766    ( 0.0000,  0.0000,  0.0000)
  27 Li     0.024061   -0.014217   15.375188    ( 0.0000,  0.0000,  0.0000)
  28 Li     3.229799    0.009325   15.421318    ( 0.0000,  0.0000,  0.0000)
  29 Li     6.461626   -0.185053   15.396119    ( 0.0000,  0.0000,  0.0000)
  30 Li     0.048485    3.240742   15.441817    ( 0.0000,  0.0000,  0.0000)
  31 Li     3.219872    3.220970   15.479791    ( 0.0000,  0.0000,  0.0000)
  32 Li     6.511121    2.994645   15.886921    ( 0.0000,  0.0000,  0.0000)
  33 Li    -0.009323    6.470325   15.461362    ( 0.0000,  0.0000,  0.0000)
  34 Li     3.237861    6.477074   15.482833    ( 0.0000,  0.0000,  0.0000)
  35 Li     6.473807    6.348267   15.497273    ( 0.0000,  0.0000,  0.0000)
  36 O      8.349192    1.477408   21.323559    ( 0.0000,  0.0000,  0.0000)
  37 C      9.554199    0.745613   21.042399    ( 0.0000,  0.0000,  0.0000)
  38 C     10.646092    1.604111   20.418795    ( 0.0000,  0.0000,  0.0000)
  39 H      9.924937    0.267697   21.955608    ( 0.0000,  0.0000,  0.0000)
  40 H      9.259365   -0.042812   20.348305    ( 0.0000,  0.0000,  0.0000)
  41 H     11.526625    0.993043   20.195868    ( 0.0000,  0.0000,  0.0000)
  42 H     10.300549    2.057316   19.486473    ( 0.0000,  0.0000,  0.0000)
  43 H     10.947538    2.409184   21.097012    ( 0.0000,  0.0000,  0.0000)
  44 H      8.558566    2.127627   22.005564    ( 0.0000,  0.0000,  0.0000)
  45 N      6.701374    1.917063   17.654702    ( 0.0000,  0.0000,  0.0000)
  46 N      6.805817    1.259206   18.545858    ( 0.0000,  0.0000,  0.0000)

Unit cell:
           periodic     x           y           z      points  spacing
  1. axis:    yes    9.702222    0.000000    0.000000    60     0.1617
  2. axis:    yes    0.000000    9.702222    0.000000    60     0.1617
  3. axis:    no     0.000000    0.000000   24.851111   156     0.1593

  Lengths:   9.702222   9.702222  24.851111
  Angles:   90.000000  90.000000  90.000000

Effective grid spacing dv^(1/3) = 0.1609

     iter     time        total  log10-change:
                         energy  eigst   dens
iter:   1 05:50:55  -308.802813  -1.63
iter:   2 05:53:43  -308.798436  -2.17  -2.07
iter:   3 05:56:23  -308.795505c -2.97  -2.25
iter:   4 05:59:05  -308.794531c -2.96  -2.50
Writing to output.gpw (mode='')

iter:   5 06:01:39  -308.794533c -2.92  -2.83
iter:   6 06:04:17  -308.794317c -3.25  -2.92
iter:   7 06:06:55  -308.794671c -2.83  -3.15
iter:   8 06:09:36  -308.794229c -3.91  -2.97
iter:   9 06:12:13  -308.794209c -4.27  -3.48
Writing to output.gpw (mode='')

iter:  10 06:14:55  -308.794296c -4.40  -3.49
iter:  11 06:17:33  -308.794227c -4.51  -3.56
iter:  12 06:20:15  -308.794230c -4.95  -3.77
iter:  13 06:22:48  -308.794237c -5.50  -3.83
iter:  14 06:25:26  -308.794240c -5.22  -3.94
Writing to output.gpw (mode='')

iter:  15 06:28:05  -308.794220c -5.21  -4.05c
iter:  16 06:30:48  -308.794225c -5.70  -4.12c
iter:  17 06:33:33  -308.794227c -5.84  -4.22c
iter:  18 06:36:15  -308.794225c -6.13  -4.37c
iter:  19 06:38:53  -308.794230c -5.95  -4.43c
Writing to output.gpw (mode='')

iter:  20 06:41:39  -308.794232c -6.07  -4.66c
iter:  21 06:44:20  -308.794231c -6.44  -4.71c
iter:  22 06:46:56  -308.794230c -6.61  -4.74c
iter:  23 06:49:34  -308.794230c -6.69  -4.93c
iter:  24 06:52:14  -308.794231c -6.84  -5.00c
Writing to output.gpw (mode='')

iter:  25 06:54:53  -308.794230c -6.73  -5.04c
iter:  26 06:57:24  -308.794230c -7.20  -5.15c
iter:  27 06:59:57  -308.794229c -7.08  -5.34c
iter:  28 07:02:32  -308.794229c -7.27  -5.43c
iter:  29 07:05:01  -308.794230c -7.41c -5.45c

Converged after 29 iterations.

Dipole moment: (1.749268, -4.687249, 0.164005) |e|*Ang

Energy contributions relative to reference atoms: (reference = -14434.854043)

Kinetic:       +147.921280
Potential:     -144.516069
External:        +0.000000
XC:            -312.882572
Entropy (-ST):   -0.156321
Local:           +0.761292
--------------------------
Free energy:   -308.872390
Extrapolated:  -308.794230

Dipole-layer corrected work functions: 3.399766, 3.084493 eV

Showing only first 2 kpts
 Kpt  Band  Eigenvalues  Occupancy
  0    31     -3.46757    1.97822
  0    32     -3.40380    1.92414
  0    33     -3.08775    0.08724
  0    34     -2.99818    0.01510

  1    31     -3.28330    1.38987
  1    32     -3.22718    0.85161
  1    33     -3.21295    0.71625
  1    34     -3.18813    0.50704


Fermi level: -3.24213

No gap
Writing to output.gpw (mode='')


Forces in eV/Ang:
  0 Li    0.00194    0.00304   -0.27995
  1 Li   -0.00678    0.00182   -0.26649
  2 Li    0.00518    0.00263   -0.26613
  3 Li   -0.00120    0.00308   -0.28730
  4 Li    0.00078    0.00432   -0.26880
  5 Li   -0.00024    0.00707   -0.26836
  6 Li   -0.00091    0.00550   -0.27168
  7 Li   -0.00070   -0.00048   -0.28140
  8 Li   -0.00060   -0.00409   -0.28062
  9 Li   -0.00601   -0.00454    0.30029
 10 Li    0.01892    0.01086    0.30420
 11 Li   -0.01050   -0.01096    0.30841
 12 Li   -0.00131    0.01228    0.28369
 13 Li    0.01091   -0.00192    0.28814
 14 Li   -0.00966    0.00071    0.23202
 15 Li   -0.03780   -0.04415    0.30015
 16 Li    0.04585   -0.04514    0.29579
 17 Li   -0.00363   -0.04290    0.28832
 18 Li    0.01587    0.00202   -0.00991
 19 Li   -0.00463   -0.00140   -0.01256
 20 Li    0.00681   -0.00839    0.03910
 21 Li    0.00643    0.00189    0.00344
 22 Li    0.00149    0.00447    0.00105
 23 Li    0.00013    0.00785   -0.00983
 24 Li    0.00081   -0.00213    0.00535
 25 Li   -0.00549   -0.00667   -0.01301
 26 Li    0.00479   -0.00686   -0.01183
 27 Li   -0.00974    0.00966    0.00893
 28 Li   -0.00372   -0.00801   -0.00309
 29 Li    0.00786    0.01897    0.00247
 30 Li    0.00466   -0.00602    0.00212
 31 Li   -0.00204    0.01095   -0.00505
 32 Li   -0.00130   -0.00655   -0.06098
 33 Li    0.00106   -0.00221   -0.00505
 34 Li   -0.00188   -0.00479   -0.01409
 35 Li   -0.00174    0.00580    0.00363
 36 O     0.07126    0.01467    0.03446
 37 C     0.01431    0.04658   -0.03154
 38 C     0.00554    0.05949   -0.02532
 39 H     0.00958   -0.05729    0.03754
 40 H    -0.07768   -0.02888    0.00911
 41 H    -0.00731    0.05280    0.03087
 42 H    -0.01061   -0.00530   -0.00626
 43 H     0.02862   -0.04059   -0.02561
 44 H    -0.02494   -0.00194   -0.02706
 45 N     0.03827   -0.02360    0.05605
 46 N    -0.04198    0.09937   -0.07106

System changes: positions 

Initializing position-dependent things.

Density initialized from wave functions
       .-----------------------.  
      /|                       |  
     / |                       |  
    /  |                       |  
   /   |                       |  
  /    |                       |  
 *     |                      H|  
 |     |                       |  
 |     |               H       |  
 |H   H|               O       |  
 |     |                 C     |  
 |  C H|                       |  
 |     Li              Li      |  
 |     |           N           |  
 |     |     Li    N Li      Li|  
 |     |  Li      LLi     Li   |  
 | Li  |   Li                  |  
 |     |Li      Li      Li     |  
 |     | Li                    |  
 |   LLi     LLi     LLi       |  
 |     |  Li      Li      Li   |  
 | Li  |   Li      Li          |  
 |     |Li      Li      Li     |  
 Li    | Li      Li            |  
 |    Li      Li      Li       |  
 |     |                       |  
 |     |                       |  
 |     |                       |  
 |     |                       |  
 |     |                       |  
 |     |                       |  
 |     .-----------------------.  
 |    /                       /   
 |   /                       /    
 |  /                       /     
 | /                       /      
 |/                       /       
 *-----------------------*        

Positions:
   0 Li     1.617037    1.617037   10.000000    ( 0.0000,  0.0000,  0.0000)
   1 Li     4.851111    1.617037   10.000000    ( 0.0000,  0.0000,  0.0000)
   2 Li     8.085185    1.617037   10.000000    ( 0.0000,  0.0000,  0.0000)
   3 Li     1.617037    4.851111   10.000000    ( 0.0000,  0.0000,  0.0000)
   4 Li     4.851111    4.851111   10.000000    ( 0.0000,  0.0000,  0.0000)
   5 Li     8.085185    4.851111   10.000000    ( 0.0000,  0.0000,  0.0000)
   6 Li     1.617037    8.085185   10.000000    ( 0.0000,  0.0000,  0.0000)
   7 Li     4.851111    8.085185   10.000000    ( 0.0000,  0.0000,  0.0000)
   8 Li     8.085185    8.085185   10.000000    ( 0.0000,  0.0000,  0.0000)
   9 Li     0.000000    0.000000   11.617037    ( 0.0000,  0.0000,  0.0000)
  10 Li     3.234074    0.000000   11.617037    ( 0.0000,  0.0000,  0.0000)
  11 Li     6.468148    0.000000   11.617037    ( 0.0000,  0.0000,  0.0000)
  12 Li     0.000000    3.234074   11.617037    ( 0.0000,  0.0000,  0.0000)
  13 Li     3.234074    3.234074   11.617037    ( 0.0000,  0.0000,  0.0000)
  14 Li     6.468148    3.234074   11.617037    ( 0.0000,  0.0000,  0.0000)
  15 Li     0.000000    6.468148   11.617037    ( 0.0000,  0.0000,  0.0000)
  16 Li     3.234074    6.468148   11.617037    ( 0.0000,  0.0000,  0.0000)
  17 Li     6.468148    6.468148   11.617037    ( 0.0000,  0.0000,  0.0000)
  18 Li     1.618505    1.630701   13.482313    ( 0.0000,  0.0000,  0.0000)
  19 Li     4.893843    1.630377   13.545754    ( 0.0000,  0.0000,  0.0000)
  20 Li     8.052304    1.627192   13.494677    ( 0.0000,  0.0000,  0.0000)
  21 Li     1.629095    4.860324   13.494171    ( 0.0000,  0.0000,  0.0000)
  22 Li     4.889467    4.769802   13.575766    ( 0.0000,  0.0000,  0.0000)
  23 Li     8.042907    4.767993   13.568285    ( 0.0000,  0.0000,  0.0000)
  24 Li     1.627953    8.066100   13.478763    ( 0.0000,  0.0000,  0.0000)
  25 Li     4.848158    8.036581   13.498494    ( 0.0000,  0.0000,  0.0000)
  26 Li     8.080820    8.035850   13.487137    ( 0.0000,  0.0000,  0.0000)
  27 Li     0.023356   -0.012329   15.368515    ( 0.0000,  0.0000,  0.0000)
  28 Li     3.229345    0.011974   15.421889    ( 0.0000,  0.0000,  0.0000)
  29 Li     6.464274   -0.187379   15.394850    ( 0.0000,  0.0000,  0.0000)
  30 Li     0.050937    3.241347   15.436569    ( 0.0000,  0.0000,  0.0000)
  31 Li     3.220985    3.217250   15.484267    ( 0.0000,  0.0000,  0.0000)
  32 Li     6.515074    2.998054   15.873324    ( 0.0000,  0.0000,  0.0000)
  33 Li    -0.012248    6.469592   15.460298    ( 0.0000,  0.0000,  0.0000)
  34 Li     3.238098    6.477856   15.482106    ( 0.0000,  0.0000,  0.0000)
  35 Li     6.475296    6.346154   15.498325    ( 0.0000,  0.0000,  0.0000)
  36 O      8.350665    1.480284   21.324942    ( 0.0000,  0.0000,  0.0000)
  37 C      9.556354    0.747368   21.041851    ( 0.0000,  0.0000,  0.0000)
  38 C     10.648534    1.603234   20.411861    ( 0.0000,  0.0000,  0.0000)
  39 H      9.925879    0.272286   21.956290    ( 0.0000,  0.0000,  0.0000)
  40 H      9.255600   -0.037375   20.346577    ( 0.0000,  0.0000,  0.0000)
  41 H     11.530705    0.994824   20.186959    ( 0.0000,  0.0000,  0.0000)
  42 H     10.298526    2.057353   19.480654    ( 0.0000,  0.0000,  0.0000)
  43 H     10.955902    2.404747   21.091327    ( 0.0000,  0.0000,  0.0000)
  44 H      8.558153    2.124344   22.013118    ( 0.0000,  0.0000,  0.0000)
  45 N      6.691282    1.923574   17.648976    ( 0.0000,  0.0000,  0.0000)
  46 N      6.796766    1.278596   18.549164    ( 0.0000,  0.0000,  0.0000)

Unit cell:
           periodic     x           y           z      points  spacing
  1. axis:    yes    9.702222    0.000000    0.000000    60     0.1617
  2. axis:    yes    0.000000    9.702222    0.000000    60     0.1617
  3. axis:    no     0.000000    0.000000   24.851111   156     0.1593

  Lengths:   9.702222   9.702222  24.851111
  Angles:   90.000000  90.000000  90.000000

Effective grid spacing dv^(1/3) = 0.1609

     iter     time        total  log10-change:
                         energy  eigst   dens
iter:   1 07:08:20  -308.800076  -1.50
iter:   2 07:10:58  -308.798453  -2.17  -2.19
iter:   3 07:13:40  -308.797080c -2.80  -2.35
iter:   4 07:16:20  -308.796146c -2.77  -2.54
