
  ___ ___ ___ _ _ _  
 |   |   |_  | | | | 
 | | | | | . | | | | 
 |__ |  _|___|_____|  22.8.0
 |___|_|             

User:   vazumah@c16.hercules
Date:   Wed Jan 18 09:40:04 2023
Arch:   x86_64
Pid:    10367
CWD:    /home/vazumah/Python_projects/LiNRR/Li_adsorb_studies/autocat/close_proximity_proton_donors/adsorbates/HF/bridge/0.0_1.617
Python: 3.10.8
gpaw:   /home/vazumah/.conda/envs/GPAW/lib/python3.10/site-packages/gpaw
_gpaw:  /home/vazumah/.conda/envs/GPAW/lib/python3.10/site-packages/
        _gpaw.cpython-310-x86_64-linux-gnu.so
ase:    /home/vazumah/.conda/envs/GPAW/lib/python3.10/site-packages/ase (version 3.22.1)
numpy:  /home/vazumah/.conda/envs/GPAW/lib/python3.10/site-packages/numpy (version 1.24.1)
scipy:  /home/vazumah/.conda/envs/GPAW/lib/python3.10/site-packages/scipy (version 1.10.0)
libxc:  5.2.3
units:  Angstrom and eV
cores: 24
OpenMP: True
OMP_NUM_THREADS: 1

Input parameters:
  h: 0.16
  kpts: {size: [4, 4, 1]}
  occupations: {name: fermi-dirac,
                width: 0.05}
  poissonsolver: {dipolelayer: xy}
  xc: BEEF-vdW

System changes: positions, numbers, cell, pbc, initial_charges, initial_magmoms 

Initialize ...

species:
  Li:
    name: Lithium
    id: 830b4218f175192f93f959cfc0aad614
    Z: 3.0
    valence: 1
    core: 2
    charge: 0.0
    file: /home/vazumah/.conda/envs/GPAW/share/gpaw/Li.PBE.gz
    compensation charges: {type: gauss,
                           rc: 0.33,
                           lmax: 2}
    cutoffs: {filter: 1.91,
              core: 2.55}
    valence states:
      #              energy  rcut
      - 2s(1.00)    -2.874   1.058
      - 2p(0.00)    -1.090   1.058
      -  s          24.337   1.058
  
    # Using partial waves for Li as LCAO basis

  F:
    name: Fluorine
    id: 9cd46ba2a61e170ad72278be75b55cc0
    Z: 9.0
    valence: 7
    core: 2
    charge: 0.0
    file: /home/vazumah/.conda/envs/GPAW/share/gpaw/F.PBE.gz
    compensation charges: {type: gauss,
                           rc: 0.20,
                           lmax: 2}
    cutoffs: {filter: 1.14,
              core: 0.74}
    valence states:
      #              energy  rcut
      - 2s(2.00)   -29.898   0.635
      - 2p(5.00)   -11.110   0.635
      -  s          -2.687   0.635
      -  p          16.102   0.635
      -  d           0.000   0.635
  
    # Using partial waves for F as LCAO basis

  H:
    name: Hydrogen
    id: d65de229564ff8ea4db303e23b6d1ecf
    Z: 1.0
    valence: 1
    core: 0
    charge: 0.0
    file: /home/vazumah/.conda/envs/GPAW/share/gpaw/H.PBE.gz
    compensation charges: {type: gauss,
                           rc: 0.15,
                           lmax: 2}
    cutoffs: {filter: 0.85,
              core: 0.53}
    valence states:
      #              energy  rcut
      - 1s(1.00)    -6.494   0.476
      -  s          20.717   0.476
      -  p           0.000   0.476
  
    # Using partial waves for H as LCAO basis

Reference energy: -10026.932476  # eV

Spin-paired calculation

Convergence criteria:
 Maximum [total energy] change in last 3 cyles: 0.0005 eV / electron
 Maximum integral of absolute [dens]ity change: 0.0001 electrons / valence electron
 Maximum integral of absolute [eigenst]ate change: 4e-08 eV^2 / valence electron
 Maximum number of scf [iter]ations: 333
 (Square brackets indicate name in SCF output, whereas a 'c' in
 the SCF output indicates the quantity has converged.)

Symmetries present (total): 1

  ( 1  0  0)
  ( 0  1  0)
  ( 0  0  1)

16 k-points: 4 x 4 x 1 Monkhorst-Pack grid
8 k-points in the irreducible part of the Brillouin zone
       k-points in crystal coordinates                weights
   0:     0.12500000   -0.37500000    0.00000000          2/16
   1:     0.12500000   -0.12500000    0.00000000          2/16
   2:     0.12500000    0.12500000    0.00000000          2/16
   3:     0.12500000    0.37500000    0.00000000          2/16
   4:     0.37500000   -0.37500000    0.00000000          2/16
   5:     0.37500000   -0.12500000    0.00000000          2/16
   6:     0.37500000    0.12500000    0.00000000          2/16
   7:     0.37500000    0.37500000    0.00000000          2/16

Wave functions: Uniform real-space grid
  Kinetic energy operator: 6*3+1=19 point O(h^6) finite-difference Laplacian
  ScaLapack parameters: grid=1x1, blocksize=None
  Wavefunction extrapolation:
    Improved wavefunction reuse through dual PAW basis 

Occupation numbers: Fermi-Dirac:
  width: 0.0500  # eV
 

Eigensolver
   Davidson(niter=2) 

Densities:
  Coarse grid: 60*60*156 grid
  Fine grid: 120*120*312 grid
  Total Charge: 0.000000 

Density mixing:
  Method: separate
  Backend: pulay
  Linear mixing parameter: 0.05
  old densities: 5
  Damping of long wavelength oscillations: 50 

Hamiltonian:
  XC and Coulomb potentials evaluated on a 120*120*312 grid
  Using the BEEF-vdW Exchange-Correlation functional
  Interpolation: tri-quintic (5. degree polynomial)
  Poisson solver: FastPoissonSolver using
    Stencil: 6*3+1=19 point O(h^6) finite-difference Laplacian
    FFT axes: [0, 1]
    FST axes: [2]

Dipole correction along z-axis 

XC parameters: BEEF-vdW with 2 nearest neighbor stencil

Memory estimate:
  Process memory now: 217.36 MiB
  Calculator: 335.97 MiB
    Density: 115.69 MiB
      Arrays: 36.75 MiB
      Localized functions: 64.93 MiB
      Mixer: 14.01 MiB
    Hamiltonian: 29.17 MiB
      Arrays: 24.03 MiB
      XC: 0.00 MiB
      Poisson: 0.00 MiB
      vbar: 5.13 MiB
    Wavefunctions: 191.12 MiB
      Arrays psit_nG: 86.85 MiB
      Eigensolver: 101.00 MiB
      Projections: 0.03 MiB
      Projectors: 3.24 MiB

Total number of cores used: 24
Parallelization over k-points: 8
Domain decomposition: 1 x 1 x 3

Number of atoms: 38
Number of atomic orbitals: 149
Number of bands in calculation: 31
Number of valence electrons: 44
Bands to converge: occupied

... initialized

Initializing position-dependent things.

Density initialized from atomic densities
Creating initial wave functions:
  31 bands from LCAO basis set

       .-----------------------.  
      /|                       |  
     / |                       |  
    /  |                       |  
   /   |                       |  
  /    |                       |  
 *     |                       |  
 |     |                       |  
 |     |                       |  
 |     |                       |  
 |     |                       |  
 |     |                       |  
 |     |                       |  
 |F H  |                       |  
 |   Li|     Li      Li        |  
 |     |  Li      Li      Li   |  
 | Li  |   Li      Li          |  
 |     |Li      Li      Li     |  
 Li    | Li      Li            |  
 |   LLi     LLi     LLi       |  
 |     |  Li      Li      Li   |  
 | Li  |   Li      Li          |  
 |     |Li      Li      Li     |  
 Li    | Li      Li            |  
 |    Li      Li      Li       |  
 |     |                       |  
 |     |                       |  
 |     |                       |  
 |     |                       |  
 |     |                       |  
 |     |                       |  
 |     .-----------------------.  
 |    /                       /   
 |   /                       /    
 |  /                       /     
 | /                       /      
 |/                       /       
 *-----------------------*        

Positions:
   0 Li     1.617037    1.617037   10.000000    ( 0.0000,  0.0000,  0.0000)
   1 Li     4.851111    1.617037   10.000000    ( 0.0000,  0.0000,  0.0000)
   2 Li     8.085185    1.617037   10.000000    ( 0.0000,  0.0000,  0.0000)
   3 Li     1.617037    4.851111   10.000000    ( 0.0000,  0.0000,  0.0000)
   4 Li     4.851111    4.851111   10.000000    ( 0.0000,  0.0000,  0.0000)
   5 Li     8.085185    4.851111   10.000000    ( 0.0000,  0.0000,  0.0000)
   6 Li     1.617037    8.085185   10.000000    ( 0.0000,  0.0000,  0.0000)
   7 Li     4.851111    8.085185   10.000000    ( 0.0000,  0.0000,  0.0000)
   8 Li     8.085185    8.085185   10.000000    ( 0.0000,  0.0000,  0.0000)
   9 Li     0.000000    0.000000   11.617037    ( 0.0000,  0.0000,  0.0000)
  10 Li     3.234074    0.000000   11.617037    ( 0.0000,  0.0000,  0.0000)
  11 Li     6.468148    0.000000   11.617037    ( 0.0000,  0.0000,  0.0000)
  12 Li     0.000000    3.234074   11.617037    ( 0.0000,  0.0000,  0.0000)
  13 Li     3.234074    3.234074   11.617037    ( 0.0000,  0.0000,  0.0000)
  14 Li     6.468148    3.234074   11.617037    ( 0.0000,  0.0000,  0.0000)
  15 Li     0.000000    6.468148   11.617037    ( 0.0000,  0.0000,  0.0000)
  16 Li     3.234074    6.468148   11.617037    ( 0.0000,  0.0000,  0.0000)
  17 Li     6.468148    6.468148   11.617037    ( 0.0000,  0.0000,  0.0000)
  18 Li     1.617038    1.617038   13.469728    ( 0.0000,  0.0000,  0.0000)
  19 Li     4.851111    1.617038   13.469729    ( 0.0000,  0.0000,  0.0000)
  20 Li     8.085184    1.617038   13.469728    ( 0.0000,  0.0000,  0.0000)
  21 Li     1.617038    4.851111   13.469729    ( 0.0000,  0.0000,  0.0000)
  22 Li     4.851111    4.851111   13.469730    ( 0.0000,  0.0000,  0.0000)
  23 Li     8.085184    4.851111   13.469729    ( 0.0000,  0.0000,  0.0000)
  24 Li     1.617038    8.085184   13.469728    ( 0.0000,  0.0000,  0.0000)
  25 Li     4.851111    8.085184   13.469729    ( 0.0000,  0.0000,  0.0000)
  26 Li     8.085184    8.085184   13.469728    ( 0.0000,  0.0000,  0.0000)
  27 Li    -0.000000   -0.000000   15.445939    ( 0.0000,  0.0000,  0.0000)
  28 Li     3.234074    0.000000   15.445939    ( 0.0000,  0.0000,  0.0000)
  29 Li     6.468148    0.000000   15.445939    ( 0.0000,  0.0000,  0.0000)
  30 Li     0.000000    3.234074   15.445939    ( 0.0000,  0.0000,  0.0000)
  31 Li     3.234076    3.234076   15.445938    ( 0.0000,  0.0000,  0.0000)
  32 Li     6.468146    3.234076   15.445938    ( 0.0000,  0.0000,  0.0000)
  33 Li     0.000000    6.468148   15.445939    ( 0.0000,  0.0000,  0.0000)
  34 Li     3.234076    6.468146   15.445938    ( 0.0000,  0.0000,  0.0000)
  35 Li     6.468146    6.468146   15.445938    ( 0.0000,  0.0000,  0.0000)
  36 F      0.000000    1.617037   18.445939    ( 0.0000,  0.0000,  0.0000)
  37 H      1.000000    1.617037   18.445939    ( 0.0000,  0.0000,  0.0000)

Unit cell:
           periodic     x           y           z      points  spacing
  1. axis:    yes    9.702222    0.000000    0.000000    60     0.1617
  2. axis:    yes    0.000000    9.702222    0.000000    60     0.1617
  3. axis:    no     0.000000    0.000000   24.851111   156     0.1593

  Lengths:   9.702222   9.702222  24.851111
  Angles:   90.000000  90.000000  90.000000

Effective grid spacing dv^(1/3) = 0.1609

     iter     time        total  log10-change:
                         energy  eigst   dens
iter:   1 09:43:08  -259.294916
iter:   2 09:45:25  -197.987142  +1.99  -0.24
iter:   3 09:47:42  -166.080990  +2.08  -0.40
iter:   4 09:50:06  -228.990364  +2.95  -0.48
Writing to output.gpw (mode='')

iter:   5 09:52:33  -211.848801  +2.14  -0.29
iter:   6 09:54:55  -211.349107  +2.07  -0.44
iter:   7 09:57:12  -221.504020  +1.76  -0.78
iter:   8 09:59:35  -220.625596  +1.31  -0.76
iter:   9 10:01:58  -227.540422  +0.70  -0.91
Writing to output.gpw (mode='')

iter:  10 10:04:19  -221.105774  +1.13  -0.78
iter:  11 10:06:38  -221.532195  +0.43  -0.82
iter:  12 10:08:52  -221.253623  +0.43  -0.79
iter:  13 10:11:09  -218.760579  +0.22  -0.75
iter:  14 10:13:25  -218.082202  +0.28  -0.87
Writing to output.gpw (mode='')

iter:  15 10:15:39  -218.601673  +0.79  -1.00
iter:  16 10:17:51  -217.828824  +0.25  -0.98
iter:  17 10:20:02  -217.479982  -0.62  -1.11
iter:  18 10:22:22  -217.794883  +0.10  -1.19
iter:  19 10:24:35  -217.302537  -0.11  -1.25
Writing to output.gpw (mode='')

iter:  20 10:26:57  -217.303346  -0.82  -1.48
iter:  21 10:29:18  -217.301540c -1.00  -1.55
iter:  22 10:31:34  -217.287053c -1.03  -1.60
iter:  23 10:33:52  -217.286660c -1.21  -1.70
iter:  24 10:36:06  -217.291833c -0.76  -1.67
Writing to output.gpw (mode='')

iter:  25 10:38:25  -217.264080  -1.18  -1.74
iter:  26 10:40:51  -217.263671  -1.97  -2.06
iter:  27 10:43:16  -217.261150c -2.03  -2.12
iter:  28 10:45:32  -217.260635c -1.84  -2.33
iter:  29 10:46:37  -217.260323c -2.26  -2.47
Writing to output.gpw (mode='')

iter:  30 10:48:40  -217.260330c -2.67  -2.53
iter:  31 10:50:56  -217.260222c -2.51  -2.56
iter:  32 10:53:18  -217.260050c -2.72  -2.69
iter:  33 10:55:32  -217.260101c -2.82  -2.77
iter:  34 10:57:49  -217.260090c -3.01  -2.78
Writing to output.gpw (mode='')

iter:  35 11:00:09  -217.260118c -3.05  -2.92
iter:  36 11:02:29  -217.260121c -3.15  -2.98
iter:  37 11:04:51  -217.260139c -3.34  -3.23
iter:  38 11:07:08  -217.260155c -3.20  -3.30
iter:  39 11:09:34  -217.260175c -3.23  -3.42
Writing to output.gpw (mode='')

iter:  40 11:12:03  -217.260176c -3.52  -3.51
iter:  41 11:14:34  -217.260178c -3.66  -3.51
iter:  42 11:17:04  -217.260175c -3.52  -3.53
iter:  43 11:19:31  -217.260174c -3.61  -3.64
iter:  44 11:21:56  -217.260172c -3.77  -3.90
Writing to output.gpw (mode='')

iter:  45 11:24:15  -217.260170c -3.85  -3.95
iter:  46 11:26:40  -217.260170c -3.84  -3.97
iter:  47 11:28:57  -217.260167c -3.90  -4.11c
iter:  48 11:31:18  -217.260165c -4.03  -4.19c
iter:  49 11:33:41  -217.260161c -3.97  -4.33c
Writing to output.gpw (mode='')

iter:  50 11:36:02  -217.260158c -4.01  -4.39c
iter:  51 11:38:17  -217.260155c -4.15  -4.47c
iter:  52 11:40:38  -217.260152c -4.01  -4.45c
iter:  53 11:42:59  -217.260147c -4.09  -4.26c
iter:  54 11:45:27  -217.260144c -4.35  -4.61c
Writing to output.gpw (mode='')

iter:  55 11:47:52  -217.260141c -4.39  -4.57c
iter:  56 11:50:09  -217.260139c -4.37  -4.50c
iter:  57 11:52:26  -217.260136c -4.35  -4.48c
iter:  58 11:54:45  -217.260134c -4.46  -4.43c
iter:  59 11:57:10  -217.260132c -4.41  -4.36c
Writing to output.gpw (mode='')

iter:  60 11:59:41  -217.260130c -4.42  -4.39c
iter:  61 12:02:07  -217.260128c -4.46  -4.38c
iter:  62 12:04:26  -217.260126c -4.51  -4.36c
iter:  63 12:06:39  -217.260124c -4.53  -4.32c
iter:  64 12:08:54  -217.260123c -4.43  -4.30c
Writing to output.gpw (mode='')

iter:  65 12:11:26  -217.260121c -4.67  -4.27c
iter:  66 12:13:50  -217.260120c -4.75  -4.29c
iter:  67 12:16:13  -217.260118c -4.70  -4.25c
iter:  68 12:18:31  -217.260117c -4.95  -4.17c
iter:  69 12:20:48  -217.260116c -4.94  -4.31c
Writing to output.gpw (mode='')

iter:  70 12:23:19  -217.260116c -4.94  -4.21c
iter:  71 12:25:43  -217.260115c -5.07  -4.33c
iter:  72 12:27:58  -217.260114c -4.97  -4.46c
iter:  73 12:30:14  -217.260113c -5.03  -4.48c
iter:  74 12:32:36  -217.260112c -5.08  -4.47c
Writing to output.gpw (mode='')

iter:  75 12:34:50  -217.260111c -5.02  -4.49c
iter:  76 12:37:11  -217.260110c -5.03  -4.62c
iter:  77 12:39:31  -217.260110c -5.39  -4.78c
iter:  78 12:41:44  -217.260109c -5.41  -4.79c
iter:  79 12:44:02  -217.260109c -5.39  -4.86c
Writing to output.gpw (mode='')

iter:  80 12:46:31  -217.260108c -5.46  -5.00c
iter:  81 12:48:52  -217.260108c -5.55  -5.06c
iter:  82 12:51:09  -217.260108c -5.68  -5.15c
iter:  83 12:53:28  -217.260107c -5.70  -5.35c
iter:  84 12:55:59  -217.260107c -5.54  -5.48c
Writing to output.gpw (mode='')

iter:  85 12:58:21  -217.260107c -5.60  -5.52c
iter:  86 13:00:41  -217.260107c -5.68  -5.61c
iter:  87 13:03:02  -217.260106c -5.78  -5.69c
iter:  88 13:05:25  -217.260106c -5.89  -5.71c
iter:  89 13:07:44  -217.260106c -5.95  -5.68c
Writing to output.gpw (mode='')

iter:  90 13:10:00  -217.260106c -5.99  -5.55c
iter:  91 13:12:22  -217.260106c -6.00  -5.59c
iter:  92 13:14:38  -217.260106c -6.00  -5.55c
iter:  93 13:16:51  -217.260105c -6.09  -5.49c
iter:  94 13:19:09  -217.260105c -6.14  -5.50c
Writing to output.gpw (mode='')

iter:  95 13:21:27  -217.260105c -6.22  -5.54c
iter:  96 13:23:48  -217.260105c -6.23  -5.40c
iter:  97 13:26:05  -217.260105c -6.27  -5.42c
iter:  98 13:28:26  -217.260105c -6.35  -5.51c
iter:  99 13:30:39  -217.260105c -6.28  -5.44c
Writing to output.gpw (mode='')

iter: 100 13:33:01  -217.260105c -6.32  -5.48c
iter: 101 13:35:20  -217.260105c -6.44  -5.61c
iter: 102 13:37:40  -217.260105c -6.45  -5.57c
iter: 103 13:40:03  -217.260104c -6.45  -5.57c
iter: 104 13:42:28  -217.260104c -6.56  -5.66c
Writing to output.gpw (mode='')

iter: 105 13:44:53  -217.260104c -6.48  -5.50c
iter: 106 13:47:20  -217.260104c -6.61  -5.49c
iter: 107 13:49:44  -217.260104c -6.64  -5.83c
iter: 108 13:51:55  -217.260104c -6.68  -5.86c
iter: 109 13:54:16  -217.260104c -6.71  -5.84c
Writing to output.gpw (mode='')

iter: 110 13:56:47  -217.260104c -6.76  -5.81c
iter: 111 13:59:15  -217.260104c -6.72  -5.87c
iter: 112 14:01:31  -217.260104c -6.76  -5.89c
iter: 113 14:03:49  -217.260104c -6.81  -5.90c
iter: 114 14:06:05  -217.260104c -6.89  -5.95c
Writing to output.gpw (mode='')

iter: 115 14:08:22  -217.260104c -6.91  -6.02c
iter: 116 14:10:42  -217.260104c -6.88  -6.14c
iter: 117 14:13:03  -217.260104c -6.88  -6.18c
iter: 118 14:15:23  -217.260104c -7.01  -6.29c
iter: 119 14:17:33  -217.260104c -7.03  -6.27c
Writing to output.gpw (mode='')

iter: 120 14:19:44  -217.260104c -6.95  -6.33c
iter: 121 14:22:07  -217.260104c -6.96  -6.43c
iter: 122 14:24:30  -217.260104c -7.05  -6.58c
iter: 123 14:26:51  -217.260104c -7.08  -6.61c
iter: 124 14:29:05  -217.260103c -7.12  -6.62c
Writing to output.gpw (mode='')

iter: 125 14:31:16  -217.260103c -7.22  -6.58c
iter: 126 14:33:28  -217.260103c -7.23  -6.48c
iter: 127 14:35:45  -217.260103c -7.25  -6.38c
iter: 128 14:38:02  -217.260103c -7.33  -6.41c
iter: 129 14:40:23  -217.260103c -7.34  -6.39c
Writing to output.gpw (mode='')

iter: 130 14:42:44  -217.260103c -7.37  -6.29c
iter: 131 14:44:54  -217.260103c -7.44c -6.34c

Converged after 131 iterations.

Dipole moment: (-7.870241, -2.783439, -0.031938) |e|*Ang

Energy contributions relative to reference atoms: (reference = -10026.932476)

Kinetic:        +84.155344
Potential:      -73.791491
External:        +0.000000
XC:            -227.459288
Entropy (-ST):   -0.152353
Local:           -0.088491
--------------------------
Free energy:   -217.336280
Extrapolated:  -217.260103

Dipole-layer corrected work functions: 3.378766, 3.440162 eV

Showing only first 2 kpts
 Kpt  Band  Eigenvalues  Occupancy
  0    20     -3.66309    1.98755
  0    21     -3.57651    1.93161
  0    22     -3.24641    0.07386
  0    23     -3.15652    0.01262

  1    20     -3.43466    1.24674
  1    21     -3.40639    0.96930
  1    22     -3.36555    0.58704
  1    23     -3.35860    0.53112


Fermi level: -3.40946

No gap
Writing to output.gpw (mode='')


Forces in eV/Ang:
  0 Li    0.00303    0.00000   -0.27307
  1 Li   -0.00361    0.00000   -0.27222
  2 Li    0.00050    0.00000   -0.27129
  3 Li   -0.00072   -0.00211   -0.27142
  4 Li    0.00318    0.00153   -0.27337
  5 Li   -0.00259    0.00475   -0.27211
  6 Li   -0.00072    0.00211   -0.27142
  7 Li    0.00318   -0.00153   -0.27337
  8 Li   -0.00259   -0.00475   -0.27211
  9 Li    0.00113    0.00190    0.26771
 10 Li    0.00152    0.00076    0.26060
 11 Li   -0.00267   -0.00312    0.26005
 12 Li    0.00113   -0.00190    0.26770
 13 Li    0.00152   -0.00075    0.26060
 14 Li   -0.00267    0.00312    0.26005
 15 Li   -0.00217   -0.00000    0.25691
 16 Li   -0.00199   -0.00000    0.26481
 17 Li    0.00436   -0.00000    0.25289
 18 Li    0.00301   -0.00000    0.04363
 19 Li    0.00516   -0.00000    0.03379
 20 Li   -0.00750   -0.00000    0.00804
 21 Li   -0.00248   -0.00037    0.03382
 22 Li    0.00149    0.00271    0.03344
 23 Li    0.00121   -0.00272    0.03779
 24 Li   -0.00248    0.00037    0.03382
 25 Li    0.00149   -0.00270    0.03344
 26 Li    0.00121    0.00272    0.03780
 27 Li    0.00802    0.01501    0.04377
 28 Li   -0.00364    0.01237   -0.01806
 29 Li   -0.01060   -0.00921   -0.02200
 30 Li    0.00802   -0.01501    0.04377
 31 Li   -0.00364   -0.01237   -0.01805
 32 Li   -0.01060    0.00921   -0.02199
 33 Li   -0.00203   -0.00000   -0.02274
 34 Li    0.00150    0.00000   -0.02117
 35 Li    0.00022    0.00000   -0.02630
 36 F     2.67403   -0.00000   -0.09137
 37 H    -2.66857   -0.00000   -0.08364

System changes: positions 

Initializing position-dependent things.

Density initialized from wave functions
       .-----------------------.  
      /|                       |  
     / |                       |  
    /  |                       |  
   /   |                       |  
  /    |                       |  
 *     |                       |  
 |     |                       |  
 |     |                       |  
 |     |                       |  
 |     |                       |  
 |     |                       |  
 |     |               Li      |  
 |F H  |                       |  
 |     |     Li      Li      Li|  
 |     |  Li      Li      Li   |  
 | Li  |   Li      Li          |  
 |     |Li      Li      Li     |  
 Li    | Li                    |  
 |   LLi     LLi     LLi       |  
 |     |  Li      Li      Li   |  
 | Li  |   Li      Li          |  
 |     |Li      Li      Li     |  
 Li    | Li      Li            |  
 |    Li      Li      Li       |  
 |     |                       |  
 |     |                       |  
 |     |                       |  
 |     |                       |  
 |     |                       |  
 |     |                       |  
 |     .-----------------------.  
 |    /                       /   
 |   /                       /    
 |  /                       /     
 | /                       /      
 |/                       /       
 *-----------------------*        

Positions:
   0 Li     1.617037    1.617037   10.000000    ( 0.0000,  0.0000,  0.0000)
   1 Li     4.851111    1.617037   10.000000    ( 0.0000,  0.0000,  0.0000)
   2 Li     8.085185    1.617037   10.000000    ( 0.0000,  0.0000,  0.0000)
   3 Li     1.617037    4.851111   10.000000    ( 0.0000,  0.0000,  0.0000)
   4 Li     4.851111    4.851111   10.000000    ( 0.0000,  0.0000,  0.0000)
   5 Li     8.085185    4.851111   10.000000    ( 0.0000,  0.0000,  0.0000)
   6 Li     1.617037    8.085185   10.000000    ( 0.0000,  0.0000,  0.0000)
   7 Li     4.851111    8.085185   10.000000    ( 0.0000,  0.0000,  0.0000)
   8 Li     8.085185    8.085185   10.000000    ( 0.0000,  0.0000,  0.0000)
   9 Li     0.000000    0.000000   11.617037    ( 0.0000,  0.0000,  0.0000)
  10 Li     3.234074    0.000000   11.617037    ( 0.0000,  0.0000,  0.0000)
  11 Li     6.468148    0.000000   11.617037    ( 0.0000,  0.0000,  0.0000)
  12 Li     0.000000    3.234074   11.617037    ( 0.0000,  0.0000,  0.0000)
  13 Li     3.234074    3.234074   11.617037    ( 0.0000,  0.0000,  0.0000)
  14 Li     6.468148    3.234074   11.617037    ( 0.0000,  0.0000,  0.0000)
  15 Li     0.000000    6.468148   11.617037    ( 0.0000,  0.0000,  0.0000)
  16 Li     3.234074    6.468148   11.617037    ( 0.0000,  0.0000,  0.0000)
  17 Li     6.468148    6.468148   11.617037    ( 0.0000,  0.0000,  0.0000)
  18 Li     1.617081    1.617038   13.470351    ( 0.0000,  0.0000,  0.0000)
  19 Li     4.851185    1.617038   13.470212    ( 0.0000,  0.0000,  0.0000)
  20 Li     8.085077    1.617038   13.469843    ( 0.0000,  0.0000,  0.0000)
  21 Li     1.617003    4.851106   13.470213    ( 0.0000,  0.0000,  0.0000)
  22 Li     4.851132    4.851150   13.470208    ( 0.0000,  0.0000,  0.0000)
  23 Li     8.085201    4.851072   13.470269    ( 0.0000,  0.0000,  0.0000)
  24 Li     1.617003    8.085189   13.470211    ( 0.0000,  0.0000,  0.0000)
  25 Li     4.851132    8.085145   13.470207    ( 0.0000,  0.0000,  0.0000)
  26 Li     8.085201    8.085223   13.470268    ( 0.0000,  0.0000,  0.0000)
  27 Li     0.000115    0.000214   15.446565    ( 0.0000,  0.0000,  0.0000)
  28 Li     3.234022    0.000177   15.445681    ( 0.0000,  0.0000,  0.0000)
  29 Li     6.467997   -0.000132   15.445625    ( 0.0000,  0.0000,  0.0000)
  30 Li     0.000115    3.233859   15.446564    ( 0.0000,  0.0000,  0.0000)
  31 Li     3.234024    3.233900   15.445680    ( 0.0000,  0.0000,  0.0000)
  32 Li     6.467994    3.234208   15.445624    ( 0.0000,  0.0000,  0.0000)
  33 Li    -0.000029    6.468148   15.445614    ( 0.0000,  0.0000,  0.0000)
  34 Li     3.234098    6.468146   15.445636    ( 0.0000,  0.0000,  0.0000)
  35 Li     6.468149    6.468146   15.445562    ( 0.0000,  0.0000,  0.0000)
  36 F      0.038200    1.617037   18.444634    ( 0.0000,  0.0000,  0.0000)
  37 H      0.961878    1.617037   18.444744    ( 0.0000,  0.0000,  0.0000)

Unit cell:
           periodic     x           y           z      points  spacing
  1. axis:    yes    9.702222    0.000000    0.000000    60     0.1617
  2. axis:    yes    0.000000    9.702222    0.000000    60     0.1617
  3. axis:    no     0.000000    0.000000   24.851111   156     0.1593

  Lengths:   9.702222   9.702222  24.851111
  Angles:   90.000000  90.000000  90.000000

Effective grid spacing dv^(1/3) = 0.1609

     iter     time        total  log10-change:
                         energy  eigst   dens
iter:   1 14:47:41  -217.733096  -0.78
iter:   2 14:49:58  -217.458260  -0.40  -1.21
iter:   3 14:52:17  -217.409380  -1.25  -1.46
iter:   4 14:54:28  -217.377879  -0.54  -1.76
Writing to output.gpw (mode='')

iter:   5 14:56:50  -217.363805  -1.29  -1.69
iter:   6 14:59:08  -217.369476c -0.75  -1.95
iter:   7 15:01:23  -217.358348c -1.11  -1.92
iter:   8 15:03:36  -217.359777c -1.48  -2.18
iter:   9 15:05:51  -217.354240c -1.85  -2.09
Writing to output.gpw (mode='')

iter:  10 15:08:01  -217.353789c -2.66  -2.55
iter:  11 15:10:26  -217.353933c -2.78  -2.64
iter:  12 15:12:43  -217.353925c -2.99  -2.69
iter:  13 15:14:58  -217.353993c -3.11  -2.76
iter:  14 15:17:13  -217.354091c -3.05  -2.86
Writing to output.gpw (mode='')

iter:  15 15:19:24  -217.354090c -3.53  -2.97
iter:  16 15:21:39  -217.354123c -3.51  -3.05
iter:  17 15:23:56  -217.354181c -3.63  -3.19
iter:  18 15:26:14  -217.354172c -3.80  -3.16
iter:  19 15:28:40  -217.354176c -3.85  -3.38
Writing to output.gpw (mode='')

iter:  20 15:31:01  -217.354182c -4.08  -3.48
iter:  21 15:33:20  -217.354185c -4.53  -3.62
iter:  22 15:35:41  -217.354188c -4.53  -3.71
iter:  23 15:38:02  -217.354190c -4.70  -3.76
iter:  24 15:40:41  -217.354190c -4.72  -3.80
Writing to output.gpw (mode='')

iter:  25 15:42:59  -217.354189c -5.14  -3.91
iter:  26 15:45:12  -217.354191c -5.12  -4.02c
iter:  27 15:47:34  -217.354192c -4.97  -4.07c
iter:  28 15:49:52  -217.354191c -5.31  -4.30c
iter:  29 15:52:09  -217.354191c -5.21  -4.42c
Writing to output.gpw (mode='')

iter:  30 15:54:23  -217.354192c -5.50  -4.42c
iter:  31 15:56:40  -217.354193c -5.33  -4.47c
iter:  32 15:59:07  -217.354193c -5.57  -4.52c
iter:  33 16:01:26  -217.354194c -5.67  -4.62c
iter:  34 16:03:43  -217.354194c -5.96  -4.67c
Writing to output.gpw (mode='')

iter:  35 16:06:01  -217.354194c -5.97  -4.71c
iter:  36 16:08:22  -217.354194c -5.80  -4.78c
iter:  37 16:10:39  -217.354194c -6.17  -4.78c
iter:  38 16:12:56  -217.354194c -6.21  -4.89c
iter:  39 16:15:11  -217.354194c -6.02  -4.95c
Writing to output.gpw (mode='')

iter:  40 16:17:27  -217.354194c -6.47  -5.07c
iter:  41 16:19:43  -217.354194c -6.33  -5.19c
iter:  42 16:21:57  -217.354194c -6.27  -5.34c
iter:  43 16:24:14  -217.354194c -6.47  -5.55c
iter:  44 16:26:29  -217.354194c -6.62  -5.60c
Writing to output.gpw (mode='')

iter:  45 16:28:54  -217.354194c -6.66  -5.63c
iter:  46 16:31:14  -217.354194c -6.75  -5.65c
iter:  47 16:33:27  -217.354194c -6.81  -5.69c
iter:  48 16:35:42  -217.354194c -6.79  -5.71c
iter:  49 16:38:09  -217.354194c -6.85  -5.81c
Writing to output.gpw (mode='')

iter:  50 16:40:35  -217.354194c -7.02  -5.98c
iter:  51 16:42:59  -217.354194c -7.03  -5.91c
iter:  52 16:45:18  -217.354194c -7.04  -5.87c
iter:  53 16:47:44  -217.354194c -7.09  -5.69c
iter:  54 16:50:02  -217.354194c -7.28  -5.61c
Writing to output.gpw (mode='')

iter:  55 16:52:28  -217.354194c -7.25  -5.61c
iter:  56 16:54:52  -217.354194c -7.17  -5.67c
iter:  57 16:57:13  -217.354194c -7.11  -5.73c
iter:  58 16:59:31  -217.354194c -7.15  -5.71c
iter:  59 17:01:52  -217.354194c -7.33  -5.83c
Writing to output.gpw (mode='')

iter:  60 17:04:28  -217.354194c -7.39  -6.05c
iter:  61 17:06:51  -217.354194c -7.50c -6.15c

Converged after 61 iterations.

Dipole moment: (-11.144729, -2.827487, -0.004678) |e|*Ang

Energy contributions relative to reference atoms: (reference = -10026.932476)

Kinetic:        +87.555646
Potential:      -76.348899
External:        +0.000000
XC:            -228.394551
Entropy (-ST):   -0.152469
Local:           -0.090155
--------------------------
Free energy:   -217.430428
Extrapolated:  -217.354194

Dipole-layer corrected work functions: 3.379653, 3.388645 eV

Showing only first 2 kpts
 Kpt  Band  Eigenvalues  Occupancy
  0    20     -3.63741    1.98745
  0    21     -3.55110    1.93149
  0    22     -3.22085    0.07352
  0    23     -3.13081    0.01253

  1    20     -3.40710    1.22560
  1    21     -3.38255    0.98401
  1    22     -3.34031    0.58772
  1    23     -3.33413    0.53774


Fermi level: -3.38415

No gap
Writing to output.gpw (mode='')


Forces in eV/Ang:
  0 Li    0.00295    0.00000   -0.27288
  1 Li   -0.00328    0.00000   -0.27256
  2 Li    0.00026    0.00000   -0.27149
  3 Li   -0.00071   -0.00194   -0.27167
  4 Li    0.00263    0.00089   -0.27344
  5 Li   -0.00201    0.00402   -0.27211
  6 Li   -0.00071    0.00194   -0.27167
  7 Li    0.00263   -0.00089   -0.27344
  8 Li   -0.00201   -0.00402   -0.27211
  9 Li    0.00109    0.00183    0.26673
 10 Li    0.00170    0.00065    0.26019
 11 Li   -0.00280   -0.00296    0.26026
 12 Li    0.00109   -0.00183    0.26673
 13 Li    0.00170   -0.00065    0.26019
 14 Li   -0.00280    0.00296    0.26026
 15 Li   -0.00188   -0.00000    0.25765
 16 Li   -0.00248   -0.00000    0.26542
 17 Li    0.00452   -0.00000    0.25483
 18 Li    0.00259   -0.00000    0.04367
 19 Li    0.00438   -0.00000    0.03381
 20 Li   -0.00647   -0.00000    0.01108
 21 Li   -0.00250   -0.00111    0.03436
 22 Li    0.00134    0.00271    0.03222
 23 Li    0.00131   -0.00285    0.03707
 24 Li   -0.00250    0.00111    0.03436
 25 Li    0.00134   -0.00271    0.03222
 26 Li    0.00131    0.00285    0.03707
 27 Li    0.00584    0.01014    0.03028
 28 Li   -0.00137    0.00956   -0.02347
 29 Li   -0.01028   -0.00806   -0.02264
 30 Li    0.00584   -0.01014    0.03029
 31 Li   -0.00137   -0.00957   -0.02347
 32 Li   -0.01028    0.00806   -0.02264
 33 Li   -0.00132   -0.00000   -0.02205
 34 Li    0.00057    0.00000   -0.02041
 35 Li    0.00050    0.00000   -0.02521
 36 F    -0.57388    0.00000   -0.05804
 37 H     0.60291    0.00000   -0.05489

System changes: positions 

Initializing position-dependent things.

Density initialized from wave functions
       .-----------------------.  
      /|                       |  
     / |                       |  
    /  |                       |  
   /   |                       |  
  /    |                       |  
 *     |                       |  
 |     |                       |  
 |     |                       |  
 |     |                       |  
 |     |                       |  
 |     |                       |  
 |     |               Li      |  
 |F H  |                       |  
 |     |     Li      Li      Li|  
 |     |  Li      Li      Li   |  
 | Li  |   Li      Li          |  
 |     |Li      Li      Li     |  
 Li    | Li                    |  
 |   LLi     LLi     LLi       |  
 |     |  Li      Li      Li   |  
 | Li  |   Li      Li          |  
 |     |Li      Li      Li     |  
 Li    | Li      Li            |  
 |    Li      Li      Li       |  
 |     |                       |  
 |     |                       |  
 |     |                       |  
 |     |                       |  
 |     |                       |  
 |     |                       |  
 |     .-----------------------.  
 |    /                       /   
 |   /                       /    
 |  /                       /     
 | /                       /      
 |/                       /       
 *-----------------------*        

Positions:
   0 Li     1.617037    1.617037   10.000000    ( 0.0000,  0.0000,  0.0000)
   1 Li     4.851111    1.617037   10.000000    ( 0.0000,  0.0000,  0.0000)
   2 Li     8.085185    1.617037   10.000000    ( 0.0000,  0.0000,  0.0000)
   3 Li     1.617037    4.851111   10.000000    ( 0.0000,  0.0000,  0.0000)
   4 Li     4.851111    4.851111   10.000000    ( 0.0000,  0.0000,  0.0000)
   5 Li     8.085185    4.851111   10.000000    ( 0.0000,  0.0000,  0.0000)
   6 Li     1.617037    8.085185   10.000000    ( 0.0000,  0.0000,  0.0000)
   7 Li     4.851111    8.085185   10.000000    ( 0.0000,  0.0000,  0.0000)
   8 Li     8.085185    8.085185   10.000000    ( 0.0000,  0.0000,  0.0000)
   9 Li     0.000000    0.000000   11.617037    ( 0.0000,  0.0000,  0.0000)
  10 Li     3.234074    0.000000   11.617037    ( 0.0000,  0.0000,  0.0000)
  11 Li     6.468148    0.000000   11.617037    ( 0.0000,  0.0000,  0.0000)
  12 Li     0.000000    3.234074   11.617037    ( 0.0000,  0.0000,  0.0000)
  13 Li     3.234074    3.234074   11.617037    ( 0.0000,  0.0000,  0.0000)
  14 Li     6.468148    3.234074   11.617037    ( 0.0000,  0.0000,  0.0000)
  15 Li     0.000000    6.468148   11.617037    ( 0.0000,  0.0000,  0.0000)
  16 Li     3.234074    6.468148   11.617037    ( 0.0000,  0.0000,  0.0000)
  17 Li     6.468148    6.468148   11.617037    ( 0.0000,  0.0000,  0.0000)
  18 Li     1.617112    1.617038   13.470864    ( 0.0000,  0.0000,  0.0000)
  19 Li     4.851236    1.617038   13.470610    ( 0.0000,  0.0000,  0.0000)
  20 Li     8.085001    1.617038   13.469973    ( 0.0000,  0.0000,  0.0000)
  21 Li     1.616974    4.851093   13.470616    ( 0.0000,  0.0000,  0.0000)
  22 Li     4.851148    4.851182   13.470587    ( 0.0000,  0.0000,  0.0000)
  23 Li     8.085216    4.851039   13.470705    ( 0.0000,  0.0000,  0.0000)
  24 Li     1.616973    8.085202   13.470615    ( 0.0000,  0.0000,  0.0000)
  25 Li     4.851148    8.085113   13.470586    ( 0.0000,  0.0000,  0.0000)
  26 Li     8.085217    8.085256   13.470704    ( 0.0000,  0.0000,  0.0000)
  27 Li     0.000183    0.000334   15.446921    ( 0.0000,  0.0000,  0.0000)
  28 Li     3.234006    0.000289   15.445405    ( 0.0000,  0.0000,  0.0000)
  29 Li     6.467876   -0.000226   15.445358    ( 0.0000,  0.0000,  0.0000)
  30 Li     0.000183    3.233740   15.446920    ( 0.0000,  0.0000,  0.0000)
  31 Li     3.234008    3.233787   15.445404    ( 0.0000,  0.0000,  0.0000)
  32 Li     6.467873    3.234303   15.445358    ( 0.0000,  0.0000,  0.0000)
  33 Li    -0.000045    6.468148   15.445355    ( 0.0000,  0.0000,  0.0000)
  34 Li     3.234105    6.468146   15.445396    ( 0.0000,  0.0000,  0.0000)
  35 Li     6.468155    6.468146   15.445266    ( 0.0000,  0.0000,  0.0000)
  36 F      0.031536    1.617037   18.443951    ( 0.0000,  0.0000,  0.0000)
  37 H      0.968883    1.617037   18.444098    ( 0.0000,  0.0000,  0.0000)

Unit cell:
           periodic     x           y           z      points  spacing
  1. axis:    yes    9.702222    0.000000    0.000000    60     0.1617
  2. axis:    yes    0.000000    9.702222    0.000000    60     0.1617
  3. axis:    no     0.000000    0.000000   24.851111   156     0.1593

  Lengths:   9.702222   9.702222  24.851111
  Angles:   90.000000  90.000000  90.000000

Effective grid spacing dv^(1/3) = 0.1609

     iter     time        total  log10-change:
                         energy  eigst   dens
iter:   1 17:09:50  -217.366333  -1.88
iter:   2 17:12:15  -217.361031  -2.05  -2.04
iter:   3 17:14:36  -217.359467c -3.11  -2.24
iter:   4 17:16:50  -217.358761c -2.04  -2.50
Writing to output.gpw (mode='')

iter:   5 17:19:17  -217.357743c -2.51  -2.31
iter:   6 17:21:32  -217.357888c -2.04  -2.61
iter:   7 17:23:51  -217.357411c -2.76  -2.62
iter:   8 17:26:18  -217.357473c -3.00  -2.95
iter:   9 17:28:45  -217.357262c -3.50  -2.87
Writing to output.gpw (mode='')

iter:  10 17:31:07  -217.357258c -4.16  -3.30
iter:  11 17:33:29  -217.357257c -4.34  -3.38
iter:  12 17:35:55  -217.357255c -4.58  -3.41
iter:  13 17:38:14  -217.357250c -4.75  -3.45
iter:  14 17:40:38  -217.357253c -4.62  -3.50
Writing to output.gpw (mode='')

iter:  15 17:42:59  -217.357249c -5.06  -3.54
iter:  16 17:45:16  -217.357248c -5.03  -3.68
iter:  17 17:47:31  -217.357251c -5.28  -3.81
iter:  18 17:49:49  -217.357249c -5.23  -3.93
iter:  19 17:51:58  -217.357249c -5.56  -4.10c
Writing to output.gpw (mode='')

iter:  20 17:54:19  -217.357249c -5.78  -4.19c
iter:  21 17:56:40  -217.357249c -5.83  -4.23c
iter:  22 17:58:57  -217.357249c -6.06  -4.29c
iter:  23 18:01:13  -217.357249c -6.25  -4.37c
iter:  24 18:03:35  -217.357251c -6.42  -4.45c
Writing to output.gpw (mode='')

iter:  25 18:06:03  -217.357250c -6.59  -4.75c
iter:  26 18:08:22  -217.357250c -6.58  -4.78c
iter:  27 18:10:38  -217.357250c -6.69  -4.85c
iter:  28 18:12:55  -217.357250c -7.12  -4.97c
iter:  29 18:15:11  -217.357250c -7.43c -5.22c

Converged after 29 iterations.

Dipole moment: (-10.623550, -2.823535, -0.008764) |e|*Ang

Energy contributions relative to reference atoms: (reference = -10026.932476)

Kinetic:        +86.860390
Potential:      -75.837897
External:        +0.000000
XC:            -228.213675
Entropy (-ST):   -0.152455
Local:           -0.089841
--------------------------
Free energy:   -217.433478
Extrapolated:  -217.357250

Dipole-layer corrected work functions: 3.379455, 3.396302 eV

Showing only first 2 kpts
 Kpt  Band  Eigenvalues  Occupancy
  0    20     -3.64106    1.98743
  0    21     -3.55484    1.93150
  0    22     -3.22455    0.07348
  0    23     -3.13445    0.01250

  1    20     -3.41116    1.22866
  1    21     -3.38599    0.98108
  1    22     -3.34416    0.58867
  1    23     -3.33783    0.53747


Fermi level: -3.38788

No gap
Writing to output.gpw (mode='')


Forces in eV/Ang:
  0 Li    0.00298    0.00000   -0.27291
  1 Li   -0.00334    0.00000   -0.27255
  2 Li    0.00029    0.00000   -0.27148
  3 Li   -0.00071   -0.00198   -0.27167
  4 Li    0.00273    0.00101   -0.27350
  5 Li   -0.00213    0.00415   -0.27215
  6 Li   -0.00071    0.00198   -0.27167
  7 Li    0.00273   -0.00101   -0.27350
  8 Li   -0.00213   -0.00415   -0.27215
  9 Li    0.00117    0.00183    0.26722
 10 Li    0.00168    0.00070    0.26073
 11 Li   -0.00286   -0.00308    0.26059
 12 Li    0.00117   -0.00183    0.26722
 13 Li    0.00168   -0.00070    0.26073
 14 Li   -0.00286    0.00308    0.26059
 15 Li   -0.00196   -0.00000    0.25798
 16 Li   -0.00245   -0.00000    0.26582
 17 Li    0.00458   -0.00000    0.25498
 18 Li    0.00241   -0.00000    0.04272
 19 Li    0.00444   -0.00000    0.03275
 20 Li   -0.00635   -0.00000    0.01044
 21 Li   -0.00256   -0.00109    0.03344
 22 Li    0.00130    0.00266    0.03138
 23 Li    0.00139   -0.00291    0.03626
 24 Li   -0.00256    0.00109    0.03345
 25 Li    0.00130   -0.00266    0.03138
 26 Li    0.00139    0.00291    0.03626
 27 Li    0.00602    0.01080    0.03248
 28 Li   -0.00169    0.00987   -0.02203
 29 Li   -0.01021   -0.00808   -0.02196
 30 Li    0.00602   -0.01080    0.03248
 31 Li   -0.00169   -0.00987   -0.02203
 32 Li   -0.01020    0.00807   -0.02196
 33 Li   -0.00143   -0.00000   -0.02151
 34 Li    0.00071    0.00000   -0.01990
 35 Li    0.00047    0.00000   -0.02470
 36 F     0.18871    0.00000   -0.05442
 37 H    -0.14777    0.00000   -0.06015

System changes: positions 

Initializing position-dependent things.

Density initialized from wave functions
       .-----------------------.  
      /|                       |  
     / |                       |  
    /  |                       |  
   /   |                       |  
  /    |                       |  
 *     |                       |  
 |     |                       |  
 |     |                       |  
 |     |                       |  
 |     |                       |  
 |     |                       |  
 |     |               Li      |  
 |F H  |                       |  
 |     |     Li      Li      Li|  
 |     |  Li      Li      Li   |  
 | Li  |   Li      Li          |  
 |     |Li      Li      Li     |  
 Li    | Li                    |  
 |   LLi     LLi     LLi       |  
 |     |  Li      Li      Li   |  
 | Li  |   Li      Li          |  
 |     |Li      Li      Li     |  
 Li    | Li      Li            |  
 |    Li      Li      Li       |  
 |     |                       |  
 |     |                       |  
 |     |                       |  
 |     |                       |  
 |     |                       |  
 |     |                       |  
 |     .-----------------------.  
 |    /                       /   
 |   /                       /    
 |  /                       /     
 | /                       /      
 |/                       /       
 *-----------------------*        

Positions:
   0 Li     1.617037    1.617037   10.000000    ( 0.0000,  0.0000,  0.0000)
   1 Li     4.851111    1.617037   10.000000    ( 0.0000,  0.0000,  0.0000)
   2 Li     8.085185    1.617037   10.000000    ( 0.0000,  0.0000,  0.0000)
   3 Li     1.617037    4.851111   10.000000    ( 0.0000,  0.0000,  0.0000)
   4 Li     4.851111    4.851111   10.000000    ( 0.0000,  0.0000,  0.0000)
   5 Li     8.085185    4.851111   10.000000    ( 0.0000,  0.0000,  0.0000)
   6 Li     1.617037    8.085185   10.000000    ( 0.0000,  0.0000,  0.0000)
   7 Li     4.851111    8.085185   10.000000    ( 0.0000,  0.0000,  0.0000)
   8 Li     8.085185    8.085185   10.000000    ( 0.0000,  0.0000,  0.0000)
   9 Li     0.000000    0.000000   11.617037    ( 0.0000,  0.0000,  0.0000)
  10 Li     3.234074    0.000000   11.617037    ( 0.0000,  0.0000,  0.0000)
  11 Li     6.468148    0.000000   11.617037    ( 0.0000,  0.0000,  0.0000)
  12 Li     0.000000    3.234074   11.617037    ( 0.0000,  0.0000,  0.0000)
  13 Li     3.234074    3.234074   11.617037    ( 0.0000,  0.0000,  0.0000)
  14 Li     6.468148    3.234074   11.617037    ( 0.0000,  0.0000,  0.0000)
  15 Li     0.000000    6.468148   11.617037    ( 0.0000,  0.0000,  0.0000)
  16 Li     3.234074    6.468148   11.617037    ( 0.0000,  0.0000,  0.0000)
  17 Li     6.468148    6.468148   11.617037    ( 0.0000,  0.0000,  0.0000)
  18 Li     1.617142    1.617038   13.471405    ( 0.0000,  0.0000,  0.0000)
  19 Li     4.851292    1.617038   13.471024    ( 0.0000,  0.0000,  0.0000)
  20 Li     8.084920    1.617038   13.470105    ( 0.0000,  0.0000,  0.0000)
  21 Li     1.616941    4.851079   13.471040    ( 0.0000,  0.0000,  0.0000)
  22 Li     4.851165    4.851215   13.470984    ( 0.0000,  0.0000,  0.0000)
  23 Li     8.085234    4.851002   13.471164    ( 0.0000,  0.0000,  0.0000)
  24 Li     1.616941    8.085216   13.471038    ( 0.0000,  0.0000,  0.0000)
  25 Li     4.851165    8.085079   13.470983    ( 0.0000,  0.0000,  0.0000)
  26 Li     8.085234    8.085293   13.471162    ( 0.0000,  0.0000,  0.0000)
  27 Li     0.000259    0.000469   15.447329    ( 0.0000,  0.0000,  0.0000)
  28 Li     3.233985    0.000413   15.445126    ( 0.0000,  0.0000,  0.0000)
  29 Li     6.467747   -0.000328   15.445081    ( 0.0000,  0.0000,  0.0000)
  30 Li     0.000259    3.233604   15.447328    ( 0.0000,  0.0000,  0.0000)
  31 Li     3.233987    3.233663   15.445125    ( 0.0000,  0.0000,  0.0000)
  32 Li     6.467744    3.234405   15.445080    ( 0.0000,  0.0000,  0.0000)
  33 Li    -0.000062    6.468148   15.445083    ( 0.0000,  0.0000,  0.0000)
  34 Li     3.234113    6.468146   15.445144    ( 0.0000,  0.0000,  0.0000)
  35 Li     6.468160    6.468146   15.444954    ( 0.0000,  0.0000,  0.0000)
  36 F      0.033122    1.617037   18.443259    ( 0.0000,  0.0000,  0.0000)
  37 H      0.967799    1.617037   18.443344    ( 0.0000,  0.0000,  0.0000)

Unit cell:
           periodic     x           y           z      points  spacing
  1. axis:    yes    9.702222    0.000000    0.000000    60     0.1617
  2. axis:    yes    0.000000    9.702222    0.000000    60     0.1617
  3. axis:    no     0.000000    0.000000   24.851111   156     0.1593

  Lengths:   9.702222   9.702222  24.851111
  Angles:   90.000000  90.000000  90.000000

Effective grid spacing dv^(1/3) = 0.1609

     iter     time        total  log10-change:
                         energy  eigst   dens
iter:   1 18:18:04  -217.360041  -2.55
iter:   2 18:20:26  -217.358067  -2.82  -2.29
iter:   3 18:22:42  -217.357870c -4.15  -2.67
iter:   4 18:24:57  -217.357843c -3.17  -3.10
Writing to output.gpw (mode='')

iter:   5 18:27:10  -217.357796c -4.06  -3.05
iter:   6 18:29:23  -217.357838c -3.67  -3.22
iter:   7 18:31:41  -217.357790c -3.93  -3.29
iter:   8 18:33:57  -217.357794c -4.36  -3.64
iter:   9 18:36:09  -217.357800c -4.92  -3.56
Writing to output.gpw (mode='')

iter:  10 18:38:25  -217.357797c -5.50  -3.96
iter:  11 18:40:44  -217.357798c -5.69  -4.05c
iter:  12 18:43:10  -217.357798c -5.79  -4.10c
iter:  13 18:45:22  -217.357801c -5.73  -4.16c
iter:  14 18:47:40  -217.357801c -5.83  -4.30c
Writing to output.gpw (mode='')

iter:  15 18:50:00  -217.357801c -6.05  -4.44c
iter:  16 18:52:13  -217.357801c -6.36  -4.63c
iter:  17 18:54:30  -217.357801c -6.38  -4.65c
iter:  18 18:56:49  -217.357801c -6.49  -4.62c
iter:  19 18:59:24  -217.357801c -6.89  -4.97c
Writing to output.gpw (mode='')

iter:  20 19:01:41  -217.357801c -6.72  -5.00c
iter:  21 19:03:54  -217.357801c -6.91  -5.10c
iter:  22 19:06:22  -217.357801c -7.15  -5.23c
iter:  23 19:08:41  -217.357801c -7.26  -5.24c
iter:  24 19:11:07  -217.357801c -7.49c -5.28c

Converged after 24 iterations.

Dipole moment: (-10.751043, -2.826909, -0.007781) |e|*Ang

Energy contributions relative to reference atoms: (reference = -10026.932476)

Kinetic:        +86.998594
Potential:      -75.939845
External:        +0.000000
XC:            -228.250272
Entropy (-ST):   -0.152465
Local:           -0.090046
--------------------------
Free energy:   -217.434034
Extrapolated:  -217.357801

Dipole-layer corrected work functions: 3.379606, 3.394564 eV

Showing only first 2 kpts
 Kpt  Band  Eigenvalues  Occupancy
  0    20     -3.64014    1.98740
  0    21     -3.55403    1.93148
  0    22     -3.22371    0.07341
  0    23     -3.13351    0.01247

  1    20     -3.41029    1.22798
  1    21     -3.38518    0.98091
  1    22     -3.34347    0.58957
  1    23     -3.33714    0.53830


Fermi level: -3.38708

No gap
Writing to output.gpw (mode='')


Forces in eV/Ang:
  0 Li    0.00299    0.00000   -0.27298
  1 Li   -0.00334    0.00000   -0.27265
  2 Li    0.00028    0.00000   -0.27152
  3 Li   -0.00070   -0.00198   -0.27175
  4 Li    0.00271    0.00099   -0.27356
  5 Li   -0.00211    0.00412   -0.27220
  6 Li   -0.00070    0.00198   -0.27175
  7 Li    0.00271   -0.00099   -0.27356
  8 Li   -0.00211   -0.00412   -0.27220
  9 Li    0.00123    0.00184    0.26748
 10 Li    0.00167    0.00072    0.26110
 11 Li   -0.00291   -0.00314    0.26086
 12 Li    0.00123   -0.00183    0.26748
 13 Li    0.00167   -0.00072    0.26110
 14 Li   -0.00291    0.00314    0.26086
 15 Li   -0.00197   -0.00000    0.25836
 16 Li   -0.00252   -0.00000    0.26620
 17 Li    0.00466   -0.00000    0.25542
 18 Li    0.00217   -0.00000    0.04189
 19 Li    0.00434   -0.00000    0.03189
 20 Li   -0.00605   -0.00000    0.01046
 21 Li   -0.00261   -0.00120    0.03279
 22 Li    0.00122    0.00260    0.03054
 23 Li    0.00150   -0.00299    0.03550
 24 Li   -0.00261    0.00120    0.03280
 25 Li    0.00122   -0.00259    0.03055
 26 Li    0.00150    0.00299    0.03550
 27 Li    0.00582    0.01055    0.03202
 28 Li   -0.00160    0.00966   -0.02171
 29 Li   -0.01007   -0.00789   -0.02155
 30 Li    0.00582   -0.01055    0.03202
 31 Li   -0.00160   -0.00966   -0.02171
 32 Li   -0.01007    0.00789   -0.02155
 33 Li   -0.00140   -0.00000   -0.02102
 34 Li    0.00069    0.00000   -0.01943
 35 Li    0.00048    0.00000   -0.02419
 36 F     0.04513    0.00000   -0.04989
 37 H    -0.00733    0.00000   -0.05891

System changes: positions 

Initializing position-dependent things.

Density initialized from wave functions
       .-----------------------.  
      /|                       |  
     / |                       |  
    /  |                       |  
   /   |                       |  
  /    |                       |  
 *     |                       |  
 |     |                       |  
 |     |                       |  
 |     |                       |  
 |     |                       |  
 |     |                       |  
 |     |               Li      |  
 |F H  |                       |  
 |     |     Li      Li      Li|  
 |     |  Li      Li      Li   |  
 | Li  |   Li      Li          |  
 |     |Li      Li      Li     |  
 Li    | Li                    |  
 |   LLi     LLi     LLi       |  
 |     |  Li      Li      Li   |  
 | Li  |   Li      Li          |  
 |     |Li      Li      Li     |  
 Li    | Li      Li            |  
 |    Li      Li      Li       |  
 |     |                       |  
 |     |                       |  
 |     |                       |  
 |     |                       |  
 |     |                       |  
 |     |                       |  
 |     .-----------------------.  
 |    /                       /   
 |   /                       /    
 |  /                       /     
 | /                       /      
 |/                       /       
 *-----------------------*        

Positions:
   0 Li     1.617037    1.617037   10.000000    ( 0.0000,  0.0000,  0.0000)
   1 Li     4.851111    1.617037   10.000000    ( 0.0000,  0.0000,  0.0000)
   2 Li     8.085185    1.617037   10.000000    ( 0.0000,  0.0000,  0.0000)
   3 Li     1.617037    4.851111   10.000000    ( 0.0000,  0.0000,  0.0000)
   4 Li     4.851111    4.851111   10.000000    ( 0.0000,  0.0000,  0.0000)
   5 Li     8.085185    4.851111   10.000000    ( 0.0000,  0.0000,  0.0000)
   6 Li     1.617037    8.085185   10.000000    ( 0.0000,  0.0000,  0.0000)
   7 Li     4.851111    8.085185   10.000000    ( 0.0000,  0.0000,  0.0000)
   8 Li     8.085185    8.085185   10.000000    ( 0.0000,  0.0000,  0.0000)
   9 Li     0.000000    0.000000   11.617037    ( 0.0000,  0.0000,  0.0000)
  10 Li     3.234074    0.000000   11.617037    ( 0.0000,  0.0000,  0.0000)
  11 Li     6.468148    0.000000   11.617037    ( 0.0000,  0.0000,  0.0000)
  12 Li     0.000000    3.234074   11.617037    ( 0.0000,  0.0000,  0.0000)
  13 Li     3.234074    3.234074   11.617037    ( 0.0000,  0.0000,  0.0000)
  14 Li     6.468148    3.234074   11.617037    ( 0.0000,  0.0000,  0.0000)
  15 Li     0.000000    6.468148   11.617037    ( 0.0000,  0.0000,  0.0000)
  16 Li     3.234074    6.468148   11.617037    ( 0.0000,  0.0000,  0.0000)
  17 Li     6.468148    6.468148   11.617037    ( 0.0000,  0.0000,  0.0000)
  18 Li     1.617229    1.617038   13.473033    ( 0.0000,  0.0000,  0.0000)
  19 Li     4.851461    1.617038   13.472267    ( 0.0000,  0.0000,  0.0000)
  20 Li     8.084683    1.617038   13.470510    ( 0.0000,  0.0000,  0.0000)
  21 Li     1.616841    4.851034   13.472315    ( 0.0000,  0.0000,  0.0000)
  22 Li     4.851212    4.851316   13.472174    ( 0.0000,  0.0000,  0.0000)
  23 Li     8.085290    4.850888   13.472545    ( 0.0000,  0.0000,  0.0000)
  24 Li     1.616841    8.085261   13.472314    ( 0.0000,  0.0000,  0.0000)
  25 Li     4.851212    8.084978   13.472174    ( 0.0000,  0.0000,  0.0000)
  26 Li     8.085291    8.085407   13.472543    ( 0.0000,  0.0000,  0.0000)
  27 Li     0.000486    0.000878   15.448566    ( 0.0000,  0.0000,  0.0000)
  28 Li     3.233922    0.000788   15.444281    ( 0.0000,  0.0000,  0.0000)
  29 Li     6.467357   -0.000635   15.444243    ( 0.0000,  0.0000,  0.0000)
  30 Li     0.000486    3.233195   15.448566    ( 0.0000,  0.0000,  0.0000)
  31 Li     3.233925    3.233288   15.444280    ( 0.0000,  0.0000,  0.0000)
  32 Li     6.467354    3.234711   15.444242    ( 0.0000,  0.0000,  0.0000)
  33 Li    -0.000117    6.468148   15.444265    ( 0.0000,  0.0000,  0.0000)
  34 Li     3.234140    6.468146   15.444388    ( 0.0000,  0.0000,  0.0000)
  35 Li     6.468179    6.468146   15.444013    ( 0.0000,  0.0000,  0.0000)
  36 F      0.035032    1.617037   18.441273    ( 0.0000,  0.0000,  0.0000)
  37 H      0.967357    1.617037   18.441066    ( 0.0000,  0.0000,  0.0000)

Unit cell:
           periodic     x           y           z      points  spacing
  1. axis:    yes    9.702222    0.000000    0.000000    60     0.1617
  2. axis:    yes    0.000000    9.702222    0.000000    60     0.1617
  3. axis:    no     0.000000    0.000000   24.851111   156     0.1593

  Lengths:   9.702222   9.702222  24.851111
  Angles:   90.000000  90.000000  90.000000

Effective grid spacing dv^(1/3) = 0.1609

     iter     time        total  log10-change:
                         energy  eigst   dens
iter:   1 19:13:57  -217.366906  -1.99
iter:   2 19:16:26  -217.359390  -2.44  -1.98
iter:   3 19:18:44  -217.358597c -3.84  -2.42
iter:   4 19:21:00  -217.358543c -3.01  -2.99
Writing to output.gpw (mode='')

iter:   5 19:23:22  -217.358509c -3.71  -3.12
iter:   6 19:25:44  -217.358550c -3.75  -3.23
iter:   7 19:27:53  -217.358519c -3.67  -3.32
iter:   8 19:30:12  -217.358529c -4.62  -3.59
iter:   9 19:32:32  -217.358540c -4.56  -3.69
Writing to output.gpw (mode='')

iter:  10 19:34:54  -217.358539c -5.24  -3.86
iter:  11 19:37:22  -217.358538c -4.98  -3.91
iter:  12 19:39:35  -217.358540c -5.31  -3.99
iter:  13 19:42:01  -217.358542c -5.31  -4.09c
iter:  14 19:44:24  -217.358544c -5.87  -4.15c
Writing to output.gpw (mode='')

iter:  15 19:46:48  -217.358543c -5.76  -4.36c
iter:  16 19:49:13  -217.358544c -6.06  -4.46c
iter:  17 19:51:34  -217.358544c -6.04  -4.54c
iter:  18 19:53:51  -217.358545c -6.32  -4.58c
iter:  19 19:56:09  -217.358545c -6.44  -4.74c
Writing to output.gpw (mode='')

iter:  20 19:58:32  -217.358545c -6.65  -4.91c
iter:  21 20:00:47  -217.358545c -6.46  -4.98c
iter:  22 20:03:01  -217.358545c -6.70  -5.02c
iter:  23 20:05:19  -217.358545c -6.94  -5.08c
iter:  24 20:07:40  -217.358545c -7.18  -5.11c
Writing to output.gpw (mode='')

iter:  25 20:10:05  -217.358545c -7.24  -5.25c
iter:  26 20:12:28  -217.358545c -7.37  -5.30c
iter:  27 20:14:46  -217.358545c -7.44c -5.34c

Converged after 27 iterations.

Dipole moment: (-10.904703, -2.834378, -0.007230) |e|*Ang

Energy contributions relative to reference atoms: (reference = -10026.932476)

Kinetic:        +87.129133
Potential:      -76.035767
External:        +0.000000
XC:            -228.285557
Entropy (-ST):   -0.152483
Local:           -0.090113
--------------------------
Free energy:   -217.434787
Extrapolated:  -217.358545

Dipole-layer corrected work functions: 3.379576, 3.393474 eV

Showing only first 2 kpts
 Kpt  Band  Eigenvalues  Occupancy
  0    20     -3.63920    1.98731
  0    21     -3.55345    1.93145
  0    22     -3.22302    0.07322
  0    23     -3.13254    0.01237

  1    20     -3.40965    1.22723
  1    21     -3.38446    0.97937
  1    22     -3.34324    0.59229
  1    23     -3.33685    0.54042


Fermi level: -3.38653

No gap
Writing to output.gpw (mode='')


Forces in eV/Ang:
  0 Li    0.00300    0.00000   -0.27299
  1 Li   -0.00335    0.00000   -0.27275
  2 Li    0.00027    0.00000   -0.27154
  3 Li   -0.00069   -0.00200   -0.27183
  4 Li    0.00270    0.00101   -0.27368
  5 Li   -0.00211    0.00411   -0.27228
  6 Li   -0.00069    0.00200   -0.27183
  7 Li    0.00270   -0.00101   -0.27368
  8 Li   -0.00211   -0.00411   -0.27228
  9 Li    0.00143    0.00183    0.26831
 10 Li    0.00166    0.00081    0.26230
 11 Li   -0.00308   -0.00336    0.26175
 12 Li    0.00143   -0.00183    0.26831
 13 Li    0.00166   -0.00081    0.26230
 14 Li   -0.00308    0.00336    0.26175
 15 Li   -0.00203   -0.00000    0.25948
 16 Li   -0.00269   -0.00000    0.26742
 17 Li    0.00488   -0.00000    0.25665
 18 Li    0.00149   -0.00000    0.03934
 19 Li    0.00412   -0.00000    0.02917
 20 Li   -0.00527   -0.00000    0.01022
 21 Li   -0.00276   -0.00147    0.03069
 22 Li    0.00100    0.00243    0.02795
 23 Li    0.00179   -0.00321    0.03315
 24 Li   -0.00276    0.00147    0.03069
 25 Li    0.00100   -0.00243    0.02795
 26 Li    0.00179    0.00321    0.03315
 27 Li    0.00532    0.01009    0.03175
 28 Li   -0.00144    0.00918   -0.02024
 29 Li   -0.00967   -0.00742   -0.02010
 30 Li    0.00532   -0.01009    0.03176
 31 Li   -0.00145   -0.00918   -0.02024
 32 Li   -0.00967    0.00742   -0.02010
 33 Li   -0.00139   -0.00000   -0.01938
 34 Li    0.00069    0.00000   -0.01787
 35 Li    0.00051    0.00000   -0.02246
 36 F    -0.08406    0.00000   -0.04350
 37 H     0.11977    0.00000   -0.05815

System changes: positions 

Initializing position-dependent things.

Density initialized from wave functions
       .-----------------------.  
      /|                       |  
     / |                       |  
    /  |                       |  
   /   |                       |  
  /    |                       |  
 *     |                       |  
 |     |                       |  
 |     |                       |  
 |     |                       |  
 |     |                       |  
 |     |                       |  
 |     |               Li      |  
 |F H  |                       |  
 |     |     Li      Li      Li|  
 |     |  Li      Li      Li   |  
 | Li  |   Li      Li          |  
 |     |Li      Li      Li     |  
 Li    | Li                    |  
 |   LLi     LLi     LLi       |  
 |     |  Li      Li      Li   |  
 | Li  |   Li      Li          |  
 |     |Li      Li      Li     |  
 Li    | Li      Li            |  
 |    Li      Li      Li       |  
 |     |                       |  
 |     |                       |  
 |     |                       |  
 |     |                       |  
 |     |                       |  
 |     |                       |  
 |     .-----------------------.  
 |    /                       /   
 |   /                       /    
 |  /                       /     
 | /                       /      
 |/                       /       
 *-----------------------*        

Positions:
   0 Li     1.617037    1.617037   10.000000    ( 0.0000,  0.0000,  0.0000)
   1 Li     4.851111    1.617037   10.000000    ( 0.0000,  0.0000,  0.0000)
   2 Li     8.085185    1.617037   10.000000    ( 0.0000,  0.0000,  0.0000)
   3 Li     1.617037    4.851111   10.000000    ( 0.0000,  0.0000,  0.0000)
   4 Li     4.851111    4.851111   10.000000    ( 0.0000,  0.0000,  0.0000)
   5 Li     8.085185    4.851111   10.000000    ( 0.0000,  0.0000,  0.0000)
   6 Li     1.617037    8.085185   10.000000    ( 0.0000,  0.0000,  0.0000)
   7 Li     4.851111    8.085185   10.000000    ( 0.0000,  0.0000,  0.0000)
   8 Li     8.085185    8.085185   10.000000    ( 0.0000,  0.0000,  0.0000)
   9 Li     0.000000    0.000000   11.617037    ( 0.0000,  0.0000,  0.0000)
  10 Li     3.234074    0.000000   11.617037    ( 0.0000,  0.0000,  0.0000)
  11 Li     6.468148    0.000000   11.617037    ( 0.0000,  0.0000,  0.0000)
  12 Li     0.000000    3.234074   11.617037    ( 0.0000,  0.0000,  0.0000)
  13 Li     3.234074    3.234074   11.617037    ( 0.0000,  0.0000,  0.0000)
  14 Li     6.468148    3.234074   11.617037    ( 0.0000,  0.0000,  0.0000)
  15 Li     0.000000    6.468148   11.617037    ( 0.0000,  0.0000,  0.0000)
  16 Li     3.234074    6.468148   11.617037    ( 0.0000,  0.0000,  0.0000)
  17 Li     6.468148    6.468148   11.617037    ( 0.0000,  0.0000,  0.0000)
  18 Li     1.617492    1.617038   13.478299    ( 0.0000,  0.0000,  0.0000)
  19 Li     4.852008    1.617038   13.476260    ( 0.0000,  0.0000,  0.0000)
  20 Li     8.083929    1.617038   13.471831    ( 0.0000,  0.0000,  0.0000)
  21 Li     1.616507    4.850876   13.476434    ( 0.0000,  0.0000,  0.0000)
  22 Li     4.851363    4.851643   13.475998    ( 0.0000,  0.0000,  0.0000)
  23 Li     8.085486    4.850504   13.477003    ( 0.0000,  0.0000,  0.0000)
  24 Li     1.616507    8.085419   13.476433    ( 0.0000,  0.0000,  0.0000)
  25 Li     4.851363    8.084652   13.475998    ( 0.0000,  0.0000,  0.0000)
  26 Li     8.085486    8.085791   13.477002    ( 0.0000,  0.0000,  0.0000)
  27 Li     0.001215    0.002209   15.452632    ( 0.0000,  0.0000,  0.0000)
  28 Li     3.233722    0.002005   15.441558    ( 0.0000,  0.0000,  0.0000)
  29 Li     6.466087   -0.001628   15.441539    ( 0.0000,  0.0000,  0.0000)
  30 Li     0.001215    3.231865   15.452631    ( 0.0000,  0.0000,  0.0000)
  31 Li     3.233725    3.232071   15.441558    ( 0.0000,  0.0000,  0.0000)
  32 Li     6.466084    3.235703   15.441538    ( 0.0000,  0.0000,  0.0000)
  33 Li    -0.000295    6.468148   15.441632    ( 0.0000,  0.0000,  0.0000)
  34 Li     3.234228    6.468146   15.441955    ( 0.0000,  0.0000,  0.0000)
  35 Li     6.468240    6.468146   15.440980    ( 0.0000,  0.0000,  0.0000)
  36 F      0.039015    1.617037   18.434935    ( 0.0000,  0.0000,  0.0000)
  37 H      0.968168    1.617037   18.433584    ( 0.0000,  0.0000,  0.0000)

Unit cell:
           periodic     x           y           z      points  spacing
  1. axis:    yes    9.702222    0.000000    0.000000    60     0.1617
  2. axis:    yes    0.000000    9.702222    0.000000    60     0.1617
  3. axis:    no     0.000000    0.000000   24.851111   156     0.1593

  Lengths:   9.702222   9.702222  24.851111
  Angles:   90.000000  90.000000  90.000000

Effective grid spacing dv^(1/3) = 0.1609

     iter     time        total  log10-change:
                         energy  eigst   dens
iter:   1 20:17:36  -217.425323  -1.10
iter:   2 20:19:55  -217.366568  -1.67  -1.53
iter:   3 20:22:14  -217.360396  -3.02  -2.01
iter:   4 20:24:35  -217.360009c -2.36  -2.59
Writing to output.gpw (mode='')

iter:   5 20:26:56  -217.360074c -2.69  -2.91
iter:   6 20:29:14  -217.360206c -3.20  -2.97
iter:   7 20:31:29  -217.360176c -2.83  -3.02
iter:   8 20:33:46  -217.360202c -3.67  -3.15
iter:   9 20:36:04  -217.360250c -3.60  -3.34
Writing to output.gpw (mode='')

iter:  10 20:38:31  -217.360253c -4.27  -3.52
iter:  11 20:40:48  -217.360265c -4.02  -3.55
iter:  12 20:43:14  -217.360272c -4.27  -3.54
iter:  13 20:45:36  -217.360284c -4.15  -3.64
iter:  14 20:47:53  -217.360290c -4.78  -3.67
Writing to output.gpw (mode='')

iter:  15 20:50:19  -217.360291c -4.82  -3.73
iter:  16 20:52:43  -217.360294c -4.94  -3.85
iter:  17 20:54:58  -217.360299c -5.14  -3.90
iter:  18 20:57:07  -217.360298c -5.24  -4.09c
iter:  19 20:59:26  -217.360298c -5.75  -4.23c
Writing to output.gpw (mode='')

iter:  20 21:01:44  -217.360297c -5.70  -4.26c
iter:  21 21:04:02  -217.360297c -5.78  -4.34c
iter:  22 21:06:22  -217.360297c -6.10  -4.44c
iter:  23 21:08:46  -217.360297c -5.66  -4.42c
iter:  24 21:11:15  -217.360297c -6.30  -4.28c
Writing to output.gpw (mode='')

iter:  25 21:13:32  -217.360298c -6.22  -4.39c
iter:  26 21:15:44  -217.360298c -6.68  -4.81c
iter:  27 21:18:03  -217.360298c -6.50  -4.99c
iter:  28 21:20:13  -217.360298c -6.84  -4.96c
iter:  29 21:22:33  -217.360298c -7.09  -5.29c
Writing to output.gpw (mode='')

iter:  30 21:25:02  -217.360298c -7.05  -5.35c
iter:  31 21:27:19  -217.360298c -7.17  -5.45c
iter:  32 21:29:33  -217.360298c -7.25  -5.47c
iter:  33 21:31:56  -217.360299c -7.38  -5.55c
iter:  34 21:34:17  -217.360299c -7.23  -5.65c
Writing to output.gpw (mode='')

iter:  35 21:36:28  -217.360299c -7.40c -5.83c

Converged after 35 iterations.

Dipole moment: (-11.222536, -2.856645, -0.006626) |e|*Ang

Energy contributions relative to reference atoms: (reference = -10026.932476)

Kinetic:        +87.330044
Potential:      -76.182816
External:        +0.000000
XC:            -228.341304
Entropy (-ST):   -0.152538
Local:           -0.089954
--------------------------
Free energy:   -217.436568
Extrapolated:  -217.360299

Dipole-layer corrected work functions: 3.379623, 3.392361 eV

Showing only first 2 kpts
 Kpt  Band  Eigenvalues  Occupancy
  0    20     -3.63747    1.98700
  0    21     -3.55282    1.93133
  0    22     -3.22206    0.07262
  0    23     -3.13068    0.01205

  1    20     -3.40898    1.22594
  1    21     -3.38335    0.97363
  1    22     -3.34377    0.60118
  1    23     -3.33714    0.54693


Fermi level: -3.38599

No gap

Forces in eV/Ang:
  0 Li    0.00307    0.00000   -0.27315
  1 Li   -0.00339    0.00000   -0.27320
  2 Li    0.00023    0.00000   -0.27168
  3 Li   -0.00065   -0.00206   -0.27221
  4 Li    0.00273    0.00111   -0.27416
  5 Li   -0.00217    0.00413   -0.27263
  6 Li   -0.00065    0.00206   -0.27221
  7 Li    0.00273   -0.00111   -0.27416
  8 Li   -0.00217   -0.00413   -0.27263
  9 Li    0.00206    0.00183    0.27106
 10 Li    0.00160    0.00109    0.26621
 11 Li   -0.00361   -0.00407    0.26461
 12 Li    0.00206   -0.00183    0.27106
 13 Li    0.00160   -0.00109    0.26621
 14 Li   -0.00361    0.00407    0.26461
 15 Li   -0.00224   -0.00000    0.26314
 16 Li   -0.00323   -0.00000    0.27134
 17 Li    0.00563   -0.00000    0.26053
 18 Li   -0.00074   -0.00000    0.03114
 19 Li    0.00346   -0.00000    0.02031
 20 Li   -0.00276   -0.00000    0.00927
 21 Li   -0.00325   -0.00232    0.02381
 22 Li    0.00031    0.00189    0.01954
 23 Li    0.00274   -0.00393    0.02554
 24 Li   -0.00325    0.00232    0.02381
 25 Li    0.00031   -0.00189    0.01954
 26 Li    0.00274    0.00393    0.02555
 27 Li    0.00384    0.00883    0.03140
 28 Li   -0.00109    0.00780   -0.01522
 29 Li   -0.00838   -0.00594   -0.01539
 30 Li    0.00384   -0.00883    0.03140
 31 Li   -0.00109   -0.00780   -0.01522
 32 Li   -0.00838    0.00594   -0.01538
 33 Li   -0.00139   -0.00000   -0.01413
 34 Li    0.00071    0.00000   -0.01287
 35 Li    0.00059    0.00000   -0.01692
 36 F    -0.27578    0.00000   -0.02354
 37 H     0.29615    0.00000   -0.05986

System changes: positions 

Initializing position-dependent things.

Density initialized from wave functions
       .-----------------------.  
      /|                       |  
     / |                       |  
    /  |                       |  
   /   |                       |  
  /    |                       |  
 *     |                       |  
 |     |                       |  
 |     |                       |  
 |     |                       |  
 |     |                       |  
 |     |                       |  
 |     |               Li      |  
 |F H  |                       |  
 |     |     Li      Li      Li|  
 |     |  Li      Li      Li   |  
 | Li  |   Li      Li          |  
 |     |Li      Li      Li     |  
 Li    | Li                    |  
 |   LLi     LLi     LLi       |  
 |     |  Li      Li      Li   |  
 | Li  |   Li      Li          |  
 |     |Li      Li      Li     |  
 Li    | Li      Li            |  
 |    Li      Li      Li       |  
 |     |                       |  
 |     |                       |  
 |     |                       |  
 |     |                       |  
 |     |                       |  
 |     |                       |  
 |     .-----------------------.  
 |    /                       /   
 |   /                       /    
 |  /                       /     
 | /                       /      
 |/                       /       
 *-----------------------*        

Positions:
   0 Li     1.617037    1.617037   10.000000    ( 0.0000,  0.0000,  0.0000)
   1 Li     4.851111    1.617037   10.000000    ( 0.0000,  0.0000,  0.0000)
   2 Li     8.085185    1.617037   10.000000    ( 0.0000,  0.0000,  0.0000)
   3 Li     1.617037    4.851111   10.000000    ( 0.0000,  0.0000,  0.0000)
   4 Li     4.851111    4.851111   10.000000    ( 0.0000,  0.0000,  0.0000)
   5 Li     8.085185    4.851111   10.000000    ( 0.0000,  0.0000,  0.0000)
   6 Li     1.617037    8.085185   10.000000    ( 0.0000,  0.0000,  0.0000)
   7 Li     4.851111    8.085185   10.000000    ( 0.0000,  0.0000,  0.0000)
   8 Li     8.085185    8.085185   10.000000    ( 0.0000,  0.0000,  0.0000)
   9 Li     0.000000    0.000000   11.617037    ( 0.0000,  0.0000,  0.0000)
  10 Li     3.234074    0.000000   11.617037    ( 0.0000,  0.0000,  0.0000)
  11 Li     6.468148    0.000000   11.617037    ( 0.0000,  0.0000,  0.0000)
  12 Li     0.000000    3.234074   11.617037    ( 0.0000,  0.0000,  0.0000)
  13 Li     3.234074    3.234074   11.617037    ( 0.0000,  0.0000,  0.0000)
  14 Li     6.468148    3.234074   11.617037    ( 0.0000,  0.0000,  0.0000)
  15 Li     0.000000    6.468148   11.617037    ( 0.0000,  0.0000,  0.0000)
  16 Li     3.234074    6.468148   11.617037    ( 0.0000,  0.0000,  0.0000)
  17 Li     6.468148    6.468148   11.617037    ( 0.0000,  0.0000,  0.0000)
  18 Li     1.617915    1.617038   13.487756    ( 0.0000,  0.0000,  0.0000)
  19 Li     4.852996    1.617037   13.483360    ( 0.0000,  0.0000,  0.0000)
  20 Li     8.082611    1.617038   13.474231    ( 0.0000,  0.0000,  0.0000)
  21 Li     1.615880    4.850565   13.483818    ( 0.0000,  0.0000,  0.0000)
  22 Li     4.851621    4.852229   13.482800    ( 0.0000,  0.0000,  0.0000)
  23 Li     8.085871    4.849781   13.484991    ( 0.0000,  0.0000,  0.0000)
  24 Li     1.615880    8.085730   13.483818    ( 0.0000,  0.0000,  0.0000)
  25 Li     4.851621    8.084067   13.482801    ( 0.0000,  0.0000,  0.0000)
  26 Li     8.085871    8.086515   13.484991    ( 0.0000,  0.0000,  0.0000)
  27 Li     0.002516    0.004623   15.460100    ( 0.0000,  0.0000,  0.0000)
  28 Li     3.233363    0.004205   15.436693    ( 0.0000,  0.0000,  0.0000)
  29 Li     6.463787   -0.003413   15.436697    ( 0.0000,  0.0000,  0.0000)
  30 Li     0.002516    3.229451   15.460100    ( 0.0000,  0.0000,  0.0000)
  31 Li     3.233365    3.229871   15.436693    ( 0.0000,  0.0000,  0.0000)
  32 Li     6.463786    3.237488   15.436697    ( 0.0000,  0.0000,  0.0000)
  33 Li    -0.000623    6.468148   15.436935    ( 0.0000,  0.0000,  0.0000)
  34 Li     3.234390    6.468147   15.437619    ( 0.0000,  0.0000,  0.0000)
  35 Li     6.468355    6.468147   15.435556    ( 0.0000,  0.0000,  0.0000)
  36 F      0.043914    1.617037   18.423794    ( 0.0000,  0.0000,  0.0000)
  37 H      0.971685    1.617037   18.419762    ( 0.0000,  0.0000,  0.0000)

Unit cell:
           periodic     x           y           z      points  spacing
  1. axis:    yes    9.702222    0.000000    0.000000    60     0.1617
  2. axis:    yes    0.000000    9.702222    0.000000    60     0.1617
  3. axis:    no     0.000000    0.000000   24.851111   156     0.1593

  Lengths:   9.702222   9.702222  24.851111
  Angles:   90.000000  90.000000  90.000000

Effective grid spacing dv^(1/3) = 0.1609

     iter     time        total  log10-change:
                         energy  eigst   dens
iter:   1 21:39:19  -217.541244  -0.67
iter:   2 21:41:34  -217.377851  -1.34  -1.32
iter:   3 21:43:55  -217.363255  -2.63  -1.82
iter:   4 21:46:17  -217.362230c -2.00  -2.38
Writing to output.gpw (mode='')

iter:   5 21:48:37  -217.362564c -2.26  -2.77
iter:   6 21:50:52  -217.362837c -2.97  -2.82
iter:   7 21:53:09  -217.362861c -2.42  -2.80
iter:   8 21:55:20  -217.362888c -3.21  -2.87
iter:   9 21:57:43  -217.362958c -3.15  -3.01
Writing to output.gpw (mode='')

iter:  10 21:59:56  -217.362978c -3.79  -3.36
iter:  11 22:02:10  -217.362999c -3.63  -3.37
iter:  12 22:04:24  -217.363031c -3.70  -3.33
iter:  13 22:06:40  -217.363056c -4.13  -3.44
iter:  14 22:08:52  -217.363059c -4.40  -3.48
Writing to output.gpw (mode='')

iter:  15 22:11:18  -217.363061c -4.35  -3.56
iter:  16 22:13:36  -217.363071c -4.59  -3.69
iter:  17 22:16:01  -217.363081c -4.42  -3.74
iter:  18 22:18:22  -217.363077c -4.88  -3.78
iter:  19 22:20:34  -217.363075c -4.94  -3.95
Writing to output.gpw (mode='')

iter:  20 22:22:58  -217.363075c -5.09  -4.07c
iter:  21 22:25:20  -217.363077c -5.27  -4.12c
iter:  22 22:27:40  -217.363078c -5.42  -4.13c
iter:  23 22:30:03  -217.363078c -5.91  -4.28c
iter:  24 22:32:22  -217.363079c -5.97  -4.35c
Writing to output.gpw (mode='')

iter:  25 22:34:47  -217.363080c -5.70  -4.38c
iter:  26 22:37:20  -217.363080c -6.00  -4.46c
iter:  27 22:39:45  -217.363080c -6.07  -4.54c
iter:  28 22:42:07  -217.363081c -6.44  -4.61c
iter:  29 22:44:26  -217.363080c -6.29  -4.76c
Writing to output.gpw (mode='')

iter:  30 22:46:44  -217.363081c -6.45  -4.91c
iter:  31 22:49:16  -217.363081c -6.44  -5.05c
iter:  32 22:51:34  -217.363081c -6.70  -5.06c
iter:  33 22:53:57  -217.363081c -6.93  -5.33c
iter:  34 22:56:16  -217.363081c -6.86  -5.37c
Writing to output.gpw (mode='')

iter:  35 22:58:44  -217.363081c -7.15  -5.41c
iter:  36 23:01:04  -217.363081c -7.13  -5.25c
iter:  37 23:03:24  -217.363081c -7.30  -5.69c
iter:  38 23:05:41  -217.363081c -7.45c -5.75c

Converged after 38 iterations.

Dipole moment: (-11.607232, -2.894884, -0.007053) |e|*Ang

Energy contributions relative to reference atoms: (reference = -10026.932476)

Kinetic:        +87.476019
Potential:      -76.288220
External:        +0.000000
XC:            -228.384456
Entropy (-ST):   -0.152632
Local:           -0.090108
--------------------------
Free energy:   -217.439397
Extrapolated:  -217.363081

Dipole-layer corrected work functions: 3.379610, 3.393169 eV

Showing only first 2 kpts
 Kpt  Band  Eigenvalues  Occupancy
  0    20     -3.63575    1.98644
  0    21     -3.55303    1.93108
  0    22     -3.22172    0.07160
  0    23     -3.12877    0.01150

  1    20     -3.40929    1.22508
  1    21     -3.38266    0.96269
  1    22     -3.34604    0.61702
  1    23     -3.33893    0.55811


Fermi level: -3.38639

No gap
Writing to output.gpw (mode='')


Forces in eV/Ang:
  0 Li    0.00319    0.00000   -0.27345
  1 Li   -0.00347    0.00000   -0.27398
  2 Li    0.00017    0.00000   -0.27188
  3 Li   -0.00056   -0.00218   -0.27286
  4 Li    0.00282    0.00132   -0.27500
  5 Li   -0.00231    0.00418   -0.27325
  6 Li   -0.00056    0.00218   -0.27286
  7 Li    0.00282   -0.00132   -0.27500
  8 Li   -0.00231   -0.00418   -0.27325
  9 Li    0.00318    0.00185    0.27598
 10 Li    0.00146    0.00161    0.27324
 11 Li   -0.00451   -0.00534    0.26973
 12 Li    0.00318   -0.00185    0.27598
 13 Li    0.00146   -0.00161    0.27324
 14 Li   -0.00451    0.00534    0.26973
 15 Li   -0.00262   -0.00000    0.26964
 16 Li   -0.00422   -0.00000    0.27834
 17 Li    0.00698   -0.00000    0.26742
 18 Li   -0.00482   -0.00000    0.01668
 19 Li    0.00233   -0.00000    0.00458
 20 Li    0.00168   -0.00000    0.00746
 21 Li   -0.00416   -0.00383    0.01168
 22 Li   -0.00095    0.00094    0.00471
 23 Li    0.00448   -0.00526    0.01217
 24 Li   -0.00416    0.00383    0.01168
 25 Li   -0.00095   -0.00094    0.00471
 26 Li    0.00448    0.00526    0.01217
 27 Li    0.00131    0.00678    0.03145
 28 Li   -0.00055    0.00542   -0.00582
 29 Li   -0.00609   -0.00334   -0.00680
 30 Li    0.00131   -0.00678    0.03145
 31 Li   -0.00055   -0.00542   -0.00582
 32 Li   -0.00609    0.00333   -0.00680
 33 Li   -0.00141   -0.00000   -0.00461
 34 Li    0.00080    0.00000   -0.00387
 35 Li    0.00073    0.00000   -0.00700
 36 F    -0.36610    0.00000   -0.05027
 37 H     0.38153   -0.00000   -0.06737

System changes: positions 

Initializing position-dependent things.

Density initialized from wave functions
       .-----------------------.  
      /|                       |  
     / |                       |  
    /  |                       |  
   /   |                       |  
  /    |                       |  
 *     |                       |  
 |     |                       |  
 |     |                       |  
 |     |                       |  
 |     |                       |  
 |     |                       |  
 |     |               Li      |  
 |F H  |                       |  
 |     |     Li      Li      Li|  
 |     |  Li      Li      Li   |  
 | Li  |   Li      Li          |  
 |     |Li      Li      Li     |  
 Li    | Li                    |  
 |   LLi     LLi     LLi       |  
 |     |  Li      Li      Li   |  
 | Li  |   Li      Li          |  
 |     |Li      Li      Li     |  
 Li    | Li      Li            |  
 |    Li      Li      Li       |  
 |     |                       |  
 |     |                       |  
 |     |                       |  
 |     |                       |  
 |     |                       |  
 |     |                       |  
 |     .-----------------------.  
 |    /                       /   
 |   /                       /    
 |  /                       /     
 | /                       /      
 |/                       /       
 *-----------------------*        

Positions:
   0 Li     1.617037    1.617037   10.000000    ( 0.0000,  0.0000,  0.0000)
   1 Li     4.851111    1.617037   10.000000    ( 0.0000,  0.0000,  0.0000)
   2 Li     8.085185    1.617037   10.000000    ( 0.0000,  0.0000,  0.0000)
   3 Li     1.617037    4.851111   10.000000    ( 0.0000,  0.0000,  0.0000)
   4 Li     4.851111    4.851111   10.000000    ( 0.0000,  0.0000,  0.0000)
   5 Li     8.085185    4.851111   10.000000    ( 0.0000,  0.0000,  0.0000)
   6 Li     1.617037    8.085185   10.000000    ( 0.0000,  0.0000,  0.0000)
   7 Li     4.851111    8.085185   10.000000    ( 0.0000,  0.0000,  0.0000)
   8 Li     8.085185    8.085185   10.000000    ( 0.0000,  0.0000,  0.0000)
   9 Li     0.000000    0.000000   11.617037    ( 0.0000,  0.0000,  0.0000)
  10 Li     3.234074    0.000000   11.617037    ( 0.0000,  0.0000,  0.0000)
  11 Li     6.468148    0.000000   11.617037    ( 0.0000,  0.0000,  0.0000)
  12 Li     0.000000    3.234074   11.617037    ( 0.0000,  0.0000,  0.0000)
  13 Li     3.234074    3.234074   11.617037    ( 0.0000,  0.0000,  0.0000)
  14 Li     6.468148    3.234074   11.617037    ( 0.0000,  0.0000,  0.0000)
  15 Li     0.000000    6.468148   11.617037    ( 0.0000,  0.0000,  0.0000)
  16 Li     3.234074    6.468148   11.617037    ( 0.0000,  0.0000,  0.0000)
  17 Li     6.468148    6.468148   11.617037    ( 0.0000,  0.0000,  0.0000)
  18 Li     1.618888    1.617037   13.513022    ( 0.0000,  0.0000,  0.0000)
  19 Li     4.855655    1.617036   13.502105    ( 0.0000,  0.0000,  0.0000)
  20 Li     8.079197    1.617037   13.480725    ( 0.0000,  0.0000,  0.0000)
  21 Li     1.614120    4.849644   13.503509    ( 0.0000,  0.0000,  0.0000)
  22 Li     4.852271    4.853792   13.500772    ( 0.0000,  0.0000,  0.0000)
  23 Li     8.087005    4.847736   13.506282    ( 0.0000,  0.0000,  0.0000)
  24 Li     1.614121    8.086652   13.503510    ( 0.0000,  0.0000,  0.0000)
  25 Li     4.852271    8.082505   13.500774    ( 0.0000,  0.0000,  0.0000)
  26 Li     8.087004    8.088560   13.506284    ( 0.0000,  0.0000,  0.0000)
  27 Li     0.005968    0.011149   15.480582    ( 0.0000,  0.0000,  0.0000)
  28 Li     3.232401    0.010128   15.423786    ( 0.0000,  0.0000,  0.0000)
  29 Li     6.457589   -0.008188   15.423815    ( 0.0000,  0.0000,  0.0000)
  30 Li     0.005968    3.222925   15.480584    ( 0.0000,  0.0000,  0.0000)
  31 Li     3.232401    3.223946   15.423788    ( 0.0000,  0.0000,  0.0000)
  32 Li     6.457589    3.242262   15.423816    ( 0.0000,  0.0000,  0.0000)
  33 Li    -0.001523    6.468148   15.424492    ( 0.0000,  0.0000,  0.0000)
  34 Li     3.234840    6.468148   15.426142    ( 0.0000,  0.0000,  0.0000)
  35 Li     6.468676    6.468148   15.421138    ( 0.0000,  0.0000,  0.0000)
  36 F      0.055034    1.617037   18.392147    ( 0.0000,  0.0000,  0.0000)
  37 H      0.983381    1.617037   18.381510    ( 0.0000,  0.0000,  0.0000)

Unit cell:
           periodic     x           y           z      points  spacing
  1. axis:    yes    9.702222    0.000000    0.000000    60     0.1617
  2. axis:    yes    0.000000    9.702222    0.000000    60     0.1617
  3. axis:    no     0.000000    0.000000   24.851111   156     0.1593

  Lengths:   9.702222   9.702222  24.851111
  Angles:   90.000000  90.000000  90.000000

Effective grid spacing dv^(1/3) = 0.1609

     iter     time        total  log10-change:
                         energy  eigst   dens
iter:   1 23:08:30  -218.480312  +0.14
iter:   2 23:10:45  -217.396103  -0.77  -0.95
iter:   3 23:13:04  -217.366408  -1.71  -1.62
[...]
  23 Li     8.160198    4.753958   13.609149    ( 0.0000,  0.0000,  0.0000)
  24 Li     1.549506    8.015896   13.478744    ( 0.0000,  0.0000,  0.0000)
  25 Li     4.755134    8.138173   13.522694    ( 0.0000,  0.0000,  0.0000)
  26 Li     8.162299    8.182909   13.614602    ( 0.0000,  0.0000,  0.0000)
  27 Li     0.236094    0.264688   16.248229    ( 0.0000,  0.0000,  0.0000)
  28 Li     2.933321    0.222765   15.254494    ( 0.0000,  0.0000,  0.0000)
  29 Li     6.275529    0.000652   15.496974    ( 0.0000,  0.0000,  0.0000)
  30 Li     0.297560    2.888224   16.232749    ( 0.0000,  0.0000,  0.0000)
  31 Li     2.964128    3.044624   15.219268    ( 0.0000,  0.0000,  0.0000)
  32 Li     6.281390    3.233563   15.497087    ( 0.0000,  0.0000,  0.0000)
  33 Li     0.023985    6.461929   15.537861    ( 0.0000,  0.0000,  0.0000)
  34 Li     3.214569    6.470144   15.490485    ( 0.0000,  0.0000,  0.0000)
  35 Li     6.456700    6.469411   15.382167    ( 0.0000,  0.0000,  0.0000)
  36 F      0.738607    1.585654   17.316471    ( 0.0000,  0.0000,  0.0000)
  37 H      1.683211    1.653965   15.083079    ( 0.0000,  0.0000,  0.0000)

Unit cell:
           periodic     x           y           z      points  spacing
  1. axis:    yes    9.702222    0.000000    0.000000    60     0.1617
  2. axis:    yes    0.000000    9.702222    0.000000    60     0.1617
  3. axis:    no     0.000000    0.000000   24.851111   156     0.1593

  Lengths:   9.702222   9.702222  24.851111
  Angles:   90.000000  90.000000  90.000000

Effective grid spacing dv^(1/3) = 0.1609

     iter     time        total  log10-change:
                         energy  eigst   dens
iter:   1 07:08:32  -219.963979  -2.06
iter:   2 07:09:38  -219.960920  -2.85  -2.13
iter:   3 07:10:22  -219.960479c -3.55  -2.60
iter:   4 07:11:06  -219.959622c -3.22  -2.72
Writing to output.gpw (mode='')

iter:   5 07:12:03  -219.959854c -4.20  -3.05
iter:   6 07:14:29  -219.959653c -3.64  -2.98
iter:   7 07:16:48  -219.959532c -3.30  -3.14
iter:   8 07:19:01  -219.959631c -4.27  -3.37
iter:   9 07:21:17  -219.959632c -4.24  -3.61
Writing to output.gpw (mode='')

iter:  10 07:23:38  -219.959585c -4.20  -3.64
iter:  11 07:26:00  -219.959591c -4.80  -3.67
iter:  12 07:27:28  -219.959603c -5.29  -3.68
iter:  13 07:29:46  -219.959589c -5.05  -3.75
iter:  14 07:32:10  -219.959591c -5.36  -4.10c
Writing to output.gpw (mode='')

iter:  15 07:34:00  -219.959599c -5.80  -4.13c
iter:  16 07:36:35  -219.959605c -5.84  -4.26c
iter:  17 07:38:50  -219.959605c -6.21  -4.40c
iter:  18 07:41:15  -219.959603c -6.30  -4.44c
iter:  19 07:43:30  -219.959605c -6.37  -4.53c
Writing to output.gpw (mode='')

iter:  20 07:45:41  -219.959605c -6.47  -4.72c
iter:  21 07:48:06  -219.959604c -6.63  -4.85c
iter:  22 07:50:23  -219.959604c -6.62  -4.96c
iter:  23 07:52:45  -219.959604c -6.91  -5.01c
iter:  24 07:55:08  -219.959604c -6.97  -5.02c
Writing to output.gpw (mode='')

iter:  25 07:57:20  -219.959603c -7.08  -5.07c
iter:  26 07:59:34  -219.959604c -7.41c -5.21c

Converged after 26 iterations.

Dipole moment: (-8.121133, -6.610856, -0.139256) |e|*Ang

Energy contributions relative to reference atoms: (reference = -10026.932476)

Kinetic:        +88.227924
Potential:      -76.501484
External:        +0.000000
XC:            -231.536229
Entropy (-ST):   -0.132713
Local:           -0.083458
--------------------------
Free energy:   -220.025960
Extrapolated:  -219.959604

Dipole-layer corrected work functions: 3.410381, 3.678079 eV

Showing only first 2 kpts
 Kpt  Band  Eigenvalues  Occupancy
  0    20     -3.76309    1.97519
  0    21     -3.71938    1.94155
  0    22     -3.47031    0.37136
  0    23     -3.29267    0.01298

  1    20     -3.76268    1.97499
  1    21     -3.51289    0.69645
  1    22     -3.47299    0.38784
  1    23     -3.39511    0.09645


Fermi level: -3.54423

No gap
Writing to output.gpw (mode='')


Forces in eV/Ang:
  0 Li    0.00218    0.00035   -0.25521
  1 Li   -0.01203   -0.00027   -0.27742
  2 Li    0.01429   -0.00057   -0.24980
  3 Li    0.00007   -0.00730   -0.26478
  4 Li    0.01170    0.00575   -0.28984
  5 Li   -0.00167    0.01398   -0.30177
  6 Li   -0.00054    0.00516   -0.26421
  7 Li    0.01132   -0.00760   -0.28860
  8 Li   -0.00056   -0.01471   -0.30184
  9 Li   -0.05317   -0.02376    0.16689
 10 Li   -0.05610    0.01538    0.27826
 11 Li    0.04452   -0.04039    0.29442
 12 Li   -0.05782    0.02405    0.16067
 13 Li   -0.04893   -0.01190    0.27331
 14 Li    0.04266    0.03652    0.29699
 15 Li   -0.09889    0.00227    0.24428
 16 Li   -0.00473    0.00051    0.26611
 17 Li    0.03551    0.00596    0.44915
 18 Li    0.02365    0.00150    0.05137
 19 Li    0.03324   -0.00082    0.00502
 20 Li   -0.02145   -0.00185   -0.00740
 21 Li    0.00200   -0.02400    0.02474
 22 Li    0.03299    0.03014   -0.02079
 23 Li   -0.00146    0.00341    0.00454
 24 Li    0.00056    0.02955    0.03109
 25 Li    0.02755   -0.02373   -0.01737
 26 Li    0.00015   -0.00184    0.01035
 27 Li    0.02449    0.01983    0.03562
 28 Li    0.01480    0.05352   -0.00451
 29 Li   -0.00333   -0.02376   -0.01719
 30 Li    0.02436    0.06404   -0.07322
 31 Li    0.01892   -0.04081   -0.01294
 32 Li   -0.00109    0.02372   -0.01854
 33 Li   -0.02258   -0.00011   -0.01437
 34 Li    0.01650    0.00270   -0.02597
 35 Li   -0.00252    0.00078   -0.00086
 36 F    -0.41550   -0.12275    0.00918
 37 H     0.40253    0.01998    0.02047

System changes: positions 

Initializing position-dependent things.

Density initialized from wave functions
       .-----------------------.  
      /|                       |  
     / |                       |  
    /  |                       |  
   /   |                       |  
  /    |                       |  
 *     |                       |  
 |     |                       |  
 |     |                       |  
 |     |                       |  
 |     |                       |  
 |     |                       |  
 |     |               Li      |  
 |     |                       |  
 |  FLi|     Li      Li        |  
 | Li  |  Li      Li      Li   |  
 |     |  Li       Li          |  
 |Li  H|Li      Li      Li     |  
 |     |Li                     |  
 |   LLi     LLi     LLi       |  
 |     |  Li      Li      Li   |  
 | Li  |   Li      Li          |  
 |     |Li      Li      Li     |  
 Li    | Li      Li            |  
 |    Li      Li      Li       |  
 |     |                       |  
 |     |                       |  
 |     |                       |  
 |     |                       |  
 |     |                       |  
 |     |                       |  
 |     .-----------------------.  
 |    /                       /   
 |   /                       /    
 |  /                       /     
 | /                       /      
 |/                       /       
 *-----------------------*        

Positions:
   0 Li     1.617037    1.617037   10.000000    ( 0.0000,  0.0000,  0.0000)
   1 Li     4.851111    1.617037   10.000000    ( 0.0000,  0.0000,  0.0000)
   2 Li     8.085185    1.617037   10.000000    ( 0.0000,  0.0000,  0.0000)
   3 Li     1.617037    4.851111   10.000000    ( 0.0000,  0.0000,  0.0000)
   4 Li     4.851111    4.851111   10.000000    ( 0.0000,  0.0000,  0.0000)
   5 Li     8.085185    4.851111   10.000000    ( 0.0000,  0.0000,  0.0000)
   6 Li     1.617037    8.085185   10.000000    ( 0.0000,  0.0000,  0.0000)
   7 Li     4.851111    8.085185   10.000000    ( 0.0000,  0.0000,  0.0000)
   8 Li     8.085185    8.085185   10.000000    ( 0.0000,  0.0000,  0.0000)
   9 Li     0.000000    0.000000   11.617037    ( 0.0000,  0.0000,  0.0000)
  10 Li     3.234074    0.000000   11.617037    ( 0.0000,  0.0000,  0.0000)
  11 Li     6.468148    0.000000   11.617037    ( 0.0000,  0.0000,  0.0000)
  12 Li     0.000000    3.234074   11.617037    ( 0.0000,  0.0000,  0.0000)
  13 Li     3.234074    3.234074   11.617037    ( 0.0000,  0.0000,  0.0000)
  14 Li     6.468148    3.234074   11.617037    ( 0.0000,  0.0000,  0.0000)
  15 Li     0.000000    6.468148   11.617037    ( 0.0000,  0.0000,  0.0000)
  16 Li     3.234074    6.468148   11.617037    ( 0.0000,  0.0000,  0.0000)
  17 Li     6.468148    6.468148   11.617037    ( 0.0000,  0.0000,  0.0000)
  18 Li     1.441583    1.620277   13.397776    ( 0.0000,  0.0000,  0.0000)
  19 Li     4.899121    1.615198   13.415439    ( 0.0000,  0.0000,  0.0000)
  20 Li     8.054462    1.614499   13.580325    ( 0.0000,  0.0000,  0.0000)
  21 Li     1.549165    4.916771   13.479208    ( 0.0000,  0.0000,  0.0000)
  22 Li     4.769884    4.812956   13.512786    ( 0.0000,  0.0000,  0.0000)
  23 Li     8.158522    4.757269   13.606575    ( 0.0000,  0.0000,  0.0000)
  24 Li     1.549775    8.025436   13.486794    ( 0.0000,  0.0000,  0.0000)
  25 Li     4.762515    8.131692   13.517103    ( 0.0000,  0.0000,  0.0000)
  26 Li     8.160686    8.179734   13.612527    ( 0.0000,  0.0000,  0.0000)
  27 Li     0.223397    0.264038   16.237168    ( 0.0000,  0.0000,  0.0000)
  28 Li     2.941855    0.231840   15.271413    ( 0.0000,  0.0000,  0.0000)
  29 Li     6.276387   -0.005141   15.492240    ( 0.0000,  0.0000,  0.0000)
  30 Li     0.287564    2.890792   16.215703    ( 0.0000,  0.0000,  0.0000)
  31 Li     2.970316    3.034623   15.235990    ( 0.0000,  0.0000,  0.0000)
  32 Li     6.282602    3.239401   15.492129    ( 0.0000,  0.0000,  0.0000)
  33 Li     0.017396    6.461889   15.538936    ( 0.0000,  0.0000,  0.0000)
  34 Li     3.220245    6.470487   15.485922    ( 0.0000,  0.0000,  0.0000)
  35 Li     6.456903    6.469416   15.384374    ( 0.0000,  0.0000,  0.0000)
  36 F      0.722363    1.582615   17.286083    ( 0.0000,  0.0000,  0.0000)
  37 H      1.671763    1.658274   15.095756    ( 0.0000,  0.0000,  0.0000)

Unit cell:
           periodic     x           y           z      points  spacing
  1. axis:    yes    9.702222    0.000000    0.000000    60     0.1617
  2. axis:    yes    0.000000    9.702222    0.000000    60     0.1617
  3. axis:    no     0.000000    0.000000   24.851111   156     0.1593

  Lengths:   9.702222   9.702222  24.851111
  Angles:   90.000000  90.000000  90.000000

Effective grid spacing dv^(1/3) = 0.1609

     iter     time        total  log10-change:
                         energy  eigst   dens
iter:   1 08:02:12  -220.016446  -0.95
iter:   2 08:04:31  -219.975410  -1.71  -1.60
iter:   3 08:06:51  -219.970747  -2.43  -1.99
iter:   4 08:09:02  -219.962370c -1.94  -2.10
Writing to output.gpw (mode='')

iter:   5 08:11:21  -219.964192c -3.11  -2.46
iter:   6 08:13:38  -219.962564c -2.64  -2.37
iter:   7 08:16:01  -219.961665c -2.15  -2.52
iter:   8 08:18:23  -219.962024c -3.20  -2.81
iter:   9 08:20:49  -219.961991c -3.12  -2.99
Writing to output.gpw (mode='')

iter:  10 08:22:00  -219.961852c -3.01  -3.07
iter:  11 08:24:16  -219.961885c -3.62  -3.10
iter:  12 08:26:37  -219.961930c -4.08  -3.11
iter:  13 08:29:00  -219.961902c -3.93  -3.15
iter:  14 08:31:17  -219.961841c -3.97  -3.42
Writing to output.gpw (mode='')

iter:  15 08:33:35  -219.961854c -4.45  -3.40
iter:  16 08:35:49  -219.961974c -4.23  -3.45
iter:  17 08:37:01  -219.961907c -4.71  -3.50
iter:  18 08:39:18  -219.961905c -4.87  -3.76
iter:  19 08:41:53  -219.961951c -4.89  -3.79
Writing to output.gpw (mode='')

iter:  20 08:44:14  -219.961910c -4.82  -3.84
iter:  21 08:46:27  -219.961915c -5.45  -3.98
iter:  22 08:48:41  -219.961928c -5.42  -4.17c
iter:  23 08:49:59  -219.961919c -5.75  -4.26c
iter:  24 08:52:25  -219.961917c -5.72  -4.36c
Writing to output.gpw (mode='')

iter:  25 08:54:44  -219.961921c -5.87  -4.42c
iter:  26 08:57:04  -219.961919c -6.02  -4.49c
iter:  27 08:59:20  -219.961919c -6.11  -4.48c
iter:  28 09:01:39  -219.961924c -6.32  -4.50c
iter:  29 09:03:53  -219.961921c -6.34  -4.68c
Writing to output.gpw (mode='')

iter:  30 09:06:12  -219.961920c -6.36  -4.91c
iter:  31 09:07:58  -219.961921c -6.61  -4.95c
iter:  32 09:08:42  -219.961922c -6.61  -5.00c
iter:  33 09:09:40  -219.961922c -6.69  -5.11c
iter:  34 09:11:58  -219.961922c -6.81  -5.15c
Writing to output.gpw (mode='')

iter:  35 09:13:19  -219.961922c -6.93  -5.20c
iter:  36 09:15:36  -219.961922c -6.99  -5.26c
iter:  37 09:17:57  -219.961922c -7.23  -5.35c
iter:  38 09:20:15  -219.961922c -7.24  -5.51c
iter:  39 09:22:31  -219.961922c -7.32  -5.46c
Writing to output.gpw (mode='')

iter:  40 09:24:34  -219.961922c -7.44c -5.39c

Converged after 40 iterations.

Dipole moment: (-8.056223, -6.585767, -0.131451) |e|*Ang

Energy contributions relative to reference atoms: (reference = -10026.932476)

Kinetic:        +88.526920
Potential:      -76.735505
External:        +0.000000
XC:            -231.603549
Entropy (-ST):   -0.132979
Local:           -0.083298
--------------------------
Free energy:   -220.028411
Extrapolated:  -219.961922

Dipole-layer corrected work functions: 3.410212, 3.662907 eV

Showing only first 2 kpts
 Kpt  Band  Eigenvalues  Occupancy
  0    20     -3.75417    1.97457
  0    21     -3.71067    1.94036
  0    22     -3.46312    0.37426
  0    23     -3.28459    0.01287

  1    20     -3.75587    1.97541
  1    21     -3.50531    0.69726
  1    22     -3.46577    0.39066
  1    23     -3.38715    0.09592


Fermi level: -3.53656

No gap

Forces in eV/Ang:
  0 Li    0.00272    0.00037   -0.25442
  1 Li   -0.01202   -0.00038   -0.27693
  2 Li    0.01322   -0.00060   -0.25120
  3 Li   -0.00031   -0.00796   -0.26569
  4 Li    0.01195    0.00600   -0.28933
  5 Li   -0.00186    0.01432   -0.30111
  6 Li   -0.00083    0.00564   -0.26531
  7 Li    0.01157   -0.00795   -0.28808
  8 Li   -0.00070   -0.01510   -0.30124
  9 Li   -0.04817   -0.01822    0.17439
 10 Li   -0.05520    0.01660    0.28211
 11 Li    0.04387   -0.04010    0.29125
 12 Li   -0.05310    0.01855    0.16776
 13 Li   -0.04743   -0.01270    0.27674
 14 Li    0.04208    0.03601    0.29396
 15 Li   -0.09025    0.00255    0.25092
 16 Li   -0.01219    0.00080    0.26971
 17 Li    0.03846    0.00660    0.44118
 18 Li    0.00773    0.00079    0.01334
 19 Li    0.03012   -0.00038    0.00251
 20 Li   -0.01384   -0.00186   -0.00760
 21 Li    0.00387   -0.01282    0.01960
 22 Li    0.02044    0.01592   -0.01192
 23 Li   -0.00130    0.00149    0.00405
 24 Li    0.00217    0.01816    0.02492
 25 Li    0.01724   -0.01155   -0.01075
 26 Li   -0.00010    0.00020    0.00931
 27 Li    0.00116   -0.04571   -0.02277
 28 Li    0.00061    0.03863   -0.00810
 29 Li   -0.00557   -0.01721   -0.01480
 30 Li    0.01455    0.09192   -0.10389
 31 Li    0.01763   -0.01647   -0.01942
 32 Li   -0.00343    0.01708   -0.01625
 33 Li   -0.01725   -0.00037   -0.01507
 34 Li    0.01207    0.00190   -0.02337
 35 Li   -0.00004    0.00100    0.00018
 36 F    -0.39434   -0.08719    0.23769
 37 H     0.44220    0.01794   -0.01263

System changes: positions 

Initializing position-dependent things.

Density initialized from wave functions
       .-----------------------.  
      /|                       |  
     / |                       |  
    /  |                       |  
   /   |                       |  
  /    |                       |  
 *     |                       |  
 |     |                       |  
 |     |                       |  
 |     |                       |  
 |     |                       |  
 |     |                       |  
 |     |               Li      |  
 |     |                       |  
 |  FLi|     Li      Li        |  
 |  Li |  Li      Li      Li   |  
 |     |  Li       Li          |  
 |Li  H|Li      Li      Li     |  
 |     |Li                     |  
 |   LLi     LLi     LLi       |  
 |     |  Li      Li      Li   |  
 | Li  |   Li      Li          |  
 |     |Li      Li      Li     |  
 Li    | Li      Li            |  
 |    Li      Li      Li       |  
 |     |                       |  
 |     |                       |  
 |     |                       |  
 |     |                       |  
 |     |                       |  
 |     |                       |  
 |     .-----------------------.  
 |    /                       /   
 |   /                       /    
 |  /                       /     
 | /                       /      
 |/                       /       
 *-----------------------*        

Positions:
   0 Li     1.617037    1.617037   10.000000    ( 0.0000,  0.0000,  0.0000)
   1 Li     4.851111    1.617037   10.000000    ( 0.0000,  0.0000,  0.0000)
   2 Li     8.085185    1.617037   10.000000    ( 0.0000,  0.0000,  0.0000)
   3 Li     1.617037    4.851111   10.000000    ( 0.0000,  0.0000,  0.0000)
   4 Li     4.851111    4.851111   10.000000    ( 0.0000,  0.0000,  0.0000)
   5 Li     8.085185    4.851111   10.000000    ( 0.0000,  0.0000,  0.0000)
   6 Li     1.617037    8.085185   10.000000    ( 0.0000,  0.0000,  0.0000)
   7 Li     4.851111    8.085185   10.000000    ( 0.0000,  0.0000,  0.0000)
   8 Li     8.085185    8.085185   10.000000    ( 0.0000,  0.0000,  0.0000)
   9 Li     0.000000    0.000000   11.617037    ( 0.0000,  0.0000,  0.0000)
  10 Li     3.234074    0.000000   11.617037    ( 0.0000,  0.0000,  0.0000)
  11 Li     6.468148    0.000000   11.617037    ( 0.0000,  0.0000,  0.0000)
  12 Li     0.000000    3.234074   11.617037    ( 0.0000,  0.0000,  0.0000)
  13 Li     3.234074    3.234074   11.617037    ( 0.0000,  0.0000,  0.0000)
  14 Li     6.468148    3.234074   11.617037    ( 0.0000,  0.0000,  0.0000)
  15 Li     0.000000    6.468148   11.617037    ( 0.0000,  0.0000,  0.0000)
  16 Li     3.234074    6.468148   11.617037    ( 0.0000,  0.0000,  0.0000)
  17 Li     6.468148    6.468148   11.617037    ( 0.0000,  0.0000,  0.0000)
  18 Li     1.436486    1.620638   13.398090    ( 0.0000,  0.0000,  0.0000)
  19 Li     4.905775    1.615004   13.411658    ( 0.0000,  0.0000,  0.0000)
  20 Li     8.053427    1.614255   13.582866    ( 0.0000,  0.0000,  0.0000)
  21 Li     1.548156    4.918005   13.475706    ( 0.0000,  0.0000,  0.0000)
  22 Li     4.772907    4.815598   13.510392    ( 0.0000,  0.0000,  0.0000)
  23 Li     8.159721    4.756346   13.607682    ( 0.0000,  0.0000,  0.0000)
  24 Li     1.548790    8.025097   13.484224    ( 0.0000,  0.0000,  0.0000)
  25 Li     4.764637    8.130054   13.515342    ( 0.0000,  0.0000,  0.0000)
  26 Li     8.162076    8.180804   13.614313    ( 0.0000,  0.0000,  0.0000)
  27 Li     0.230958    0.263231   16.245638    ( 0.0000,  0.0000,  0.0000)
  28 Li     2.949009    0.235182   15.260740    ( 0.0000,  0.0000,  0.0000)
  29 Li     6.275655   -0.006753   15.495028    ( 0.0000,  0.0000,  0.0000)
  30 Li     0.300228    2.888537   16.219211    ( 0.0000,  0.0000,  0.0000)
  31 Li     2.978516    3.033326   15.222886    ( 0.0000,  0.0000,  0.0000)
  32 Li     6.282433    3.241056   15.494777    ( 0.0000,  0.0000,  0.0000)
  33 Li     0.017619    6.461496   15.538066    ( 0.0000,  0.0000,  0.0000)
  34 Li     3.218654    6.470816   15.485249    ( 0.0000,  0.0000,  0.0000)
  35 Li     6.455408    6.469494   15.383068    ( 0.0000,  0.0000,  0.0000)
  36 F      0.731003    1.579566   17.296708    ( 0.0000,  0.0000,  0.0000)
  37 H      1.681216    1.662272   15.095127    ( 0.0000,  0.0000,  0.0000)

Unit cell:
           periodic     x           y           z      points  spacing
  1. axis:    yes    9.702222    0.000000    0.000000    60     0.1617
  2. axis:    yes    0.000000    9.702222    0.000000    60     0.1617
  3. axis:    no     0.000000    0.000000   24.851111   156     0.1593

  Lengths:   9.702222   9.702222  24.851111
  Angles:   90.000000  90.000000  90.000000

Effective grid spacing dv^(1/3) = 0.1609

     iter     time        total  log10-change:
                         energy  eigst   dens
iter:   1 09:27:22  -219.978138  -1.52
iter:   2 09:29:40  -219.966076  -2.29  -1.93
iter:   3 09:31:58  -219.965988c -2.97  -2.39
iter:   4 09:34:14  -219.965765c -2.80  -2.51
Writing to output.gpw (mode='')

iter:   5 09:35:54  -219.965672c -3.56  -2.89
iter:   6 09:38:05  -219.965695c -3.32  -2.89
