
  ___ ___ ___ _ _ _  
 |   |   |_  | | | | 
 | | | | | . | | | | 
 |__ |  _|___|_____|  22.8.0
 |___|_|             

User:   vazumah@c23.hercules
Date:   Sat Mar  4 04:28:29 2023
Arch:   x86_64
Pid:    4427
CWD:    /home/vazumah/Python_projects/LiNRR/Li_adsorb_studies/proton_donors/on_pure_surface/Li_BCC100/adsorbates/HF/bridge/0.0_1.617
Python: 3.10.8
gpaw:   /home/vazumah/.conda/envs/GPAW/lib/python3.10/site-packages/gpaw
_gpaw:  /home/vazumah/.conda/envs/GPAW/lib/python3.10/site-packages/
        _gpaw.cpython-310-x86_64-linux-gnu.so
ase:    /home/vazumah/.conda/envs/GPAW/lib/python3.10/site-packages/ase (version 3.22.1)
numpy:  /home/vazumah/.conda/envs/GPAW/lib/python3.10/site-packages/numpy (version 1.24.1)
scipy:  /home/vazumah/.conda/envs/GPAW/lib/python3.10/site-packages/scipy (version 1.10.0)
libxc:  5.2.3
units:  Angstrom and eV
cores: 24
OpenMP: True
OMP_NUM_THREADS: 1

Reading from output.gpw
Reading input parameters:
  h: 0.16
  kpts: {size: [4, 4, 1]}
  occupations: {name: fermi-dirac,
                width: 0.05}
  poissonsolver: {dipolelayer: xy}
  xc: BEEF-vdW

Initialize ...

species:
  Li:
    name: Lithium
    id: 830b4218f175192f93f959cfc0aad614
    Z: 3.0
    valence: 1
    core: 2
    charge: 0.0
    file: /home/vazumah/.conda/envs/GPAW/share/gpaw/Li.PBE.gz
    compensation charges: {type: gauss,
                           rc: 0.33,
                           lmax: 2}
    cutoffs: {filter: 1.91,
              core: 2.55}
    valence states:
      #              energy  rcut
      - 2s(1.00)    -2.874   1.058
      - 2p(0.00)    -1.090   1.058
      -  s          24.337   1.058
  
    # Using partial waves for Li as LCAO basis

  F:
    name: Fluorine
    id: 9cd46ba2a61e170ad72278be75b55cc0
    Z: 9.0
    valence: 7
    core: 2
    charge: 0.0
    file: /home/vazumah/.conda/envs/GPAW/share/gpaw/F.PBE.gz
    compensation charges: {type: gauss,
                           rc: 0.20,
                           lmax: 2}
    cutoffs: {filter: 1.14,
              core: 0.74}
    valence states:
      #              energy  rcut
      - 2s(2.00)   -29.898   0.635
      - 2p(5.00)   -11.110   0.635
      -  s          -2.687   0.635
      -  p          16.102   0.635
      -  d           0.000   0.635
  
    # Using partial waves for F as LCAO basis

  H:
    name: Hydrogen
    id: d65de229564ff8ea4db303e23b6d1ecf
    Z: 1.0
    valence: 1
    core: 0
    charge: 0.0
    file: /home/vazumah/.conda/envs/GPAW/share/gpaw/H.PBE.gz
    compensation charges: {type: gauss,
                           rc: 0.15,
                           lmax: 2}
    cutoffs: {filter: 0.85,
              core: 0.53}
    valence states:
      #              energy  rcut
      - 1s(1.00)    -6.494   0.476
      -  s          20.717   0.476
      -  p           0.000   0.476
  
    # Using partial waves for H as LCAO basis

Reference energy: -10026.932476  # eV

Spin-paired calculation

Convergence criteria:
 Maximum [total energy] change in last 3 cyles: 0.0005 eV / electron
 Maximum integral of absolute [dens]ity change: 0.0001 electrons / valence electron
 Maximum integral of absolute [eigenst]ate change: 4e-08 eV^2 / valence electron
 Maximum number of scf [iter]ations: 333
 (Square brackets indicate name in SCF output, whereas a 'c' in
 the SCF output indicates the quantity has converged.)

Symmetries present (total): 1

  ( 1  0  0)
  ( 0  1  0)
  ( 0  0  1)

16 k-points: 4 x 4 x 1 Monkhorst-Pack grid
8 k-points in the irreducible part of the Brillouin zone
       k-points in crystal coordinates                weights
   0:     0.12500000   -0.37500000    0.00000000          2/16
   1:     0.12500000   -0.12500000    0.00000000          2/16
   2:     0.12500000    0.12500000    0.00000000          2/16
   3:     0.12500000    0.37500000    0.00000000          2/16
   4:     0.37500000   -0.37500000    0.00000000          2/16
   5:     0.37500000   -0.12500000    0.00000000          2/16
   6:     0.37500000    0.12500000    0.00000000          2/16
   7:     0.37500000    0.37500000    0.00000000          2/16

Wave functions: Uniform real-space grid
  Kinetic energy operator: 6*3+1=19 point O(h^6) finite-difference Laplacian
  ScaLapack parameters: grid=1x1, blocksize=None
  Wavefunction extrapolation:
    Improved wavefunction reuse through dual PAW basis 

Occupation numbers: Fermi-Dirac:
  width: 0.0500  # eV
 

Eigensolver
   Davidson(niter=2) 

Densities:
  Coarse grid: 60*60*156 grid
  Fine grid: 120*120*312 grid
  Total Charge: 0.000000 

Density mixing:
  Method: separate
  Backend: pulay
  Linear mixing parameter: 0.05
  old densities: 5
  Damping of long wavelength oscillations: 50 

Hamiltonian:
  XC and Coulomb potentials evaluated on a 120*120*312 grid
  Using the BEEF-vdW Exchange-Correlation functional
  Interpolation: tri-quintic (5. degree polynomial)
  Poisson solver: FastPoissonSolver using
    Stencil: 6*3+1=19 point O(h^6) finite-difference Laplacian
    FFT axes: [0, 1]
    FST axes: [2]

Dipole correction along z-axis 

XC parameters: BEEF-vdW with 2 nearest neighbor stencil

Memory estimate:
  Process memory now: 215.20 MiB
  Calculator: 335.97 MiB
    Density: 115.69 MiB
      Arrays: 36.75 MiB
      Localized functions: 64.93 MiB
      Mixer: 14.01 MiB
    Hamiltonian: 29.17 MiB
      Arrays: 24.03 MiB
      XC: 0.00 MiB
      Poisson: 0.00 MiB
      vbar: 5.13 MiB
    Wavefunctions: 191.12 MiB
      Arrays psit_nG: 86.85 MiB
      Eigensolver: 101.00 MiB
      Projections: 0.03 MiB
      Projectors: 3.24 MiB

Total number of cores used: 24
Parallelization over k-points: 8
Domain decomposition: 1 x 1 x 3

Number of atoms: 38
Number of atomic orbitals: 149
Number of bands in calculation: 31
Number of valence electrons: 44
Bands to converge: occupied

... initialized

Initializing position-dependent things.

Creating initial wave functions:
  31 bands from LCAO basis set

       .-----------------------.  
      /|                       |  
     / |                       |  
    /  |                       |  
   /   |                       |  
  /    |                       |  
 *     |                       |  
 |     |                       |  
 |     |                       |  
 |     |                       |  
 |     |                       |  
 |     |                      Li  
 |     |                       |  
 |     |                       |  
 |     |     Li      Li      Li|  
 |  Li |  Li      Li      Li   |  
 | F   |   Li      Li          |  
 |     |Li      Li      Li     |  
 |     |         Li            |  
 |   LiLi    LLi     LLi       |  
 |     |  Li      Li      Li   |  
 | Li  |   Li      Li          |  
 |     |Li      Li      Li     |  
 Li    | Li      Li            |  
 |    Li      Li      Li       |  
 |     |                       |  
 |     |                       |  
 |     |                       |  
 |     |                       |  
 |     |                       |  
 |     |                       |  
 |     .-----------------------.  
 |    /                       /   
 |   /                       /    
 |  /                       /     
 | /                       /      
 |/                       /       
 *-----------------------*        

Positions:
   0 Li     1.617037    1.617037   10.000000    ( 0.0000,  0.0000,  0.0000)
   1 Li     4.851111    1.617037   10.000000    ( 0.0000,  0.0000,  0.0000)
   2 Li     8.085185    1.617037   10.000000    ( 0.0000,  0.0000,  0.0000)
   3 Li     1.617037    4.851111   10.000000    ( 0.0000,  0.0000,  0.0000)
   4 Li     4.851111    4.851111   10.000000    ( 0.0000,  0.0000,  0.0000)
   5 Li     8.085185    4.851111   10.000000    ( 0.0000,  0.0000,  0.0000)
   6 Li     1.617037    8.085185   10.000000    ( 0.0000,  0.0000,  0.0000)
   7 Li     4.851111    8.085185   10.000000    ( 0.0000,  0.0000,  0.0000)
   8 Li     8.085185    8.085185   10.000000    ( 0.0000,  0.0000,  0.0000)
   9 Li     0.000000    0.000000   11.617037    ( 0.0000,  0.0000,  0.0000)
  10 Li     3.234074    0.000000   11.617037    ( 0.0000,  0.0000,  0.0000)
  11 Li     6.468148    0.000000   11.617037    ( 0.0000,  0.0000,  0.0000)
  12 Li     0.000000    3.234074   11.617037    ( 0.0000,  0.0000,  0.0000)
  13 Li     3.234074    3.234074   11.617037    ( 0.0000,  0.0000,  0.0000)
  14 Li     6.468148    3.234074   11.617037    ( 0.0000,  0.0000,  0.0000)
  15 Li     0.000000    6.468148   11.617037    ( 0.0000,  0.0000,  0.0000)
  16 Li     3.234074    6.468148   11.617037    ( 0.0000,  0.0000,  0.0000)
  17 Li     6.468148    6.468148   11.617037    ( 0.0000,  0.0000,  0.0000)
  18 Li     1.846947    1.706381   13.480681    ( 0.0000,  0.0000,  0.0000)
  19 Li     4.794251    1.586411   13.504694    ( 0.0000,  0.0000,  0.0000)
  20 Li     8.236041    1.569065   13.517102    ( 0.0000,  0.0000,  0.0000)
  21 Li     1.521452    4.940074   13.500783    ( 0.0000,  0.0000,  0.0000)
  22 Li     4.890955    4.912979   13.440830    ( 0.0000,  0.0000,  0.0000)
  23 Li     8.146723    4.837388   13.475339    ( 0.0000,  0.0000,  0.0000)
  24 Li     1.510362    8.141149   13.605119    ( 0.0000,  0.0000,  0.0000)
  25 Li     4.704151    8.261138   13.553636    ( 0.0000,  0.0000,  0.0000)
  26 Li     8.125627    8.101606   13.602679    ( 0.0000,  0.0000,  0.0000)
  27 Li    -0.390502   -0.435899   16.137883    ( 0.0000,  0.0000,  0.0000)
  28 Li     2.498921    0.593487   15.957588    ( 0.0000,  0.0000,  0.0000)
  29 Li     6.361497    0.026454   15.391137    ( 0.0000,  0.0000,  0.0000)
  30 Li     0.466006    2.434280   16.032791    ( 0.0000,  0.0000,  0.0000)
  31 Li     3.296926    3.457574   15.234708    ( 0.0000,  0.0000,  0.0000)
  32 Li     6.559652    3.228801   15.301093    ( 0.0000,  0.0000,  0.0000)
  33 Li    -0.005516    6.286254   15.512725    ( 0.0000,  0.0000,  0.0000)
  34 Li     3.346303    6.567259   15.393540    ( 0.0000,  0.0000,  0.0000)
  35 Li     6.516187    6.496042   15.430524    ( 0.0000,  0.0000,  0.0000)
  36 F      0.785592    0.752339   16.636143    ( 0.0000,  0.0000,  0.0000)
  37 H      2.141659    2.173119   15.227833    ( 0.0000,  0.0000,  0.0000)

Unit cell:
           periodic     x           y           z      points  spacing
  1. axis:    yes    9.702222    0.000000    0.000000    60     0.1617
  2. axis:    yes    0.000000    9.702222    0.000000    60     0.1617
  3. axis:    no     0.000000    0.000000   24.851111   156     0.1593

  Lengths:   9.702222   9.702222  24.851111
  Angles:   90.000000  90.000000  90.000000

Effective grid spacing dv^(1/3) = 0.1609

     iter     time        total  log10-change:
                         energy  eigst   dens
iter:   1 04:29:58  -220.003163  +0.91
iter:   2 04:30:33  -220.367026  +0.36  -1.73
iter:   3 04:31:09  -220.477445  -0.09  -1.95
iter:   4 04:31:44  -220.522080  -0.46  -2.17
Writing to output.gpw (mode='')

iter:   5 04:32:20  -220.542870  -0.78  -2.44
iter:   6 04:32:55  -220.553484  -1.07  -2.73
iter:   7 04:33:30  -220.558673c -1.36  -2.67
iter:   8 04:34:05  -220.561427c -1.63  -2.75
iter:   9 04:34:40  -220.563123c -1.86  -2.97
Writing to output.gpw (mode='')

iter:  10 04:35:19  -220.564165c -2.06  -3.17
iter:  11 04:35:54  -220.564863c -2.25  -3.29
iter:  12 04:36:29  -220.565378c -2.42  -3.52
iter:  13 04:37:04  -220.565729c -2.58  -3.31
iter:  14 04:37:39  -220.565977c -2.72  -3.26
Writing to output.gpw (mode='')

iter:  15 04:38:15  -220.566129c -2.87  -3.44
iter:  16 04:38:50  -220.566311c -3.00  -3.30
iter:  17 04:39:26  -220.566391c -3.15  -3.22
iter:  18 04:40:01  -220.566479c -3.28  -3.37
iter:  19 04:40:36  -220.566508c -3.36  -3.29
Writing to output.gpw (mode='')

iter:  20 04:41:16  -220.566569c -3.46  -3.23
iter:  21 04:41:51  -220.566652c -3.66  -3.15
iter:  22 04:42:27  -220.566663c -3.77  -3.28
iter:  23 04:43:02  -220.566656c -3.93  -3.13
iter:  24 04:43:37  -220.566718c -3.94  -3.23
Writing to output.gpw (mode='')

iter:  25 04:44:14  -220.566704c -4.05  -3.42
iter:  26 04:44:49  -220.566764c -4.08  -3.19
iter:  27 04:45:24  -220.566747c -4.33  -3.51
iter:  28 04:45:59  -220.566794c -4.24  -3.48
iter:  29 04:46:34  -220.566792c -4.46  -3.56
Writing to output.gpw (mode='')

iter:  30 04:47:10  -220.566790c -4.51  -3.51
iter:  31 04:47:45  -220.566777c -4.48  -3.73
iter:  32 04:48:20  -220.566783c -4.72  -3.99
iter:  33 04:48:55  -220.566777c -4.76  -3.95
iter:  34 04:49:30  -220.566781c -4.96  -4.00c
Writing to output.gpw (mode='')

iter:  35 04:50:08  -220.566781c -5.03  -4.00c
iter:  36 04:50:43  -220.566786c -5.13  -3.98
iter:  37 04:51:18  -220.566806c -5.12  -3.99
iter:  38 04:51:53  -220.566811c -5.29  -4.04c
iter:  39 04:52:28  -220.566816c -5.31  -4.09c
Writing to output.gpw (mode='')

iter:  40 04:53:04  -220.566807c -5.41  -4.06c
iter:  41 04:53:39  -220.566802c -5.46  -4.10c
iter:  42 04:54:14  -220.566802c -5.58  -4.32c
iter:  43 04:54:49  -220.566805c -5.63  -4.31c
iter:  44 04:55:24  -220.566808c -5.63  -4.37c
Writing to output.gpw (mode='')

iter:  45 04:56:01  -220.566810c -5.76  -4.66c
iter:  46 04:56:36  -220.566811c -5.84  -4.68c
iter:  47 04:57:11  -220.566810c -5.90  -4.71c
iter:  48 04:57:46  -220.566811c -5.93  -4.83c
iter:  49 04:58:21  -220.566812c -6.10  -5.03c
Writing to output.gpw (mode='')

iter:  50 04:58:57  -220.566812c -6.19  -5.03c
iter:  51 04:59:32  -220.566811c -6.26  -5.01c
iter:  52 05:00:07  -220.566812c -6.34  -4.89c
iter:  53 05:00:42  -220.566813c -6.40  -4.94c
iter:  54 05:01:17  -220.566812c -6.55  -4.96c
Writing to output.gpw (mode='')

iter:  55 05:01:53  -220.566812c -6.56  -4.88c
iter:  56 05:02:28  -220.566812c -6.54  -4.85c
iter:  57 05:03:03  -220.566813c -6.69  -4.83c
iter:  58 05:03:38  -220.566813c -6.71  -4.89c
iter:  59 05:04:13  -220.566814c -6.66  -4.91c
Writing to output.gpw (mode='')

iter:  60 05:04:49  -220.566815c -6.86  -5.08c
iter:  61 05:05:24  -220.566816c -6.66  -5.15c
iter:  62 05:05:59  -220.566817c -6.70  -5.30c
iter:  63 05:06:34  -220.566816c -6.99  -5.38c
iter:  64 05:07:09  -220.566816c -7.03  -5.43c
Writing to output.gpw (mode='')

iter:  65 05:07:44  -220.566816c -7.17  -5.63c
iter:  66 05:08:20  -220.566816c -7.27  -5.69c
iter:  67 05:08:55  -220.566816c -7.27  -5.72c
iter:  68 05:09:30  -220.566816c -7.43c -5.75c

Converged after 68 iterations.

Dipole moment: (-1.587255, -1.765724, 0.105064) |e|*Ang

Energy contributions relative to reference atoms: (reference = -10026.932476)

Kinetic:        +91.373090
Potential:      -79.216391
External:        +0.000000
XC:            -232.565941
Entropy (-ST):   -0.146142
Local:           -0.084503
--------------------------
Free energy:   -220.639887
Extrapolated:  -220.566816

Dipole-layer corrected work functions: 3.386385, 3.184415 eV

Showing only first 2 kpts
 Kpt  Band  Eigenvalues  Occupancy
  0    20     -3.47232    1.95352
  0    21     -3.38335    1.75287
  0    22     -3.22348    0.44946
  0    23     -3.02511    0.01091

  1    20     -3.54511    1.98896
  1    21     -3.28559    1.00194
  1    22     -3.20698    0.34491
  1    23     -3.03634    0.01364


Fermi level: -3.28540

No gap
Writing to output.gpw (mode='')


Forces in eV/Ang:
  0 Li    0.00968    0.00590   -0.25109
  1 Li   -0.03203   -0.00461   -0.26995
  2 Li    0.00080   -0.01279   -0.28246
  3 Li    0.00435   -0.02198   -0.27020
  4 Li    0.00722   -0.00048   -0.31031
  5 Li   -0.01728    0.00631   -0.26250
  6 Li   -0.00472   -0.00493   -0.28025
  7 Li    0.01020   -0.01813   -0.27627
  8 Li   -0.00270   -0.00769   -0.29057
  9 Li    0.07338    0.01997    0.26672
 10 Li   -0.08403   -0.01708    0.19570
 11 Li    0.03724   -0.00133    0.33846
 12 Li    0.04841   -0.03378    0.23925
 13 Li    0.05671    0.12042    0.17374
 14 Li   -0.00251   -0.05392    0.35886
 15 Li   -0.02721    0.07461    0.24383
 16 Li   -0.04774    0.02803    0.35147
 17 Li    0.02619    0.11057    0.35839
 18 Li   -0.19518    0.03042    0.13017
 19 Li    0.14851    0.04108   -0.05051
 20 Li   -0.09478   -0.01489    0.00453
 21 Li    0.07899   -0.02263   -0.05693
 22 Li    0.01643    0.02649   -0.01390
 23 Li    0.01817   -0.03913    0.01044
 24 Li    0.03361   -0.02492   -0.05766
 25 Li    0.04505   -0.07128   -0.05939
 26 Li   -0.03521   -0.02840   -0.03884
 27 Li   -0.06367   -0.06810   -0.11235
 28 Li   -0.07986   -0.16591   -0.00056
 29 Li   -0.08178   -0.03462    0.02852
 30 Li    0.03933    0.00369   -0.21293
 31 Li    0.04935    0.00972    0.03322
 32 Li    0.00180    0.05067    0.04322
 33 Li   -0.02188   -0.10034   -0.00135
 34 Li   -0.06769    0.01580    0.03630
 35 Li    0.00105    0.02443    0.00178
 36 F    -0.00037   -0.10168    0.41222
 37 H     0.11724    0.25659   -0.14465

System changes: positions 

Initializing position-dependent things.

Density initialized from wave functions
       .-----------------------.  
      /|                       |  
     / |                       |  
    /  |                       |  
   /   |                       |  
  /    |                       |  
 *     |                       |  
 |     |                       |  
 |     |                       |  
 |     |                       |  
 |     |                       |  
 |     |                      Li  
 |     |                       |  
 |     |                       |  
 |     |     Li      Li      Li|  
 |     |  Li      Li      Li   |  
 | FLi |   Li      Li          |  
 |     |Li      Li      Li     |  
 |     |         Li            |  
 |   LiLi    LLi     LLi       |  
 |     |  Li      Li      Li   |  
 | Li  |   Li      Li          |  
 |     |Li      Li      Li     |  
 Li    | Li      Li            |  
 |    Li      Li      Li       |  
 |     |                       |  
 |     |                       |  
 |     |                       |  
 |     |                       |  
 |     |                       |  
 |     |                       |  
 |     .-----------------------.  
 |    /                       /   
 |   /                       /    
 |  /                       /     
 | /                       /      
 |/                       /       
 *-----------------------*        

Positions:
   0 Li     1.617037    1.617037   10.000000    ( 0.0000,  0.0000,  0.0000)
   1 Li     4.851111    1.617037   10.000000    ( 0.0000,  0.0000,  0.0000)
   2 Li     8.085185    1.617037   10.000000    ( 0.0000,  0.0000,  0.0000)
   3 Li     1.617037    4.851111   10.000000    ( 0.0000,  0.0000,  0.0000)
   4 Li     4.851111    4.851111   10.000000    ( 0.0000,  0.0000,  0.0000)
   5 Li     8.085185    4.851111   10.000000    ( 0.0000,  0.0000,  0.0000)
   6 Li     1.617037    8.085185   10.000000    ( 0.0000,  0.0000,  0.0000)
   7 Li     4.851111    8.085185   10.000000    ( 0.0000,  0.0000,  0.0000)
   8 Li     8.085185    8.085185   10.000000    ( 0.0000,  0.0000,  0.0000)
   9 Li     0.000000    0.000000   11.617037    ( 0.0000,  0.0000,  0.0000)
  10 Li     3.234074    0.000000   11.617037    ( 0.0000,  0.0000,  0.0000)
  11 Li     6.468148    0.000000   11.617037    ( 0.0000,  0.0000,  0.0000)
  12 Li     0.000000    3.234074   11.617037    ( 0.0000,  0.0000,  0.0000)
  13 Li     3.234074    3.234074   11.617037    ( 0.0000,  0.0000,  0.0000)
  14 Li     6.468148    3.234074   11.617037    ( 0.0000,  0.0000,  0.0000)
  15 Li     0.000000    6.468148   11.617037    ( 0.0000,  0.0000,  0.0000)
  16 Li     3.234074    6.468148   11.617037    ( 0.0000,  0.0000,  0.0000)
  17 Li     6.468148    6.468148   11.617037    ( 0.0000,  0.0000,  0.0000)
  18 Li     1.844626    1.708327   13.503355    ( 0.0000,  0.0000,  0.0000)
  19 Li     4.810914    1.589067   13.497327    ( 0.0000,  0.0000,  0.0000)
  20 Li     8.226083    1.567318   13.514148    ( 0.0000,  0.0000,  0.0000)
  21 Li     1.524310    4.926963   13.501844    ( 0.0000,  0.0000,  0.0000)
  22 Li     4.903730    4.930018   13.429135    ( 0.0000,  0.0000,  0.0000)
  23 Li     8.150539    4.836876   13.477517    ( 0.0000,  0.0000,  0.0000)
  24 Li     1.509704    8.154343   13.605576    ( 0.0000,  0.0000,  0.0000)
  25 Li     4.713635    8.245906   13.542475    ( 0.0000,  0.0000,  0.0000)
  26 Li     8.124968    8.097354   13.604459    ( 0.0000,  0.0000,  0.0000)
  27 Li    -0.422161   -0.449919   16.123941    ( 0.0000,  0.0000,  0.0000)
  28 Li     2.490974    0.602833   15.991330    ( 0.0000,  0.0000,  0.0000)
  29 Li     6.359746    0.015584   15.389858    ( 0.0000,  0.0000,  0.0000)
  30 Li     0.457502    2.414507   16.007681    ( 0.0000,  0.0000,  0.0000)
  31 Li     3.332910    3.468193   15.248577    ( 0.0000,  0.0000,  0.0000)
  32 Li     6.565972    3.240676   15.296658    ( 0.0000,  0.0000,  0.0000)
  33 Li    -0.014139    6.272929   15.509849    ( 0.0000,  0.0000,  0.0000)
  34 Li     3.345119    6.570049   15.394208    ( 0.0000,  0.0000,  0.0000)
  35 Li     6.517684    6.498818   15.430090    ( 0.0000,  0.0000,  0.0000)
  36 F      0.773963    0.727118   16.619392    ( 0.0000,  0.0000,  0.0000)
  37 H      2.140053    2.193277   15.247751    ( 0.0000,  0.0000,  0.0000)

Unit cell:
           periodic     x           y           z      points  spacing
  1. axis:    yes    9.702222    0.000000    0.000000    60     0.1617
  2. axis:    yes    0.000000    9.702222    0.000000    60     0.1617
  3. axis:    no     0.000000    0.000000   24.851111   156     0.1593

  Lengths:   9.702222   9.702222  24.851111
  Angles:   90.000000  90.000000  90.000000

Effective grid spacing dv^(1/3) = 0.1609

     iter     time        total  log10-change:
                         energy  eigst   dens
iter:   1 05:10:17  -220.620294  -0.62
iter:   2 05:10:52  -220.609118  -1.39  -1.69
iter:   3 05:11:27  -220.590497  -2.08  -1.79
iter:   4 05:12:02  -220.582581  -1.58  -2.02
Writing to output.gpw (mode='')

iter:   5 05:12:39  -220.584184c -2.80  -2.29
iter:   6 05:13:14  -220.582384c -2.25  -2.27
iter:   7 05:13:49  -220.581925c -2.04  -2.43
iter:   8 05:14:24  -220.581980c -3.22  -2.70
iter:   9 05:14:59  -220.581969c -2.53  -2.79
Writing to output.gpw (mode='')

iter:  10 05:15:35  -220.581919c -3.25  -2.90
iter:  11 05:16:10  -220.581907c -3.62  -3.05
iter:  12 05:16:45  -220.581896c -3.90  -3.21
iter:  13 05:17:21  -220.581901c -4.01  -3.30
iter:  14 05:17:56  -220.581913c -4.22  -3.34
Writing to output.gpw (mode='')

iter:  15 05:18:34  -220.581917c -4.31  -3.53
iter:  16 05:19:09  -220.581926c -4.47  -3.54
iter:  17 05:19:44  -220.581939c -4.58  -3.77
iter:  18 05:20:19  -220.581936c -4.92  -3.85
iter:  19 05:20:54  -220.581935c -4.92  -3.92
Writing to output.gpw (mode='')

iter:  20 05:21:31  -220.581938c -5.23  -4.21c
iter:  21 05:22:06  -220.581938c -5.30  -4.24c
iter:  22 05:22:41  -220.581939c -5.26  -4.30c
iter:  23 05:23:16  -220.581939c -5.51  -4.37c
iter:  24 05:23:51  -220.581940c -5.51  -4.39c
Writing to output.gpw (mode='')

iter:  25 05:24:27  -220.581943c -5.62  -4.50c
iter:  26 05:25:02  -220.581942c -5.87  -4.63c
iter:  27 05:25:37  -220.581941c -5.68  -4.75c
iter:  28 05:26:12  -220.581942c -5.98  -4.76c
iter:  29 05:26:47  -220.581942c -6.12  -4.96c
Writing to output.gpw (mode='')

iter:  30 05:27:23  -220.581942c -6.18  -5.03c
iter:  31 05:27:58  -220.581942c -6.20  -5.03c
iter:  32 05:28:33  -220.581942c -6.21  -5.02c
iter:  33 05:29:09  -220.581943c -6.33  -4.99c
iter:  34 05:29:44  -220.581943c -6.58  -4.98c
Writing to output.gpw (mode='')

iter:  35 05:30:20  -220.581943c -6.67  -4.90c
iter:  36 05:30:55  -220.581943c -6.53  -4.89c
iter:  37 05:31:29  -220.581943c -6.68  -4.88c
iter:  38 05:32:04  -220.581943c -6.94  -4.94c
iter:  39 05:32:39  -220.581943c -6.92  -4.90c
Writing to output.gpw (mode='')

iter:  40 05:33:15  -220.581943c -7.13  -4.92c
iter:  41 05:33:50  -220.581943c -6.98  -4.83c
iter:  42 05:34:25  -220.581943c -7.26  -4.94c
iter:  43 05:35:00  -220.581943c -7.06  -4.88c
iter:  44 05:35:35  -220.581943c -7.32  -4.82c
Writing to output.gpw (mode='')

iter:  45 05:36:15  -220.581943c -7.42c -5.00c

Converged after 45 iterations.

Dipole moment: (-1.543073, -1.782390, 0.108747) |e|*Ang

Energy contributions relative to reference atoms: (reference = -10026.932476)

Kinetic:        +91.301937
Potential:      -79.171391
External:        +0.000000
XC:            -232.553907
Entropy (-ST):   -0.146614
Local:           -0.085275
--------------------------
Free energy:   -220.655250
Extrapolated:  -220.581943

Dipole-layer corrected work functions: 3.385164, 3.176115 eV

Showing only first 2 kpts
 Kpt  Band  Eigenvalues  Occupancy
  0    20     -3.46569    1.95179
  0    21     -3.37564    1.73980
  0    22     -3.21957    0.45539
  0    23     -3.02134    0.01113

  1    20     -3.54173    1.98926
  1    21     -3.28212    1.01478
  1    22     -3.20284    0.34844
  1    23     -3.03156    0.01363


Fermi level: -3.28064

No gap

Forces in eV/Ang:
  0 Li    0.00946    0.00623   -0.25155
  1 Li   -0.03028   -0.00419   -0.27086
  2 Li   -0.00063   -0.01272   -0.28336
  3 Li    0.00368   -0.02260   -0.27100
  4 Li    0.00716   -0.00008   -0.30949
  5 Li   -0.01796    0.00647   -0.26179
  6 Li   -0.00567   -0.00383   -0.28115
  7 Li    0.01026   -0.01906   -0.27387
  8 Li   -0.00283   -0.00750   -0.29064
  9 Li    0.07195    0.02448    0.27065
 10 Li   -0.08400   -0.00956    0.20587
 11 Li    0.04103   -0.00678    0.33103
 12 Li    0.04829   -0.03992    0.24477
 13 Li    0.05625    0.11366    0.18304
 14 Li    0.00073   -0.04881    0.35262
 15 Li   -0.02153    0.07363    0.25124
 16 Li   -0.05591    0.02743    0.34930
 17 Li    0.03845    0.11404    0.34410
 18 Li   -0.16938    0.03359    0.10184
 19 Li    0.12961    0.03604   -0.04439
 20 Li   -0.08872   -0.01561    0.00121
 21 Li    0.08319   -0.01182   -0.05172
 22 Li    0.00132    0.00564    0.00533
 23 Li    0.01460   -0.04105   -0.00259
 24 Li    0.03565   -0.04392   -0.05331
 25 Li    0.04037   -0.05405   -0.05380
 26 Li   -0.04155   -0.03088   -0.05372
 27 Li   -0.01950   -0.04259   -0.09272
 28 Li   -0.03033   -0.16206   -0.04705
 29 Li   -0.09906   -0.02024    0.02451
 30 Li    0.01899    0.00712   -0.17621
 31 Li   -0.00424   -0.03638    0.02480
 32 Li    0.00621    0.03899    0.04727
 33 Li   -0.01572   -0.09249   -0.00004
 34 Li   -0.06241    0.02085    0.02912
 35 Li   -0.00133    0.02128    0.00659
 36 F     0.00320   -0.05315    0.45072
 37 H     0.15776    0.25564   -0.12744

System changes: positions 

Initializing position-dependent things.

Density initialized from wave functions
       .-----------------------.  
      /|                       |  
     / |                       |  
    /  |                       |  
   /   |                       |  
  /    |                       |  
 *     |                       |  
 |     |                       |  
 |     |                       |  
 |     |                       |  
 |     |                       |  
 |     |                      Li  
 |     |                       |  
 |     |                       |  
 |     |     Li      Li      Li|  
 |     |  Li      Li      Li   |  
 | FLi |   Li      Li          |  
 |     |Li      Li      Li     |  
 |     |         Li            |  
 |   LiLi    LLi     LLi       |  
 |     |  Li      Li      Li   |  
 | Li  |   Li      Li          |  
 |     |Li      Li      Li     |  
 Li    | Li      Li            |  
 |    Li      Li      Li       |  
 |     |                       |  
 |     |                       |  
 |     |                       |  
 |     |                       |  
 |     |                       |  
 |     |                       |  
 |     .-----------------------.  
 |    /                       /   
 |   /                       /    
 |  /                       /     
 | /                       /      
 |/                       /       
 *-----------------------*        

Positions:
   0 Li     1.617037    1.617037   10.000000    ( 0.0000,  0.0000,  0.0000)
   1 Li     4.851111    1.617037   10.000000    ( 0.0000,  0.0000,  0.0000)
   2 Li     8.085185    1.617037   10.000000    ( 0.0000,  0.0000,  0.0000)
   3 Li     1.617037    4.851111   10.000000    ( 0.0000,  0.0000,  0.0000)
   4 Li     4.851111    4.851111   10.000000    ( 0.0000,  0.0000,  0.0000)
   5 Li     8.085185    4.851111   10.000000    ( 0.0000,  0.0000,  0.0000)
   6 Li     1.617037    8.085185   10.000000    ( 0.0000,  0.0000,  0.0000)
   7 Li     4.851111    8.085185   10.000000    ( 0.0000,  0.0000,  0.0000)
   8 Li     8.085185    8.085185   10.000000    ( 0.0000,  0.0000,  0.0000)
   9 Li     0.000000    0.000000   11.617037    ( 0.0000,  0.0000,  0.0000)
  10 Li     3.234074    0.000000   11.617037    ( 0.0000,  0.0000,  0.0000)
  11 Li     6.468148    0.000000   11.617037    ( 0.0000,  0.0000,  0.0000)
  12 Li     0.000000    3.234074   11.617037    ( 0.0000,  0.0000,  0.0000)
  13 Li     3.234074    3.234074   11.617037    ( 0.0000,  0.0000,  0.0000)
  14 Li     6.468148    3.234074   11.617037    ( 0.0000,  0.0000,  0.0000)
  15 Li     0.000000    6.468148   11.617037    ( 0.0000,  0.0000,  0.0000)
  16 Li     3.234074    6.468148   11.617037    ( 0.0000,  0.0000,  0.0000)
  17 Li     6.468148    6.468148   11.617037    ( 0.0000,  0.0000,  0.0000)
  18 Li     1.833420    1.710122   13.520616    ( 0.0000,  0.0000,  0.0000)
  19 Li     4.835671    1.592524   13.486762    ( 0.0000,  0.0000,  0.0000)
  20 Li     8.211785    1.565541   13.511853    ( 0.0000,  0.0000,  0.0000)
  21 Li     1.530272    4.912952   13.502476    ( 0.0000,  0.0000,  0.0000)
  22 Li     4.917907    4.946981   13.416510    ( 0.0000,  0.0000,  0.0000)
  23 Li     8.154187    4.835171   13.480023    ( 0.0000,  0.0000,  0.0000)
  24 Li     1.511138    8.166550   13.605134    ( 0.0000,  0.0000,  0.0000)
  25 Li     4.726952    8.227864   13.528109    ( 0.0000,  0.0000,  0.0000)
  26 Li     8.123513    8.093178   13.604932    ( 0.0000,  0.0000,  0.0000)
  27 Li    -0.440990   -0.458221   16.111051    ( 0.0000,  0.0000,  0.0000)
  28 Li     2.489120    0.607771   16.014449    ( 0.0000,  0.0000,  0.0000)
  29 Li     6.355062    0.002920   15.390123    ( 0.0000,  0.0000,  0.0000)
  30 Li     0.459060    2.397114   15.979309    ( 0.0000,  0.0000,  0.0000)
  31 Li     3.367924    3.473631   15.259431    ( 0.0000,  0.0000,  0.0000)
  32 Li     6.569591    3.254460   15.295139    ( 0.0000,  0.0000,  0.0000)
  33 Li    -0.024652    6.259928   15.507227    ( 0.0000,  0.0000,  0.0000)
  34 Li     3.342471    6.572351   15.393484    ( 0.0000,  0.0000,  0.0000)
  35 Li     6.518245    6.501775   15.429894    ( 0.0000,  0.0000,  0.0000)
  36 F      0.765944    0.710862   16.623812    ( 0.0000,  0.0000,  0.0000)
  37 H      2.138333    2.215332   15.263625    ( 0.0000,  0.0000,  0.0000)

Unit cell:
           periodic     x           y           z      points  spacing
  1. axis:    yes    9.702222    0.000000    0.000000    60     0.1617
  2. axis:    yes    0.000000    9.702222    0.000000    60     0.1617
  3. axis:    no     0.000000    0.000000   24.851111   156     0.1593

  Lengths:   9.702222   9.702222  24.851111
  Angles:   90.000000  90.000000  90.000000

Effective grid spacing dv^(1/3) = 0.1609

     iter     time        total  log10-change:
                         energy  eigst   dens
iter:   1 05:37:01  -220.646959  -0.70
iter:   2 05:37:36  -220.632130  -1.46  -1.69
iter:   3 05:38:11  -220.609902  -2.20  -1.77
iter:   4 05:38:46  -220.602498  -1.60  -2.04
Writing to output.gpw (mode='')

iter:   5 05:39:22  -220.604015c -2.91  -2.31
iter:   6 05:39:57  -220.602416c -2.48  -2.28
iter:   7 05:40:32  -220.602130c -1.85  -2.43
iter:   8 05:41:07  -220.601870c -3.07  -2.67
iter:   9 05:41:42  -220.601847c -3.07  -2.88
Writing to output.gpw (mode='')

iter:  10 05:42:21  -220.601897c -3.07  -3.03
iter:  11 05:42:56  -220.601874c -3.74  -3.09
iter:  12 05:43:31  -220.601883c -3.80  -3.24
iter:  13 05:44:06  -220.601887c -3.99  -3.31
iter:  14 05:44:41  -220.601890c -4.10  -3.46
Writing to output.gpw (mode='')

iter:  15 05:45:19  -220.601894c -4.34  -3.52
iter:  16 05:45:54  -220.601897c -4.54  -3.57
iter:  17 05:46:29  -220.601903c -4.68  -3.74
iter:  18 05:47:04  -220.601905c -4.79  -3.86
iter:  19 05:47:39  -220.601906c -4.83  -3.91
Writing to output.gpw (mode='')

iter:  20 05:48:16  -220.601906c -4.94  -3.97
iter:  21 05:48:51  -220.601908c -5.22  -4.13c
iter:  22 05:49:26  -220.601908c -5.34  -4.21c
iter:  23 05:50:01  -220.601909c -5.32  -4.29c
iter:  24 05:50:36  -220.601910c -5.62  -4.46c
Writing to output.gpw (mode='')

iter:  25 05:51:12  -220.601910c -5.68  -4.50c
iter:  26 05:51:47  -220.601911c -5.74  -4.54c
iter:  27 05:52:22  -220.601911c -5.88  -4.75c
iter:  28 05:52:57  -220.601911c -5.85  -4.83c
iter:  29 05:53:32  -220.601911c -6.06  -4.89c
Writing to output.gpw (mode='')

iter:  30 05:54:08  -220.601911c -6.06  -4.97c
iter:  31 05:54:43  -220.601912c -6.25  -5.04c
iter:  32 05:55:17  -220.601912c -6.33  -5.18c
iter:  33 05:55:52  -220.601912c -6.51  -5.30c
iter:  34 05:56:28  -220.601912c -6.53  -5.31c
Writing to output.gpw (mode='')

iter:  35 05:57:03  -220.601912c -6.68  -5.30c
iter:  36 05:57:38  -220.601912c -6.73  -5.19c
iter:  37 05:58:13  -220.601912c -6.92  -5.57c
iter:  38 05:58:48  -220.601912c -6.97  -5.51c
iter:  39 05:59:24  -220.601912c -6.99  -5.50c
Writing to output.gpw (mode='')

iter:  40 05:59:59  -220.601912c -6.92  -5.51c
iter:  41 06:00:34  -220.601912c -7.04  -5.70c
iter:  42 06:01:09  -220.601912c -7.08  -5.76c
iter:  43 06:01:44  -220.601912c -7.22  -5.81c
iter:  44 06:02:19  -220.601912c -7.43c -5.93c

Converged after 44 iterations.

Dipole moment: (-1.459949, -1.737307, 0.106619) |e|*Ang

Energy contributions relative to reference atoms: (reference = -10026.932476)

Kinetic:        +91.092313
Potential:      -79.017303
External:        +0.000000
XC:            -232.516869
Entropy (-ST):   -0.146529
Local:           -0.086789
--------------------------
Free energy:   -220.675177
Extrapolated:  -220.601912

Dipole-layer corrected work functions: 3.384459, 3.179501 eV

Showing only first 2 kpts
 Kpt  Band  Eigenvalues  Occupancy
  0    20     -3.46643    1.95123
  0    21     -3.37595    1.73508
  0    22     -3.22132    0.45827
  0    23     -3.02377    0.01137

  1    20     -3.54464    1.98959
  1    21     -3.28388    1.01899
  1    22     -3.20473    0.35161
  1    23     -3.03335    0.01375


Fermi level: -3.28198

No gap
Writing to output.gpw (mode='')


Forces in eV/Ang:
  0 Li    0.00899    0.00674   -0.25224
  1 Li   -0.02817   -0.00375   -0.27124
  2 Li   -0.00245   -0.01232   -0.28368
  3 Li    0.00266   -0.02332   -0.27159
  4 Li    0.00708    0.00044   -0.30836
  5 Li   -0.01897    0.00671   -0.26173
  6 Li   -0.00672   -0.00290   -0.28166
  7 Li    0.01020   -0.02028   -0.27133
  8 Li   -0.00324   -0.00769   -0.29055
  9 Li    0.06901    0.02895    0.27595
 10 Li   -0.08193   -0.00148    0.21798
 11 Li    0.04590   -0.01377    0.31912
 12 Li    0.04568   -0.04513    0.24943
 13 Li    0.05771    0.10594    0.19187
 14 Li    0.00561   -0.04190    0.34286
 15 Li   -0.01550    0.07098    0.25889
 16 Li   -0.06338    0.02601    0.34569
 17 Li    0.05324    0.11727    0.32706
 18 Li   -0.12954    0.03699    0.07860
 19 Li    0.09837    0.03054   -0.03639
 20 Li   -0.07805   -0.01668   -0.00143
 21 Li    0.08214    0.00105   -0.04638
 22 Li   -0.01562   -0.01674    0.02718
 23 Li    0.01171   -0.04261   -0.01596
 24 Li    0.03434   -0.06175   -0.04884
 25 Li    0.03228   -0.03391   -0.04479
 26 Li   -0.04359   -0.03036   -0.06335
 27 Li    0.02804   -0.00963   -0.06733
 28 Li   -0.03287   -0.14384   -0.06190
 29 Li   -0.11135   -0.00619    0.02154
 30 Li   -0.01974    0.00433   -0.11681
 31 Li   -0.04246   -0.06562    0.01436
 32 Li    0.01269    0.02699    0.05060
 33 Li   -0.00742   -0.08202   -0.00017
 34 Li   -0.05572    0.02589    0.02209
 35 Li   -0.00444    0.01648    0.01047
 36 F     0.00333   -0.02946    0.34778
 37 H     0.19417    0.21345   -0.12600

System changes: positions 

Initializing position-dependent things.

Density initialized from wave functions
       .-----------------------.  
      /|                       |  
     / |                       |  
    /  |                       |  
   /   |                       |  
  /    |                       |  
 *     |                       |  
 |     |                       |  
 |     |                       |  
 |     |                       |  
 |     |                       |  
 |     |                      Li  
 |     |               Li      |  
 |     |                       |  
 |     |     Li      Li      Li|  
 |     |  Li      Li      Li   |  
 | FLi |    Li     Li          |  
 |     Lii      Li      Li     |  
 |     |                       |  
 |   LiLi    LLi     LLi       |  
 |     |  Li      Li      Li   |  
 | Li  |   Li      Li          |  
 |     |Li      Li      Li     |  
 Li    | Li      Li            |  
 |    Li      Li      Li       |  
 |     |                       |  
 |     |                       |  
 |     |                       |  
 |     |                       |  
 |     |                       |  
 |     |                       |  
 |     .-----------------------.  
 |    /                       /   
 |   /                       /    
 |  /                       /     
 | /                       /      
 |/                       /       
 *-----------------------*        

Positions:
   0 Li     1.617037    1.617037   10.000000    ( 0.0000,  0.0000,  0.0000)
   1 Li     4.851111    1.617037   10.000000    ( 0.0000,  0.0000,  0.0000)
   2 Li     8.085185    1.617037   10.000000    ( 0.0000,  0.0000,  0.0000)
   3 Li     1.617037    4.851111   10.000000    ( 0.0000,  0.0000,  0.0000)
   4 Li     4.851111    4.851111   10.000000    ( 0.0000,  0.0000,  0.0000)
   5 Li     8.085185    4.851111   10.000000    ( 0.0000,  0.0000,  0.0000)
   6 Li     1.617037    8.085185   10.000000    ( 0.0000,  0.0000,  0.0000)
   7 Li     4.851111    8.085185   10.000000    ( 0.0000,  0.0000,  0.0000)
   8 Li     8.085185    8.085185   10.000000    ( 0.0000,  0.0000,  0.0000)
   9 Li     0.000000    0.000000   11.617037    ( 0.0000,  0.0000,  0.0000)
  10 Li     3.234074    0.000000   11.617037    ( 0.0000,  0.0000,  0.0000)
  11 Li     6.468148    0.000000   11.617037    ( 0.0000,  0.0000,  0.0000)
  12 Li     0.000000    3.234074   11.617037    ( 0.0000,  0.0000,  0.0000)
  13 Li     3.234074    3.234074   11.617037    ( 0.0000,  0.0000,  0.0000)
  14 Li     6.468148    3.234074   11.617037    ( 0.0000,  0.0000,  0.0000)
  15 Li     0.000000    6.468148   11.617037    ( 0.0000,  0.0000,  0.0000)
  16 Li     3.234074    6.468148   11.617037    ( 0.0000,  0.0000,  0.0000)
  17 Li     6.468148    6.468148   11.617037    ( 0.0000,  0.0000,  0.0000)
  18 Li     1.809545    1.711545   13.534390    ( 0.0000,  0.0000,  0.0000)
  19 Li     4.867616    1.598159   13.474113    ( 0.0000,  0.0000,  0.0000)
  20 Li     8.192685    1.563517   13.511277    ( 0.0000,  0.0000,  0.0000)
  21 Li     1.543585    4.900136   13.502160    ( 0.0000,  0.0000,  0.0000)
  22 Li     4.928403    4.959693   13.408815    ( 0.0000,  0.0000,  0.0000)
  23 Li     8.157016    4.831357   13.484204    ( 0.0000,  0.0000,  0.0000)
  24 Li     1.517402    8.173309   13.601588    ( 0.0000,  0.0000,  0.0000)
  25 Li     4.741111    8.208399   13.513843    ( 0.0000,  0.0000,  0.0000)
  26 Li     8.118880    8.087902   13.603800    ( 0.0000,  0.0000,  0.0000)
  27 Li    -0.443941   -0.457173   16.095529    ( 0.0000,  0.0000,  0.0000)
  28 Li     2.474442    0.601979   16.028776    ( 0.0000,  0.0000,  0.0000)
  29 Li     6.345664   -0.008682   15.392285    ( 0.0000,  0.0000,  0.0000)
  30 Li     0.468282    2.380072   15.944316    ( 0.0000,  0.0000,  0.0000)
  31 Li     3.393077    3.479704   15.268789    ( 0.0000,  0.0000,  0.0000)
  32 Li     6.570625    3.267569   15.297015    ( 0.0000,  0.0000,  0.0000)
  33 Li    -0.035679    6.244205   15.504421    ( 0.0000,  0.0000,  0.0000)
  34 Li     3.335426    6.574241   15.393280    ( 0.0000,  0.0000,  0.0000)
  35 Li     6.519206    6.505680   15.429105    ( 0.0000,  0.0000,  0.0000)
  36 F      0.764476    0.699080   16.649232    ( 0.0000,  0.0000,  0.0000)
  37 H      2.138916    2.239305   15.273229    ( 0.0000,  0.0000,  0.0000)

Unit cell:
           periodic     x           y           z      points  spacing
  1. axis:    yes    9.702222    0.000000    0.000000    60     0.1617
  2. axis:    yes    0.000000    9.702222    0.000000    60     0.1617
  3. axis:    no     0.000000    0.000000   24.851111   156     0.1593

  Lengths:   9.702222   9.702222  24.851111
  Angles:   90.000000  90.000000  90.000000

Effective grid spacing dv^(1/3) = 0.1609

     iter     time        total  log10-change:
                         energy  eigst   dens
iter:   1 06:03:12  -220.671658  -0.71
iter:   2 06:03:47  -220.653453  -1.47  -1.69
iter:   3 06:04:22  -220.642414  -2.15  -1.80
iter:   4 06:04:56  -220.628008  -1.54  -1.92
Writing to output.gpw (mode='')

iter:   5 06:05:33  -220.629747c -2.98  -2.27
iter:   6 06:06:07  -220.627422c -2.31  -2.25
iter:   7 06:06:42  -220.627350c -1.78  -2.42
iter:   8 06:07:17  -220.626908c -3.10  -2.61
iter:   9 06:07:52  -220.626814c -2.88  -2.86
Writing to output.gpw (mode='')

iter:  10 06:08:31  -220.627080c -2.71  -3.00
iter:  11 06:09:06  -220.626820c -3.63  -2.87
iter:  12 06:09:41  -220.626864c -3.86  -3.15
iter:  13 06:10:16  -220.626850c -3.78  -3.22
iter:  14 06:10:50  -220.626847c -4.32  -3.44
Writing to output.gpw (mode='')

iter:  15 06:11:26  -220.626846c -4.43  -3.51
iter:  16 06:12:01  -220.626849c -4.61  -3.64
iter:  17 06:12:36  -220.626858c -4.57  -3.69
iter:  18 06:13:10  -220.626857c -4.81  -3.77
iter:  19 06:13:45  -220.626856c -4.93  -3.91
Writing to output.gpw (mode='')

iter:  20 06:14:21  -220.626854c -5.16  -4.16c
iter:  21 06:14:56  -220.626855c -5.32  -4.22c
iter:  22 06:15:31  -220.626856c -5.36  -4.25c
iter:  23 06:16:06  -220.626857c -5.50  -4.36c
iter:  24 06:16:41  -220.626859c -5.56  -4.58c
Writing to output.gpw (mode='')

iter:  25 06:17:16  -220.626860c -5.63  -4.69c
iter:  26 06:17:52  -220.626860c -5.74  -4.69c
iter:  27 06:18:26  -220.626860c -5.74  -4.65c
iter:  28 06:19:01  -220.626860c -5.98  -4.60c
iter:  29 06:19:36  -220.626860c -6.03  -4.59c
Writing to output.gpw (mode='')

iter:  30 06:20:13  -220.626860c -6.26  -4.79c
iter:  31 06:20:48  -220.626860c -6.32  -4.89c
iter:  32 06:21:22  -220.626860c -6.46  -5.09c
iter:  33 06:21:57  -220.626860c -6.46  -5.09c
iter:  34 06:22:32  -220.626860c -6.46  -5.16c
Writing to output.gpw (mode='')

iter:  35 06:23:11  -220.626860c -6.60  -5.26c
iter:  36 06:23:46  -220.626860c -6.66  -5.35c
iter:  37 06:24:21  -220.626860c -6.79  -5.47c
iter:  38 06:24:56  -220.626860c -6.91  -5.57c
iter:  39 06:25:31  -220.626860c -7.05  -5.73c
Writing to output.gpw (mode='')

iter:  40 06:26:08  -220.626860c -7.00  -5.76c
iter:  41 06:26:43  -220.626860c -7.03  -5.82c
iter:  42 06:27:18  -220.626860c -7.01  -5.88c
iter:  43 06:27:53  -220.626860c -7.25  -5.95c
iter:  44 06:28:28  -220.626860c -7.36  -5.86c
Writing to output.gpw (mode='')

iter:  45 06:29:03  -220.626860c -7.44c -5.72c

Converged after 45 iterations.

Dipole moment: (-1.325077, -1.710324, 0.099560) |e|*Ang

Energy contributions relative to reference atoms: (reference = -10026.932476)

Kinetic:        +90.951822
Potential:      -78.914631
External:        +0.000000
XC:            -232.504363
Entropy (-ST):   -0.145937
Local:           -0.086720
--------------------------
Free energy:   -220.699829
Extrapolated:  -220.626860

Dipole-layer corrected work functions: 3.384594, 3.193206 eV

Showing only first 2 kpts
 Kpt  Band  Eigenvalues  Occupancy
  0    20     -3.47416    1.95199
  0    21     -3.38487    1.74414
  0    22     -3.22791    0.45597
  0    23     -3.03133    0.01152

  1    20     -3.55360    1.99001
  1    21     -3.29018    1.01283
  1    22     -3.21201    0.35371
  1    23     -3.04270    0.01444


Fermi level: -3.28890

No gap

Forces in eV/Ang:
  0 Li    0.00816    0.00744   -0.25335
  1 Li   -0.02549   -0.00327   -0.27152
  2 Li   -0.00441   -0.01150   -0.28339
  3 Li    0.00161   -0.02379   -0.27198
  4 Li    0.00663    0.00117   -0.30704
  5 Li   -0.02015    0.00680   -0.26288
  6 Li   -0.00728   -0.00234   -0.28158
  7 Li    0.00976   -0.02165   -0.26951
  8 Li   -0.00415   -0.00813   -0.29011
  9 Li    0.06475    0.03291    0.28517
 10 Li   -0.07817    0.00779    0.23217
 11 Li    0.04962   -0.02222    0.30445
 12 Li    0.04101   -0.04860    0.25502
 13 Li    0.05935    0.09552    0.20042
 14 Li    0.01122   -0.03181    0.33065
 15 Li   -0.01035    0.06522    0.26689
 16 Li   -0.06695    0.02333    0.33946
 17 Li    0.06667    0.11652    0.31174
 18 Li   -0.07060    0.03965    0.04771
 19 Li    0.05021    0.02558   -0.02545
 20 Li   -0.06275   -0.01844   -0.00443
 21 Li    0.06887    0.01533   -0.04422
 22 Li   -0.02553   -0.03302    0.04181
 23 Li    0.01118   -0.04446   -0.03114
 24 Li    0.02482   -0.07452   -0.04392
 25 Li    0.02306   -0.01305   -0.03553
 26 Li   -0.03650   -0.02329   -0.06639
 27 Li    0.04680    0.00148   -0.04707
 28 Li    0.00888   -0.11340   -0.07553
 29 Li   -0.11218    0.00426    0.02039
 30 Li   -0.07814   -0.00684   -0.02518
 31 Li   -0.05830   -0.08607    0.00482
 32 Li    0.02190    0.01789    0.05488
 33 Li    0.00387   -0.06654   -0.00066
 34 Li   -0.04517    0.03240    0.01696
 35 Li   -0.01189    0.00852    0.01482
 36 F     0.00102    0.00824    0.27583
 37 H     0.20367    0.13010   -0.11798

System changes: positions 

Initializing position-dependent things.

Density initialized from wave functions
       .-----------------------.  
      /|                       |  
     / |                       |  
    /  |                       |  
   /   |                       |  
  /    |                       |  
 *     |                       |  
 |     |                       |  
 |     |                       |  
 |     |                       |  
 |     |                       |  
 |     |                      Li  
 |     |               Li      |  
 |     |                       |  
 |     |     Li      Li      Li|  
 |     |  Li      Li      Li   |  
 | FLi |    Li     Li          |  
 |     Lii      Li      Li     |  
 |     |                       |  
 |   LLi     LLi     LLi       |  
 |     |  Li      Li      Li   |  
 | Li  |   Li      Li          |  
 |     |Li      Li      Li     |  
 Li    | Li      Li            |  
 |    Li      Li      Li       |  
 |     |                       |  
 |     |                       |  
 |     |                       |  
 |     |                       |  
 |     |                       |  
 |     |                       |  
 |     .-----------------------.  
 |    /                       /   
 |   /                       /    
 |  /                       /     
 | /                       /      
 |/                       /       
 *-----------------------*        

Positions:
   0 Li     1.617037    1.617037   10.000000    ( 0.0000,  0.0000,  0.0000)
   1 Li     4.851111    1.617037   10.000000    ( 0.0000,  0.0000,  0.0000)
   2 Li     8.085185    1.617037   10.000000    ( 0.0000,  0.0000,  0.0000)
   3 Li     1.617037    4.851111   10.000000    ( 0.0000,  0.0000,  0.0000)
   4 Li     4.851111    4.851111   10.000000    ( 0.0000,  0.0000,  0.0000)
   5 Li     8.085185    4.851111   10.000000    ( 0.0000,  0.0000,  0.0000)
   6 Li     1.617037    8.085185   10.000000    ( 0.0000,  0.0000,  0.0000)
   7 Li     4.851111    8.085185   10.000000    ( 0.0000,  0.0000,  0.0000)
   8 Li     8.085185    8.085185   10.000000    ( 0.0000,  0.0000,  0.0000)
   9 Li     0.000000    0.000000   11.617037    ( 0.0000,  0.0000,  0.0000)
  10 Li     3.234074    0.000000   11.617037    ( 0.0000,  0.0000,  0.0000)
  11 Li     6.468148    0.000000   11.617037    ( 0.0000,  0.0000,  0.0000)
  12 Li     0.000000    3.234074   11.617037    ( 0.0000,  0.0000,  0.0000)
  13 Li     3.234074    3.234074   11.617037    ( 0.0000,  0.0000,  0.0000)
  14 Li     6.468148    3.234074   11.617037    ( 0.0000,  0.0000,  0.0000)
  15 Li     0.000000    6.468148   11.617037    ( 0.0000,  0.0000,  0.0000)
  16 Li     3.234074    6.468148   11.617037    ( 0.0000,  0.0000,  0.0000)
  17 Li     6.468148    6.468148   11.617037    ( 0.0000,  0.0000,  0.0000)
  18 Li     1.785795    1.712146   13.532494    ( 0.0000,  0.0000,  0.0000)
  19 Li     4.888117    1.602236   13.465578    ( 0.0000,  0.0000,  0.0000)
  20 Li     8.179983    1.562482   13.512405    ( 0.0000,  0.0000,  0.0000)
  21 Li     1.554028    4.896525   13.499103    ( 0.0000,  0.0000,  0.0000)
  22 Li     4.929896    4.961455   13.408813    ( 0.0000,  0.0000,  0.0000)
  23 Li     8.158509    4.826943   13.487252    ( 0.0000,  0.0000,  0.0000)
  24 Li     1.522929    8.170541   13.595884    ( 0.0000,  0.0000,  0.0000)
  25 Li     4.748209    8.198906   13.506857    ( 0.0000,  0.0000,  0.0000)
  26 Li     8.115498    8.085819   13.601637    ( 0.0000,  0.0000,  0.0000)
  27 Li    -0.430215   -0.446330   16.090587    ( 0.0000,  0.0000,  0.0000)
  28 Li     2.469275    0.587084   16.021359    ( 0.0000,  0.0000,  0.0000)
  29 Li     6.336624   -0.013461   15.395982    ( 0.0000,  0.0000,  0.0000)
  30 Li     0.478383    2.374162   15.928893    ( 0.0000,  0.0000,  0.0000)
  31 Li     3.398912    3.480742   15.269254    ( 0.0000,  0.0000,  0.0000)
  32 Li     6.567896    3.273419   15.302627    ( 0.0000,  0.0000,  0.0000)
  33 Li    -0.039933    6.236377   15.502879    ( 0.0000,  0.0000,  0.0000)
  34 Li     3.327939    6.574720   15.394482    ( 0.0000,  0.0000,  0.0000)
  35 Li     6.518875    6.507786   15.428452    ( 0.0000,  0.0000,  0.0000)
  36 F      0.773368    0.703851   16.687938    ( 0.0000,  0.0000,  0.0000)
  37 H      2.142623    2.250636   15.265282    ( 0.0000,  0.0000,  0.0000)

Unit cell:
           periodic     x           y           z      points  spacing
  1. axis:    yes    9.702222    0.000000    0.000000    60     0.1617
  2. axis:    yes    0.000000    9.702222    0.000000    60     0.1617
  3. axis:    no     0.000000    0.000000   24.851111   156     0.1593

  Lengths:   9.702222   9.702222  24.851111
  Angles:   90.000000  90.000000  90.000000

Effective grid spacing dv^(1/3) = 0.1609

     iter     time        total  log10-change:
                         energy  eigst   dens
iter:   1 06:29:50  -220.675869  -0.99
iter:   2 06:30:25  -220.652824  -1.73  -1.74
iter:   3 06:31:01  -220.651608  -2.33  -2.09
iter:   4 06:31:36  -220.647567c -2.18  -2.19
Writing to output.gpw (mode='')

iter:   5 06:32:12  -220.647515c -3.20  -2.48
iter:   6 06:32:47  -220.646835c -2.48  -2.53
iter:   7 06:33:22  -220.647185c -2.21  -2.69
iter:   8 06:33:57  -220.646716c -3.42  -2.72
iter:   9 06:34:32  -220.646676c -3.46  -3.06
Writing to output.gpw (mode='')

iter:  10 06:35:08  -220.646740c -3.71  -3.13
iter:  11 06:35:43  -220.646689c -4.10  -3.18
iter:  12 06:36:18  -220.646694c -4.33  -3.23
iter:  13 06:36:54  -220.646713c -4.24  -3.29
iter:  14 06:37:29  -220.646709c -4.44  -3.63
Writing to output.gpw (mode='')

iter:  15 06:38:05  -220.646684c -4.81  -3.68
iter:  16 06:38:40  -220.646689c -4.94  -3.85
iter:  17 06:39:15  -220.646690c -5.18  -3.97
iter:  18 06:39:50  -220.646694c -5.30  -3.98
iter:  19 06:40:25  -220.646695c -5.35  -4.04c
Writing to output.gpw (mode='')

iter:  20 06:41:02  -220.646694c -5.54  -4.18c
iter:  21 06:41:37  -220.646696c -5.70  -4.20c
iter:  22 06:42:12  -220.646697c -5.71  -4.22c
iter:  23 06:42:47  -220.646697c -5.91  -4.30c
iter:  24 06:43:22  -220.646697c -5.96  -4.44c
Writing to output.gpw (mode='')

iter:  25 06:43:58  -220.646698c -6.06  -4.55c
iter:  26 06:44:33  -220.646699c -6.02  -4.67c
iter:  27 06:45:09  -220.646700c -6.19  -4.83c
iter:  28 06:45:44  -220.646699c -6.45  -4.88c
iter:  29 06:46:19  -220.646699c -6.55  -4.89c
Writing to output.gpw (mode='')

iter:  30 06:46:55  -220.646699c -6.43  -5.01c
iter:  31 06:47:30  -220.646699c -6.81  -4.91c
iter:  32 06:48:05  -220.646699c -6.79  -4.99c
iter:  33 06:48:40  -220.646699c -6.93  -5.14c
iter:  34 06:49:15  -220.646699c -7.02  -5.23c
Writing to output.gpw (mode='')

iter:  35 06:49:53  -220.646699c -7.27  -5.46c
iter:  36 06:50:28  -220.646699c -7.22  -5.53c
iter:  37 06:51:03  -220.646699c -7.22  -5.65c
iter:  38 06:51:38  -220.646699c -7.29  -5.80c
iter:  39 06:52:13  -220.646699c -7.47c -5.77c

Converged after 39 iterations.

Dipole moment: (-1.202757, -1.656103, 0.089311) |e|*Ang

Energy contributions relative to reference atoms: (reference = -10026.932476)

Kinetic:        +90.672234
Potential:      -78.709631
External:        +0.000000
XC:            -232.450497
Entropy (-ST):   -0.145014
Local:           -0.086298
--------------------------
Free energy:   -220.719206
Extrapolated:  -220.646699

Dipole-layer corrected work functions: 3.385753, 3.214067 eV

Showing only first 2 kpts
 Kpt  Band  Eigenvalues  Occupancy
  0    20     -3.48723    1.95388
  0    21     -3.39952    1.75995
  0    22     -3.23740    0.44530
  0    23     -3.04267    0.01159

  1    20     -3.56513    1.99011
  1    21     -3.30021    1.00298
  1    22     -3.22301    0.35367
  1    23     -3.05703    0.01542


Fermi level: -3.29991

No gap
Writing to output.gpw (mode='')


Forces in eV/Ang:
  0 Li    0.00748    0.00789   -0.25368
  1 Li   -0.02385   -0.00301   -0.27116
  2 Li   -0.00524   -0.01078   -0.28241
  3 Li    0.00105   -0.02393   -0.27151
  4 Li    0.00625    0.00157   -0.30616
  5 Li   -0.02083    0.00661   -0.26450
  6 Li   -0.00728   -0.00241   -0.28073
  7 Li    0.00915   -0.02239   -0.26911
  8 Li   -0.00486   -0.00859   -0.28961
  9 Li    0.06114    0.03416    0.29030
 10 Li   -0.07515    0.01228    0.23895
 11 Li    0.05062   -0.02757    0.29456
 12 Li    0.03546   -0.04812    0.25441
 13 Li    0.06103    0.08961    0.20154
 14 Li    0.01439   -0.02465    0.32269
 15 Li   -0.00997    0.05997    0.26892
 16 Li   -0.06489    0.02096    0.33381
 17 Li    0.07170    0.11311    0.30733
 18 Li   -0.03048    0.03952    0.03787
 19 Li    0.01644    0.02241   -0.01684
 20 Li   -0.05173   -0.01982   -0.00333
 21 Li    0.05604    0.02045   -0.04204
 22 Li   -0.02309   -0.03305    0.04214
 23 Li    0.01066   -0.04392   -0.03758
 24 Li    0.01575   -0.07420   -0.03860
 25 Li    0.01776   -0.00472   -0.02929
 26 Li   -0.02676   -0.01498   -0.05880
 27 Li    0.06246    0.01695   -0.02819
 28 Li   -0.00155   -0.07631   -0.06211
 29 Li   -0.10186    0.00673    0.02067
 30 Li   -0.09772   -0.02250    0.03639
 31 Li   -0.04973   -0.08656    0.00095
 32 Li    0.02842    0.01485    0.05602
 33 Li    0.00969   -0.05468   -0.00150
 34 Li   -0.03671    0.03673    0.01464
 35 Li   -0.01742    0.00265    0.01601
 36 F    -0.07695    0.05649    0.11127
 37 H     0.17968    0.04971   -0.09976

System changes: positions 

Initializing position-dependent things.

Density initialized from wave functions
       .-----------------------.  
      /|                       |  
     / |                       |  
    /  |                       |  
   /   |                       |  
  /    |                       |  
 *     |                       |  
 |     |                       |  
 |     |                       |  
 |     |                       |  
 |     |                       |  
 |     |                      Li  
 |     |               Li      |  
 |     |                       |  
 |     |     Li      Li      Li|  
 |     |  Li      Li      Li   |  
 | FLi |    Li     Li          |  
 |     Lii      Li      Li     |  
 |     |                       |  
 |   LLi     LLi     LLi       |  
 |     |  Li      Li      Li   |  
 | Li  |   Li      Li          |  
 |     |Li      Li      Li     |  
 Li    | Li      Li            |  
 |    Li      Li      Li       |  
 |     |                       |  
 |     |                       |  
 |     |                       |  
 |     |                       |  
 |     |                       |  
 |     |                       |  
 |     .-----------------------.  
 |    /                       /   
 |   /                       /    
 |  /                       /     
 | /                       /      
 |/                       /       
 *-----------------------*        

Positions:
   0 Li     1.617037    1.617037   10.000000    ( 0.0000,  0.0000,  0.0000)
   1 Li     4.851111    1.617037   10.000000    ( 0.0000,  0.0000,  0.0000)
   2 Li     8.085185    1.617037   10.000000    ( 0.0000,  0.0000,  0.0000)
   3 Li     1.617037    4.851111   10.000000    ( 0.0000,  0.0000,  0.0000)
   4 Li     4.851111    4.851111   10.000000    ( 0.0000,  0.0000,  0.0000)
   5 Li     8.085185    4.851111   10.000000    ( 0.0000,  0.0000,  0.0000)
   6 Li     1.617037    8.085185   10.000000    ( 0.0000,  0.0000,  0.0000)
   7 Li     4.851111    8.085185   10.000000    ( 0.0000,  0.0000,  0.0000)
   8 Li     8.085185    8.085185   10.000000    ( 0.0000,  0.0000,  0.0000)
   9 Li     0.000000    0.000000   11.617037    ( 0.0000,  0.0000,  0.0000)
  10 Li     3.234074    0.000000   11.617037    ( 0.0000,  0.0000,  0.0000)
  11 Li     6.468148    0.000000   11.617037    ( 0.0000,  0.0000,  0.0000)
  12 Li     0.000000    3.234074   11.617037    ( 0.0000,  0.0000,  0.0000)
  13 Li     3.234074    3.234074   11.617037    ( 0.0000,  0.0000,  0.0000)
  14 Li     6.468148    3.234074   11.617037    ( 0.0000,  0.0000,  0.0000)
  15 Li     0.000000    6.468148   11.617037    ( 0.0000,  0.0000,  0.0000)
  16 Li     3.234074    6.468148   11.617037    ( 0.0000,  0.0000,  0.0000)
  17 Li     6.468148    6.468148   11.617037    ( 0.0000,  0.0000,  0.0000)
  18 Li     1.767108    1.711865   13.524598    ( 0.0000,  0.0000,  0.0000)
  19 Li     4.896162    1.604900   13.462045    ( 0.0000,  0.0000,  0.0000)
  20 Li     8.173510    1.562291   13.514704    ( 0.0000,  0.0000,  0.0000)
  21 Li     1.561765    4.899570   13.495367    ( 0.0000,  0.0000,  0.0000)
  22 Li     4.923983    4.954950   13.415366    ( 0.0000,  0.0000,  0.0000)
  23 Li     8.158446    4.822941   13.489409    ( 0.0000,  0.0000,  0.0000)
  24 Li     1.527740    8.161365   13.589680    ( 0.0000,  0.0000,  0.0000)
  25 Li     4.748691    8.197618   13.506847    ( 0.0000,  0.0000,  0.0000)
  26 Li     8.112852    8.085803   13.599234    ( 0.0000,  0.0000,  0.0000)
  27 Li    -0.407554   -0.429725   16.091454    ( 0.0000,  0.0000,  0.0000)
  28 Li     2.464630    0.568703   16.002680    ( 0.0000,  0.0000,  0.0000)
  29 Li     6.329396   -0.012122   15.399887    ( 0.0000,  0.0000,  0.0000)
  30 Li     0.484735    2.376776   15.928220    ( 0.0000,  0.0000,  0.0000)
  31 Li     3.387239    3.478630   15.265592    ( 0.0000,  0.0000,  0.0000)
  32 Li     6.563211    3.272676   15.309550    ( 0.0000,  0.0000,  0.0000)
  33 Li    -0.038809    6.234615   15.502602    ( 0.0000,  0.0000,  0.0000)
  34 Li     3.321091    6.574141   15.396931    ( 0.0000,  0.0000,  0.0000)
  35 Li     6.518141    6.508437   15.427742    ( 0.0000,  0.0000,  0.0000)
  36 F      0.785397    0.718584   16.723127    ( 0.0000,  0.0000,  0.0000)
  37 H      2.145498    2.249448   15.248870    ( 0.0000,  0.0000,  0.0000)

Unit cell:
           periodic     x           y           z      points  spacing
  1. axis:    yes    9.702222    0.000000    0.000000    60     0.1617
  2. axis:    yes    0.000000    9.702222    0.000000    60     0.1617
  3. axis:    no     0.000000    0.000000   24.851111   156     0.1593

  Lengths:   9.702222   9.702222  24.851111
  Angles:   90.000000  90.000000  90.000000

Effective grid spacing dv^(1/3) = 0.1609

     iter     time        total  log10-change:
                         energy  eigst   dens
iter:   1 06:53:01  -220.675672  -1.01
iter:   2 06:53:37  -220.664145  -1.74  -1.86
iter:   3 06:54:12  -220.663730c -2.32  -2.19
iter:   4 06:54:47  -220.661541c -2.36  -2.28
Writing to output.gpw (mode='')

iter:   5 06:55:23  -220.661317c -2.81  -2.55
iter:   6 06:55:58  -220.660994c -2.63  -2.65
iter:   7 06:56:33  -220.661264c -2.47  -2.77
iter:   8 06:57:09  -220.660906c -3.42  -2.81
iter:   9 06:57:44  -220.660907c -3.64  -3.11
Writing to output.gpw (mode='')

iter:  10 06:58:20  -220.660962c -3.87  -3.15
iter:  11 06:58:55  -220.660917c -4.09  -3.26
iter:  12 06:59:30  -220.660949c -4.38  -3.39
iter:  13 07:00:05  -220.660948c -4.45  -3.49
iter:  14 07:00:41  -220.660931c -4.71  -3.62
Writing to output.gpw (mode='')

iter:  15 07:01:17  -220.660922c -4.87  -3.75
iter:  16 07:01:52  -220.660921c -5.02  -3.81
iter:  17 07:02:27  -220.660919c -5.25  -3.87
iter:  18 07:03:02  -220.660925c -5.36  -3.92
iter:  19 07:03:37  -220.660924c -5.60  -3.98
Writing to output.gpw (mode='')

iter:  20 07:04:14  -220.660913c -5.41  -4.02c
iter:  21 07:04:49  -220.660917c -5.98  -4.26c
iter:  22 07:05:24  -220.660925c -5.65  -4.34c
iter:  23 07:06:00  -220.660923c -6.04  -4.39c
iter:  24 07:06:35  -220.660922c -6.15  -4.54c
Writing to output.gpw (mode='')

iter:  25 07:07:11  -220.660922c -6.19  -4.56c
iter:  26 07:07:46  -220.660922c -6.53  -4.64c
iter:  27 07:08:21  -220.660923c -6.50  -4.75c
iter:  28 07:08:56  -220.660923c -6.60  -4.78c
iter:  29 07:09:32  -220.660921c -6.79  -4.82c
Writing to output.gpw (mode='')

iter:  30 07:10:07  -220.660921c -7.09  -5.19c
iter:  31 07:10:43  -220.660922c -7.03  -5.25c
iter:  32 07:11:18  -220.660922c -6.99  -5.30c
iter:  33 07:11:53  -220.660922c -7.19  -5.31c
iter:  34 07:12:28  -220.660922c -7.23  -5.34c
Writing to output.gpw (mode='')

iter:  35 07:13:04  -220.660922c -7.22  -5.37c
iter:  36 07:13:39  -220.660922c -7.26  -5.54c
iter:  37 07:14:14  -220.660922c -7.55c -5.64c

Converged after 37 iterations.

Dipole moment: (-1.150775, -1.620212, 0.080186) |e|*Ang

Energy contributions relative to reference atoms: (reference = -10026.932476)

Kinetic:        +90.462759
Potential:      -78.559363
External:        +0.000000
XC:            -232.405591
Entropy (-ST):   -0.144225
Local:           -0.086615
--------------------------
Free energy:   -220.733035
Extrapolated:  -220.660922

Dipole-layer corrected work functions: 3.387345, 3.233201 eV

Showing only first 2 kpts
 Kpt  Band  Eigenvalues  Occupancy
  0    20     -3.49965    1.95570
  0    21     -3.41400    1.77679
  0    22     -3.24613    0.43410
  0    23     -3.05286    0.01155

  1    20     -3.57511    1.99003
  1    21     -3.30942    0.99142
  1    22     -3.23312    0.35220
  1    23     -3.07079    0.01649


Fermi level: -3.31027

No gap
Writing to output.gpw (mode='')


Forces in eV/Ang:
  0 Li    0.00700    0.00806   -0.25360
  1 Li   -0.02307   -0.00298   -0.27072
  2 Li   -0.00510   -0.01023   -0.28126
  3 Li    0.00099   -0.02362   -0.27071
  4 Li    0.00599    0.00170   -0.30571
  5 Li   -0.02094    0.00631   -0.26623
  6 Li   -0.00676   -0.00293   -0.27962
  7 Li    0.00860   -0.02250   -0.26983
  8 Li   -0.00529   -0.00895   -0.28919
  9 Li    0.05883    0.03338    0.29264
 10 Li   -0.07388    0.01360    0.24066
 11 Li    0.04896   -0.02932    0.29076
 12 Li    0.03108   -0.04541    0.25124
 13 Li    0.06087    0.08644    0.19942
 14 Li    0.01497   -0.02086    0.31974
 15 Li   -0.01267    0.05568    0.26728
 16 Li   -0.05894    0.01927    0.32922
 17 Li    0.06881    0.10766    0.31231
 18 Li   -0.01165    0.03765    0.03588
 19 Li   -0.00075    0.02156   -0.01313
 20 Li   -0.04700   -0.02075   -0.00150
 21 Li    0.04372    0.01944   -0.04223
 22 Li   -0.01239   -0.02160    0.03172
 23 Li    0.01119   -0.04219   -0.03726
 24 Li    0.00735   -0.06538   -0.03402
 25 Li    0.01658   -0.00592   -0.02745
 26 Li   -0.01640   -0.00705   -0.04672
 27 Li    0.05345    0.01451   -0.02103
 28 Li   -0.01759   -0.04267   -0.03931
 29 Li   -0.08640    0.00288    0.02209
 30 Li   -0.08521   -0.03148    0.06056
 31 Li   -0.02375   -0.07514    0.00269
 32 Li    0.03080    0.01699    0.05548
 33 Li    0.01144   -0.04704   -0.00287
 34 Li   -0.03130    0.03866    0.01534
 35 Li   -0.02131   -0.00088    0.01545
 36 F    -0.05280    0.02561    0.10644
 37 H     0.14051   -0.00540   -0.09624

System changes: positions 

Initializing position-dependent things.

Density initialized from wave functions
       .-----------------------.  
      /|                       |  
     / |                       |  
    /  |                       |  
   /   |                       |  
  /    |                       |  
 *     |                       |  
 |     |                       |  
 |     |                       |  
 |     |                       |  
 |     |                       |  
 |     |                      Li  
 |     |               Li      |  
 |     |                       |  
 |     |     Li      Li      Li|  
 |     |  Li      Li      Li   |  
 | FLi |   Li      Li          |  
 |     Lii      Li      Li     |  
 |     |                       |  
 |   LLi     LLi     LLi       |  
 |     |  Li      Li      Li   |  
 | Li  |   Li      Li          |  
 |     |Li      Li      Li     |  
 Li    | Li      Li            |  
 |    Li      Li      Li       |  
 |     |                       |  
 |     |                       |  
 |     |                       |  
 |     |                       |  
 |     |                       |  
 |     |                       |  
 |     .-----------------------.  
 |    /                       /   
 |   /                       /    
 |  /                       /     
 | /                       /      
 |/                       /       
 *-----------------------*        

Positions:
   0 Li     1.617037    1.617037   10.000000    ( 0.0000,  0.0000,  0.0000)
   1 Li     4.851111    1.617037   10.000000    ( 0.0000,  0.0000,  0.0000)
   2 Li     8.085185    1.617037   10.000000    ( 0.0000,  0.0000,  0.0000)
   3 Li     1.617037    4.851111   10.000000    ( 0.0000,  0.0000,  0.0000)
   4 Li     4.851111    4.851111   10.000000    ( 0.0000,  0.0000,  0.0000)
   5 Li     8.085185    4.851111   10.000000    ( 0.0000,  0.0000,  0.0000)
   6 Li     1.617037    8.085185   10.000000    ( 0.0000,  0.0000,  0.0000)
   7 Li     4.851111    8.085185   10.000000    ( 0.0000,  0.0000,  0.0000)
   8 Li     8.085185    8.085185   10.000000    ( 0.0000,  0.0000,  0.0000)
   9 Li     0.000000    0.000000   11.617037    ( 0.0000,  0.0000,  0.0000)
  10 Li     3.234074    0.000000   11.617037    ( 0.0000,  0.0000,  0.0000)
  11 Li     6.468148    0.000000   11.617037    ( 0.0000,  0.0000,  0.0000)
  12 Li     0.000000    3.234074   11.617037    ( 0.0000,  0.0000,  0.0000)
  13 Li     3.234074    3.234074   11.617037    ( 0.0000,  0.0000,  0.0000)
  14 Li     6.468148    3.234074   11.617037    ( 0.0000,  0.0000,  0.0000)
  15 Li     0.000000    6.468148   11.617037    ( 0.0000,  0.0000,  0.0000)
  16 Li     3.234074    6.468148   11.617037    ( 0.0000,  0.0000,  0.0000)
  17 Li     6.468148    6.468148   11.617037    ( 0.0000,  0.0000,  0.0000)
  18 Li     1.750525    1.711763   13.515875    ( 0.0000,  0.0000,  0.0000)
  19 Li     4.902201    1.607349   13.458861    ( 0.0000,  0.0000,  0.0000)
  20 Li     8.167474    1.562088   13.516475    ( 0.0000,  0.0000,  0.0000)
  21 Li     1.568377    4.902785   13.491024    ( 0.0000,  0.0000,  0.0000)
  22 Li     4.918123    4.948814   13.421370    ( 0.0000,  0.0000,  0.0000)
  23 Li     8.158576    4.819037   13.490933    ( 0.0000,  0.0000,  0.0000)
  24 Li     1.531706    8.152301   13.583201    ( 0.0000,  0.0000,  0.0000)
  25 Li     4.748684    8.196640   13.506812    ( 0.0000,  0.0000,  0.0000)
  26 Li     8.110696    8.085970   13.596563    ( 0.0000,  0.0000,  0.0000)
  27 Li    -0.386505   -0.411498   16.093452    ( 0.0000,  0.0000,  0.0000)
  28 Li     2.461288    0.551861   15.985271    ( 0.0000,  0.0000,  0.0000)
  29 Li     6.322589   -0.010710   15.403753    ( 0.0000,  0.0000,  0.0000)
  30 Li     0.488983    2.377902   15.930232    ( 0.0000,  0.0000,  0.0000)
  31 Li     3.375190    3.474803   15.263086    ( 0.0000,  0.0000,  0.0000)
  32 Li     6.558983    3.271889   15.316475    ( 0.0000,  0.0000,  0.0000)
  33 Li    -0.037216    6.233249   15.502395    ( 0.0000,  0.0000,  0.0000)
  34 Li     3.314687    6.573772   15.400044    ( 0.0000,  0.0000,  0.0000)
  35 Li     6.517164    6.508865   15.427415    ( 0.0000,  0.0000,  0.0000)
  36 F      0.798717    0.733237   16.757882    ( 0.0000,  0.0000,  0.0000)
  37 H      2.149264    2.247227   15.229441    ( 0.0000,  0.0000,  0.0000)

Unit cell:
           periodic     x           y           z      points  spacing
  1. axis:    yes    9.702222    0.000000    0.000000    60     0.1617
  2. axis:    yes    0.000000    9.702222    0.000000    60     0.1617
  3. axis:    no     0.000000    0.000000   24.851111   156     0.1593

  Lengths:   9.702222   9.702222  24.851111
  Angles:   90.000000  90.000000  90.000000

Effective grid spacing dv^(1/3) = 0.1609

     iter     time        total  log10-change:
                         energy  eigst   dens
iter:   1 07:15:02  -220.692874  -1.00
iter:   2 07:15:37  -220.673962  -1.73  -1.78
iter:   3 07:16:12  -220.673406c -2.33  -2.16
iter:   4 07:16:47  -220.671333c -2.36  -2.27
Writing to output.gpw (mode='')

iter:   5 07:17:23  -220.671126c -2.85  -2.56
iter:   6 07:17:58  -220.670827c -2.65  -2.65
iter:   7 07:18:34  -220.671060c -2.50  -2.76
iter:   8 07:19:09  -220.670737c -3.42  -2.84
iter:   9 07:19:44  -220.670731c -3.64  -3.12
Writing to output.gpw (mode='')

iter:  10 07:20:20  -220.670793c -3.87  -3.16
iter:  11 07:20:55  -220.670762c -4.12  -3.28
iter:  12 07:21:30  -220.670785c -4.35  -3.41
iter:  13 07:22:05  -220.670776c -4.48  -3.49
iter:  14 07:22:40  -220.670769c -4.67  -3.72
Writing to output.gpw (mode='')

iter:  15 07:23:16  -220.670756c -4.87  -3.78
iter:  16 07:23:51  -220.670756c -5.06  -3.86
iter:  17 07:24:26  -220.670757c -5.21  -3.92
iter:  18 07:25:01  -220.670763c -5.41  -3.95
iter:  19 07:25:36  -220.670765c -5.42  -4.07c
Writing to output.gpw (mode='')

iter:  20 07:26:16  -220.670760c -5.53  -4.21c
iter:  21 07:26:51  -220.670761c -5.77  -4.41c
iter:  22 07:27:26  -220.670762c -5.95  -4.42c
iter:  23 07:28:01  -220.670761c -5.98  -4.43c
iter:  24 07:28:36  -220.670761c -6.08  -4.47c
Writing to output.gpw (mode='')

iter:  25 07:29:12  -220.670761c -6.23  -4.56c
iter:  26 07:29:47  -220.670761c -6.43  -4.66c
iter:  27 07:30:22  -220.670761c -6.62  -4.89c
iter:  28 07:30:57  -220.670761c -6.57  -4.93c
iter:  29 07:31:32  -220.670761c -6.77  -5.06c
Writing to output.gpw (mode='')

iter:  30 07:32:07  -220.670761c -6.63  -5.10c
iter:  31 07:32:42  -220.670761c -6.89  -5.18c
iter:  32 07:33:17  -220.670761c -6.82  -5.25c
iter:  33 07:33:52  -220.670761c -7.00  -5.32c
iter:  34 07:34:27  -220.670761c -7.29  -5.38c
Writing to output.gpw (mode='')

iter:  35 07:35:03  -220.670761c -7.20  -5.47c
iter:  36 07:35:37  -220.670761c -7.47c -5.67c

Converged after 36 iterations.

Dipole moment: (-1.122118, -1.598945, 0.071580) |e|*Ang

Energy contributions relative to reference atoms: (reference = -10026.932476)

Kinetic:        +90.225540
Potential:      -78.386105
External:        +0.000000
XC:            -232.351385
Entropy (-ST):   -0.143460
Local:           -0.087081
--------------------------
Free energy:   -220.742492
Extrapolated:  -220.670761

Dipole-layer corrected work functions: 3.388938, 3.251338 eV

Showing only first 2 kpts
 Kpt  Band  Eigenvalues  Occupancy
  0    20     -3.51151    1.95740
  0    21     -3.42770    1.79156
  0    22     -3.25423    0.42227
  0    23     -3.06265    0.01153

  1    20     -3.58433    1.98991
  1    21     -3.31827    0.98135
  1    22     -3.24271    0.35061
  1    23     -3.08415    0.01768


Fermi level: -3.32014

No gap
Writing to output.gpw (mode='')


Forces in eV/Ang:
  0 Li    0.00660    0.00818   -0.25329
  1 Li   -0.02241   -0.00297   -0.27020
  2 Li   -0.00485   -0.00971   -0.28013
  3 Li    0.00094   -0.02335   -0.26976
  4 Li    0.00572    0.00176   -0.30522
  5 Li   -0.02099    0.00592   -0.26780
  6 Li   -0.00626   -0.00341   -0.27851
  7 Li    0.00803   -0.02258   -0.27054
  8 Li   -0.00561   -0.00917   -0.28870
  9 Li    0.05661    0.03262    0.29386
 10 Li   -0.07276    0.01432    0.24112
 11 Li    0.04694   -0.03071    0.28733
 12 Li    0.02671   -0.04283    0.24687
 13 Li    0.06082    0.08409    0.19613
 14 Li    0.01519   -0.01755    0.31710
 15 Li   -0.01552    0.05169    0.26492
 16 Li   -0.05328    0.01783    0.32441
 17 Li    0.06603    0.10269    0.31705
 18 Li    0.00179    0.03426    0.03451
 19 Li   -0.01427    0.02078   -0.00928
 20 Li   -0.04253   -0.02154    0.00158
 21 Li    0.03372    0.01759   -0.04051
 22 Li   -0.00268   -0.01146    0.02339
 23 Li    0.01113   -0.03990   -0.03581
 24 Li    0.00030   -0.05608   -0.02832
 25 Li    0.01591   -0.00744   -0.02532
 26 Li   -0.00724    0.00011   -0.03423
 27 Li    0.04880    0.01260   -0.01062
 28 Li   -0.03602   -0.01069   -0.01603
 29 Li   -0.07241   -0.00035    0.02272
 30 Li   -0.06280   -0.03608    0.07468
 31 Li    0.00637   -0.05598    0.00254
 32 Li    0.03262    0.01853    0.05444
 33 Li    0.01245   -0.03958   -0.00408
 34 Li   -0.02652    0.03951    0.01521
 35 Li   -0.02441   -0.00390    0.01419
 36 F    -0.03064    0.03065    0.02645
 37 H     0.08508   -0.04332   -0.07064

System changes: positions 

Initializing position-dependent things.

Density initialized from wave functions
       .-----------------------.  
      /|                       |  
     / |                       |  
    /  |                       |  
   /   |                       |  
  /    |                       |  
 *     |                       |  
 |     |                       |  
 |     |                       |  
 |     |                       |  
 |     |                       |  
 |     |                      Li  
 |     |               Li      |  
 |     |                       |  
 |     |     Li      Li      Li|  
 |     |  Li      Li      Li   |  
 | FLi |   Li      Li          |  
 |     Lii      Li      Li     |  
 |     |                       |  
 |   LLi     LLi     LLi       |  
 |     |  Li      Li      Li   |  
 | Li  |   Li      Li          |  
 |     |Li      Li      Li     |  
 Li    | Li      Li            |  
 |    Li      Li      Li       |  
 |     |                       |  
 |     |                       |  
 |     |                       |  
 |     |                       |  
 |     |                       |  
 |     |                       |  
 |     .-----------------------.  
 |    /                       /   
 |   /                       /    
 |  /                       /     
 | /                       /      
 |/                       /       
 *-----------------------*        

Positions:
   0 Li     1.617037    1.617037   10.000000    ( 0.0000,  0.0000,  0.0000)
   1 Li     4.851111    1.617037   10.000000    ( 0.0000,  0.0000,  0.0000)
   2 Li     8.085185    1.617037   10.000000    ( 0.0000,  0.0000,  0.0000)
   3 Li     1.617037    4.851111   10.000000    ( 0.0000,  0.0000,  0.0000)
   4 Li     4.851111    4.851111   10.000000    ( 0.0000,  0.0000,  0.0000)
   5 Li     8.085185    4.851111   10.000000    ( 0.0000,  0.0000,  0.0000)
   6 Li     1.617037    8.085185   10.000000    ( 0.0000,  0.0000,  0.0000)
   7 Li     4.851111    8.085185   10.000000    ( 0.0000,  0.0000,  0.0000)
   8 Li     8.085185    8.085185   10.000000    ( 0.0000,  0.0000,  0.0000)
   9 Li     0.000000    0.000000   11.617037    ( 0.0000,  0.0000,  0.0000)
  10 Li     3.234074    0.000000   11.617037    ( 0.0000,  0.0000,  0.0000)
  11 Li     6.468148    0.000000   11.617037    ( 0.0000,  0.0000,  0.0000)
  12 Li     0.000000    3.234074   11.617037    ( 0.0000,  0.0000,  0.0000)
  13 Li     3.234074    3.234074   11.617037    ( 0.0000,  0.0000,  0.0000)
  14 Li     6.468148    3.234074   11.617037    ( 0.0000,  0.0000,  0.0000)
  15 Li     0.000000    6.468148   11.617037    ( 0.0000,  0.0000,  0.0000)
  16 Li     3.234074    6.468148   11.617037    ( 0.0000,  0.0000,  0.0000)
  17 Li     6.468148    6.468148   11.617037    ( 0.0000,  0.0000,  0.0000)
  18 Li     1.735418    1.711858   13.508457    ( 0.0000,  0.0000,  0.0000)
  19 Li     4.904907    1.609757   13.456287    ( 0.0000,  0.0000,  0.0000)
  20 Li     8.162270    1.561846   13.519076    ( 0.0000,  0.0000,  0.0000)
  21 Li     1.573900    4.907831   13.484777    ( 0.0000,  0.0000,  0.0000)
  22 Li     4.910516    4.941759   13.428867    ( 0.0000,  0.0000,  0.0000)
  23 Li     8.159096    4.814485   13.492650    ( 0.0000,  0.0000,  0.0000)
  24 Li     1.534734    8.141065   13.574917    ( 0.0000,  0.0000,  0.0000)
  25 Li     4.746754    8.196781   13.508347    ( 0.0000,  0.0000,  0.0000)
  26 Li     8.109160    8.086796   13.594241    ( 0.0000,  0.0000,  0.0000)
  27 Li    -0.364769   -0.391132   16.097894    ( 0.0000,  0.0000,  0.0000)
  28 Li     2.456698    0.535402   15.965175    ( 0.0000,  0.0000,  0.0000)
  29 Li     6.315654   -0.007928   15.408506    ( 0.0000,  0.0000,  0.0000)
  30 Li     0.490222    2.379051   15.938248    ( 0.0000,  0.0000,  0.0000)
  31 Li     3.359678    3.469022   15.258768    ( 0.0000,  0.0000,  0.0000)
  32 Li     6.555034    3.269846   15.324663    ( 0.0000,  0.0000,  0.0000)
  33 Li    -0.033546    6.232248   15.502108    ( 0.0000,  0.0000,  0.0000)
  34 Li     3.307367    6.573720   15.405052    ( 0.0000,  0.0000,  0.0000)
  35 Li     6.515646    6.508966   15.426634    ( 0.0000,  0.0000,  0.0000)
  36 F      0.814586    0.749788   16.790658    ( 0.0000,  0.0000,  0.0000)
  37 H      2.154404    2.241931   15.207232    ( 0.0000,  0.0000,  0.0000)

Unit cell:
           periodic     x           y           z      points  spacing
  1. axis:    yes    9.702222    0.000000    0.000000    60     0.1617
  2. axis:    yes    0.000000    9.702222    0.000000    60     0.1617
  3. axis:    no     0.000000    0.000000   24.851111   156     0.1593

  Lengths:   9.702222   9.702222  24.851111
  Angles:   90.000000  90.000000  90.000000

Effective grid spacing dv^(1/3) = 0.1609

     iter     time        total  log10-change:
                         energy  eigst   dens
iter:   1 07:36:25  -220.699879  -0.95
iter:   2 07:37:00  -220.681162  -1.69  -1.77
iter:   3 07:37:35  -220.679962c -2.29  -2.09
iter:   4 07:38:10  -220.676746c -2.18  -2.19
Writing to output.gpw (mode='')

iter:   5 07:38:47  -220.676687c -3.04  -2.51
iter:   6 07:39:22  -220.676354c -2.64  -2.56
iter:   7 07:39:56  -220.676538c -2.35  -2.65
iter:   8 07:40:31  -220.676216c -3.31  -2.78
iter:   9 07:41:06  -220.676230c -3.50  -3.07
Writing to output.gpw (mode='')

iter:  10 07:41:42  -220.676268c -3.78  -3.14
iter:  11 07:42:17  -220.676232c -4.03  -3.24
iter:  12 07:42:52  -220.676253c -4.32  -3.37
iter:  13 07:43:27  -220.676254c -4.37  -3.44
iter:  14 07:44:02  -220.676239c -4.58  -3.57
Writing to output.gpw (mode='')

iter:  15 07:44:37  -220.676231c -4.78  -3.75
iter:  16 07:45:12  -220.676231c -4.98  -3.83
iter:  17 07:45:47  -220.676232c -5.17  -3.85
iter:  18 07:46:22  -220.676232c -5.21  -4.05c
iter:  19 07:46:57  -220.676236c -5.48  -4.26c
Writing to output.gpw (mode='')

iter:  20 07:47:33  -220.676239c -5.41  -4.32c
iter:  21 07:48:08  -220.676239c -5.64  -4.34c
iter:  22 07:48:43  -220.676238c -5.60  -4.37c
iter:  23 07:49:17  -220.676238c -5.78  -4.39c
iter:  24 07:49:52  -220.676236c -6.00  -4.46c
Writing to output.gpw (mode='')

iter:  25 07:50:33  -220.676237c -6.20  -4.56c
iter:  26 07:51:08  -220.676239c -6.29  -4.61c
iter:  27 07:51:43  -220.676240c -6.30  -4.79c
iter:  28 07:52:18  -220.676240c -6.43  -4.98c
iter:  29 07:52:52  -220.676239c -6.50  -5.03c
Writing to output.gpw (mode='')

iter:  30 07:53:28  -220.676239c -6.72  -5.08c
iter:  31 07:54:03  -220.676239c -6.84  -5.26c
iter:  32 07:54:37  -220.676239c -6.80  -5.29c
iter:  33 07:55:12  -220.676239c -7.04  -5.41c
iter:  34 07:55:47  -220.676239c -6.97  -5.33c
Writing to output.gpw (mode='')

iter:  35 07:56:23  -220.676239c -6.94  -5.49c
iter:  36 07:56:58  -220.676239c -7.07  -5.50c
iter:  37 07:57:33  -220.676239c -7.28  -5.47c
[...]
iter:   4 11:45:39  -220.698911c -3.25  -2.70
Writing to output.gpw (mode='')

iter:   5 11:46:19  -220.699151c -3.94  -3.06
iter:   6 11:46:54  -220.698997c -3.66  -2.98
iter:   7 11:47:29  -220.698835c -3.27  -3.16
iter:   8 11:48:04  -220.698978c -4.32  -3.33
iter:   9 11:48:39  -220.699001c -4.43  -3.59
Writing to output.gpw (mode='')

iter:  10 11:49:15  -220.698962c -4.45  -3.60
iter:  11 11:49:50  -220.698964c -4.93  -3.67
iter:  12 11:50:25  -220.698961c -5.04  -3.81
iter:  13 11:51:00  -220.698959c -5.17  -3.87
iter:  14 11:51:35  -220.698964c -5.33  -4.08c
Writing to output.gpw (mode='')

iter:  15 11:52:11  -220.698971c -5.49  -4.18c
iter:  16 11:52:46  -220.698971c -5.74  -4.21c
iter:  17 11:53:20  -220.698975c -5.78  -4.23c
iter:  18 11:53:56  -220.698978c -6.12  -4.35c
iter:  19 11:54:30  -220.698976c -6.31  -4.41c
Writing to output.gpw (mode='')

iter:  20 11:55:07  -220.698975c -6.38  -4.53c
iter:  21 11:55:42  -220.698975c -6.54  -4.67c
iter:  22 11:56:17  -220.698972c -6.56  -4.79c
iter:  23 11:56:52  -220.698974c -6.87  -5.01c
iter:  24 11:57:26  -220.698973c -6.82  -5.04c
Writing to output.gpw (mode='')

iter:  25 11:58:05  -220.698974c -6.97  -5.15c
iter:  26 11:58:40  -220.698974c -7.00  -5.27c
iter:  27 11:59:15  -220.698974c -7.12  -5.29c
iter:  28 11:59:50  -220.698974c -7.24  -5.35c
iter:  29 12:00:25  -220.698974c -7.36  -5.41c
Writing to output.gpw (mode='')

iter:  30 12:01:00  -220.698974c -7.52c -5.51c

Converged after 30 iterations.

Dipole moment: (-1.306840, -1.677869, 0.067090) |e|*Ang

Energy contributions relative to reference atoms: (reference = -10026.932476)

Kinetic:        +89.683434
Potential:      -78.023502
External:        +0.000000
XC:            -232.201451
Entropy (-ST):   -0.142210
Local:           -0.086351
--------------------------
Free energy:   -220.770079
Extrapolated:  -220.698974

Dipole-layer corrected work functions: 3.392048, 3.263078 eV

Showing only first 2 kpts
 Kpt  Band  Eigenvalues  Occupancy
  0    20     -3.51522    1.95419
  0    21     -3.43896    1.80545
  0    22     -3.26151    0.42129
  0    23     -3.07198    0.01198

  1    20     -3.58618    1.98872
  1    21     -3.32393    0.96369
  1    22     -3.25551    0.38278
  1    23     -3.09527    0.01902


Fermi level: -3.32756

No gap

Forces in eV/Ang:
  0 Li    0.00895    0.00883   -0.25477
  1 Li   -0.01953   -0.00397   -0.26960
  2 Li   -0.00390   -0.00435   -0.27288
  3 Li   -0.00321   -0.02089   -0.26616
  4 Li    0.00489    0.00373   -0.29959
  5 Li   -0.02191    0.00581   -0.27237
  6 Li   -0.00545   -0.00568   -0.27209
  7 Li    0.00619   -0.02205   -0.27249
  8 Li   -0.00769   -0.00758   -0.28606
  9 Li    0.04703    0.04174    0.30644
 10 Li   -0.07526    0.02138    0.25685
 11 Li    0.03363   -0.03305    0.26482
 12 Li    0.01851   -0.06283    0.23501
 13 Li    0.07025    0.07824    0.17926
 14 Li    0.00763   -0.01378    0.29263
 15 Li   -0.03496    0.03228    0.24444
 16 Li   -0.01371    0.01826    0.28344
 17 Li    0.07598    0.07832    0.31166
 18 Li   -0.00705   -0.01999   -0.02263
 19 Li    0.00163   -0.00321    0.00856
 20 Li    0.00836   -0.00179    0.00870
 21 Li    0.00645   -0.00468    0.01306
 22 Li   -0.00700   -0.01469    0.00816
 23 Li   -0.00413    0.00689    0.01005
 24 Li   -0.00586    0.01705   -0.00096
 25 Li   -0.00482    0.00136    0.00003
 26 Li   -0.01179   -0.01479    0.00918
 27 Li    0.00252    0.00977    0.00105
 28 Li    0.01466   -0.02214   -0.00198
 29 Li   -0.01652   -0.00037    0.01229
 30 Li    0.00629   -0.04522    0.01670
 31 Li   -0.00861    0.00066    0.01267
 32 Li    0.01078   -0.00579    0.01040
 33 Li   -0.01202   -0.02504   -0.01359
 34 Li    0.01065   -0.00253    0.00122
 35 Li    0.01094    0.00138    0.00206
 36 F     0.02755    0.05616   -0.04532
 37 H     0.02692    0.01419    0.04025

System changes: positions 

Initializing position-dependent things.

Density initialized from wave functions
       .-----------------------.  
      /|                       |  
     / |                       |  
    /  |                       |  
   /   |                       |  
  /    |                       |  
 *     |                       |  
 |     |                       |  
 |     |                       |  
 |     |                       |  
 |     |                       |  
 |     |                      Li  
 |     |              Li       |  
 |     |                       |  
 |     |     Li      Li      Li|  
 |     |  Li      Li      Li   |  
 | FLi |    Li     Li          |  
 |     Lii      Li      Li     |  
 |     |                       |  
 |   LLi     LLi     LLi       |  
 |     |  Li      Li      Li   |  
 | Li  |   Li      Li          |  
 |     |Li      Li      Li     |  
 Li    | Li      Li            |  
 |    Li      Li      Li       |  
 |     |                       |  
 |     |                       |  
 |     |                       |  
 |     |                       |  
 |     |                       |  
 |     |                       |  
 |     .-----------------------.  
 |    /                       /   
 |   /                       /    
 |  /                       /     
 | /                       /      
 |/                       /       
 *-----------------------*        

Positions:
   0 Li     1.617037    1.617037   10.000000    ( 0.0000,  0.0000,  0.0000)
   1 Li     4.851111    1.617037   10.000000    ( 0.0000,  0.0000,  0.0000)
   2 Li     8.085185    1.617037   10.000000    ( 0.0000,  0.0000,  0.0000)
   3 Li     1.617037    4.851111   10.000000    ( 0.0000,  0.0000,  0.0000)
   4 Li     4.851111    4.851111   10.000000    ( 0.0000,  0.0000,  0.0000)
   5 Li     8.085185    4.851111   10.000000    ( 0.0000,  0.0000,  0.0000)
   6 Li     1.617037    8.085185   10.000000    ( 0.0000,  0.0000,  0.0000)
   7 Li     4.851111    8.085185   10.000000    ( 0.0000,  0.0000,  0.0000)
   8 Li     8.085185    8.085185   10.000000    ( 0.0000,  0.0000,  0.0000)
   9 Li     0.000000    0.000000   11.617037    ( 0.0000,  0.0000,  0.0000)
  10 Li     3.234074    0.000000   11.617037    ( 0.0000,  0.0000,  0.0000)
  11 Li     6.468148    0.000000   11.617037    ( 0.0000,  0.0000,  0.0000)
  12 Li     0.000000    3.234074   11.617037    ( 0.0000,  0.0000,  0.0000)
  13 Li     3.234074    3.234074   11.617037    ( 0.0000,  0.0000,  0.0000)
  14 Li     6.468148    3.234074   11.617037    ( 0.0000,  0.0000,  0.0000)
  15 Li     0.000000    6.468148   11.617037    ( 0.0000,  0.0000,  0.0000)
  16 Li     3.234074    6.468148   11.617037    ( 0.0000,  0.0000,  0.0000)
  17 Li     6.468148    6.468148   11.617037    ( 0.0000,  0.0000,  0.0000)
  18 Li     1.707322    1.740478   13.519722    ( 0.0000,  0.0000,  0.0000)
  19 Li     4.904430    1.635520   13.447907    ( 0.0000,  0.0000,  0.0000)
  20 Li     8.101450    1.530603   13.545679    ( 0.0000,  0.0000,  0.0000)
  21 Li     1.626026    4.923725   13.441166    ( 0.0000,  0.0000,  0.0000)
  22 Li     4.927178    4.945727   13.450880    ( 0.0000,  0.0000,  0.0000)
  23 Li     8.171227    4.766112   13.469571    ( 0.0000,  0.0000,  0.0000)
  24 Li     1.529674    8.087668   13.542824    ( 0.0000,  0.0000,  0.0000)
  25 Li     4.770666    8.172476   13.479610    ( 0.0000,  0.0000,  0.0000)
  26 Li     8.102566    8.085920   13.587557    ( 0.0000,  0.0000,  0.0000)
  27 Li    -0.329979   -0.426243   16.078677    ( 0.0000,  0.0000,  0.0000)
  28 Li     2.445096    0.509980   15.943657    ( 0.0000,  0.0000,  0.0000)
  29 Li     6.220666   -0.016848   15.451293    ( 0.0000,  0.0000,  0.0000)
  30 Li     0.503958    2.377865   15.986293    ( 0.0000,  0.0000,  0.0000)
  31 Li     3.394387    3.414371   15.242992    ( 0.0000,  0.0000,  0.0000)
  32 Li     6.605096    3.299044   15.408074    ( 0.0000,  0.0000,  0.0000)
  33 Li    -0.027271    6.167602   15.482120    ( 0.0000,  0.0000,  0.0000)
  34 Li     3.268771    6.625716   15.425272    ( 0.0000,  0.0000,  0.0000)
  35 Li     6.485406    6.502646   15.433667    ( 0.0000,  0.0000,  0.0000)
  36 F      0.824123    0.734202   16.786380    ( 0.0000,  0.0000,  0.0000)
  37 H      2.167339    2.190469   15.194714    ( 0.0000,  0.0000,  0.0000)

Unit cell:
           periodic     x           y           z      points  spacing
  1. axis:    yes    9.702222    0.000000    0.000000    60     0.1617
  2. axis:    yes    0.000000    9.702222    0.000000    60     0.1617
  3. axis:    no     0.000000    0.000000   24.851111   156     0.1593

  Lengths:   9.702222   9.702222  24.851111
  Angles:   90.000000  90.000000  90.000000

Effective grid spacing dv^(1/3) = 0.1609

     iter     time        total  log10-change:
                         energy  eigst   dens
iter:   1 12:01:47  -220.709791  -1.84
iter:   2 12:02:22  -220.701333  -2.61  -1.95
iter:   3 12:02:57  -220.700685c -3.36  -2.51
iter:   4 12:03:32  -220.699586c -3.17  -2.67
Writing to output.gpw (mode='')

iter:   5 12:04:07  -220.699855c -3.98  -3.04
iter:   6 12:04:42  -220.699674c -3.65  -2.98
iter:   7 12:05:18  -220.699514c -3.25  -3.17
iter:   8 12:05:53  -220.699675c -4.30  -3.31
iter:   9 12:06:27  -220.699694c -4.45  -3.60
Writing to output.gpw (mode='')

iter:  10 12:07:03  -220.699650c -4.49  -3.60
iter:  11 12:07:38  -220.699654c -4.95  -3.66
iter:  12 12:08:13  -220.699650c -5.07  -3.79
iter:  13 12:08:48  -220.699650c -5.29  -3.87
iter:  14 12:09:23  -220.699655c -5.33  -4.05c
Writing to output.gpw (mode='')

iter:  15 12:09:59  -220.699664c -5.49  -4.16c
iter:  16 12:10:34  -220.699664c -5.80  -4.21c
iter:  17 12:11:09  -220.699669c -5.85  -4.23c
iter:  18 12:11:44  -220.699671c -6.17  -4.33c
iter:  19 12:12:19  -220.699667c -6.22  -4.38c
Writing to output.gpw (mode='')

iter:  20 12:12:55  -220.699664c -6.36  -4.47c
iter:  21 12:13:30  -220.699666c -6.70  -4.70c
iter:  22 12:14:05  -220.699663c -6.66  -4.75c
iter:  23 12:14:40  -220.699663c -6.91  -4.98c
iter:  24 12:15:15  -220.699664c -7.05  -5.06c
Writing to output.gpw (mode='')

iter:  25 12:15:51  -220.699665c -7.07  -5.12c
iter:  26 12:16:26  -220.699665c -7.16  -5.23c
iter:  27 12:17:01  -220.699665c -7.20  -5.27c
iter:  28 12:17:36  -220.699666c -7.35  -5.29c
iter:  29 12:18:11  -220.699665c -7.51c -5.38c

Converged after 29 iterations.

Dipole moment: (-1.310246, -1.707783, 0.069424) |e|*Ang

Energy contributions relative to reference atoms: (reference = -10026.932476)

Kinetic:        +89.729368
Potential:      -78.061226
External:        +0.000000
XC:            -232.210896
Entropy (-ST):   -0.142572
Local:           -0.085625
--------------------------
Free energy:   -220.770951
Extrapolated:  -220.699665

Dipole-layer corrected work functions: 3.391723, 3.258267 eV

Showing only first 2 kpts
 Kpt  Band  Eigenvalues  Occupancy
  0    20     -3.51181    1.95343
  0    21     -3.43549    1.80227
  0    22     -3.25961    0.42572
  0    23     -3.06935    0.01196

  1    20     -3.58379    1.98876
  1    21     -3.32137    0.96377
  1    22     -3.25358    0.38670
  1    23     -3.09288    0.01909


Fermi level: -3.32499

No gap
Writing to output.gpw (mode='')


Forces in eV/Ang:
  0 Li    0.00898    0.00879   -0.25536
  1 Li   -0.01926   -0.00399   -0.27004
  2 Li   -0.00388   -0.00407   -0.27290
  3 Li   -0.00336   -0.02060   -0.26654
  4 Li    0.00487    0.00372   -0.29941
  5 Li   -0.02182    0.00586   -0.27261
  6 Li   -0.00538   -0.00582   -0.27198
  7 Li    0.00620   -0.02178   -0.27239
  8 Li   -0.00766   -0.00761   -0.28633
  9 Li    0.04598    0.04288    0.30806
 10 Li   -0.07663    0.02327    0.25948
 11 Li    0.03438   -0.03307    0.26567
 12 Li    0.01936   -0.06456    0.23770
 13 Li    0.06876    0.07572    0.18202
 14 Li    0.00791   -0.01411    0.29334
 15 Li   -0.03643    0.03137    0.24484
 16 Li   -0.01184    0.01805    0.28237
 17 Li    0.07583    0.07687    0.31284
 18 Li   -0.00598   -0.01746   -0.03608
 19 Li    0.00393   -0.00479    0.00810
 20 Li    0.00804   -0.00138    0.00550
 21 Li    0.00522   -0.00651    0.01255
 22 Li   -0.00430   -0.01240    0.00402
 23 Li   -0.00626    0.00664    0.00749
 24 Li   -0.00450    0.01730    0.00146
 25 Li   -0.00549    0.00198    0.00162
 26 Li   -0.01226   -0.01435    0.00530
 27 Li   -0.00125    0.01014   -0.00394
 28 Li    0.01663   -0.01465   -0.00444
 29 Li   -0.01493   -0.00152    0.01085
 30 Li    0.00319   -0.03287    0.00836
 31 Li   -0.00403    0.00698    0.01964
 32 Li    0.00798   -0.00557    0.00814
 33 Li   -0.01246   -0.02253   -0.01056
 34 Li    0.01156   -0.00316   -0.00004
 35 Li    0.01131    0.00147    0.00395
 36 F     0.02419    0.01967   -0.03771
 37 H     0.02420    0.00662    0.03645

Timing:                                      incl.     excl.
-------------------------------------------------------------------
Density initialized from wave functions:    20.547    20.546   0.1% |
 Symmetrize density:                         0.001     0.001   0.0% |
Forces:                                     84.842    84.842   0.3% |
Hamiltonian:                               464.895     0.006   0.0% |
 Atomic:                                     2.220     0.028   0.0% |
  XC Correction:                             2.192     2.192   0.0% |
 Calculate atomic Hamiltonians:              1.880     1.880   0.0% |
 Communicate:                                3.529     3.529   0.0% |
 Hartree integrate/restrict:                 1.611     1.611   0.0% |
 Poisson:                                   47.435    22.310   0.1% |
  Communicate from 1D:                       2.730     2.730   0.0% |
  Communicate from 2D:                       4.676     4.676   0.0% |
  Communicate to 1D:                         1.184     1.184   0.0% |
  Communicate to 2D:                         4.726     4.726   0.0% |
  FFT 1D:                                    4.960     4.960   0.0% |
  FFT 2D:                                    6.848     6.848   0.0% |
 XC 3D grid:                               407.747   120.740   0.4% |
  VdW-DF integral:                         287.007     3.726   0.0% |
   Convolution:                             53.190    53.190   0.2% |
   FFT:                                     16.784    16.784   0.1% |
   gather:                                  75.651    75.651   0.3% |
   hmm1:                                    10.777    10.777   0.0% |
   hmm2:                                    16.781    16.781   0.1% |
   iFFT:                                    16.190    16.190   0.1% |
   potential:                               85.243     2.289   0.0% |
    collect:                                 7.914     7.914   0.0% |
    p1:                                     35.926    35.926   0.1% |
    p2:                                     23.628    23.628   0.1% |
    sum:                                    15.486    15.486   0.1% |
   splines:                                  8.665     8.665   0.0% |
 vbar:                                       0.468     0.468   0.0% |
LCAO initialization:                         5.826     0.160   0.0% |
 LCAO eigensolver:                           2.042     0.000   0.0% |
  Calculate projections:                     0.000     0.000   0.0% |
  DenseAtomicCorrection:                     0.000     0.000   0.0% |
  Distribute overlap matrix:                 1.966     1.966   0.0% |
  Orbital Layouts:                           0.027     0.027   0.0% |
  Potential matrix:                          0.047     0.047   0.0% |
  Sum over cells:                            0.002     0.002   0.0% |
 LCAO to grid:                               2.607     2.607   0.0% |
 Set positions (LCAO WFS):                   1.017     0.784   0.0% |
  Basic WFS set positions:                   0.003     0.003   0.0% |
  Basis functions set positions:             0.001     0.001   0.0% |
  P tci:                                     0.000     0.000   0.0% |
  ST tci:                                    0.145     0.145   0.0% |
  mktci:                                     0.083     0.083   0.0% |
Redistribute:                                0.026     0.026   0.0% |
SCF-cycle:                               27421.295   672.778   2.4% ||
 Davidson:                               10580.256  4028.895  14.3% |-----|
  Apply hamiltonian:                       646.956   646.956   2.3% ||
  Subspace diag:                          1714.138     0.149   0.0% |
   calc_h_matrix:                         1023.554   298.272   1.1% |
    Apply hamiltonian:                     725.282   725.282   2.6% ||
   diagonalize:                             15.603    15.603   0.1% |
   rotate_psi:                             674.832   674.832   2.4% ||
  calc. matrices:                         3091.144  1941.580   6.9% |--|
   Apply hamiltonian:                     1149.564  1149.564   4.1% |-|
  diagonalize:                               4.767     4.767   0.0% |
  rotate_psi:                             1094.358  1094.358   3.9% |-|
 Density:                                  220.039     0.053   0.0% |
  Atomic density matrices:                   5.739     5.739   0.0% |
  Mix:                                     135.347   135.347   0.5% |
  Multipole moments:                         1.273     1.273   0.0% |
  Pseudo density:                           77.626    77.587   0.3% |
   Symmetrize density:                       0.039     0.039   0.0% |
 Hamiltonian:                            15926.846     0.219   0.0% |
  Atomic:                                   77.403     1.020   0.0% |
   XC Correction:                           76.384    76.384   0.3% |
  Calculate atomic Hamiltonians:            67.575    67.575   0.2% |
  Communicate:                             129.718   129.718   0.5% |
  Hartree integrate/restrict:               55.687    55.687   0.2% |
  Poisson:                                1650.694   777.050   2.8% ||
   Communicate from 1D:                     99.768    99.768   0.4% |
   Communicate from 2D:                    163.515   163.515   0.6% |
   Communicate to 1D:                       39.797    39.797   0.1% |
   Communicate to 2D:                      164.681   164.681   0.6% |
   FFT 1D:                                 173.126   173.126   0.6% |
   FFT 2D:                                 232.756   232.756   0.8% |
  XC 3D grid:                            13929.399  4201.031  14.9% |-----|
   VdW-DF integral:                       9728.368   130.181   0.5% |
    Convolution:                          1840.182  1840.182   6.5% |--|
    FFT:                                   592.274   592.274   2.1% ||
    gather:                               2666.672  2666.672   9.5% |---|
    hmm1:                                  374.062   374.062   1.3% ||
    hmm2:                                  586.749   586.749   2.1% ||
    iFFT:                                  553.320   553.320   2.0% ||
    potential:                            2984.917    81.069   0.3% |
     collect:                              288.154   288.154   1.0% |
     p1:                                  1253.751  1253.751   4.4% |-|
     p2:                                   820.089   820.089   2.9% ||
     sum:                                  541.854   541.854   1.9% ||
    splines:                                 0.012     0.012   0.0% |
  vbar:                                     16.151    16.151   0.1% |
 Orthonormalize:                            21.377     0.007   0.0% |
  calc_s_matrix:                             4.241     4.241   0.0% |
  inverse-cholesky:                          0.133     0.133   0.0% |
  projections:                               5.871     5.871   0.0% |
  rotate_psi_s:                             11.126    11.126   0.0% |
Set symmetry:                                0.003     0.003   0.0% |
Other:                                     194.466   194.466   0.7% |
-------------------------------------------------------------------
Total:                                             28191.900 100.0%

Memory usage: 1.44 GiB
Date: Sat Mar  4 12:18:21 2023
