
  ___ ___ ___ _ _ _  
 |   |   |_  | | | | 
 | | | | | . | | | | 
 |__ |  _|___|_____|  22.8.0
 |___|_|             

User:   vazumah@r094.ib.bridges2.psc.edu
Date:   Fri Mar 10 11:09:48 2023
Arch:   x86_64
Pid:    86801
CWD:    /jet/home/vazumah/Calcs/LiMEAS/proton_donors/methanol_y/bridge/8.085_1.617/N2_x
Python: 3.11.0
gpaw:   /jet/home/vazumah/.conda/envs/GPAW_mpich/lib/python3.11/site-packages/gpaw
_gpaw:  /jet/home/vazumah/.conda/envs/GPAW_mpich/lib/python3.11/site-packages/
        _gpaw.cpython-311-x86_64-linux-gnu.so
ase:    /jet/home/vazumah/.conda/envs/GPAW_mpich/lib/python3.11/site-packages/ase (version 3.22.1)
numpy:  /jet/home/vazumah/.conda/envs/GPAW_mpich/lib/python3.11/site-packages/numpy (version 1.24.2)
scipy:  /jet/home/vazumah/.conda/envs/GPAW_mpich/lib/python3.11/site-packages/scipy (version 1.10.1)
libxc:  5.2.3
units:  Angstrom and eV
cores: 128
OpenMP: True
OMP_NUM_THREADS: 1

Input parameters:
  h: 0.16
  kpts: {size: [4, 4, 1]}
  occupations: {name: fermi-dirac,
                width: 0.05}
  poissonsolver: {dipolelayer: xy}
  xc: BEEF-vdW

System changes: positions, numbers, cell, pbc, initial_charges, initial_magmoms 

Initialize ...

species:
  Li:
    name: Lithium
    id: 830b4218f175192f93f959cfc0aad614
    Z: 3.0
    valence: 1
    core: 2
    charge: 0.0
    file: /jet/home/vazumah/datasets/gpaw-setups-0.9.20000/Li.PBE.gz
    compensation charges: {type: gauss,
                           rc: 0.33,
                           lmax: 2}
    cutoffs: {filter: 1.91,
              core: 2.55}
    valence states:
      #              energy  rcut
      - 2s(1.00)    -2.874   1.058
      - 2p(0.00)    -1.090   1.058
      -  s          24.337   1.058
  
    # Using partial waves for Li as LCAO basis

  O:
    name: Oxygen
    id: 32ecd46bf208036f09c70b0ec9a88b78
    Z: 8.0
    valence: 6
    core: 2
    charge: 0.0
    file: /jet/home/vazumah/datasets/gpaw-setups-0.9.20000/O.PBE.gz
    compensation charges: {type: gauss,
                           rc: 0.21,
                           lmax: 2}
    cutoffs: {filter: 1.17,
              core: 0.83}
    valence states:
      #              energy  rcut
      - 2s(2.00)   -23.961   0.688
      - 2p(4.00)    -9.029   0.598
      -  s           3.251   0.688
      -  p          18.182   0.598
      -  d           0.000   0.619
  
    # Using partial waves for O as LCAO basis

  C:
    name: Carbon
    id: 4aa54d4b901d75f77cc0ea3eec22967b
    Z: 6.0
    valence: 4
    core: 2
    charge: 0.0
    file: /jet/home/vazumah/datasets/gpaw-setups-0.9.20000/C.PBE.gz
    compensation charges: {type: gauss,
                           rc: 0.20,
                           lmax: 2}
    cutoffs: {filter: 1.14,
              core: 1.14}
    valence states:
      #              energy  rcut
      - 2s(2.00)   -13.751   0.635
      - 2p(2.00)    -5.284   0.635
      -  s          13.461   0.635
      -  p          21.927   0.635
      -  d           0.000   0.635
  
    # Using partial waves for C as LCAO basis

  H:
    name: Hydrogen
    id: d65de229564ff8ea4db303e23b6d1ecf
    Z: 1.0
    valence: 1
    core: 0
    charge: 0.0
    file: /jet/home/vazumah/datasets/gpaw-setups-0.9.20000/H.PBE.gz
    compensation charges: {type: gauss,
                           rc: 0.15,
                           lmax: 2}
    cutoffs: {filter: 0.85,
              core: 0.53}
    valence states:
      #              energy  rcut
      - 1s(1.00)    -6.494   0.476
      -  s          20.717   0.476
      -  p           0.000   0.476
  
    # Using partial waves for H as LCAO basis

  N:
    name: Nitrogen
    id: f7500608b86eaa90eef8b1d9a670dc53
    Z: 7.0
    valence: 5
    core: 2
    charge: 0.0
    file: /jet/home/vazumah/datasets/gpaw-setups-0.9.20000/N.PBE.gz
    compensation charges: {type: gauss,
                           rc: 0.18,
                           lmax: 2}
    cutoffs: {filter: 1.11,
              core: 0.96}
    valence states:
      #              energy  rcut
      - 2s(2.00)   -18.583   0.603
      - 2p(3.00)    -7.089   0.529
      -  s           8.629   0.603
      -  p          20.123   0.529
      -  d           0.000   0.577
  
    # Using partial waves for N as LCAO basis

Reference energy: -13382.245603  # eV

Spin-paired calculation

Convergence criteria:
 Maximum [total energy] change in last 3 cyles: 0.0005 eV / electron
 Maximum integral of absolute [dens]ity change: 0.0001 electrons / valence electron
 Maximum integral of absolute [eigenst]ate change: 4e-08 eV^2 / valence electron
 Maximum number of scf [iter]ations: 333
 (Square brackets indicate name in SCF output, whereas a 'c' in
 the SCF output indicates the quantity has converged.)

Symmetries present (total): 1

  ( 1  0  0)
  ( 0  1  0)
  ( 0  0  1)

16 k-points: 4 x 4 x 1 Monkhorst-Pack grid
8 k-points in the irreducible part of the Brillouin zone
       k-points in crystal coordinates                weights
   0:     0.12500000   -0.37500000    0.00000000          2/16
   1:     0.12500000   -0.12500000    0.00000000          2/16
   2:     0.12500000    0.12500000    0.00000000          2/16
   3:     0.12500000    0.37500000    0.00000000          2/16
   4:     0.37500000   -0.37500000    0.00000000          2/16
   5:     0.37500000   -0.12500000    0.00000000          2/16
   6:     0.37500000    0.12500000    0.00000000          2/16
   7:     0.37500000    0.37500000    0.00000000          2/16

Wave functions: Uniform real-space grid
  Kinetic energy operator: 6*3+1=19 point O(h^6) finite-difference Laplacian
  ScaLapack parameters: grid=1x1, blocksize=None
  Wavefunction extrapolation:
    Improved wavefunction reuse through dual PAW basis 

Occupation numbers: Fermi-Dirac:
  width: 0.0500  # eV
 

Eigensolver
   Davidson(niter=2) 

Densities:
  Coarse grid: 60*60*168 grid
  Fine grid: 120*120*336 grid
  Total Charge: 0.000000 

Density mixing:
  Method: separate
  Backend: pulay
  Linear mixing parameter: 0.05
  old densities: 5
  Damping of long wavelength oscillations: 50 

Hamiltonian:
  XC and Coulomb potentials evaluated on a 120*120*336 grid
  Using the BEEF-vdW Exchange-Correlation functional
  Interpolation: tri-quintic (5. degree polynomial)
  Poisson solver: FastPoissonSolver using
    Stencil: 6*3+1=19 point O(h^6) finite-difference Laplacian
    FFT axes: [0, 1]
    FST axes: [2]

Dipole correction along z-axis 

XC parameters: BEEF-vdW with 2 nearest neighbor stencil

Memory estimate:
  Process memory now: 129.45 MiB
  Calculator: 77.36 MiB
    Density: 22.77 MiB
      Arrays: 7.40 MiB
      Localized functions: 12.55 MiB
      Mixer: 2.82 MiB
    Hamiltonian: 5.83 MiB
      Arrays: 4.84 MiB
      XC: 0.00 MiB
      Poisson: 0.00 MiB
      vbar: 0.99 MiB
    Wavefunctions: 48.76 MiB
      Arrays psit_nG: 22.52 MiB
      Eigensolver: 25.58 MiB
      Projections: 0.01 MiB
      Projectors: 0.64 MiB

Total number of cores used: 128
Parallelization over k-points: 8
Domain decomposition: 2 x 2 x 4

Number of atoms: 44
Number of atomic orbitals: 164
Number of bands in calculation: 40
Number of valence electrons: 60
Bands to converge: occupied

... initialized

Initializing position-dependent things.

Density initialized from atomic densities
Creating initial wave functions:
  40 bands from LCAO basis set

       .-----------------------.  
      /|                       |  
     / |                       |  
    /  |                       |  
   /   |                       |  
  /    |                       |  
 *     |                       |  
 |     |                       |  
 |     |                       |  
 |     |                  H    |  
 |     |                       |  
 |     |                 H   H |  
 |     |                       |  
 |     |                       |  
 |     |                       |  
 |     |            H O        |  
 |   Li|     Li      Ci        |  
 |     |  Li      LN  N   Li   |  
 | Li  |   Li      Li          |  
 |     |Li      Li      Li     |  
 Li    | Li      Li            |  
 |   LLi     LLi     LLi       |  
 |     |  Li      Li      Li   |  
 | Li  |   Li      Li          |  
 |     |Li      Li      Li     |  
 Li    | Li      Li            |  
 |    Li      Li      Li       |  
 |     |                       |  
 |     |                       |  
 |     |                       |  
 |     |                       |  
 |     |                       |  
 |     |                       |  
 |     .-----------------------.  
 |    /                       /   
 |   /                       /    
 |  /                       /     
 | /                       /      
 |/                       /       
 *-----------------------*        

Positions:
   0 Li     1.617037    1.617037   10.000000    ( 0.0000,  0.0000,  0.0000)
   1 Li     4.851111    1.617037   10.000000    ( 0.0000,  0.0000,  0.0000)
   2 Li     8.085185    1.617037   10.000000    ( 0.0000,  0.0000,  0.0000)
   3 Li     1.617037    4.851111   10.000000    ( 0.0000,  0.0000,  0.0000)
   4 Li     4.851111    4.851111   10.000000    ( 0.0000,  0.0000,  0.0000)
   5 Li     8.085185    4.851111   10.000000    ( 0.0000,  0.0000,  0.0000)
   6 Li     1.617037    8.085185   10.000000    ( 0.0000,  0.0000,  0.0000)
   7 Li     4.851111    8.085185   10.000000    ( 0.0000,  0.0000,  0.0000)
   8 Li     8.085185    8.085185   10.000000    ( 0.0000,  0.0000,  0.0000)
   9 Li     0.000000    0.000000   11.617037    ( 0.0000,  0.0000,  0.0000)
  10 Li     3.234074    0.000000   11.617037    ( 0.0000,  0.0000,  0.0000)
  11 Li     6.468148    0.000000   11.617037    ( 0.0000,  0.0000,  0.0000)
  12 Li     0.000000    3.234074   11.617037    ( 0.0000,  0.0000,  0.0000)
  13 Li     3.234074    3.234074   11.617037    ( 0.0000,  0.0000,  0.0000)
  14 Li     6.468148    3.234074   11.617037    ( 0.0000,  0.0000,  0.0000)
  15 Li     0.000000    6.468148   11.617037    ( 0.0000,  0.0000,  0.0000)
  16 Li     3.234074    6.468148   11.617037    ( 0.0000,  0.0000,  0.0000)
  17 Li     6.468148    6.468148   11.617037    ( 0.0000,  0.0000,  0.0000)
  18 Li     1.617038    1.617038   13.469728    ( 0.0000,  0.0000,  0.0000)
  19 Li     4.851111    1.617038   13.469729    ( 0.0000,  0.0000,  0.0000)
  20 Li     8.085184    1.617038   13.469728    ( 0.0000,  0.0000,  0.0000)
  21 Li     1.617038    4.851111   13.469729    ( 0.0000,  0.0000,  0.0000)
  22 Li     4.851111    4.851111   13.469730    ( 0.0000,  0.0000,  0.0000)
  23 Li     8.085184    4.851111   13.469729    ( 0.0000,  0.0000,  0.0000)
  24 Li     1.617038    8.085184   13.469728    ( 0.0000,  0.0000,  0.0000)
  25 Li     4.851111    8.085184   13.469729    ( 0.0000,  0.0000,  0.0000)
  26 Li     8.085184    8.085184   13.469728    ( 0.0000,  0.0000,  0.0000)
  27 Li    -0.000000   -0.000000   15.445939    ( 0.0000,  0.0000,  0.0000)
  28 Li     3.234074    0.000000   15.445939    ( 0.0000,  0.0000,  0.0000)
  29 Li     6.468148    0.000000   15.445939    ( 0.0000,  0.0000,  0.0000)
  30 Li     0.000000    3.234074   15.445939    ( 0.0000,  0.0000,  0.0000)
  31 Li     3.234076    3.234076   15.445938    ( 0.0000,  0.0000,  0.0000)
  32 Li     6.468146    3.234076   15.445938    ( 0.0000,  0.0000,  0.0000)
  33 Li     0.000000    6.468148   15.445939    ( 0.0000,  0.0000,  0.0000)
  34 Li     3.234076    6.468146   15.445938    ( 0.0000,  0.0000,  0.0000)
  35 Li     6.468146    6.468146   15.445938    ( 0.0000,  0.0000,  0.0000)
  36 O      8.085185    1.617037   18.445939    ( 0.0000,  0.0000,  0.0000)
  37 C      8.070112    0.187074   18.451439    ( 0.0000,  0.0000,  0.0000)
  38 H      7.320158   -0.217197   17.764289    ( 0.0000,  0.0000,  0.0000)
  39 H      7.891702   -0.216438   19.453228    ( 0.0000,  0.0000,  0.0000)
  40 H      9.055826   -0.132369   18.118510    ( 0.0000,  0.0000,  0.0000)
  41 H      7.222056    1.928692   18.736944    ( 0.0000,  0.0000,  0.0000)
  42 N      8.085000    1.617000   17.195939    ( 0.0000,  0.0000,  0.0000)
  43 N      6.988378    1.617000   17.195939    ( 0.0000,  0.0000,  0.0000)

Unit cell:
           periodic     x           y           z      points  spacing
  1. axis:    yes    9.702222    0.000000    0.000000    60     0.1617
  2. axis:    yes    0.000000    9.702222    0.000000    60     0.1617
  3. axis:    no     0.000000    0.000000   26.601111   168     0.1583

  Lengths:   9.702222   9.702222  26.601111
  Angles:   90.000000  90.000000  90.000000

Effective grid spacing dv^(1/3) = 0.1606

     iter     time        total  log10-change:
                         energy  eigst   dens
iter:   1 11:10:02  -447.507444
iter:   2 11:10:10  -143.437427  +2.37  -0.08
iter:   3 11:10:17  -160.688016  +3.36  -0.22
iter:   4 11:10:24  -196.267792  +2.79  -0.21
Writing to output.gpw (mode='')

iter:   5 11:10:31  -245.050107  +2.75  -0.34
iter:   6 11:10:38  -262.412903  +2.46  -0.42
iter:   7 11:10:45  -280.364142  +2.69  -0.44
iter:   8 11:10:52  -305.643680  +2.31  -0.61
iter:   9 11:10:59  -290.125517  +1.76  -0.54
Writing to output.gpw (mode='')

iter:  10 11:11:06  -296.813921  +1.67  -0.60
iter:  11 11:11:13  -325.538460  +2.03  -0.52
iter:  12 11:11:20  -357.676481  +2.23  -0.43
iter:  13 11:11:27  -339.633688  +1.67  -0.42
iter:  14 11:11:34  -280.675110  +1.58  -0.42
Writing to output.gpw (mode='')

iter:  15 11:11:41  -275.738384  +1.20  -0.61
iter:  16 11:11:48  -278.662870  +1.23  -0.75
iter:  17 11:11:55  -277.057949  +0.76  -0.73
iter:  18 11:12:03  -275.370643  +0.94  -0.77
iter:  19 11:12:10  -272.843185  +0.07  -0.81
Writing to output.gpw (mode='')

iter:  20 11:12:17  -272.546801  +0.27  -0.95
iter:  21 11:12:24  -272.619595  +0.09  -1.04
iter:  22 11:12:31  -272.147650  -0.26  -1.05
iter:  23 11:12:38  -272.089254  +0.25  -1.17
iter:  24 11:12:45  -272.063483  -0.35  -1.43
Writing to output.gpw (mode='')

iter:  25 11:12:52  -272.061522c -0.43  -1.48
iter:  26 11:12:59  -272.105063  -0.64  -1.54
iter:  27 11:13:06  -272.081442  -0.96  -1.55
iter:  28 11:13:18  -272.095787c -0.95  -1.62
iter:  29 11:13:27  -272.083249c -0.78  -1.66
Writing to output.gpw (mode='')

iter:  30 11:13:34  -272.090428c -1.24  -1.85
iter:  31 11:13:41  -272.090645c -1.44  -1.84
iter:  32 11:13:48  -272.087025c -1.37  -1.85
iter:  33 11:13:55  -272.098991c -1.44  -1.89
iter:  34 11:14:02  -272.088854c -1.89  -1.80
Writing to output.gpw (mode='')

iter:  35 11:14:09  -272.093915c -1.97  -1.86
iter:  36 11:14:16  -272.084994c -1.73  -1.84
iter:  37 11:14:23  -272.081527c -1.76  -1.95
iter:  38 11:14:30  -272.080504c -1.38  -2.03
iter:  39 11:14:37  -272.078730c -1.88  -2.07
Writing to output.gpw (mode='')

iter:  40 11:14:44  -272.077496c -1.80  -2.15
iter:  41 11:14:51  -272.079393c -2.09  -2.18
iter:  42 11:14:58  -272.078528c -2.12  -2.35
iter:  43 11:15:05  -272.077052c -2.35  -2.51
iter:  44 11:15:12  -272.077623c -2.67  -2.70
Writing to output.gpw (mode='')

iter:  45 11:15:20  -272.077757c -2.71  -2.77
iter:  46 11:15:27  -272.077913c -2.77  -2.85
iter:  47 11:15:34  -272.078092c -2.87  -2.91
iter:  48 11:15:41  -272.078145c -3.08  -3.01
iter:  49 11:15:48  -272.078328c -3.16  -3.03
Writing to output.gpw (mode='')

iter:  50 11:15:55  -272.078360c -2.99  -3.09
iter:  51 11:16:02  -272.078410c -3.29  -3.20
iter:  52 11:16:09  -272.078529c -3.26  -3.28
iter:  53 11:16:16  -272.078594c -3.32  -3.47
iter:  54 11:16:23  -272.078677c -3.40  -3.55
Writing to output.gpw (mode='')

iter:  55 11:16:30  -272.078727c -3.40  -3.61
iter:  56 11:16:37  -272.078777c -3.71  -3.63
iter:  57 11:16:44  -272.078806c -3.75  -3.70
iter:  58 11:16:51  -272.078839c -3.87  -3.81
iter:  59 11:16:58  -272.078856c -3.84  -4.00c
Writing to output.gpw (mode='')

iter:  60 11:17:05  -272.078879c -4.03  -4.14c
iter:  61 11:17:12  -272.078897c -4.05  -4.06c
iter:  62 11:17:19  -272.078911c -4.00  -4.06c
iter:  63 11:17:27  -272.078933c -4.18  -3.95
iter:  64 11:17:34  -272.078945c -4.06  -3.98
Writing to output.gpw (mode='')

iter:  65 11:17:41  -272.078961c -4.08  -3.98
iter:  66 11:17:48  -272.078977c -4.07  -3.99
iter:  67 11:17:55  -272.078985c -4.43  -3.97
iter:  68 11:18:02  -272.078989c -4.33  -3.96
iter:  69 11:18:09  -272.078995c -4.34  -3.96
Writing to output.gpw (mode='')

iter:  70 11:18:22  -272.078995c -4.59  -3.95
iter:  71 11:18:29  -272.078995c -4.59  -3.92
iter:  72 11:18:36  -272.079006c -4.80  -4.00
iter:  73 11:18:43  -272.079010c -4.69  -3.99
iter:  74 11:18:50  -272.078989c -4.72  -3.99
Writing to output.gpw (mode='')

iter:  75 11:18:57  -272.079022c -4.72  -3.98
iter:  76 11:19:04  -272.079007c -4.89  -4.00
iter:  77 11:19:11  -272.079031c -4.80  -4.06c
iter:  78 11:19:18  -272.079019c -4.92  -4.10c
iter:  79 11:19:25  -272.079015c -5.21  -4.22c
Writing to output.gpw (mode='')

iter:  80 11:19:32  -272.079017c -5.02  -4.25c
iter:  81 11:19:39  -272.079013c -5.39  -4.44c
iter:  82 11:19:46  -272.079015c -5.38  -4.57c
iter:  83 11:19:53  -272.079015c -5.29  -4.64c
iter:  84 11:20:00  -272.079017c -5.40  -4.81c
Writing to output.gpw (mode='')

iter:  85 11:20:07  -272.079016c -5.30  -4.82c
iter:  86 11:20:14  -272.079017c -5.46  -4.91c
iter:  87 11:20:21  -272.079019c -5.57  -4.99c
iter:  88 11:20:29  -272.079018c -5.80  -5.28c
iter:  89 11:20:36  -272.079018c -5.81  -5.39c
Writing to output.gpw (mode='')

iter:  90 11:20:43  -272.079018c -5.77  -5.43c
iter:  91 11:20:52  -272.079018c -5.74  -5.49c
iter:  92 11:21:00  -272.079018c -6.00  -5.48c
iter:  93 11:21:07  -272.079018c -6.08  -5.55c
iter:  94 11:21:14  -272.079018c -6.21  -5.76c
Writing to output.gpw (mode='')

iter:  95 11:21:21  -272.079018c -6.11  -5.76c
iter:  96 11:21:28  -272.079018c -6.26  -5.81c
iter:  97 11:21:35  -272.079018c -6.30  -5.75c
iter:  98 11:21:42  -272.079018c -6.34  -5.72c
iter:  99 11:21:49  -272.079018c -6.30  -5.57c
Writing to output.gpw (mode='')

iter: 100 11:21:56  -272.079018c -6.39  -5.55c
iter: 101 11:22:03  -272.079018c -6.32  -5.53c
iter: 102 11:22:10  -272.079018c -6.49  -5.47c
iter: 103 11:22:17  -272.079018c -6.58  -5.47c
iter: 104 11:22:24  -272.079018c -6.54  -5.38c
Writing to output.gpw (mode='')

iter: 105 11:22:31  -272.079018c -6.52  -5.46c
iter: 106 11:22:38  -272.079018c -6.72  -5.38c
iter: 107 11:22:45  -272.079018c -6.68  -5.36c
iter: 108 11:22:52  -272.079018c -6.76  -5.44c
iter: 109 11:23:00  -272.079018c -6.82  -5.26c
Writing to output.gpw (mode='')

iter: 110 11:23:07  -272.079018c -6.77  -5.46c
iter: 111 11:23:18  -272.079018c -6.66  -5.48c
iter: 112 11:23:27  -272.079018c -6.79  -5.41c
iter: 113 11:23:34  -272.079018c -6.79  -5.41c
iter: 114 11:23:41  -272.079018c -6.72  -5.47c
Writing to output.gpw (mode='')

iter: 115 11:23:48  -272.079018c -7.01  -5.62c
iter: 116 11:23:56  -272.079018c -7.08  -5.61c
iter: 117 11:24:03  -272.079017c -7.07  -5.60c
iter: 118 11:24:10  -272.079017c -7.16  -5.64c
iter: 119 11:24:17  -272.079017c -7.12  -5.64c
Writing to output.gpw (mode='')

iter: 120 11:24:24  -272.079017c -7.21  -5.64c
iter: 121 11:24:31  -272.079017c -7.28  -5.63c
iter: 122 11:24:38  -272.079017c -7.24  -5.63c
iter: 123 11:24:45  -272.079017c -7.22  -5.41c
iter: 124 11:24:52  -272.079018c -7.18  -5.53c
Writing to output.gpw (mode='')

iter: 125 11:24:59  -272.079018c -7.13  -5.74c
iter: 126 11:25:06  -272.079018c -7.37  -5.86c
iter: 127 11:25:13  -272.079018c -7.27  -5.91c
iter: 128 11:25:20  -272.079017c -7.30  -6.03c
iter: 129 11:25:28  -272.079017c -7.33  -6.13c
Writing to output.gpw (mode='')

iter: 130 11:25:35  -272.079017c -7.37  -6.17c
iter: 131 11:25:42  -272.079017c -7.45c -6.39c

Converged after 131 iterations.

Dipole moment: (-0.968454, -6.333243, 0.428751) |e|*Ang

Energy contributions relative to reference atoms: (reference = -13382.245603)

Kinetic:       +183.509530
Potential:     -157.185656
External:        +0.000000
XC:            -298.992049
Entropy (-ST):   -0.167237
Local:           +0.672776
--------------------------
Free energy:   -272.162636
Extrapolated:  -272.079017

Dipole-layer corrected work functions: 3.374918, 2.550711 eV

Showing only first 2 kpts
 Kpt  Band  Eigenvalues  Occupancy
  0    28     -3.20959    1.98573
  0    29     -3.07035    1.79148
  0    30     -2.86512    0.24827
  0    31     -2.74065    0.02324

  1    28     -3.00915    1.43283
  1    29     -2.97649    1.13587
  1    30     -2.89725    0.42456
  1    31     -2.87973    0.31909


Fermi level: -2.96281

No gap
Writing to output.gpw (mode='')


Forces in eV/Ang:
  0 Li    0.00742   -0.00078   -0.26622
  1 Li   -0.01567    0.00004   -0.27658
  2 Li    0.00725    0.00050   -0.28278
  3 Li    0.00106   -0.00247   -0.27307
  4 Li    0.00472    0.00874   -0.27592
  5 Li   -0.00430    0.01600   -0.27394
  6 Li    0.00044    0.00312   -0.27193
  7 Li    0.00390   -0.01014   -0.27696
  8 Li   -0.00357   -0.01646   -0.27301
  9 Li    0.00733    0.00194    0.29091
 10 Li   -0.00520    0.00322    0.25255
 11 Li    0.00048    0.00657    0.31048
 12 Li    0.01165   -0.00243    0.28873
 13 Li   -0.00921   -0.00341    0.25229
 14 Li   -0.00126   -0.00315    0.30847
 15 Li   -0.01381   -0.00044    0.24855
 16 Li    0.00476    0.00081    0.28268
 17 Li    0.00559   -0.00288    0.23446
 18 Li    0.00814   -0.00094    0.06090
 19 Li   -0.03975    0.00301   -0.08333
 20 Li    0.01479   -0.00247   -0.19545
 21 Li   -0.01240   -0.00256    0.03759
 22 Li    0.01804   -0.02490    0.05126
 23 Li   -0.00643   -0.01353    0.03692
 24 Li   -0.01454    0.00520    0.04754
 25 Li    0.02330    0.02398    0.05289
 26 Li   -0.01069    0.01678    0.06502
 27 Li    0.12841   -0.01832   -0.14089
 28 Li   -0.06462   -0.04021   -0.02742
 29 Li   -0.13224    0.30999    0.03485
 30 Li    0.08252    0.02651   -0.00142
 31 Li   -0.05316    0.03301   -0.02759
 32 Li   -0.04248   -0.29060    0.23569
 33 Li   -0.02481    0.00894   -0.01999
 34 Li    0.01577    0.00564   -0.00141
 35 Li    0.01008    0.01203   -0.01892
 36 O    12.99043   -1.94917   18.91628
 37 C     0.91574   -4.47941    3.48907
 38 H     0.10699    0.06210    0.67232
 39 H     0.15696    0.27023    0.21461
 40 H     0.11751    0.00254    0.08604
 41 H    -2.17411    0.80889    0.47931
 42 N    10.31695    3.54484   -9.25715
 43 N   -22.33588    1.70379  -14.70855

System changes: positions 

Initializing position-dependent things.

Density initialized from wave functions
       .-----------------------.  
      /|                       |  
     / |                       |  
    /  |                       |  
   /   |                       |  
  /    |                       |  
 *     |                       |  
 |     |                       |  
 |     |                       |  
 |     |                  H    |  
 |     |                       |  
 |     |                 H   H |  
 |     |                       |  
 |     |                       |  
 |     Li      Li              |  
 |     |            H O        |  
 |     |     Li      Ci      Li|  
 |     |  Li      LN  N   Li   |  
 | Li  |   Li      Li          |  
 |     |Li      Li      Li     |  
 |     |         Li            |  
 |   LLi     LLi     LLi       |  
 |     |  Li      Li      Li   |  
 | Li  |   Li      Li          |  
 |     |Li      Li      Li     |  
 Li    | Li      Li            |  
 |    Li      Li      Li       |  
 |     |                       |  
 |     |                       |  
 |     |                       |  
 |     |                       |  
 |     |                       |  
 |     |                       |  
 |     .-----------------------.  
 |    /                       /   
 |   /                       /    
 |  /                       /     
 | /                       /      
 |/                       /       
 *-----------------------*        

Positions:
   0 Li     1.617037    1.617037   10.000000    ( 0.0000,  0.0000,  0.0000)
   1 Li     4.851111    1.617037   10.000000    ( 0.0000,  0.0000,  0.0000)
   2 Li     8.085185    1.617037   10.000000    ( 0.0000,  0.0000,  0.0000)
   3 Li     1.617037    4.851111   10.000000    ( 0.0000,  0.0000,  0.0000)
   4 Li     4.851111    4.851111   10.000000    ( 0.0000,  0.0000,  0.0000)
   5 Li     8.085185    4.851111   10.000000    ( 0.0000,  0.0000,  0.0000)
   6 Li     1.617037    8.085185   10.000000    ( 0.0000,  0.0000,  0.0000)
   7 Li     4.851111    8.085185   10.000000    ( 0.0000,  0.0000,  0.0000)
   8 Li     8.085185    8.085185   10.000000    ( 0.0000,  0.0000,  0.0000)
   9 Li     0.000000    0.000000   11.617037    ( 0.0000,  0.0000,  0.0000)
  10 Li     3.234074    0.000000   11.617037    ( 0.0000,  0.0000,  0.0000)
  11 Li     6.468148    0.000000   11.617037    ( 0.0000,  0.0000,  0.0000)
  12 Li     0.000000    3.234074   11.617037    ( 0.0000,  0.0000,  0.0000)
  13 Li     3.234074    3.234074   11.617037    ( 0.0000,  0.0000,  0.0000)
  14 Li     6.468148    3.234074   11.617037    ( 0.0000,  0.0000,  0.0000)
  15 Li     0.000000    6.468148   11.617037    ( 0.0000,  0.0000,  0.0000)
  16 Li     3.234074    6.468148   11.617037    ( 0.0000,  0.0000,  0.0000)
  17 Li     6.468148    6.468148   11.617037    ( 0.0000,  0.0000,  0.0000)
  18 Li     1.617050    1.617037   13.469819    ( 0.0000,  0.0000,  0.0000)
  19 Li     4.851052    1.617043   13.469605    ( 0.0000,  0.0000,  0.0000)
  20 Li     8.085206    1.617034   13.469436    ( 0.0000,  0.0000,  0.0000)
  21 Li     1.617020    4.851107   13.469786    ( 0.0000,  0.0000,  0.0000)
  22 Li     4.851138    4.851074   13.469807    ( 0.0000,  0.0000,  0.0000)
  23 Li     8.085174    4.851091   13.469785    ( 0.0000,  0.0000,  0.0000)
  24 Li     1.617016    8.085192   13.469799    ( 0.0000,  0.0000,  0.0000)
  25 Li     4.851146    8.085219   13.469808    ( 0.0000,  0.0000,  0.0000)
  26 Li     8.085168    8.085209   13.469825    ( 0.0000,  0.0000,  0.0000)
  27 Li     0.000192   -0.000027   15.445729    ( 0.0000,  0.0000,  0.0000)
  28 Li     3.233977   -0.000060   15.445898    ( 0.0000,  0.0000,  0.0000)
  29 Li     6.467951    0.000463   15.445991    ( 0.0000,  0.0000,  0.0000)
  30 Li     0.000123    3.234113   15.445937    ( 0.0000,  0.0000,  0.0000)
  31 Li     3.233997    3.234126   15.445897    ( 0.0000,  0.0000,  0.0000)
  32 Li     6.468082    3.233643   15.446290    ( 0.0000,  0.0000,  0.0000)
  33 Li    -0.000037    6.468162   15.445909    ( 0.0000,  0.0000,  0.0000)
  34 Li     3.234100    6.468154   15.445936    ( 0.0000,  0.0000,  0.0000)
  35 Li     6.468161    6.468163   15.445910    ( 0.0000,  0.0000,  0.0000)
  36 O      8.104575    1.614127   18.474175    ( 0.0000,  0.0000,  0.0000)
  37 C      8.071478    0.180388   18.456647    ( 0.0000,  0.0000,  0.0000)
  38 H      7.320318   -0.217104   17.765293    ( 0.0000,  0.0000,  0.0000)
  39 H      7.891937   -0.216034   19.453548    ( 0.0000,  0.0000,  0.0000)
  40 H      9.056002   -0.132366   18.118639    ( 0.0000,  0.0000,  0.0000)
  41 H      7.218811    1.929899   18.737660    ( 0.0000,  0.0000,  0.0000)
  42 N      8.100400    1.622291   17.182122    ( 0.0000,  0.0000,  0.0000)
  43 N      6.955039    1.619543   17.173985    ( 0.0000,  0.0000,  0.0000)

Unit cell:
           periodic     x           y           z      points  spacing
  1. axis:    yes    9.702222    0.000000    0.000000    60     0.1617
  2. axis:    yes    0.000000    9.702222    0.000000    60     0.1617
  3. axis:    no     0.000000    0.000000   26.601111   168     0.1583

  Lengths:   9.702222   9.702222  26.601111
  Angles:   90.000000  90.000000  90.000000

Effective grid spacing dv^(1/3) = 0.1606

     iter     time        total  log10-change:
                         energy  eigst   dens
iter:   1 11:25:50  -275.612617  -0.25
iter:   2 11:25:58  -274.496760  -0.06  -1.18
iter:   3 11:26:05  -274.264910  -0.76  -1.20
iter:   4 11:26:12  -274.021748  -0.71  -1.37
Writing to output.gpw (mode='')

iter:   5 11:26:19  -274.000049  -1.80  -1.74
iter:   6 11:26:26  -274.501410  -0.93  -2.00
iter:   7 11:26:33  -273.998119  -1.18  -1.31
iter:   8 11:26:40  -273.977106  -1.26  -1.80
iter:   9 11:26:48  -273.976111c -1.74  -2.28
Writing to output.gpw (mode='')

iter:  10 11:26:55  -273.975864c -1.94  -2.39
iter:  11 11:27:02  -273.976881c -1.94  -2.34
iter:  12 11:27:09  -273.976877c -2.43  -2.62
iter:  13 11:27:16  -273.976828c -2.74  -2.66
iter:  14 11:27:23  -273.977621c -2.61  -2.63
Writing to output.gpw (mode='')

iter:  15 11:27:31  -273.976568c -2.63  -2.52
iter:  16 11:27:38  -273.977213c -3.23  -2.82
iter:  17 11:27:45  -273.976807c -3.29  -2.88
iter:  18 11:27:52  -273.976655c -3.36  -2.90
iter:  19 11:27:59  -273.976947c -3.66  -3.18
Writing to output.gpw (mode='')

iter:  20 11:28:06  -273.977037c -3.78  -3.23
iter:  21 11:28:19  -273.976898c -3.76  -3.24
iter:  22 11:28:28  -273.976939c -3.92  -3.51
iter:  23 11:28:35  -273.976894c -3.94  -3.68
iter:  24 11:28:42  -273.976958c -4.36  -3.72
Writing to output.gpw (mode='')

iter:  25 11:28:49  -273.976959c -4.38  -3.89
iter:  26 11:28:56  -273.976922c -4.42  -3.95
iter:  27 11:29:03  -273.976936c -4.63  -4.06c
iter:  28 11:29:11  -273.976931c -4.69  -4.18c
iter:  29 11:29:18  -273.976929c -4.86  -4.22c
Writing to output.gpw (mode='')

iter:  30 11:29:25  -273.976937c -4.90  -4.20c
iter:  31 11:29:32  -273.976927c -4.90  -4.26c
iter:  32 11:29:39  -273.976935c -5.16  -4.40c
iter:  33 11:29:46  -273.976934c -5.01  -4.52c
iter:  34 11:29:53  -273.976934c -5.36  -4.66c
Writing to output.gpw (mode='')

iter:  35 11:30:01  -273.976935c -5.34  -4.69c
iter:  36 11:30:08  -273.976931c -5.52  -4.90c
iter:  37 11:30:15  -273.976933c -5.62  -4.92c
iter:  38 11:30:22  -273.976935c -5.67  -4.94c
iter:  39 11:30:29  -273.976934c -5.68  -4.91c
Writing to output.gpw (mode='')

iter:  40 11:30:36  -273.976937c -5.71  -4.88c
iter:  41 11:30:47  -273.976936c -5.96  -4.77c
iter:  42 11:31:06  -273.976936c -6.11  -4.78c
iter:  43 11:31:19  -273.976936c -6.11  -4.74c
iter:  44 11:31:31  -273.976937c -5.90  -4.72c
Writing to output.gpw (mode='')

iter:  45 11:31:39  -273.976937c -5.93  -4.68c
iter:  46 11:31:47  -273.976938c -6.15  -4.67c
iter:  47 11:31:54  -273.976938c -6.26  -4.63c
iter:  48 11:32:01  -273.976937c -6.23  -4.60c
iter:  49 11:32:08  -273.976933c -6.41  -4.70c
Writing to output.gpw (mode='')

iter:  50 11:32:15  -273.976935c -6.52  -4.78c
iter:  51 11:32:23  -273.976931c -6.63  -4.74c
iter:  52 11:32:30  -273.976931c -6.65  -4.84c
iter:  53 11:32:37  -273.976931c -6.60  -5.02c
iter:  54 11:32:44  -273.976930c -6.89  -5.18c
Writing to output.gpw (mode='')

iter:  55 11:32:51  -273.976930c -6.88  -5.28c
iter:  56 11:32:58  -273.976929c -6.76  -5.40c
iter:  57 11:33:05  -273.976930c -7.12  -5.49c
iter:  58 11:33:18  -273.976930c -6.98  -5.57c
iter:  59 11:33:27  -273.976930c -6.88  -5.66c
Writing to output.gpw (mode='')

iter:  60 11:33:34  -273.976930c -7.24  -5.70c
iter:  61 11:33:41  -273.976929c -7.29  -5.71c
iter:  62 11:33:49  -273.976929c -7.55c -5.78c

Converged after 62 iterations.

Dipole moment: (-1.091292, -6.272921, 0.397190) |e|*Ang

Energy contributions relative to reference atoms: (reference = -13382.245603)

Kinetic:       +170.176133
Potential:     -147.823450
External:        +0.000000
XC:            -296.918722
Entropy (-ST):   -0.172786
Local:           +0.675503
--------------------------
Free energy:   -274.063322
Extrapolated:  -273.976929

Dipole-layer corrected work functions: 3.378685, 2.615150 eV

Showing only first 2 kpts
 Kpt  Band  Eigenvalues  Occupancy
  0    28     -3.24294    1.98551
  0    29     -3.09639    1.75939
  0    30     -2.91769    0.34031
  0    31     -2.77483    0.02328

  1    28     -3.04296    1.43041
  1    29     -3.00884    1.11863
  1    30     -2.92700    0.39617
  1    31     -2.91046    0.30140


Fermi level: -2.99692

No gap
Writing to output.gpw (mode='')


Forces in eV/Ang:
  0 Li    0.00764   -0.00065   -0.26600
  1 Li   -0.01583    0.00012   -0.27684
  2 Li    0.00684    0.00062   -0.28386
  3 Li    0.00142   -0.00149   -0.27373
  4 Li    0.00420    0.00995   -0.27656
  5 Li   -0.00419    0.01706   -0.27493
  6 Li    0.00091    0.00189   -0.27215
  7 Li    0.00346   -0.01130   -0.27783
  8 Li   -0.00360   -0.01766   -0.27328
  9 Li    0.00661    0.00266    0.29418
 10 Li   -0.00404    0.00326    0.25152
 11 Li    0.00029    0.00560    0.31364
 12 Li    0.01077   -0.00315    0.29227
 13 Li   -0.00794   -0.00391    0.25142
 14 Li   -0.00135   -0.00256    0.31197
 15 Li   -0.01274   -0.00015    0.24552
 16 Li    0.00340    0.00124    0.28215
 17 Li    0.00581   -0.00271    0.23299
 18 Li    0.01198   -0.00098    0.05744
 19 Li   -0.04185    0.00326   -0.09148
 20 Li    0.01403   -0.00287   -0.20250
 21 Li   -0.01344   -0.00485    0.03945
 22 Li    0.01920   -0.02515    0.04998
 23 Li   -0.00633   -0.00910    0.03054
 24 Li   -0.01613    0.00750    0.04946
 25 Li    0.02421    0.02397    0.05178
 26 Li   -0.00981    0.01291    0.05945
 27 Li    0.10548   -0.00165   -0.10553
 28 Li   -0.06316   -0.04315   -0.02843
 29 Li   -0.10886    0.34248    0.09726
 30 Li    0.05762    0.00590    0.03545
 31 Li   -0.05308    0.03628   -0.02880
 32 Li   -0.01966   -0.32015    0.29705
 33 Li   -0.02013    0.00875   -0.02592
 34 Li    0.01463    0.00543   -0.00294
 35 Li    0.00638    0.01287   -0.02526
 36 O    10.11842   -1.72004   14.58015
 37 C     0.84075   -3.96705    3.02341
 38 H     0.12632    0.11287    0.70732
 39 H     0.11911    0.10262    0.39711
 40 H     0.14972   -0.07883    0.13099
 41 H    -1.66755    0.55614    0.17500
 42 N     4.78225    3.35458   -7.51203
 43 N   -14.34171    1.60698  -11.73613

System changes: positions 

Initializing position-dependent things.

Density initialized from wave functions
       .-----------------------.  
      /|                       |  
     / |                       |  
    /  |                       |  
   /   |                       |  
  /    |                       |  
 *     |                       |  
 |     |                       |  
 |     |                       |  
 |     |                  H    |  
 |     |                       |  
 |     |                 H   H |  
 |     |                       |  
 |     |                       |  
 |     |       Li              |  
 |     |            H O        |  
 |     |     Li      Ci      Li|  
 |     |  Li      LN  N   Li   |  
 | Li  |   Li      Li          |  
 |     |Li      Li      Li     |  
 Li    |         Li            |  
 |   LLi     LLi     LLi       |  
 |     |  Li      Li      Li   |  
 | Li  |   Li      Li          |  
 |     |Li      Li      Li     |  
 Li    | Li      Li            |  
 |    Li      Li      Li       |  
 |     |                       |  
 |     |                       |  
 |     |                       |  
 |     |                       |  
 |     |                       |  
 |     |                       |  
 |     .-----------------------.  
 |    /                       /   
 |   /                       /    
 |  /                       /     
 | /                       /      
 |/                       /       
 *-----------------------*        

Positions:
   0 Li     1.617037    1.617037   10.000000    ( 0.0000,  0.0000,  0.0000)
   1 Li     4.851111    1.617037   10.000000    ( 0.0000,  0.0000,  0.0000)
   2 Li     8.085185    1.617037   10.000000    ( 0.0000,  0.0000,  0.0000)
   3 Li     1.617037    4.851111   10.000000    ( 0.0000,  0.0000,  0.0000)
   4 Li     4.851111    4.851111   10.000000    ( 0.0000,  0.0000,  0.0000)
   5 Li     8.085185    4.851111   10.000000    ( 0.0000,  0.0000,  0.0000)
   6 Li     1.617037    8.085185   10.000000    ( 0.0000,  0.0000,  0.0000)
   7 Li     4.851111    8.085185   10.000000    ( 0.0000,  0.0000,  0.0000)
   8 Li     8.085185    8.085185   10.000000    ( 0.0000,  0.0000,  0.0000)
   9 Li     0.000000    0.000000   11.617037    ( 0.0000,  0.0000,  0.0000)
  10 Li     3.234074    0.000000   11.617037    ( 0.0000,  0.0000,  0.0000)
  11 Li     6.468148    0.000000   11.617037    ( 0.0000,  0.0000,  0.0000)
  12 Li     0.000000    3.234074   11.617037    ( 0.0000,  0.0000,  0.0000)
  13 Li     3.234074    3.234074   11.617037    ( 0.0000,  0.0000,  0.0000)
  14 Li     6.468148    3.234074   11.617037    ( 0.0000,  0.0000,  0.0000)
  15 Li     0.000000    6.468148   11.617037    ( 0.0000,  0.0000,  0.0000)
  16 Li     3.234074    6.468148   11.617037    ( 0.0000,  0.0000,  0.0000)
  17 Li     6.468148    6.468148   11.617037    ( 0.0000,  0.0000,  0.0000)
  18 Li     1.617123    1.617032   13.470030    ( 0.0000,  0.0000,  0.0000)
  19 Li     4.850869    1.617058   13.469183    ( 0.0000,  0.0000,  0.0000)
  20 Li     8.085258    1.617020   13.468570    ( 0.0000,  0.0000,  0.0000)
  21 Li     1.616959    4.851073   13.469957    ( 0.0000,  0.0000,  0.0000)
  22 Li     4.851223    4.850970   13.470002    ( 0.0000,  0.0000,  0.0000)
  23 Li     8.085149    4.851081   13.469869    ( 0.0000,  0.0000,  0.0000)
  24 Li     1.616941    8.085236   13.470012    ( 0.0000,  0.0000,  0.0000)
  25 Li     4.851250    8.085317   13.470012    ( 0.0000,  0.0000,  0.0000)
  26 Li     8.085134    8.085237   13.470032    ( 0.0000,  0.0000,  0.0000)
  27 Li     0.000477    0.000070   15.445521    ( 0.0000,  0.0000,  0.0000)
  28 Li     3.233730   -0.000254   15.445776    ( 0.0000,  0.0000,  0.0000)
  29 Li     6.467655    0.002056   15.446775    ( 0.0000,  0.0000,  0.0000)
  30 Li     0.000202    3.234009   15.446311    ( 0.0000,  0.0000,  0.0000)
  31 Li     3.233782    3.234293   15.445772    ( 0.0000,  0.0000,  0.0000)
  32 Li     6.468145    3.232159   15.447879    ( 0.0000,  0.0000,  0.0000)
  33 Li    -0.000090    6.468196   15.445767    ( 0.0000,  0.0000,  0.0000)
  34 Li     3.234152    6.468175   15.445914    ( 0.0000,  0.0000,  0.0000)
  35 Li     6.468163    6.468221   15.445768    ( 0.0000,  0.0000,  0.0000)
  36 O      8.127734    1.608574   18.506312    ( 0.0000,  0.0000,  0.0000)
  37 C      8.074424    0.167480   18.466016    ( 0.0000,  0.0000,  0.0000)
  38 H      7.320951   -0.216329   17.768383    ( 0.0000,  0.0000,  0.0000)
  39 H      7.892184   -0.216663   19.456299    ( 0.0000,  0.0000,  0.0000)
  40 H      9.056810   -0.133193   18.119451    ( 0.0000,  0.0000,  0.0000)
  41 H      7.215202    1.930580   18.736472    ( 0.0000,  0.0000,  0.0000)
  42 N      8.085282    1.634723   17.162513    ( 0.0000,  0.0000,  0.0000)
  43 N      6.946693    1.625463   17.144885    ( 0.0000,  0.0000,  0.0000)

Unit cell:
           periodic     x           y           z      points  spacing
  1. axis:    yes    9.702222    0.000000    0.000000    60     0.1617
  2. axis:    yes    0.000000    9.702222    0.000000    60     0.1617
  3. axis:    no     0.000000    0.000000   26.601111   168     0.1583

  Lengths:   9.702222   9.702222  26.601111
  Angles:   90.000000  90.000000  90.000000

Effective grid spacing dv^(1/3) = 0.1606

     iter     time        total  log10-change:
                         energy  eigst   dens
iter:   1 11:33:57  -275.271242  -0.56
iter:   2 11:34:04  -275.266224  -1.01  -1.91
iter:   3 11:34:11  -275.263989c -1.41  -1.87
iter:   4 11:34:18  -275.248011c -1.55  -2.05
Writing to output.gpw (mode='')

iter:   5 11:34:26  -275.231728  -1.66  -2.15
iter:   6 11:34:33  -275.230078c -1.81  -2.20
iter:   7 11:34:40  -275.225101c -1.99  -2.29
iter:   8 11:34:47  -275.222602c -1.82  -2.42
iter:   9 11:34:54  -275.222319c -2.51  -2.63
Writing to output.gpw (mode='')

iter:  10 11:35:01  -275.222507c -2.77  -2.67
iter:  11 11:35:08  -275.223586c -2.93  -2.88
iter:  12 11:35:15  -275.222836c -3.07  -2.81
iter:  13 11:35:22  -275.222952c -3.53  -3.02
iter:  14 11:35:30  -275.222746c -3.39  -3.08
Writing to output.gpw (mode='')

iter:  15 11:35:37  -275.222854c -3.74  -3.10
iter:  16 11:35:44  -275.222894c -3.71  -3.22
iter:  17 11:35:51  -275.222869c -4.34  -3.40
iter:  18 11:35:58  -275.222842c -4.05  -3.43
iter:  19 11:36:05  -275.222877c -4.28  -3.55
Writing to output.gpw (mode='')

iter:  20 11:36:12  -275.222843c -4.23  -3.59
iter:  21 11:36:19  -275.222928c -4.73  -3.69
iter:  22 11:36:26  -275.222874c -5.00  -3.83
iter:  23 11:36:33  -275.222871c -5.37  -4.01c
iter:  24 11:36:40  -275.222856c -5.13  -4.03c
Writing to output.gpw (mode='')

iter:  25 11:36:50  -275.222874c -5.29  -4.17c
iter:  26 11:36:57  -275.222876c -5.55  -4.28c
iter:  27 11:37:04  -275.222889c -5.57  -4.33c
iter:  28 11:37:11  -275.222881c -5.85  -4.46c
iter:  29 11:37:18  -275.222879c -6.03  -4.61c
Writing to output.gpw (mode='')

iter:  30 11:37:25  -275.222879c -5.99  -4.64c
iter:  31 11:37:33  -275.222881c -6.21  -4.73c
iter:  32 11:37:40  -275.222876c -6.20  -4.84c
iter:  33 11:37:47  -275.222883c -6.35  -4.76c
iter:  34 11:37:54  -275.222880c -6.56  -4.93c
Writing to output.gpw (mode='')

iter:  35 11:38:01  -275.222880c -6.52  -4.99c
iter:  36 11:38:08  -275.222881c -6.48  -5.17c
iter:  37 11:38:20  -275.222882c -6.80  -5.05c
iter:  38 11:38:28  -275.222880c -6.81  -5.24c
iter:  39 11:38:35  -275.222881c -6.82  -5.20c
Writing to output.gpw (mode='')

iter:  40 11:38:42  -275.222881c -7.06  -5.31c
iter:  41 11:38:49  -275.222881c -6.93  -5.33c
iter:  42 11:38:56  -275.222880c -7.24  -5.31c
iter:  43 11:39:03  -275.222881c -7.30  -5.41c
iter:  44 11:39:10  -275.222881c -7.41c -5.50c

Converged after 44 iterations.

Dipole moment: (-1.121006, -6.300518, 0.408267) |e|*Ang

Energy contributions relative to reference atoms: (reference = -13382.245603)

Kinetic:       +165.382868
Potential:     -145.191734
External:        +0.000000
XC:            -296.008278
Entropy (-ST):   -0.171560
Local:           +0.680043
--------------------------
Free energy:   -275.308661
Extrapolated:  -275.222881

Dipole-layer corrected work functions: 3.378669, 2.593840 eV

Showing only first 2 kpts
 Kpt  Band  Eigenvalues  Occupancy
  0    28     -3.23321    1.98578
  0    29     -3.08902    1.77298
  0    30     -2.90110    0.30811
  0    31     -2.76707    0.02465

  1    28     -3.03165    1.42511
  1    29     -2.99936    1.13027
  1    30     -2.92049    0.42321
  1    31     -2.90031    0.30401


Fermi level: -2.98625

No gap
Writing to output.gpw (mode='')


Forces in eV/Ang:
  0 Li    0.00874   -0.00034   -0.26638
  1 Li   -0.01774    0.00043   -0.27683
  2 Li    0.00752    0.00051   -0.28354
  3 Li    0.00165   -0.00238   -0.27387
  4 Li    0.00375    0.00933   -0.27637
  5 Li   -0.00401    0.01751   -0.27430
  6 Li    0.00086    0.00237   -0.27231
  7 Li    0.00346   -0.01068   -0.27728
  8 Li   -0.00356   -0.01811   -0.27249
  9 Li    0.00729    0.00203    0.29362
 10 Li   -0.00472    0.00297    0.24928
 11 Li    0.00018    0.00544    0.31441
 12 Li    0.01129   -0.00278    0.29187
 13 Li   -0.00850   -0.00383    0.24849
 14 Li   -0.00116   -0.00308    0.31328
 15 Li   -0.01360    0.00070    0.24505
 16 Li    0.00374    0.00132    0.28407
 17 Li    0.00643   -0.00225    0.23327
 18 Li    0.01207   -0.00087    0.05720
 19 Li   -0.04413    0.00328   -0.09188
 20 Li    0.01788   -0.00293   -0.21169
 21 Li   -0.01386   -0.00509    0.03957
 22 Li    0.02041   -0.02756    0.05240
 23 Li   -0.00701   -0.01089    0.03360
 24 Li   -0.01642    0.00726    0.04881
 25 Li    0.02499    0.02628    0.05399
 26 Li   -0.00988    0.01513    0.06116
 27 Li    0.10895   -0.00786   -0.11239
 28 Li   -0.06076   -0.04112   -0.02916
 29 Li   -0.10892    0.30647    0.06393
 30 Li    0.06052    0.00625    0.03056
 31 Li   -0.05181    0.03483   -0.03113
 32 Li   -0.02410   -0.28178    0.25620
 33 Li   -0.02046    0.00760   -0.02551
 34 Li    0.01463    0.00507   -0.00175
 35 Li    0.00661    0.01397   -0.02346
 36 O     7.23105   -1.33179   11.77144
 37 C     0.78966   -3.19680    2.46444
 38 H     0.13604    0.08720    0.73602
 39 H     0.09509   -0.10540    0.59852
 40 H     0.19534   -0.19542    0.12582
 41 H    -0.84189    0.20934    0.14709
 42 N     4.99414    3.00832   -6.45122
 43 N   -12.50000    1.47877   -9.58422

System changes: positions 

Initializing position-dependent things.

Density initialized from wave functions
       .-----------------------.  
      /|                       |  
     / |                       |  
    /  |                       |  
   /   |                       |  
  /    |                       |  
 *     |                       |  
 |     |                       |  
 |     |                       |  
 |     |                  H    |  
 |     |                       |  
 |     |                 H   H |  
 |     |                       |  
 |     |                       |  
 |     |       Li              |  
 |     |            H O        |  
 |     |     Li      Ci      Li|  
 |     |  Li      LN  N   Li   |  
 | Li  |   Li      Li          |  
 |     |Li      Li      Li     |  
 Li    |         Li            |  
 |   LLi     LLi     LLi       |  
 |     |  Li      Li      Li   |  
 | Li  |   Li      Li          |  
 |     |Li      Li      Li     |  
 Li    | Li      Li            |  
 |    Li      Li      Li       |  
 |     |                       |  
 |     |                       |  
 |     |                       |  
 |     |                       |  
 |     |                       |  
 |     |                       |  
 |     .-----------------------.  
 |    /                       /   
 |   /                       /    
 |  /                       /     
 | /                       /      
 |/                       /       
 *-----------------------*        

Positions:
   0 Li     1.617037    1.617037   10.000000    ( 0.0000,  0.0000,  0.0000)
   1 Li     4.851111    1.617037   10.000000    ( 0.0000,  0.0000,  0.0000)
   2 Li     8.085185    1.617037   10.000000    ( 0.0000,  0.0000,  0.0000)
   3 Li     1.617037    4.851111   10.000000    ( 0.0000,  0.0000,  0.0000)
   4 Li     4.851111    4.851111   10.000000    ( 0.0000,  0.0000,  0.0000)
   5 Li     8.085185    4.851111   10.000000    ( 0.0000,  0.0000,  0.0000)
   6 Li     1.617037    8.085185   10.000000    ( 0.0000,  0.0000,  0.0000)
   7 Li     4.851111    8.085185   10.000000    ( 0.0000,  0.0000,  0.0000)
   8 Li     8.085185    8.085185   10.000000    ( 0.0000,  0.0000,  0.0000)
   9 Li     0.000000    0.000000   11.617037    ( 0.0000,  0.0000,  0.0000)
  10 Li     3.234074    0.000000   11.617037    ( 0.0000,  0.0000,  0.0000)
  11 Li     6.468148    0.000000   11.617037    ( 0.0000,  0.0000,  0.0000)
  12 Li     0.000000    3.234074   11.617037    ( 0.0000,  0.0000,  0.0000)
  13 Li     3.234074    3.234074   11.617037    ( 0.0000,  0.0000,  0.0000)
  14 Li     6.468148    3.234074   11.617037    ( 0.0000,  0.0000,  0.0000)
  15 Li     0.000000    6.468148   11.617037    ( 0.0000,  0.0000,  0.0000)
  16 Li     3.234074    6.468148   11.617037    ( 0.0000,  0.0000,  0.0000)
  17 Li     6.468148    6.468148   11.617037    ( 0.0000,  0.0000,  0.0000)
  18 Li     1.617260    1.617026   13.470480    ( 0.0000,  0.0000,  0.0000)
  19 Li     4.850456    1.617088   13.468331    ( 0.0000,  0.0000,  0.0000)
  20 Li     8.085438    1.616991   13.466635    ( 0.0000,  0.0000,  0.0000)
  21 Li     1.616829    4.851008   13.470309    ( 0.0000,  0.0000,  0.0000)
  22 Li     4.851417    4.850713   13.470455    ( 0.0000,  0.0000,  0.0000)
  23 Li     8.085084    4.851012   13.470124    ( 0.0000,  0.0000,  0.0000)
  24 Li     1.616786    8.085316   13.470434    ( 0.0000,  0.0000,  0.0000)
  25 Li     4.851476    8.085560   13.470478    ( 0.0000,  0.0000,  0.0000)
  26 Li     8.085057    8.085351   13.470514    ( 0.0000,  0.0000,  0.0000)
  27 Li     0.001225    0.000094   15.444823    ( 0.0000,  0.0000,  0.0000)
  28 Li     3.233253   -0.000608   15.445514    ( 0.0000,  0.0000,  0.0000)
  29 Li     6.466942    0.004595   15.447558    ( 0.0000,  0.0000,  0.0000)
  30 Li     0.000519    3.233882   15.446850    ( 0.0000,  0.0000,  0.0000)
  31 Li     3.233357    3.234603   15.445477    ( 0.0000,  0.0000,  0.0000)
  32 Li     6.468102    3.229876   15.450205    ( 0.0000,  0.0000,  0.0000)
  33 Li    -0.000224    6.468248   15.445503    ( 0.0000,  0.0000,  0.0000)
  34 Li     3.234266    6.468212   15.445897    ( 0.0000,  0.0000,  0.0000)
  35 Li     6.468188    6.468357   15.445530    ( 0.0000,  0.0000,  0.0000)
  36 O      8.136389    1.602983   18.541025    ( 0.0000,  0.0000,  0.0000)
  37 C      8.079947    0.152220   18.477477    ( 0.0000,  0.0000,  0.0000)
  38 H      7.322361   -0.215382   17.775172    ( 0.0000,  0.0000,  0.0000)
  39 H      7.892427   -0.220977   19.464845    ( 0.0000,  0.0000,  0.0000)
  40 H      9.059170   -0.136650   18.120864    ( 0.0000,  0.0000,  0.0000)
  41 H      7.220280    1.926875   18.734753    ( 0.0000,  0.0000,  0.0000)
  42 N      8.080291    1.655199   17.133432    ( 0.0000,  0.0000,  0.0000)
  43 N      6.929285    1.635890   17.110413    ( 0.0000,  0.0000,  0.0000)

Unit cell:
           periodic     x           y           z      points  spacing
  1. axis:    yes    9.702222    0.000000    0.000000    60     0.1617
  2. axis:    yes    0.000000    9.702222    0.000000    60     0.1617
  3. axis:    no     0.000000    0.000000   26.601111   168     0.1583

  Lengths:   9.702222   9.702222  26.601111
  Angles:   90.000000  90.000000  90.000000

Effective grid spacing dv^(1/3) = 0.1606

     iter     time        total  log10-change:
                         energy  eigst   dens
iter:   1 11:39:19  -276.610832  -0.44
iter:   2 11:39:26  -276.722082  -0.67  -1.47
iter:   3 11:39:33  -276.480199  -0.85  -1.38
iter:   4 11:39:40  -276.475200  -1.36  -1.88
Writing to output.gpw (mode='')

iter:   5 11:39:47  -276.473421c -1.07  -2.01
iter:   6 11:39:55  -276.477560c -1.12  -1.79
iter:   7 11:40:02  -276.500979c -1.44  -1.92
iter:   8 11:40:09  -276.493931c -2.03  -1.91
iter:   9 11:40:16  -276.459629  -1.50  -1.91
Writing to output.gpw (mode='')

iter:  10 11:40:23  -276.450638  -2.17  -1.89
iter:  11 11:40:30  -276.447098c -2.57  -2.39
iter:  12 11:40:37  -276.445802c -2.79  -2.58
iter:  13 11:40:45  -276.446599c -2.86  -2.70
iter:  14 11:40:52  -276.445878c -2.75  -2.82
Writing to output.gpw (mode='')

iter:  15 11:40:59  -276.445659c -3.12  -2.84
iter:  16 11:41:06  -276.446022c -3.51  -2.94
iter:  17 11:41:13  -276.445877c -3.59  -2.97
iter:  18 11:41:20  -276.445914c -3.66  -3.04
iter:  19 11:41:27  -276.445971c -3.43  -3.29
Writing to output.gpw (mode='')

iter:  20 11:41:34  -276.445898c -4.15  -3.27
iter:  21 11:41:42  -276.445839c -4.13  -3.36
iter:  22 11:41:49  -276.446021c -4.26  -3.57
iter:  23 11:41:56  -276.445994c -4.63  -3.60
iter:  24 11:42:03  -276.445954c -4.49  -3.62
Writing to output.gpw (mode='')

iter:  25 11:42:10  -276.445908c -4.64  -3.64
iter:  26 11:42:17  -276.445919c -4.82  -3.58
iter:  27 11:42:24  -276.445937c -4.83  -3.64
iter:  28 11:42:32  -276.445943c -4.82  -3.69
iter:  29 11:42:39  -276.445904c -5.21  -3.89
Writing to output.gpw (mode='')

iter:  30 11:42:46  -276.445949c -5.33  -3.94
iter:  31 11:42:53  -276.445948c -5.40  -3.99
iter:  32 11:43:00  -276.445942c -5.14  -4.08c
iter:  33 11:43:07  -276.445941c -5.66  -4.40c
iter:  34 11:43:21  -276.445943c -5.77  -4.42c
Writing to output.gpw (mode='')

iter:  35 11:43:28  -276.445934c -5.45  -4.47c
iter:  36 11:43:36  -276.445944c -5.86  -4.37c
iter:  37 11:43:43  -276.445948c -5.95  -4.77c
iter:  38 11:43:50  -276.445948c -6.06  -4.85c
iter:  39 11:43:57  -276.445946c -6.24  -4.88c
Writing to output.gpw (mode='')

iter:  40 11:44:04  -276.445948c -6.27  -5.09c
iter:  41 11:44:11  -276.445948c -6.51  -5.10c
iter:  42 11:44:19  -276.445948c -6.36  -5.14c
iter:  43 11:44:26  -276.445948c -6.40  -5.21c
iter:  44 11:44:33  -276.445948c -6.61  -5.18c
Writing to output.gpw (mode='')

iter:  45 11:44:40  -276.445949c -6.51  -5.23c
iter:  46 11:44:47  -276.445947c -6.46  -5.25c
iter:  47 11:44:54  -276.445948c -6.96  -5.11c
iter:  48 11:45:02  -276.445948c -6.99  -5.08c
iter:  49 11:45:09  -276.445948c -7.22  -5.18c
Writing to output.gpw (mode='')

iter:  50 11:45:16  -276.445948c -7.04  -5.18c
iter:  51 11:45:23  -276.445952c -7.17  -5.11c
iter:  52 11:45:30  -276.445948c -7.25  -5.15c
iter:  53 11:45:37  -276.445948c -7.29  -5.14c
iter:  54 11:45:44  -276.445949c -7.22  -5.15c
Writing to output.gpw (mode='')

iter:  55 11:45:52  -276.445949c -7.20  -5.17c
iter:  56 11:45:59  -276.445949c -7.21  -5.29c
iter:  57 11:46:06  -276.445950c -7.30  -5.37c
iter:  58 11:46:13  -276.445950c -7.47c -5.43c

Converged after 58 iterations.

Dipole moment: (-1.212548, -6.155962, 0.398003) |e|*Ang

Energy contributions relative to reference atoms: (reference = -13382.245603)

Kinetic:       +158.992251
Potential:     -141.165353
External:        +0.000000
XC:            -294.867597
Entropy (-ST):   -0.173273
Local:           +0.681386
--------------------------
Free energy:   -276.532587
Extrapolated:  -276.445950

Dipole-layer corrected work functions: 3.380332, 2.615233 eV

Showing only first 2 kpts
 Kpt  Band  Eigenvalues  Occupancy
  0    28     -3.24467    1.98576
  0    29     -3.09824    1.76352
  0    30     -2.91809    0.33769
  0    31     -2.77959    0.02514

  1    28     -3.04190    1.41464
  1    29     -3.00975    1.11908
  1    30     -2.93215    0.42406
  1    31     -2.91002    0.29478


Fermi level: -2.99778

No gap
Writing to output.gpw (mode='')


Forces in eV/Ang:
  0 Li    0.00944   -0.00011   -0.26647
  1 Li   -0.01870    0.00077   -0.27682
  2 Li    0.00773    0.00029   -0.28351
  3 Li    0.00194   -0.00236   -0.27418
  4 Li    0.00313    0.00959   -0.27678
  5 Li   -0.00399    0.01844   -0.27427
  6 Li    0.00075    0.00193   -0.27264
  7 Li    0.00355   -0.01094   -0.27723
  8 Li   -0.00353   -0.01876   -0.27249
  9 Li    0.00746    0.00203    0.29429
 10 Li   -0.00531    0.00266    0.24761
 11 Li    0.00003    0.00460    0.31528
 12 Li    0.01144   -0.00270    0.29293
 13 Li   -0.00838   -0.00388    0.24660
 14 Li   -0.00114   -0.00330    0.31536
 15 Li   -0.01385    0.00132    0.24377
 16 Li    0.00374    0.00176    0.28510
 17 Li    0.00681   -0.00157    0.23305
 18 Li    0.01315   -0.00046    0.05464
 19 Li   -0.04589    0.00288   -0.09315
 20 Li    0.01875   -0.00268   -0.21427
 21 Li   -0.01467   -0.00604    0.03975
 22 Li    0.02200   -0.02867    0.05326
 23 Li   -0.00756   -0.01028    0.03272
 24 Li   -0.01673    0.00722    0.04840
 25 Li    0.02564    0.02784    0.05456
 26 Li   -0.00958    0.01462    0.05915
 27 Li    0.10371   -0.00824   -0.10514
 28 Li   -0.05737   -0.04032   -0.02977
 29 Li   -0.09578    0.28448    0.06058
 30 Li    0.04958   -0.00483    0.04699
 31 Li   -0.04977    0.03476   -0.03278
 32 Li   -0.01668   -0.26366    0.24840
 33 Li   -0.01845    0.00680   -0.02739
 34 Li    0.01410    0.00442   -0.00168
 35 Li    0.00487    0.01437   -0.02543
 36 O     5.38671   -1.34940    9.53841
 37 C     0.59106   -2.27821    1.96081
 38 H     0.13218    0.07940    0.71658
 39 H     0.08956   -0.29674    0.68886
 40 H     0.26113   -0.24165    0.14460
 41 H    -0.56659    0.07717    0.26452
 42 N     3.23687    2.60573   -5.68948
 43 N    -9.07163    1.37163   -7.75348

System changes: positions 

Initializing position-dependent things.

Density initialized from wave functions
       .-----------------------.  
      /|                       |  
     / |                       |  
    /  |                       |  
   /   |                       |  
  /    |                       |  
 *     |                       |  
 |     |                       |  
 |     |                       |  
 |     |                  H    |  
 |     |                       |  
 |     |                 H   H |  
 |     |                       |  
 |     |                       |  
 |     |       Li              |  
 |     |            H O        |  
 |     |     Li      Ci      Li|  
 |     |  Li      LN  N   Li   |  
 | Li  |   Li      Li          |  
 |     |Li      Li      Li     |  
 Li    |         Li            |  
 |   LLi     LLi     LLi       |  
 |     |  Li      Li      Li   |  
 | Li  |   Li      Li          |  
 |     |Li      Li      Li     |  
 Li    | Li      Li            |  
 |    Li      Li      Li       |  
 |     |                       |  
 |     |                       |  
 |     |                       |  
 |     |                       |  
 |     |                       |  
 |     |                       |  
 |     .-----------------------.  
 |    /                       /   
 |   /                       /    
 |  /                       /     
 | /                       /      
 |/                       /       
 *-----------------------*        

Positions:
   0 Li     1.617037    1.617037   10.000000    ( 0.0000,  0.0000,  0.0000)
   1 Li     4.851111    1.617037   10.000000    ( 0.0000,  0.0000,  0.0000)
   2 Li     8.085185    1.617037   10.000000    ( 0.0000,  0.0000,  0.0000)
   3 Li     1.617037    4.851111   10.000000    ( 0.0000,  0.0000,  0.0000)
   4 Li     4.851111    4.851111   10.000000    ( 0.0000,  0.0000,  0.0000)
   5 Li     8.085185    4.851111   10.000000    ( 0.0000,  0.0000,  0.0000)
   6 Li     1.617037    8.085185   10.000000    ( 0.0000,  0.0000,  0.0000)
   7 Li     4.851111    8.085185   10.000000    ( 0.0000,  0.0000,  0.0000)
   8 Li     8.085185    8.085185   10.000000    ( 0.0000,  0.0000,  0.0000)
   9 Li     0.000000    0.000000   11.617037    ( 0.0000,  0.0000,  0.0000)
  10 Li     3.234074    0.000000   11.617037    ( 0.0000,  0.0000,  0.0000)
  11 Li     6.468148    0.000000   11.617037    ( 0.0000,  0.0000,  0.0000)
  12 Li     0.000000    3.234074   11.617037    ( 0.0000,  0.0000,  0.0000)
  13 Li     3.234074    3.234074   11.617037    ( 0.0000,  0.0000,  0.0000)
  14 Li     6.468148    3.234074   11.617037    ( 0.0000,  0.0000,  0.0000)
  15 Li     0.000000    6.468148   11.617037    ( 0.0000,  0.0000,  0.0000)
  16 Li     3.234074    6.468148   11.617037    ( 0.0000,  0.0000,  0.0000)
  17 Li     6.468148    6.468148   11.617037    ( 0.0000,  0.0000,  0.0000)
  18 Li     1.617420    1.617023   13.470987    ( 0.0000,  0.0000,  0.0000)
  19 Li     4.849963    1.617117   13.467347    ( 0.0000,  0.0000,  0.0000)
  20 Li     8.085654    1.616963   13.464382    ( 0.0000,  0.0000,  0.0000)
  21 Li     1.616670    4.850927   13.470716    ( 0.0000,  0.0000,  0.0000)
  22 Li     4.851658    4.850403   13.470997    ( 0.0000,  0.0000,  0.0000)
  23 Li     8.085002    4.850927   13.470428    ( 0.0000,  0.0000,  0.0000)
  24 Li     1.616606    8.085400   13.470919    ( 0.0000,  0.0000,  0.0000)
  25 Li     4.851745    8.085860   13.471031    ( 0.0000,  0.0000,  0.0000)
  26 Li     8.084969    8.085487   13.471070    ( 0.0000,  0.0000,  0.0000)
  27 Li     0.002110    0.000069   15.443986    ( 0.0000,  0.0000,  0.0000)
  28 Li     3.232727   -0.001007   15.445204    ( 0.0000,  0.0000,  0.0000)
  29 Li     6.466198    0.007246   15.448282    ( 0.0000,  0.0000,  0.0000)
  30 Li     0.000827    3.233658   15.447582    ( 0.0000,  0.0000,  0.0000)
  31 Li     3.232883    3.234957   15.445119    ( 0.0000,  0.0000,  0.0000)
  32 Li     6.468080    3.227454   15.452704    ( 0.0000,  0.0000,  0.0000)
  33 Li    -0.000371    6.468301   15.445189    ( 0.0000,  0.0000,  0.0000)
  34 Li     3.234396    6.468249   15.445881    ( 0.0000,  0.0000,  0.0000)
  35 Li     6.468207    6.468515   15.445244    ( 0.0000,  0.0000,  0.0000)
  36 O      8.140058    1.594229   18.575321    ( 0.0000,  0.0000,  0.0000)
  37 C      8.084115    0.142907   18.487301    ( 0.0000,  0.0000,  0.0000)
  38 H      7.323862   -0.214502   17.782658    ( 0.0000,  0.0000,  0.0000)
  39 H      7.892847   -0.227466   19.474867    ( 0.0000,  0.0000,  0.0000)
  40 H      9.062598   -0.140712   18.122622    ( 0.0000,  0.0000,  0.0000)
  41 H      7.225824    1.922627   18.735603    ( 0.0000,  0.0000,  0.0000)
  42 N      8.070853    1.675354   17.100195    ( 0.0000,  0.0000,  0.0000)
  43 N      6.920410    1.647373   17.077894    ( 0.0000,  0.0000,  0.0000)

Unit cell:
           periodic     x           y           z      points  spacing
  1. axis:    yes    9.702222    0.000000    0.000000    60     0.1617
  2. axis:    yes    0.000000    9.702222    0.000000    60     0.1617
  3. axis:    no     0.000000    0.000000   26.601111   168     0.1583

  Lengths:   9.702222   9.702222  26.601111
  Angles:   90.000000  90.000000  90.000000

Effective grid spacing dv^(1/3) = 0.1606

     iter     time        total  log10-change:
                         energy  eigst   dens
iter:   1 11:46:21  -277.391724  -0.47
iter:   2 11:46:28  -277.396788  -0.97  -1.92
iter:   3 11:46:36  -277.395570c -1.27  -1.93
iter:   4 11:46:43  -277.430654  -1.02  -2.17
Writing to output.gpw (mode='')

iter:   5 11:46:50  -277.364076  -1.44  -2.01
iter:   6 11:46:57  -277.364236  -1.99  -2.34
iter:   7 11:47:04  -277.361041c -1.78  -2.27
iter:   8 11:47:11  -277.359384c -1.84  -2.33
iter:   9 11:47:18  -277.360072c -2.06  -2.40
Writing to output.gpw (mode='')

iter:  10 11:47:25  -277.359887c -2.59  -2.75
iter:  11 11:47:32  -277.360541c -2.56  -2.81
iter:  12 11:47:39  -277.360437c -2.90  -2.76
iter:  13 11:47:46  -277.360304c -3.28  -2.83
iter:  14 11:47:53  -277.359981c -3.30  -3.00
Writing to output.gpw (mode='')

iter:  15 11:48:00  -277.360165c -3.45  -3.24
iter:  16 11:48:08  -277.360069c -3.91  -3.26
iter:  17 11:48:20  -277.360114c -3.91  -3.32
iter:  18 11:48:28  -277.360132c -4.35  -3.66
iter:  19 11:48:35  -277.360112c -4.32  -3.69
Writing to output.gpw (mode='')

iter:  20 11:48:42  -277.360140c -4.53  -3.81
iter:  21 11:48:49  -277.360139c -4.59  -3.91
iter:  22 11:48:56  -277.360156c -4.77  -3.94
iter:  23 11:49:04  -277.360143c -4.75  -4.02c
iter:  24 11:49:11  -277.360143c -4.86  -4.14c
Writing to output.gpw (mode='')

iter:  25 11:49:18  -277.360148c -4.94  -4.21c
iter:  26 11:49:25  -277.360147c -5.24  -4.36c
iter:  27 11:49:32  -277.360152c -5.23  -4.42c
iter:  28 11:49:39  -277.360151c -5.43  -4.52c
iter:  29 11:49:46  -277.360154c -5.57  -4.63c
Writing to output.gpw (mode='')

iter:  30 11:49:53  -277.360153c -5.81  -4.64c
iter:  31 11:50:00  -277.360151c -5.77  -4.68c
iter:  32 11:50:07  -277.360152c -5.94  -4.88c
iter:  33 11:50:14  -277.360152c -5.92  -4.90c
iter:  34 11:50:21  -277.360153c -5.86  -4.91c
Writing to output.gpw (mode='')

iter:  35 11:50:28  -277.360153c -5.99  -4.95c
iter:  36 11:50:36  -277.360154c -5.99  -5.05c
iter:  37 11:50:43  -277.360154c -6.40  -5.14c
iter:  38 11:50:50  -277.360154c -6.42  -5.25c
iter:  39 11:50:57  -277.360154c -6.39  -5.35c
Writing to output.gpw (mode='')

iter:  40 11:51:04  -277.360154c -6.72  -5.43c
iter:  41 11:51:11  -277.360154c -6.72  -5.50c
iter:  42 11:51:18  -277.360154c -6.89  -5.62c
iter:  43 11:51:25  -277.360154c -6.92  -5.70c
iter:  44 11:51:32  -277.360155c -6.84  -5.77c
Writing to output.gpw (mode='')

iter:  45 11:51:39  -277.360155c -6.87  -5.83c
iter:  46 11:51:46  -277.360155c -7.08  -5.87c
iter:  47 11:51:53  -277.360155c -7.16  -5.85c
iter:  48 11:52:00  -277.360155c -7.42c -5.74c

Converged after 48 iterations.

Dipole moment: (-1.302063, -6.042012, 0.382942) |e|*Ang

Energy contributions relative to reference atoms: (reference = -13382.245603)

Kinetic:       +155.617750
Potential:     -139.339684
External:        +0.000000
XC:            -294.235177
Entropy (-ST):   -0.173492
Local:           +0.683703
--------------------------
Free energy:   -277.446901
Extrapolated:  -277.360155

Dipole-layer corrected work functions: 3.381660, 2.645513 eV

Showing only first 2 kpts
 Kpt  Band  Eigenvalues  Occupancy
  0    28     -3.26064    1.98581
  0    29     -3.11376    1.76231
  0    30     -2.93477    0.34263
  0    31     -2.79603    0.02546

  1    28     -3.05603    1.40063
  1    29     -3.02430    1.10671
  1    30     -2.95015    0.43896
  1    31     -2.92519    0.29160


Fermi level: -3.01359

No gap
Writing to output.gpw (mode='')


Forces in eV/Ang:
  0 Li    0.01034    0.00002   -0.26652
  1 Li   -0.01973    0.00103   -0.27668
  2 Li    0.00809    0.00008   -0.28315
  3 Li    0.00206   -0.00241   -0.27441
  4 Li    0.00267    0.00963   -0.27710
  5 Li   -0.00405    0.01938   -0.27396
  6 Li    0.00054    0.00169   -0.27312
  7 Li    0.00370   -0.01089   -0.27697
  8 Li   -0.00349   -0.01941   -0.27248
  9 Li    0.00786    0.00176    0.29406
 10 Li   -0.00659    0.00229    0.24593
 11 Li   -0.00003    0.00415    0.31542
 12 Li    0.01188   -0.00224    0.29278
 13 Li   -0.00892   -0.00373    0.24494
 14 Li   -0.00100   -0.00378    0.31687
 15 Li   -0.01438    0.00182    0.24320
 16 Li    0.00432    0.00206    0.28572
 17 Li    0.00705   -0.00099    0.23303
 18 Li    0.01260   -0.00003    0.05267
 19 Li   -0.04674    0.00235   -0.09075
 20 Li    0.02026   -0.00232   -0.21449
 21 Li   -0.01520   -0.00621    0.03933
 22 Li    0.02339   -0.02992    0.05487
 23 Li   -0.00823   -0.01097    0.03403
 24 Li   -0.01646    0.00625    0.04725
 25 Li    0.02611    0.02951    0.05568
 26 Li   -0.00952    0.01508    0.05793
 27 Li    0.10382   -0.01371   -0.10414
 28 Li   -0.05322   -0.03783   -0.03046
 29 Li   -0.08821    0.24046    0.03779
 30 Li    0.04477   -0.01057    0.05410
 31 Li   -0.04672    0.03310   -0.03421
 32 Li   -0.01626   -0.22343    0.21575
 33 Li   -0.01741    0.00538   -0.02815
 34 Li    0.01380    0.00374   -0.00162
 35 Li    0.00381    0.01358   -0.02652
 36 O     4.15491   -1.27380    8.27368
 37 C     0.45815   -1.69062    1.73094
 38 H     0.12441    0.05363    0.67628
 39 H     0.10548   -0.41314    0.61156
 40 H     0.23617   -0.23904    0.17463
 41 H    -0.33836   -0.01380    0.40312
 42 N     2.40985    2.36080   -5.47927
 43 N    -7.09914    1.18884   -6.46872

System changes: positions 

Initializing position-dependent things.

Density initialized from wave functions
       .-----------------------.  
      /|                       |  
     / |                       |  
    /  |                       |  
   /   |                       |  
  /    |                       |  
 *     |                       |  
 |     |                       |  
 |     |                       |  
 |     |                  H    |  
 |     |                       |  
 |     |                 H   H |  
 |     |                       |  
 |     |                       |  
 |     Li      Li              |  
 |     |            H O        |  
 |     |     Li      Ci      Li|  
 |     |  Li      LN  N   Li   |  
 | Li  |   Li      Li          |  
 |     |Li      Li      Li     |  
 |     |         Li            |  
 |   LLi     LLi     LLi       |  
 |     |  Li      Li      Li   |  
 | Li  |   Li      Li          |  
 |     |Li      Li      Li     |  
 Li    | Li      Li            |  
 |    Li      Li      Li       |  
 |     |                       |  
 |     |                       |  
 |     |                       |  
 |     |                       |  
 |     |                       |  
 |     |                       |  
 |     .-----------------------.  
 |    /                       /   
 |   /                       /    
 |  /                       /     
 | /                       /      
 |/                       /       
 *-----------------------*        

Positions:
   0 Li     1.617037    1.617037   10.000000    ( 0.0000,  0.0000,  0.0000)
   1 Li     4.851111    1.617037   10.000000    ( 0.0000,  0.0000,  0.0000)
   2 Li     8.085185    1.617037   10.000000    ( 0.0000,  0.0000,  0.0000)
   3 Li     1.617037    4.851111   10.000000    ( 0.0000,  0.0000,  0.0000)
   4 Li     4.851111    4.851111   10.000000    ( 0.0000,  0.0000,  0.0000)
   5 Li     8.085185    4.851111   10.000000    ( 0.0000,  0.0000,  0.0000)
   6 Li     1.617037    8.085185   10.000000    ( 0.0000,  0.0000,  0.0000)
   7 Li     4.851111    8.085185   10.000000    ( 0.0000,  0.0000,  0.0000)
   8 Li     8.085185    8.085185   10.000000    ( 0.0000,  0.0000,  0.0000)
   9 Li     0.000000    0.000000   11.617037    ( 0.0000,  0.0000,  0.0000)
  10 Li     3.234074    0.000000   11.617037    ( 0.0000,  0.0000,  0.0000)
  11 Li     6.468148    0.000000   11.617037    ( 0.0000,  0.0000,  0.0000)
  12 Li     0.000000    3.234074   11.617037    ( 0.0000,  0.0000,  0.0000)
  13 Li     3.234074    3.234074   11.617037    ( 0.0000,  0.0000,  0.0000)
  14 Li     6.468148    3.234074   11.617037    ( 0.0000,  0.0000,  0.0000)
  15 Li     0.000000    6.468148   11.617037    ( 0.0000,  0.0000,  0.0000)
  16 Li     3.234074    6.468148   11.617037    ( 0.0000,  0.0000,  0.0000)
  17 Li     6.468148    6.468148   11.617037    ( 0.0000,  0.0000,  0.0000)
  18 Li     1.617562    1.617026   13.471462    ( 0.0000,  0.0000,  0.0000)
  19 Li     4.849483    1.617138   13.466437    ( 0.0000,  0.0000,  0.0000)
  20 Li     8.085875    1.616940   13.462225    ( 0.0000,  0.0000,  0.0000)
  21 Li     1.616513    4.850852   13.471103    ( 0.0000,  0.0000,  0.0000)
  22 Li     4.851904    4.850094   13.471539    ( 0.0000,  0.0000,  0.0000)
  23 Li     8.084917    4.850832   13.470744    ( 0.0000,  0.0000,  0.0000)
  24 Li     1.616438    8.085467   13.471374    ( 0.0000,  0.0000,  0.0000)
  25 Li     4.852007    8.086166   13.471578    ( 0.0000,  0.0000,  0.0000)
  26 Li     8.084882    8.085627   13.471601    ( 0.0000,  0.0000,  0.0000)
  27 Li     0.003002   -0.000035   15.443136    ( 0.0000,  0.0000,  0.0000)
  28 Li     3.232258   -0.001362   15.444900    ( 0.0000,  0.0000,  0.0000)
  29 Li     6.465518    0.009313   15.448669    ( 0.0000,  0.0000,  0.0000)
  30 Li     0.001114    3.233417   15.448307    ( 0.0000,  0.0000,  0.0000)
  31 Li     3.232457    3.235276   15.444762    ( 0.0000,  0.0000,  0.0000)
  32 Li     6.468026    3.225562   15.454707    ( 0.0000,  0.0000,  0.0000)
  33 Li    -0.000509    6.468339   15.444886    ( 0.0000,  0.0000,  0.0000)
  34 Li     3.234520    6.468278   15.445866    ( 0.0000,  0.0000,  0.0000)
  35 Li     6.468220    6.468656   15.444963    ( 0.0000,  0.0000,  0.0000)
  36 O      8.139451    1.585804   18.606499    ( 0.0000,  0.0000,  0.0000)
  37 C      8.086986    0.137952   18.496155    ( 0.0000,  0.0000,  0.0000)
  38 H      7.325183   -0.213989   17.789351    ( 0.0000,  0.0000,  0.0000)
  39 H      7.893542   -0.234361   19.482971    ( 0.0000,  0.0000,  0.0000)
  40 H      9.065421   -0.144269   18.124601    ( 0.0000,  0.0000,  0.0000)
  41 H      7.231671    1.918451   18.738432    ( 0.0000,  0.0000,  0.0000)
  42 N      8.061907    1.693191   17.065528    ( 0.0000,  0.0000,  0.0000)
  43 N      6.916758    1.656749   17.052122    ( 0.0000,  0.0000,  0.0000)

Unit cell:
           periodic     x           y           z      points  spacing
  1. axis:    yes    9.702222    0.000000    0.000000    60     0.1617
  2. axis:    yes    0.000000    9.702222    0.000000    60     0.1617
  3. axis:    no     0.000000    0.000000   26.601111   168     0.1583

  Lengths:   9.702222   9.702222  26.601111
  Angles:   90.000000  90.000000  90.000000

Effective grid spacing dv^(1/3) = 0.1606

     iter     time        total  log10-change:
                         energy  eigst   dens
iter:   1 11:52:09  -278.132764  -0.54
iter:   2 11:52:16  -278.104009  -0.83  -1.69
iter:   3 11:52:23  -278.087281  -1.32  -1.72
iter:   4 11:52:30  -278.116679c -1.15  -2.09
Writing to output.gpw (mode='')

iter:   5 11:52:37  -278.066870  -1.43  -1.96
iter:   6 11:52:46  -278.077525  -1.93  -1.91
iter:   7 11:52:54  -278.055542c -1.78  -1.83
iter:   8 11:53:01  -278.056586c -2.08  -2.25
iter:   9 11:53:08  -278.062918c -1.76  -2.22
Writing to output.gpw (mode='')

iter:  10 11:53:22  -278.055303c -2.16  -2.18
iter:  11 11:53:29  -278.054290c -2.15  -2.49
iter:  12 11:53:36  -278.054479c -2.36  -2.39
iter:  13 11:53:43  -278.055483c -2.44  -2.40
iter:  14 11:53:50  -278.056404c -2.40  -2.53
Writing to output.gpw (mode='')

iter:  15 11:53:57  -278.055617c -2.65  -2.67
iter:  16 11:54:04  -278.054961c -3.05  -2.78
iter:  17 11:54:12  -278.054726c -3.19  -2.82
iter:  18 11:54:19  -278.054271c -3.37  -2.91
iter:  19 11:54:26  -278.054532c -3.28  -2.94
Writing to output.gpw (mode='')

iter:  20 11:54:33  -278.054453c -3.84  -2.93
iter:  21 11:54:40  -278.054538c -3.41  -2.96
iter:  22 11:54:47  -278.054557c -3.68  -3.34
iter:  23 11:54:54  -278.054503c -4.25  -3.46
iter:  24 11:55:02  -278.054526c -4.47  -3.50
Writing to output.gpw (mode='')

iter:  25 11:55:09  -278.054494c -4.50  -3.53
iter:  26 11:55:16  -278.054530c -4.78  -3.72
iter:  27 11:55:23  -278.054502c -5.24  -3.79
iter:  28 11:55:30  -278.054479c -4.96  -3.84
iter:  29 11:55:37  -278.054514c -5.34  -3.94
Writing to output.gpw (mode='')

iter:  30 11:55:44  -278.054510c -5.40  -4.13c
iter:  31 11:55:52  -278.054537c -5.30  -4.32c
iter:  32 11:55:59  -278.054521c -5.66  -4.17c
iter:  33 11:56:06  -278.054519c -6.04  -4.42c
iter:  34 11:56:13  -278.054518c -5.86  -4.45c
Writing to output.gpw (mode='')

iter:  35 11:56:20  -278.054521c -6.00  -4.60c
iter:  36 11:56:27  -278.054517c -6.22  -4.78c
iter:  37 11:56:35  -278.054518c -6.38  -4.79c
iter:  38 11:56:42  -278.054518c -6.28  -4.85c
iter:  39 11:56:49  -278.054519c -6.50  -4.94c
Writing to output.gpw (mode='')

iter:  40 11:56:56  -278.054517c -6.64  -4.98c
iter:  41 11:57:03  -278.054519c -6.56  -5.09c
iter:  42 11:57:10  -278.054519c -6.52  -5.20c
iter:  43 11:57:17  -278.054519c -6.75  -5.31c
iter:  44 11:57:25  -278.054519c -6.80  -5.38c
Writing to output.gpw (mode='')

iter:  45 11:57:32  -278.054520c -6.95  -5.39c
iter:  46 11:57:39  -278.054519c -6.86  -5.45c
iter:  47 11:57:46  -278.054519c -7.13  -5.50c
iter:  48 11:57:53  -278.054519c -7.11  -5.50c
iter:  49 11:58:00  -278.054519c -7.32  -5.55c
Writing to output.gpw (mode='')

iter:  50 11:58:07  -278.054519c -7.43c -5.72c

Converged after 50 iterations.

Dipole moment: (-1.396475, -5.977124, 0.359570) |e|*Ang

Energy contributions relative to reference atoms: (reference = -13382.245603)

Kinetic:       +153.981632
Potential:     -138.680859
External:        +0.000000
XC:            -293.952505
Entropy (-ST):   -0.173162
Local:           +0.683794
--------------------------
Free energy:   -278.141100
Extrapolated:  -278.054519

Dipole-layer corrected work functions: 3.383121, 2.691904 eV

Showing only first 2 kpts
 Kpt  Band  Eigenvalues  Occupancy
  0    28     -3.28477    1.98586
  0    29     -3.13781    1.76284
  0    30     -2.95798    0.33856
  0    31     -2.81989    0.02542

  1    28     -3.07768    1.38140
  1    29     -3.04684    1.09297
  1    30     -2.97806    0.46689
  1    31     -2.94865    0.28928


Fermi level: -3.03751

No gap

Forces in eV/Ang:
  0 Li    0.01138    0.00006   -0.26652
  1 Li   -0.02067    0.00125   -0.27648
  2 Li    0.00846   -0.00004   -0.28266
  3 Li    0.00200   -0.00237   -0.27464
  4 Li    0.00234    0.00964   -0.27734
  5 Li   -0.00414    0.02033   -0.27363
  6 Li    0.00029    0.00152   -0.27369
  7 Li    0.00376   -0.01069   -0.27673
  8 Li   -0.00349   -0.02018   -0.27248
  9 Li    0.00827    0.00142    0.29329
 10 Li   -0.00808    0.00196    0.24445
 11 Li   -0.00011    0.00407    0.31532
 12 Li    0.01230   -0.00172    0.29202
 13 Li   -0.00984   -0.00353    0.24356
 14 Li   -0.00081   -0.00433    0.31789
 15 Li   -0.01496    0.00232    0.24300
 16 Li    0.00523    0.00212    0.28549
 17 Li    0.00724   -0.00062    0.23299
 18 Li    0.01124    0.00034    0.05081
 19 Li   -0.04644    0.00201   -0.08570
 20 Li    0.02149   -0.00196   -0.21234
 21 Li   -0.01532   -0.00597    0.03865
 22 Li    0.02438   -0.03094    0.05648
 23 Li   -0.00874   -0.01209    0.03614
 24 Li   -0.01585    0.00492    0.04601
 25 Li    0.02645    0.03062    0.05675
 26 Li   -0.00953    0.01583    0.05690
 27 Li    0.10542   -0.02011   -0.10410
 28 Li   -0.04879   -0.03464   -0.03124
 29 Li   -0.08405    0.19175    0.01282
 30 Li    0.04216   -0.01382    0.05730
 31 Li   -0.04264    0.03066   -0.03528
 32 Li   -0.01874   -0.17432    0.17560
 33 Li   -0.01693    0.00359   -0.02840
 34 Li    0.01360    0.00324   -0.00188
 35 Li    0.00309    0.01207   -0.02756
 36 O     3.54958   -1.25243    7.51848
 37 C     0.35418   -1.28546    1.56141
 38 H     0.12842    0.03526    0.64824
 39 H     0.11456   -0.50959    0.53558
 40 H     0.18219   -0.20842    0.20747
 41 H    -0.29955   -0.02758    0.50765
 42 N     1.99817    2.17875   -5.30509
 43 N    -5.98374    1.05428   -5.76350

System changes: positions 

Initializing position-dependent things.

Density initialized from wave functions
       .-----------------------.  
      /|                       |  
     / |                       |  
    /  |                       |  
   /   |                       |  
  /    |                       |  
 *     |                       |  
 |     |                       |  
 |     |                       |  
 |     |                  H    |  
 |     |                       |  
 |     |                 H   H |  
 |     |                       |  
 |     |                       |  
 |     Li      Li              |  
 |     |            H O        |  
 |     |     Li      Ci      Li|  
 |     |  Li      LN  N   Li   |  
 | Li  |   Li      Li          |  
 |     |Li      Li      Li     |  
 |     |         Li            |  
 |   LLi     LLi     LLi       |  
 |     |  Li      Li      Li   |  
 | Li  |   Li      Li          |  
 |     |Li      Li      Li     |  
 Li    | Li      Li            |  
 |    Li      Li      Li       |  
 |     |                       |  
 |     |                       |  
 |     |                       |  
 |     |                       |  
 |     |                       |  
 |     |                       |  
 |     .-----------------------.  
 |    /                       /   
 |   /                       /    
 |  /                       /     
 | /                       /      
 |/                       /       
 *-----------------------*        

Positions:
   0 Li     1.617037    1.617037   10.000000    ( 0.0000,  0.0000,  0.0000)
   1 Li     4.851111    1.617037   10.000000    ( 0.0000,  0.0000,  0.0000)
   2 Li     8.085185    1.617037   10.000000    ( 0.0000,  0.0000,  0.0000)
   3 Li     1.617037    4.851111   10.000000    ( 0.0000,  0.0000,  0.0000)
   4 Li     4.851111    4.851111   10.000000    ( 0.0000,  0.0000,  0.0000)
   5 Li     8.085185    4.851111   10.000000    ( 0.0000,  0.0000,  0.0000)
   6 Li     1.617037    8.085185   10.000000    ( 0.0000,  0.0000,  0.0000)
   7 Li     4.851111    8.085185   10.000000    ( 0.0000,  0.0000,  0.0000)
   8 Li     8.085185    8.085185   10.000000    ( 0.0000,  0.0000,  0.0000)
   9 Li     0.000000    0.000000   11.617037    ( 0.0000,  0.0000,  0.0000)
  10 Li     3.234074    0.000000   11.617037    ( 0.0000,  0.0000,  0.0000)
  11 Li     6.468148    0.000000   11.617037    ( 0.0000,  0.0000,  0.0000)
  12 Li     0.000000    3.234074   11.617037    ( 0.0000,  0.0000,  0.0000)
  13 Li     3.234074    3.234074   11.617037    ( 0.0000,  0.0000,  0.0000)
  14 Li     6.468148    3.234074   11.617037    ( 0.0000,  0.0000,  0.0000)
  15 Li     0.000000    6.468148   11.617037    ( 0.0000,  0.0000,  0.0000)
  16 Li     3.234074    6.468148   11.617037    ( 0.0000,  0.0000,  0.0000)
  17 Li     6.468148    6.468148   11.617037    ( 0.0000,  0.0000,  0.0000)
  18 Li     1.617683    1.617032   13.471923    ( 0.0000,  0.0000,  0.0000)
  19 Li     4.849009    1.617156   13.465592    ( 0.0000,  0.0000,  0.0000)
  20 Li     8.086110    1.616921   13.460094    ( 0.0000,  0.0000,  0.0000)
  21 Li     1.616356    4.850782   13.471482    ( 0.0000,  0.0000,  0.0000)
  22 Li     4.852159    4.849773   13.472103    ( 0.0000,  0.0000,  0.0000)
  23 Li     8.084825    4.850720   13.471092    ( 0.0000,  0.0000,  0.0000)
  24 Li     1.616279    8.085517   13.471815    ( 0.0000,  0.0000,  0.0000)
  25 Li     4.852274    8.086484   13.472141    ( 0.0000,  0.0000,  0.0000)
  26 Li     8.084794    8.085779   13.472128    ( 0.0000,  0.0000,  0.0000)
  27 Li     0.003941   -0.000227   15.442253    ( 0.0000,  0.0000,  0.0000)
  28 Li     3.231835   -0.001681   15.444585    ( 0.0000,  0.0000,  0.0000)
  29 Li     6.464853    0.010818   15.448732    ( 0.0000,  0.0000,  0.0000)
  30 Li     0.001399    3.233160   15.449037    ( 0.0000,  0.0000,  0.0000)
[...]
iter:   9 19:52:41  -284.378521c -5.22  -3.85
Writing to output.gpw (mode='')

iter:  10 19:52:48  -284.378518c -5.23  -3.91
iter:  11 19:52:55  -284.378510c -5.44  -4.07c
iter:  12 19:53:02  -284.378516c -5.94  -4.07c
iter:  13 19:53:09  -284.378528c -5.83  -4.13c
iter:  14 19:53:22  -284.378531c -6.12  -4.47c
Writing to output.gpw (mode='')

iter:  15 19:53:29  -284.378527c -6.70  -4.43c
iter:  16 19:53:36  -284.378526c -6.80  -4.55c
iter:  17 19:53:43  -284.378525c -6.56  -4.62c
iter:  18 19:53:50  -284.378523c -6.85  -4.79c
iter:  19 19:53:57  -284.378523c -7.20  -4.98c
Writing to output.gpw (mode='')

iter:  20 19:54:04  -284.378523c -7.44c -5.00c

Converged after 20 iterations.

Dipole moment: (-0.101949, 3.499585, -0.221700) |e|*Ang

Energy contributions relative to reference atoms: (reference = -13382.245603)

Kinetic:       +129.676145
Potential:     -120.879851
External:        +0.000000
XC:            -293.823855
Entropy (-ST):   -0.161248
Local:           +0.729662
--------------------------
Free energy:   -284.459147
Extrapolated:  -284.378523

Dipole-layer corrected work functions: 3.404431, 3.830614 eV

Showing only first 2 kpts
 Kpt  Band  Eigenvalues  Occupancy
  0    28     -3.85302    1.98215
  0    29     -3.65705    1.37588
  0    30     -3.58524    0.68798
  0    31     -3.40489    0.02805

  1    28     -3.85642    1.98331
  1    29     -3.76827    1.90648
  1    30     -3.55915    0.47464
  1    31     -3.36815    0.01355


Fermi level: -3.61752

No gap

Forces in eV/Ang:
  0 Li   -0.00309    0.00954   -0.29060
  1 Li    0.00861   -0.01032   -0.29671
  2 Li    0.00131   -0.00135   -0.25530
  3 Li    0.00907    0.00574   -0.29269
  4 Li   -0.01224    0.01434   -0.28767
  5 Li    0.01245   -0.00752   -0.29380
  6 Li    0.01771   -0.01545   -0.28494
  7 Li   -0.00548   -0.01093   -0.28978
  8 Li   -0.00782    0.00353   -0.29404
  9 Li   -0.04459    0.05317    0.27793
 10 Li   -0.03261    0.02287    0.27807
 11 Li    0.01700    0.04261    0.33818
 12 Li   -0.03895   -0.02645    0.32366
 13 Li   -0.00793   -0.00106    0.28692
 14 Li    0.03114   -0.02362    0.28694
 15 Li   -0.00898    0.02100    0.27606
 16 Li   -0.03193   -0.00708    0.27971
 17 Li    0.01176   -0.01006    0.28837
 18 Li   -0.01081   -0.00748    0.00030
 19 Li    0.01271   -0.00414    0.00411
 20 Li    0.00079    0.00050   -0.00293
 21 Li    0.00519   -0.00152   -0.01018
 22 Li    0.00183   -0.01132   -0.00692
 23 Li   -0.01190   -0.01645   -0.00058
 24 Li    0.00026   -0.00827   -0.00283
 25 Li    0.00982    0.01410    0.00318
 26 Li    0.00392    0.00620    0.01252
 27 Li    0.00971   -0.00157   -0.01096
 28 Li    0.01678    0.00313   -0.00762
 29 Li    0.01572    0.01662    0.00610
 30 Li   -0.00728   -0.00895   -0.02131
 31 Li   -0.00656    0.00002    0.00203
 32 Li    0.00314   -0.00157    0.01010
 33 Li   -0.00335   -0.01779    0.00148
 34 Li    0.00190    0.00186    0.00980
 35 Li    0.00022    0.00728   -0.00577
 36 O     0.02236   -0.00545   -0.01392
 37 C     0.00888    0.00085    0.01564
 38 H     0.02044    0.02540    0.02015
 39 H     0.01317   -0.02327   -0.00146
 40 H    -0.01146   -0.01305    0.00622
 41 H     0.00384    0.00225   -0.05245
 42 N     0.01705   -0.00745    0.01485
 43 N     0.03819    0.00893   -0.01434

System changes: positions 

Initializing position-dependent things.

Density initialized from wave functions
       .-----------------------.  
      /|                       |  
     / |                       |  
    /  |                       |  
   /   |                       |  
  /    |                       |  
 *     |                       |  
 |     |                       |  
 |     |                       |  
 |     |                   H   |  
 |     |                      H|  
 |     |                 H     |  
 |     |                       |  
 |     |                       |  
 |     |      Li     OLi       |  
 |     |             H         |  
 |   Li|     Li      Li        |  
 |     |  Li      Li      Li   |  
 | Li  |   Li      Li  N       |  
 |     |Li      Li  N   Li     |  
 |     |                       |  
 |   LLi     LLi     LLi       |  
 |     |  Li      Li      Li   |  
 | Li  |   Li      Li          |  
 |     |Li      Li      Li     |  
 Li    | Li      Li            |  
 |    Li      Li      Li       |  
 |     |                       |  
 |     |                       |  
 |     |                       |  
 |     |                       |  
 |     |                       |  
 |     |                       |  
 |     .-----------------------.  
 |    /                       /   
 |   /                       /    
 |  /                       /     
 | /                       /      
 |/                       /       
 *-----------------------*        

Positions:
   0 Li     1.617037    1.617037   10.000000    ( 0.0000,  0.0000,  0.0000)
   1 Li     4.851111    1.617037   10.000000    ( 0.0000,  0.0000,  0.0000)
   2 Li     8.085185    1.617037   10.000000    ( 0.0000,  0.0000,  0.0000)
   3 Li     1.617037    4.851111   10.000000    ( 0.0000,  0.0000,  0.0000)
   4 Li     4.851111    4.851111   10.000000    ( 0.0000,  0.0000,  0.0000)
   5 Li     8.085185    4.851111   10.000000    ( 0.0000,  0.0000,  0.0000)
   6 Li     1.617037    8.085185   10.000000    ( 0.0000,  0.0000,  0.0000)
   7 Li     4.851111    8.085185   10.000000    ( 0.0000,  0.0000,  0.0000)
   8 Li     8.085185    8.085185   10.000000    ( 0.0000,  0.0000,  0.0000)
   9 Li     0.000000    0.000000   11.617037    ( 0.0000,  0.0000,  0.0000)
  10 Li     3.234074    0.000000   11.617037    ( 0.0000,  0.0000,  0.0000)
  11 Li     6.468148    0.000000   11.617037    ( 0.0000,  0.0000,  0.0000)
  12 Li     0.000000    3.234074   11.617037    ( 0.0000,  0.0000,  0.0000)
  13 Li     3.234074    3.234074   11.617037    ( 0.0000,  0.0000,  0.0000)
  14 Li     6.468148    3.234074   11.617037    ( 0.0000,  0.0000,  0.0000)
  15 Li     0.000000    6.468148   11.617037    ( 0.0000,  0.0000,  0.0000)
  16 Li     3.234074    6.468148   11.617037    ( 0.0000,  0.0000,  0.0000)
  17 Li     6.468148    6.468148   11.617037    ( 0.0000,  0.0000,  0.0000)
  18 Li     1.587730    1.676637   13.518035    ( 0.0000,  0.0000,  0.0000)
  19 Li     4.816158    1.583301   13.491765    ( 0.0000,  0.0000,  0.0000)
  20 Li     8.070231    1.638170   13.593509    ( 0.0000,  0.0000,  0.0000)
  21 Li     1.635479    4.892036   13.507772    ( 0.0000,  0.0000,  0.0000)
  22 Li     4.900567    4.804323   13.492068    ( 0.0000,  0.0000,  0.0000)
  23 Li     8.144232    4.868587   13.508744    ( 0.0000,  0.0000,  0.0000)
  24 Li     1.536763    8.166181   13.494785    ( 0.0000,  0.0000,  0.0000)
  25 Li     4.778408    8.039893   13.479281    ( 0.0000,  0.0000,  0.0000)
  26 Li     8.032299    8.100791   13.492425    ( 0.0000,  0.0000,  0.0000)
  27 Li    -0.328137    0.275948   15.604122    ( 0.0000,  0.0000,  0.0000)
  28 Li     3.009275   -0.055433   15.465767    ( 0.0000,  0.0000,  0.0000)
  29 Li     6.275528   -0.094820   15.440670    ( 0.0000,  0.0000,  0.0000)
  30 Li     0.072485    3.370082   15.555576    ( 0.0000,  0.0000,  0.0000)
  31 Li     3.354208    3.290969   15.444787    ( 0.0000,  0.0000,  0.0000)
  32 Li     6.652269    3.030261   15.522342    ( 0.0000,  0.0000,  0.0000)
  33 Li     0.060708    6.660372   15.445483    ( 0.0000,  0.0000,  0.0000)
  34 Li     3.235877    6.468302   15.440777    ( 0.0000,  0.0000,  0.0000)
  35 Li     6.419089    6.334726   15.435965    ( 0.0000,  0.0000,  0.0000)
  36 O      7.882610    1.226185   19.477695    ( 0.0000,  0.0000,  0.0000)
  37 C      8.205578   -0.082313   19.010333    ( 0.0000,  0.0000,  0.0000)
  38 H      7.428870   -0.493528   18.355289    ( 0.0000,  0.0000,  0.0000)
  39 H      8.291849   -0.717887   19.890406    ( 0.0000,  0.0000,  0.0000)
  40 H      9.165214   -0.104127   18.475773    ( 0.0000,  0.0000,  0.0000)
  41 H      7.819090    1.812108   18.713430    ( 0.0000,  0.0000,  0.0000)
  42 N      8.456061    2.095405   15.638213    ( 0.0000,  0.0000,  0.0000)
  43 N      7.557898    1.210364   15.603125    ( 0.0000,  0.0000,  0.0000)

Unit cell:
           periodic     x           y           z      points  spacing
  1. axis:    yes    9.702222    0.000000    0.000000    60     0.1617
  2. axis:    yes    0.000000    9.702222    0.000000    60     0.1617
  3. axis:    no     0.000000    0.000000   26.601111   168     0.1583

  Lengths:   9.702222   9.702222  26.601111
  Angles:   90.000000  90.000000  90.000000

Effective grid spacing dv^(1/3) = 0.1606

     iter     time        total  log10-change:
                         energy  eigst   dens
iter:   1 19:54:12  -284.379425  -2.38
iter:   2 19:54:20  -284.379446  -3.15  -2.86
iter:   3 19:54:27  -284.379415c -3.57  -2.96
iter:   4 19:54:34  -284.379395c -4.00  -3.15
Writing to output.gpw (mode='')

iter:   5 19:54:41  -284.379376c -3.72  -3.17
iter:   6 19:54:48  -284.379415c -3.69  -3.35
iter:   7 19:54:55  -284.379376c -4.59  -3.33
iter:   8 19:55:02  -284.379373c -4.69  -3.64
iter:   9 19:55:10  -284.379376c -5.06  -3.65
Writing to output.gpw (mode='')

iter:  10 19:55:17  -284.379361c -5.04  -3.75
iter:  11 19:55:24  -284.379361c -5.08  -3.90
iter:  12 19:55:34  -284.379363c -5.58  -3.96
iter:  13 19:55:41  -284.379370c -5.64  -4.00
iter:  14 19:55:48  -284.379369c -6.10  -4.30c
Writing to output.gpw (mode='')

iter:  15 19:55:55  -284.379369c -6.29  -4.38c
iter:  16 19:56:02  -284.379369c -6.26  -4.40c
iter:  17 19:56:09  -284.379368c -6.20  -4.46c
iter:  18 19:56:16  -284.379367c -6.41  -4.47c
iter:  19 19:56:23  -284.379367c -6.68  -4.75c
Writing to output.gpw (mode='')

iter:  20 19:56:30  -284.379368c -6.76  -4.90c
iter:  21 19:56:38  -284.379368c -7.14  -4.96c
iter:  22 19:56:45  -284.379368c -7.23  -5.00c
iter:  23 19:56:52  -284.379368c -7.20  -5.06c
iter:  24 19:56:59  -284.379368c -7.59c -5.25c

Converged after 24 iterations.

Dipole moment: (-0.084535, 3.454908, -0.221914) |e|*Ang

Energy contributions relative to reference atoms: (reference = -13382.245603)

Kinetic:       +129.854794
Potential:     -121.009254
External:        +0.000000
XC:            -293.873940
Entropy (-ST):   -0.161154
Local:           +0.729609
--------------------------
Free energy:   -284.459945
Extrapolated:  -284.379368

Dipole-layer corrected work functions: 3.404555, 3.831150 eV

Showing only first 2 kpts
 Kpt  Band  Eigenvalues  Occupancy
  0    28     -3.85341    1.98217
  0    29     -3.65753    1.37719
  0    30     -3.58544    0.68675
  0    31     -3.40544    0.02818

  1    28     -3.85696    1.98338
  1    29     -3.76882    1.90688
  1    30     -3.55896    0.47089
  1    31     -3.36763    0.01333


Fermi level: -3.61785

No gap
Writing to output.gpw (mode='')


Forces in eV/Ang:
  0 Li   -0.00295    0.00964   -0.29090
  1 Li    0.00849   -0.01051   -0.29657
  2 Li    0.00119   -0.00128   -0.25523
  3 Li    0.00919    0.00575   -0.29234
  4 Li   -0.01223    0.01433   -0.28780
  5 Li    0.01252   -0.00740   -0.29395
  6 Li    0.01760   -0.01539   -0.28499
  7 Li   -0.00554   -0.01100   -0.28981
  8 Li   -0.00801    0.00345   -0.29414
  9 Li   -0.04402    0.05269    0.27927
 10 Li   -0.03165    0.02249    0.27782
 11 Li    0.01801    0.04281    0.33808
 12 Li   -0.03979   -0.02745    0.32458
 13 Li   -0.00758   -0.00115    0.28545
 14 Li    0.03061   -0.02341    0.28665
 15 Li   -0.00911    0.02031    0.27586
 16 Li   -0.03164   -0.00589    0.27912
 17 Li    0.01172   -0.00956    0.28779
 18 Li   -0.01315   -0.00650    0.00193
 19 Li    0.01203   -0.00486    0.00377
 20 Li    0.00242    0.00185   -0.00929
 21 Li    0.00527   -0.00161   -0.00875
 22 Li    0.00451   -0.01367   -0.00452
 23 Li   -0.01054   -0.01715    0.00022
 24 Li   -0.00087   -0.00696   -0.00330
 25 Li    0.00910    0.01314    0.00435
 26 Li    0.00193    0.00758    0.01345
 27 Li    0.00865   -0.00136   -0.00854
 28 Li    0.01471    0.00331   -0.00676
 29 Li    0.01015    0.00754    0.00250
 30 Li    0.01614    0.01481   -0.02454
 31 Li   -0.00550    0.00010    0.00153
 32 Li   -0.00164    0.00303    0.01000
 33 Li   -0.00330   -0.01481    0.00154
 34 Li    0.00116    0.00244    0.00838
 35 Li    0.00022    0.00623   -0.00536
 36 O     0.02629    0.02977   -0.02374
 37 C     0.01339   -0.00686   -0.00096
 38 H    -0.01440    0.00515    0.00273
 39 H     0.00580   -0.00223    0.01215
 40 H     0.02181   -0.00525   -0.00066
 41 H     0.00906   -0.02976   -0.02158
 42 N     0.02755   -0.01600    0.02155
 43 N     0.01008   -0.01349   -0.01958

Timing:                                      incl.     excl.
-------------------------------------------------------------------
Density initialized from wave functions:     4.941     4.939   0.0% |
 Symmetrize density:                         0.003     0.003   0.0% |
Forces:                                     40.137    40.137   0.1% |
Hamiltonian:                               627.346     0.013   0.0% |
 Atomic:                                     0.023     0.023   0.0% |
  XC Correction:                             0.000     0.000   0.0% |
 Calculate atomic Hamiltonians:              0.053     0.053   0.0% |
 Communicate:                               11.402    11.402   0.0% |
 Hartree integrate/restrict:                 2.432     2.432   0.0% |
 Initialize Hamiltonian:                     0.001     0.001   0.0% |
 Poisson:                                   29.197    10.673   0.0% |
  Communicate from 1D:                       2.922     2.922   0.0% |
  Communicate from 2D:                       2.917     2.917   0.0% |
  Communicate to 1D:                         1.609     1.609   0.0% |
  Communicate to 2D:                         3.538     3.538   0.0% |
  FFT 1D:                                    3.803     3.803   0.0% |
  FFT 2D:                                    3.735     3.735   0.0% |
 XC 3D grid:                               583.707    90.484   0.3% |
  VdW-DF integral:                         493.223     4.068   0.0% |
   Convolution:                             44.900    44.900   0.1% |
   FFT:                                     19.286    19.286   0.1% |
   gather:                                 168.871   168.871   0.5% |
   hmm1:                                    16.181    16.181   0.1% |
   hmm2:                                    21.202    21.202   0.1% |
   iFFT:                                    19.649    19.649   0.1% |
   potential:                              195.436     5.201   0.0% |
    collect:                                29.718    29.718   0.1% |
    p1:                                     86.644    86.644   0.3% |
    p2:                                     32.351    32.351   0.1% |
    sum:                                    41.523    41.523   0.1% |
   splines:                                  3.630     3.630   0.0% |
 vbar:                                       0.517     0.517   0.0% |
LCAO initialization:                         1.074     0.184   0.0% |
 LCAO eigensolver:                           0.229     0.000   0.0% |
  Calculate projections:                     0.000     0.000   0.0% |
  DenseAtomicCorrection:                     0.000     0.000   0.0% |
  Distribute overlap matrix:                 0.178     0.178   0.0% |
  Orbital Layouts:                           0.049     0.049   0.0% |
  Potential matrix:                          0.001     0.001   0.0% |
  Sum over cells:                            0.001     0.001   0.0% |
 LCAO to grid:                               0.524     0.524   0.0% |
 Set positions (LCAO WFS):                   0.137     0.053   0.0% |
  Basic WFS set positions:                   0.001     0.001   0.0% |
  Basis functions set positions:             0.000     0.000   0.0% |
  P tci:                                     0.000     0.000   0.0% |
  ST tci:                                    0.055     0.055   0.0% |
  mktci:                                     0.028     0.028   0.0% |
Redistribute:                                0.064     0.064   0.0% |
SCF-cycle:                               30857.142   458.166   1.4% ||
 Davidson:                                7176.189  2136.965   6.8% |--|
  Apply hamiltonian:                       458.663   458.663   1.4% ||
  Subspace diag:                          1371.151     0.469   0.0% |
   calc_h_matrix:                          665.296   187.848   0.6% |
    Apply hamiltonian:                     477.447   477.447   1.5% ||
   diagonalize:                             89.488    89.488   0.3% |
   rotate_psi:                             615.898   615.898   1.9% ||
  calc. matrices:                         2199.088  1092.780   3.5% ||
   Apply hamiltonian:                     1106.307  1106.307   3.5% ||
  diagonalize:                              18.513    18.513   0.1% |
  rotate_psi:                              991.809   991.809   3.1% ||
 Density:                                  157.052     0.110   0.0% |
  Atomic density matrices:                  16.234    16.234   0.1% |
  Mix:                                      72.124    72.124   0.2% |
  Multipole moments:                        11.195    11.195   0.0% |
  Pseudo density:                           57.388    57.308   0.2% |
   Symmetrize density:                       0.080     0.080   0.0% |
 Hamiltonian:                            23047.094     0.497   0.0% |
  Atomic:                                    0.931     0.921   0.0% |
   XC Correction:                            0.010     0.010   0.0% |
  Calculate atomic Hamiltonians:             1.604     1.604   0.0% |
  Communicate:                             357.184   357.184   1.1% |
  Hartree integrate/restrict:               88.690    88.690   0.3% |
  Poisson:                                1098.532   404.674   1.3% ||
   Communicate from 1D:                    109.420   109.420   0.3% |
   Communicate from 2D:                    110.884   110.884   0.4% |
   Communicate to 1D:                       61.204    61.204   0.2% |
   Communicate to 2D:                      133.030   133.030   0.4% |
   FFT 1D:                                 142.636   142.636   0.5% |
   FFT 2D:                                 136.684   136.684   0.4% |
  XC 3D grid:                            21479.930  3329.195  10.5% |---|
   VdW-DF integral:                      18150.735   150.261   0.5% |
    Convolution:                          1657.953  1657.953   5.2% |-|
    FFT:                                   709.350   709.350   2.2% ||
    gather:                               6306.400  6306.400  19.9% |-------|
    hmm1:                                  593.633   593.633   1.9% ||
    hmm2:                                  781.892   781.892   2.5% ||
    iFFT:                                  726.671   726.671   2.3% ||
    potential:                            7224.537   195.808   0.6% |
     collect:                             1115.664  1115.664   3.5% ||
     p1:                                  3191.959  3191.959  10.1% |---|
     p2:                                  1192.587  1192.587   3.8% |-|
     sum:                                 1528.519  1528.519   4.8% |-|
    splines:                                 0.038     0.038   0.0% |
  vbar:                                     19.727    19.727   0.1% |
 Orthonormalize:                            18.641     0.016   0.0% |
  calc_s_matrix:                             2.439     2.439   0.0% |
  inverse-cholesky:                          6.320     6.320   0.0% |
  projections:                               0.002     0.002   0.0% |
  rotate_psi_s:                              9.865     9.865   0.0% |
Set symmetry:                                0.003     0.003   0.0% |
Other:                                     101.227   101.227   0.3% |
-------------------------------------------------------------------
Total:                                             31631.935 100.0%

Memory usage: 1.12 GiB
Date: Fri Mar 10 19:57:00 2023
