
  ___ ___ ___ _ _ _  
 |   |   |_  | | | | 
 | | | | | . | | | | 
 |__ |  _|___|_____|  22.8.0
 |___|_|             

User:   vazumah@d002
Date:   Tue Mar 14 21:57:34 2023
Arch:   x86_64
Pid:    18802
CWD:    /home/vazumah/Research_Projects/LiMEAS/LiNRR_proton_donors/N2_with_proton_donor/Li_BCC_100/adsorbates/CH3CH2OH_z/ontop/9.702_9.702/N2_y
Python: 3.10.6
gpaw:   /home/vazumah/anaconda3/envs/NAME/lib/python3.10/site-packages/gpaw
_gpaw:  /home/vazumah/anaconda3/envs/NAME/lib/python3.10/site-packages/
        _gpaw.cpython-310-x86_64-linux-gnu.so
ase:    /home/vazumah/anaconda3/envs/NAME/lib/python3.10/site-packages/ase (version 3.22.1)
numpy:  /home/vazumah/anaconda3/envs/NAME/lib/python3.10/site-packages/numpy (version 1.23.3)
scipy:  /home/vazumah/anaconda3/envs/NAME/lib/python3.10/site-packages/scipy (version 1.9.1)
libxc:  5.2.3
units:  Angstrom and eV
cores: 32
OpenMP: True
OMP_NUM_THREADS: 1

Input parameters:
  convergence: {bands: -10}
  h: 0.16
  kpts: {size: [4, 4, 1]}
  occupations: {name: fermi-dirac,
                width: 0.05}
  poissonsolver: {dipolelayer: xy}
  xc: BEEF-vdW

System changes: positions, numbers, cell, pbc, initial_charges, initial_magmoms 

Initialize ...

species:
  Li:
    name: Lithium
    id: 830b4218f175192f93f959cfc0aad614
    Z: 3.0
    valence: 1
    core: 2
    charge: 0.0
    file: /home/vazumah/anaconda3/envs/NAME/share/gpaw/Li.PBE.gz
    compensation charges: {type: gauss,
                           rc: 0.33,
                           lmax: 2}
    cutoffs: {filter: 1.91,
              core: 2.55}
    valence states:
      #              energy  rcut
      - 2s(1.00)    -2.874   1.058
      - 2p(0.00)    -1.090   1.058
      -  s          24.337   1.058
  
    # Using partial waves for Li as LCAO basis

  O:
    name: Oxygen
    id: 32ecd46bf208036f09c70b0ec9a88b78
    Z: 8.0
    valence: 6
    core: 2
    charge: 0.0
    file: /home/vazumah/anaconda3/envs/NAME/share/gpaw/O.PBE.gz
    compensation charges: {type: gauss,
                           rc: 0.21,
                           lmax: 2}
    cutoffs: {filter: 1.17,
              core: 0.83}
    valence states:
      #              energy  rcut
      - 2s(2.00)   -23.961   0.688
      - 2p(4.00)    -9.029   0.598
      -  s           3.251   0.688
      -  p          18.182   0.598
      -  d           0.000   0.619
  
    # Using partial waves for O as LCAO basis

  C:
    name: Carbon
    id: 4aa54d4b901d75f77cc0ea3eec22967b
    Z: 6.0
    valence: 4
    core: 2
    charge: 0.0
    file: /home/vazumah/anaconda3/envs/NAME/share/gpaw/C.PBE.gz
    compensation charges: {type: gauss,
                           rc: 0.20,
                           lmax: 2}
    cutoffs: {filter: 1.14,
              core: 1.14}
    valence states:
      #              energy  rcut
      - 2s(2.00)   -13.751   0.635
      - 2p(2.00)    -5.284   0.635
      -  s          13.461   0.635
      -  p          21.927   0.635
      -  d           0.000   0.635
  
    # Using partial waves for C as LCAO basis

  H:
    name: Hydrogen
    id: d65de229564ff8ea4db303e23b6d1ecf
    Z: 1.0
    valence: 1
    core: 0
    charge: 0.0
    file: /home/vazumah/anaconda3/envs/NAME/share/gpaw/H.PBE.gz
    compensation charges: {type: gauss,
                           rc: 0.15,
                           lmax: 2}
    cutoffs: {filter: 0.85,
              core: 0.53}
    valence states:
      #              energy  rcut
      - 1s(1.00)    -6.494   0.476
      -  s          20.717   0.476
      -  p           0.000   0.476
  
    # Using partial waves for H as LCAO basis

  N:
    name: Nitrogen
    id: f7500608b86eaa90eef8b1d9a670dc53
    Z: 7.0
    valence: 5
    core: 2
    charge: 0.0
    file: /home/vazumah/anaconda3/envs/NAME/share/gpaw/N.PBE.gz
    compensation charges: {type: gauss,
                           rc: 0.18,
                           lmax: 2}
    cutoffs: {filter: 1.11,
              core: 0.96}
    valence states:
      #              energy  rcut
      - 2s(2.00)   -18.583   0.603
      - 2p(3.00)    -7.089   0.529
      -  s           8.629   0.603
      -  p          20.123   0.529
      -  d           0.000   0.577
  
    # Using partial waves for N as LCAO basis

Reference energy: -14434.854043  # eV

Spin-paired calculation

Convergence criteria:
 Maximum [total energy] change in last 3 cyles: 0.0005 eV / electron
 Maximum integral of absolute [dens]ity change: 0.0001 electrons / valence electron
 Maximum integral of absolute [eigenst]ate change: 4e-08 eV^2 / valence electron
 Maximum number of scf [iter]ations: 333
 (Square brackets indicate name in SCF output, whereas a 'c' in
 the SCF output indicates the quantity has converged.)

Symmetries present (total): 1

  ( 1  0  0)
  ( 0  1  0)
  ( 0  0  1)

16 k-points: 4 x 4 x 1 Monkhorst-Pack grid
8 k-points in the irreducible part of the Brillouin zone
       k-points in crystal coordinates                weights
   0:     0.12500000   -0.37500000    0.00000000          2/16
   1:     0.12500000   -0.12500000    0.00000000          2/16
   2:     0.12500000    0.12500000    0.00000000          2/16
   3:     0.12500000    0.37500000    0.00000000          2/16
   4:     0.37500000   -0.37500000    0.00000000          2/16
   5:     0.37500000   -0.12500000    0.00000000          2/16
   6:     0.37500000    0.12500000    0.00000000          2/16
   7:     0.37500000    0.37500000    0.00000000          2/16

Wave functions: Uniform real-space grid
  Kinetic energy operator: 6*3+1=19 point O(h^6) finite-difference Laplacian
  ScaLapack parameters: grid=1x1, blocksize=None
  Wavefunction extrapolation:
    Improved wavefunction reuse through dual PAW basis 

Occupation numbers: Fermi-Dirac:
  width: 0.0500  # eV
 

Eigensolver
   Davidson(niter=2) 

Densities:
  Coarse grid: 60*60*156 grid
  Fine grid: 120*120*312 grid
  Total Charge: 0.000000 

Density mixing:
  Method: separate
  Backend: pulay
  Linear mixing parameter: 0.05
  old densities: 5
  Damping of long wavelength oscillations: 50 

Hamiltonian:
  XC and Coulomb potentials evaluated on a 120*120*312 grid
  Using the BEEF-vdW Exchange-Correlation functional
  Interpolation: tri-quintic (5. degree polynomial)
  Poisson solver: FastPoissonSolver using
    Stencil: 6*3+1=19 point O(h^6) finite-difference Laplacian
    FFT axes: [0, 1]
    FST axes: [2]

Dipole correction along z-axis 

XC parameters: BEEF-vdW with 2 nearest neighbor stencil

Memory estimate:
  Process memory now: 234.87 MiB
  Calculator: 307.36 MiB
    Density: 88.33 MiB
      Arrays: 27.47 MiB
      Localized functions: 50.43 MiB
      Mixer: 10.44 MiB
    Hamiltonian: 21.95 MiB
      Arrays: 17.96 MiB
      XC: 0.00 MiB
      Poisson: 0.00 MiB
      vbar: 3.99 MiB
    Wavefunctions: 197.08 MiB
      Arrays psit_nG: 91.85 MiB
      Eigensolver: 102.58 MiB
      Projections: 0.05 MiB
      Projectors: 2.60 MiB

Total number of cores used: 32
Parallelization over k-points: 8
Domain decomposition: 1 x 1 x 4

Number of atoms: 47
Number of atomic orbitals: 170
Number of bands in calculation: 44
Number of valence electrons: 66
Bands to converge: 34

... initialized

Initializing position-dependent things.

Density initialized from atomic densities
Creating initial wave functions:
  44 bands from LCAO basis set

       .-----------------------.  
      /|                       |  
     / |                       |  
    /  H                       |  
   /   |                       |  
  /    |                       |  
 *     | H                     C  
 |     |                    H  |  
 |     |                       |  
 | H   |               H       |  
 |     |                 C     |  
 |    N|                       Li 
 |     |               H       |  
 |     |                 O     |  
 |     |     Li      Li      Li|  
 |     |  Li      Li      Li   |  
 | Li  |   Li      Li          |  
 |     |Li      Li      Li     |  
 |     | Li      Li            |  
 |   LLi     LLi     LLi       |  
 |     |  Li      Li      Li   |  
 | Li  |   Li      Li          |  
 |     |Li      Li      Li     |  
 Li    | Li      Li            |  
 |    Li      Li      Li       |  
 |     |                       |  
 |     |                       |  
 |     |                       |  
 |     |                       |  
 |     |                       |  
 |     |                       |  
 |     .-----------------------.  
 |    /                       /   
 |   /                       /    
 |  /                       /     
 | /                       /      
 |/                       /       
 *-----------------------*        

Positions:
   0 Li     1.617037    1.617037   10.000000    ( 0.0000,  0.0000,  0.0000)
   1 Li     4.851111    1.617037   10.000000    ( 0.0000,  0.0000,  0.0000)
   2 Li     8.085185    1.617037   10.000000    ( 0.0000,  0.0000,  0.0000)
   3 Li     1.617037    4.851111   10.000000    ( 0.0000,  0.0000,  0.0000)
   4 Li     4.851111    4.851111   10.000000    ( 0.0000,  0.0000,  0.0000)
   5 Li     8.085185    4.851111   10.000000    ( 0.0000,  0.0000,  0.0000)
   6 Li     1.617037    8.085185   10.000000    ( 0.0000,  0.0000,  0.0000)
   7 Li     4.851111    8.085185   10.000000    ( 0.0000,  0.0000,  0.0000)
   8 Li     8.085185    8.085185   10.000000    ( 0.0000,  0.0000,  0.0000)
   9 Li     0.000000    0.000000   11.617037    ( 0.0000,  0.0000,  0.0000)
  10 Li     3.234074    0.000000   11.617037    ( 0.0000,  0.0000,  0.0000)
  11 Li     6.468148    0.000000   11.617037    ( 0.0000,  0.0000,  0.0000)
  12 Li     0.000000    3.234074   11.617037    ( 0.0000,  0.0000,  0.0000)
  13 Li     3.234074    3.234074   11.617037    ( 0.0000,  0.0000,  0.0000)
  14 Li     6.468148    3.234074   11.617037    ( 0.0000,  0.0000,  0.0000)
  15 Li     0.000000    6.468148   11.617037    ( 0.0000,  0.0000,  0.0000)
  16 Li     3.234074    6.468148   11.617037    ( 0.0000,  0.0000,  0.0000)
  17 Li     6.468148    6.468148   11.617037    ( 0.0000,  0.0000,  0.0000)
  18 Li     1.577360    1.539966   13.567862    ( 0.0000,  0.0000,  0.0000)
  19 Li     4.855922    1.642570   13.474823    ( 0.0000,  0.0000,  0.0000)
  20 Li     8.135235    1.539661   13.575473    ( 0.0000,  0.0000,  0.0000)
  21 Li     1.610703    4.806826   13.489912    ( 0.0000,  0.0000,  0.0000)
  22 Li     4.854168    4.836332   13.476768    ( 0.0000,  0.0000,  0.0000)
  23 Li     8.098430    4.809081   13.488610    ( 0.0000,  0.0000,  0.0000)
  24 Li     1.597803    8.087083   13.503817    ( 0.0000,  0.0000,  0.0000)
  25 Li     4.851522    8.085499   13.476021    ( 0.0000,  0.0000,  0.0000)
  26 Li     8.109943    8.081888   13.514739    ( 0.0000,  0.0000,  0.0000)
  27 Li    -0.015079   -0.266999   15.880433    ( 0.0000,  0.0000,  0.0000)
  28 Li     3.301230    0.024187   15.418407    ( 0.0000,  0.0000,  0.0000)
  29 Li     6.418741    0.015250   15.424161    ( 0.0000,  0.0000,  0.0000)
  30 Li     0.006215    3.126376   15.521621    ( 0.0000,  0.0000,  0.0000)
  31 Li     3.242577    3.243180   15.458898    ( 0.0000,  0.0000,  0.0000)
  32 Li     6.477727    3.241968   15.452020    ( 0.0000,  0.0000,  0.0000)
  33 Li    -0.005626    6.287913   15.470628    ( 0.0000,  0.0000,  0.0000)
  34 Li     3.292783    6.456195   15.399267    ( 0.0000,  0.0000,  0.0000)
  35 Li     6.425617    6.461568   15.399872    ( 0.0000,  0.0000,  0.0000)
  36 O      9.529685   10.489331   19.058713    ( 0.0000,  0.0000,  0.0000)
  37 C      9.633853    9.522193   20.121426    ( 0.0000,  0.0000,  0.0000)
  38 C      9.562009   10.138473   21.510771    ( 0.0000,  0.0000,  0.0000)
  39 H      8.859931    8.753662   20.002790    ( 0.0000,  0.0000,  0.0000)
  40 H     10.603346    9.044231   19.966612    ( 0.0000,  0.0000,  0.0000)
  41 H      9.709316    9.369745   22.272973    ( 0.0000,  0.0000,  0.0000)
  42 H     10.334498   10.897128   21.640752    ( 0.0000,  0.0000,  0.0000)
  43 H      8.588335   10.602480   21.690885    ( 0.0000,  0.0000,  0.0000)
  44 H      8.688364   10.954590   19.156771    ( 0.0000,  0.0000,  0.0000)
  45 N      9.811984    7.838161   17.110713    ( 0.0000,  0.0000,  0.0000)
  46 N      9.850971    6.875768   17.709096    ( 0.0000,  0.0000,  0.0000)

Unit cell:
           periodic     x           y           z      points  spacing
  1. axis:    yes    9.702222    0.000000    0.000000    60     0.1617
  2. axis:    yes    0.000000    9.702222    0.000000    60     0.1617
  3. axis:    no     0.000000    0.000000   24.851111   156     0.1593

  Lengths:   9.702222   9.702222  24.851111
  Angles:   90.000000  90.000000  90.000000

Effective grid spacing dv^(1/3) = 0.1609

     iter     time        total  log10-change:
                         energy  eigst   dens
iter:   1 21:58:19  -572.436637  +1.28
iter:   2 21:58:45   -52.607267  +2.53  +0.01
iter:   3 21:59:11    24.116627  +3.19  -0.14
iter:   4 21:59:37  -140.889282  +3.17  -0.21
iter:   5 22:00:03  -226.634588  +2.97  -0.26
iter:   6 22:00:29  -273.194113  +2.50  -0.48
iter:   7 22:00:55  -287.520561  +2.19  -0.58
iter:   8 22:01:21  -302.345089  +2.10  -0.64
iter:   9 22:01:47  -372.383259  +2.36  -0.67
iter:  10 22:02:13  -323.933886  +1.62  -0.47
iter:  11 22:02:39  -322.626492  +1.45  -0.72
iter:  12 22:03:05  -326.141181  +1.31  -0.75
iter:  13 22:03:31  -323.464220  +1.29  -0.64
iter:  14 22:03:57  -314.389294  +0.92  -0.56
iter:  15 22:04:24  -311.764682  +1.11  -0.74
iter:  16 22:04:53  -313.521313  +0.65  -0.85
iter:  17 22:05:20  -312.812821  +0.20  -0.79
iter:  18 22:05:47  -311.255036  -0.07  -0.81
iter:  19 22:06:14  -309.836932  +0.54  -0.91
iter:  20 22:06:40  -309.462467  +0.55  -0.99
iter:  21 22:07:08  -309.364766  -0.04  -1.11
iter:  22 22:07:35  -308.855298  +0.02  -1.13
iter:  23 22:08:02  -308.912591  -0.44  -1.46
iter:  24 22:08:28  -308.927453  -0.38  -1.49
iter:  25 22:08:57  -308.848454  -0.40  -1.49
iter:  26 22:09:28  -308.828345  -1.18  -1.78
iter:  27 22:09:57  -308.823979c -1.35  -1.89
iter:  28 22:10:27  -308.819547c -1.12  -1.92
iter:  29 22:10:57  -308.820516c -1.50  -2.06
iter:  30 22:11:28  -308.821954c -1.68  -2.19
iter:  31 22:11:55  -308.822217c -1.60  -2.20
iter:  32 22:12:22  -308.824261c -1.61  -2.27
iter:  33 22:12:49  -308.825181c -1.97  -2.36
iter:  34 22:13:16  -308.824980c -2.13  -2.37
iter:  35 22:13:44  -308.824905c -2.02  -2.41
iter:  36 22:14:11  -308.825656c -2.13  -2.49
iter:  37 22:14:40  -308.826134c -2.43  -2.56
iter:  38 22:15:08  -308.827432c -2.37  -2.61
iter:  39 22:15:35  -308.827390c -2.41  -2.77
iter:  40 22:16:01  -308.827983c -2.58  -2.77
iter:  41 22:16:28  -308.828674c -2.43  -3.00
iter:  42 22:16:55  -308.828706c -2.90  -2.88
iter:  43 22:17:22  -308.828752c -2.73  -2.93
iter:  44 22:17:49  -308.828925c -2.98  -3.02
iter:  45 22:18:16  -308.829041c -2.98  -3.15
iter:  46 22:18:43  -308.829102c -2.84  -3.22
iter:  47 22:19:11  -308.829268c -3.12  -3.37
iter:  48 22:19:39  -308.829443c -3.09  -3.41
iter:  49 22:20:07  -308.829516c -3.08  -3.44
iter:  50 22:20:36  -308.829545c -3.14  -3.56
iter:  51 22:21:04  -308.829618c -3.46  -3.63
iter:  52 22:21:33  -308.829657c -3.36  -3.62
iter:  53 22:22:00  -308.829727c -3.42  -3.55
iter:  54 22:22:29  -308.829762c -3.44  -3.57
iter:  55 22:22:58  -308.829826c -3.56  -3.50
iter:  56 22:23:27  -308.829860c -3.71  -3.50
iter:  57 22:23:56  -308.829907c -3.58  -3.48
iter:  58 22:24:25  -308.829953c -3.58  -3.51
iter:  59 22:24:55  -308.829971c -3.77  -3.54
iter:  60 22:25:26  -308.829993c -3.78  -3.53
iter:  61 22:26:10  -308.830015c -3.93  -3.53
iter:  62 22:26:38  -308.830041c -3.94  -3.52
iter:  63 22:27:06  -308.830044c -3.90  -3.63
iter:  64 22:27:34  -308.830090c -4.03  -3.51
iter:  65 22:28:03  -308.830084c -4.06  -3.66
iter:  66 22:28:31  -308.830128c -3.95  -3.61
iter:  67 22:28:59  -308.830153c -3.91  -3.69
iter:  68 22:29:28  -308.830151c -4.19  -3.74
iter:  69 22:29:56  -308.830185c -4.22  -3.63
iter:  70 22:30:25  -308.830196c -4.14  -3.79
iter:  71 22:30:54  -308.830187c -4.24  -3.81
iter:  72 22:31:22  -308.830175c -4.29  -3.96
iter:  73 22:31:51  -308.830204c -4.47  -3.92
iter:  74 22:32:20  -308.830200c -4.71  -3.98
iter:  75 22:32:48  -308.830194c -4.49  -4.00c
iter:  76 22:33:16  -308.830202c -4.85  -3.97
iter:  77 22:33:44  -308.830209c -4.74  -4.02c
iter:  78 22:34:13  -308.830217c -4.88  -4.08c
iter:  79 22:34:43  -308.830217c -4.99  -4.21c
iter:  80 22:35:11  -308.830222c -4.78  -4.26c
iter:  81 22:35:40  -308.830225c -5.10  -4.33c
iter:  82 22:36:17  -308.830224c -4.96  -4.42c
iter:  83 22:36:54  -308.830225c -5.06  -4.62c
iter:  84 22:37:31  -308.830226c -5.25  -4.73c
iter:  85 22:38:08  -308.830228c -5.22  -4.89c
iter:  86 22:38:45  -308.830230c -5.37  -5.09c
iter:  87 22:39:39  -308.830231c -5.25  -5.18c
iter:  88 22:40:30  -308.830231c -5.40  -5.17c
iter:  89 22:41:23  -308.830231c -5.55  -5.14c
iter:  90 22:42:16  -308.830232c -5.64  -5.04c
iter:  91 22:43:09  -308.830232c -5.59  -5.06c
iter:  92 22:46:14  -308.830232c -5.73  -5.05c
iter:  93 22:47:54  -308.830233c -5.61  -4.99c
iter:  94 22:49:31  -308.830233c -5.73  -4.98c
iter:  95 22:51:10  -308.830233c -5.78  -4.96c
iter:  96 22:53:13  -308.830233c -5.85  -4.93c
iter:  97 22:55:54  -308.830234c -5.89  -4.89c
iter:  98 23:01:30  -308.830234c -5.87  -4.86c
iter:  99 23:05:01  -308.830234c -6.05  -4.84c
iter: 100 23:11:17  -308.830234c -6.02  -4.80c
iter: 101 23:16:06  -308.830235c -5.94  -4.81c
iter: 102 23:18:10  -308.830236c -5.94  -4.72c
iter: 103 23:20:13  -308.830238c -5.89  -4.75c
iter: 104 23:23:32  -308.830239c -5.85  -4.75c
iter: 105 23:26:11  -308.830238c -5.80  -4.79c
iter: 106 23:28:46  -308.830238c -6.06  -4.95c
iter: 107 23:31:14  -308.830238c -6.36  -5.06c
iter: 108 23:35:11  -308.830238c -6.18  -5.10c
iter: 109 23:38:05  -308.830238c -6.49  -5.25c
iter: 110 23:40:50  -308.830238c -6.57  -5.45c
iter: 111 23:45:48  -308.830238c -6.53  -5.49c
iter: 112 23:48:35  -308.830239c -6.53  -5.55c
iter: 113 23:50:29  -308.830239c -6.67  -5.65c
iter: 114 23:54:07  -308.830239c -6.77  -5.66c
iter: 115 23:58:04  -308.830239c -6.71  -5.64c
iter: 116 00:00:29  -308.830239c -6.86  -5.54c
iter: 117 00:04:26  -308.830239c -6.92  -5.54c
iter: 118 00:08:22  -308.830239c -6.89  -5.51c
iter: 119 00:10:14  -308.830239c -6.88  -5.51c
iter: 120 00:12:05  -308.830239c -7.11  -5.72c
iter: 121 00:13:46  -308.830239c -6.95  -5.69c
iter: 122 00:15:43  -308.830239c -7.24  -5.72c
iter: 123 00:17:40  -308.830239c -7.09  -5.77c
iter: 124 00:19:25  -308.830239c -7.11  -5.97c
iter: 125 00:21:23  -308.830239c -7.15  -6.11c
iter: 126 00:23:40  -308.830239c -7.19  -6.04c
iter: 127 00:26:11  -308.830239c -7.30  -6.31c
iter: 128 00:29:44  -308.830239c -7.42c -6.39c

Converged after 128 iterations.

Dipole moment: (-7.846860, 4.071444, 0.245889) |e|*Ang

Energy contributions relative to reference atoms: (reference = -14434.854043)

Kinetic:       +148.206273
Potential:     -143.803251
External:        +0.000000
XC:            -313.915087
Entropy (-ST):   -0.155970
Local:           +0.759810
--------------------------
Free energy:   -308.908224
Extrapolated:  -308.830239

Dipole-layer corrected work functions: 3.402188, 2.929504 eV

Showing only first 2 kpts
 Kpt  Band  Eigenvalues  Occupancy
  0    31     -3.39615    1.98022
  0    32     -3.34482    1.94574
  0    33     -3.00789    0.08147
  0    34     -2.97662    0.04443

  1    31     -3.20642    1.38481
  1    32     -3.16513    0.99288
  1    33     -3.12950    0.65172
  1    34     -3.08982    0.35876


Fermi level: -3.16585

No gap
Writing to top.gpw (mode='all')

Timing:                              incl.     excl.
-----------------------------------------------------------
Hamiltonian:                        21.695     0.000   0.0% |
 Atomic:                             0.078     0.001   0.0% |
  XC Correction:                     0.077     0.077   0.0% |
 Calculate atomic Hamiltonians:      0.066     0.066   0.0% |
 Communicate:                        0.090     0.090   0.0% |
 Hartree integrate/restrict:         0.058     0.058   0.0% |
 Initialize Hamiltonian:             0.001     0.001   0.0% |
 Poisson:                            1.470     0.687   0.0% |
  Communicate from 1D:               0.109     0.109   0.0% |
  Communicate from 2D:               0.145     0.145   0.0% |
  Communicate to 1D:                 0.033     0.033   0.0% |
  Communicate to 2D:                 0.153     0.153   0.0% |
  FFT 1D:                            0.154     0.154   0.0% |
  FFT 2D:                            0.190     0.190   0.0% |
 XC 3D grid:                        19.930     3.276   0.0% |
  VdW-DF integral:                  16.653     0.111   0.0% |
   Convolution:                      1.516     1.516   0.0% |
   FFT:                              0.469     0.469   0.0% |
   gather:                           2.903     2.903   0.0% |
   hmm1:                             0.315     0.315   0.0% |
   hmm2:                             0.438     0.438   0.0% |
   iFFT:                             0.555     0.555   0.0% |
   potential:                        2.780     0.079   0.0% |
    collect:                         0.256     0.256   0.0% |
    p1:                              1.359     1.359   0.0% |
    p2:                              0.735     0.735   0.0% |
    sum:                             0.351     0.351   0.0% |
   splines:                          7.565     7.565   0.1% |
 vbar:                               0.004     0.004   0.0% |
LCAO initialization:                 4.845     0.403   0.0% |
 LCAO eigensolver:                   1.401     0.002   0.0% |
  Calculate projections:             0.000     0.000   0.0% |
  DenseAtomicCorrection:             0.000     0.000   0.0% |
  Distribute overlap matrix:         1.373     1.373   0.0% |
  Orbital Layouts:                   0.026     0.026   0.0% |
  Potential matrix:                  0.001     0.001   0.0% |
  Sum over cells:                    0.001     0.001   0.0% |
 LCAO to grid:                       2.455     2.455   0.0% |
 Set positions (LCAO WFS):           0.586     0.417   0.0% |
  Basic WFS set positions:           0.003     0.003   0.0% |
  Basis functions set positions:     0.000     0.000   0.0% |
  P tci:                             0.001     0.001   0.0% |
  ST tci:                            0.099     0.099   0.0% |
  mktci:                             0.066     0.066   0.0% |
SCF-cycle:                        9096.735   781.770   8.4% |--|
 Davidson:                        1143.720   423.494   4.6% |-|
  Apply hamiltonian:                93.048    93.048   1.0% |
  Subspace diag:                   168.206     0.030   0.0% |
   calc_h_matrix:                  105.413    19.042   0.2% |
    Apply hamiltonian:              86.371    86.371   0.9% |
   diagonalize:                      2.655     2.655   0.0% |
   rotate_psi:                      60.108    60.108   0.6% |
  calc. matrices:                  360.550   143.833   1.5% ||
   Apply hamiltonian:              216.717   216.717   2.3% ||
  diagonalize:                       0.887     0.887   0.0% |
  rotate_psi:                       97.535    97.535   1.0% |
 Density:                           26.555     0.005   0.0% |
  Atomic density matrices:           4.714     4.714   0.1% |
  Mix:                               8.825     8.825   0.1% |
  Multipole moments:                 0.122     0.122   0.0% |
  Pseudo density:                   12.890    12.884   0.1% |
   Symmetrize density:               0.005     0.005   0.0% |
 Hamiltonian:                     7143.886     0.026   0.0% |
  Atomic:                            9.795     0.117   0.0% |
   XC Correction:                    9.678     9.678   0.1% |
  Calculate atomic Hamiltonians:     7.329     7.329   0.1% |
  Communicate:                     177.035   177.035   1.9% ||
  Hartree integrate/restrict:        6.896     6.896   0.1% |
  Poisson:                         151.797    77.597   0.8% |
   Communicate from 1D:              7.355     7.355   0.1% |
   Communicate from 2D:             15.256    15.256   0.2% |
   Communicate to 1D:                2.791     2.791   0.0% |
   Communicate to 2D:               16.238    16.238   0.2% |
   FFT 1D:                          15.792    15.792   0.2% |
   FFT 2D:                          16.768    16.768   0.2% |
  XC 3D grid:                     6789.886   431.818   4.6% |-|
   VdW-DF integral:               6358.068    12.305   0.1% |
    Convolution:                   171.147   171.147   1.8% ||
    FFT:                            59.805    59.805   0.6% |
    gather:                       5138.894  5138.894  55.2% |---------------------|
    hmm1:                           40.636    40.636   0.4% |
    hmm2:                           54.465    54.465   0.6% |
    iFFT:                           66.467    66.467   0.7% |
    potential:                     814.347     7.938   0.1% |
     collect:                       28.333    28.333   0.3% |
     p1:                           168.038   168.038   1.8% ||
     p2:                            77.445    77.445   0.8% |
     sum:                          532.593   532.593   5.7% |-|
    splines:                         0.002     0.002   0.0% |
  vbar:                              1.123     1.123   0.0% |
 Orthonormalize:                     0.803     0.000   0.0% |
  calc_s_matrix:                     0.081     0.081   0.0% |
  inverse-cholesky:                  0.364     0.364   0.0% |
  projections:                       0.000     0.000   0.0% |
  rotate_psi_s:                      0.357     0.357   0.0% |
Set symmetry:                        0.002     0.002   0.0% |
Other:                             183.667   183.667   2.0% ||
-----------------------------------------------------------
Total:                                      9306.943 100.0%

Memory usage: 1.44 GiB
Date: Wed Mar 15 00:32:41 2023
