
  ___ ___ ___ _ _ _  
 |   |   |_  | | | | 
 | | | | | . | | | | 
 |__ |  _|___|_____|  22.8.0
 |___|_|             

User:   vazumah@f004
Date:   Wed Mar  8 12:31:22 2023
Arch:   x86_64
Pid:    49514
CWD:    /home/vazumah/Research_Projects/LiMEAS/LiNRR_proton_donors/on_pure_surface/Li_BCC100/adsorbates/ethanediol_x/ontop/9.702_9.702
Python: 3.10.6
gpaw:   /home/vazumah/anaconda3/envs/NAME/lib/python3.10/site-packages/gpaw
_gpaw:  /home/vazumah/anaconda3/envs/NAME/lib/python3.10/site-packages/
        _gpaw.cpython-310-x86_64-linux-gnu.so
ase:    /home/vazumah/anaconda3/envs/NAME/lib/python3.10/site-packages/ase (version 3.22.1)
numpy:  /home/vazumah/anaconda3/envs/NAME/lib/python3.10/site-packages/numpy (version 1.23.3)
scipy:  /home/vazumah/anaconda3/envs/NAME/lib/python3.10/site-packages/scipy (version 1.9.1)
libxc:  5.2.3
units:  Angstrom and eV
cores: 32
OpenMP: True
OMP_NUM_THREADS: 1

Input parameters:
  h: 0.16
  kpts: {size: [4, 4, 1]}
  occupations: {name: fermi-dirac,
                width: 0.05}
  poissonsolver: {dipolelayer: xy}
  xc: BEEF-vdW

System changes: positions, numbers, cell, pbc, initial_charges, initial_magmoms 

Initialize ...

species:
  Li:
    name: Lithium
    id: 830b4218f175192f93f959cfc0aad614
    Z: 3.0
    valence: 1
    core: 2
    charge: 0.0
    file: /home/vazumah/anaconda3/envs/NAME/share/gpaw/Li.PBE.gz
    compensation charges: {type: gauss,
                           rc: 0.33,
                           lmax: 2}
    cutoffs: {filter: 1.91,
              core: 2.55}
    valence states:
      #              energy  rcut
      - 2s(1.00)    -2.874   1.058
      - 2p(0.00)    -1.090   1.058
      -  s          24.337   1.058
  
    # Using partial waves for Li as LCAO basis

  O:
    name: Oxygen
    id: 32ecd46bf208036f09c70b0ec9a88b78
    Z: 8.0
    valence: 6
    core: 2
    charge: 0.0
    file: /home/vazumah/anaconda3/envs/NAME/share/gpaw/O.PBE.gz
    compensation charges: {type: gauss,
                           rc: 0.21,
                           lmax: 2}
    cutoffs: {filter: 1.17,
              core: 0.83}
    valence states:
      #              energy  rcut
      - 2s(2.00)   -23.961   0.688
      - 2p(4.00)    -9.029   0.598
      -  s           3.251   0.688
      -  p          18.182   0.598
      -  d           0.000   0.619
  
    # Using partial waves for O as LCAO basis

  C:
    name: Carbon
    id: 4aa54d4b901d75f77cc0ea3eec22967b
    Z: 6.0
    valence: 4
    core: 2
    charge: 0.0
    file: /home/vazumah/anaconda3/envs/NAME/share/gpaw/C.PBE.gz
    compensation charges: {type: gauss,
                           rc: 0.20,
                           lmax: 2}
    cutoffs: {filter: 1.14,
              core: 1.14}
    valence states:
      #              energy  rcut
      - 2s(2.00)   -13.751   0.635
      - 2p(2.00)    -5.284   0.635
      -  s          13.461   0.635
      -  p          21.927   0.635
      -  d           0.000   0.635
  
    # Using partial waves for C as LCAO basis

  H:
    name: Hydrogen
    id: d65de229564ff8ea4db303e23b6d1ecf
    Z: 1.0
    valence: 1
    core: 0
    charge: 0.0
    file: /home/vazumah/anaconda3/envs/NAME/share/gpaw/H.PBE.gz
    compensation charges: {type: gauss,
                           rc: 0.15,
                           lmax: 2}
    cutoffs: {filter: 0.85,
              core: 0.53}
    valence states:
      #              energy  rcut
      - 1s(1.00)    -6.494   0.476
      -  s          20.717   0.476
      -  p           0.000   0.476
  
    # Using partial waves for H as LCAO basis

Reference energy: -13512.263335  # eV

Spin-paired calculation

Convergence criteria:
 Maximum [total energy] change in last 3 cyles: 0.0005 eV / electron
 Maximum integral of absolute [dens]ity change: 0.0001 electrons / valence electron
 Maximum integral of absolute [eigenst]ate change: 4e-08 eV^2 / valence electron
 Maximum number of scf [iter]ations: 333
 (Square brackets indicate name in SCF output, whereas a 'c' in
 the SCF output indicates the quantity has converged.)

Symmetries present (total): 1

  ( 1  0  0)
  ( 0  1  0)
  ( 0  0  1)

16 k-points: 4 x 4 x 1 Monkhorst-Pack grid
8 k-points in the irreducible part of the Brillouin zone
       k-points in crystal coordinates                weights
   0:     0.12500000   -0.37500000    0.00000000          2/16
   1:     0.12500000   -0.12500000    0.00000000          2/16
   2:     0.12500000    0.12500000    0.00000000          2/16
   3:     0.12500000    0.37500000    0.00000000          2/16
   4:     0.37500000   -0.37500000    0.00000000          2/16
   5:     0.37500000   -0.12500000    0.00000000          2/16
   6:     0.37500000    0.12500000    0.00000000          2/16
   7:     0.37500000    0.37500000    0.00000000          2/16

Wave functions: Uniform real-space grid
  Kinetic energy operator: 6*3+1=19 point O(h^6) finite-difference Laplacian
  ScaLapack parameters: grid=1x1, blocksize=None
  Wavefunction extrapolation:
    Improved wavefunction reuse through dual PAW basis 

Occupation numbers: Fermi-Dirac:
  width: 0.0500  # eV
 

Eigensolver
   Davidson(niter=2) 

Densities:
  Coarse grid: 60*60*156 grid
  Fine grid: 120*120*312 grid
  Total Charge: 0.000000 

Density mixing:
  Method: separate
  Backend: pulay
  Linear mixing parameter: 0.05
  old densities: 5
  Damping of long wavelength oscillations: 50 

Hamiltonian:
  XC and Coulomb potentials evaluated on a 120*120*312 grid
  Using the BEEF-vdW Exchange-Correlation functional
  Interpolation: tri-quintic (5. degree polynomial)
  Poisson solver: FastPoissonSolver using
    Stencil: 6*3+1=19 point O(h^6) finite-difference Laplacian
    FFT axes: [0, 1]
    FST axes: [2]

Dipole correction along z-axis 

XC parameters: BEEF-vdW with 2 nearest neighbor stencil

Memory estimate:
  Process memory now: 212.35 MiB
  Calculator: 298.81 MiB
    Density: 88.21 MiB
      Arrays: 27.47 MiB
      Localized functions: 50.30 MiB
      Mixer: 10.44 MiB
    Hamiltonian: 21.93 MiB
      Arrays: 17.96 MiB
      XC: 0.00 MiB
      Poisson: 0.00 MiB
      vbar: 3.97 MiB
    Wavefunctions: 188.67 MiB
      Arrays psit_nG: 87.67 MiB
      Eigensolver: 98.38 MiB
      Projections: 0.04 MiB
      Projectors: 2.58 MiB

Total number of cores used: 32
Parallelization over k-points: 8
Domain decomposition: 1 x 1 x 4

Number of atoms: 46
Number of atomic orbitals: 166
Number of bands in calculation: 42
Number of valence electrons: 62
Bands to converge: occupied

... initialized

Initializing position-dependent things.

Density initialized from atomic densities
Creating initial wave functions:
  42 bands from LCAO basis set

       .-----------------------.  
      /|                       |  
     / |                       |  
    /  |                       |  
   /   |                       |  
  /    |                       |  
 *     |                       |  
 |     |                       |  
 |     |                       |  
 |     |                 H     |  
 |     |                       |  
 |     |                       |  
 |     |             H         |  
 H     |            C     H    |  
 O   Li|     Li   O  Li C      |  
 |     |  Li      Li    H Li   |  
 | Li  |   Li      Li          |  
 |     |Li      Li      Li     |  
 Li    | Li      Li            |  
 |   LLi     LLi     LLi       |  
 |     |  Li      Li      Li   |  
 | Li  |   Li      Li          |  
 |     |Li      Li      Li     |  
 Li    | Li      Li            |  
 |    Li      Li      Li       |  
 |     |                       |  
 |     |                       |  
 |     |                       |  
 |     |                       |  
 |     |                       |  
 |     |                       |  
 |     .-----------------------.  
 |    /                       /   
 |   /                       /    
 |  /                       /     
 | /                       /      
 |/                       /       
 *-----------------------*        

Positions:
   0 Li     1.617037    1.617037   10.000000    ( 0.0000,  0.0000,  0.0000)
   1 Li     4.851111    1.617037   10.000000    ( 0.0000,  0.0000,  0.0000)
   2 Li     8.085185    1.617037   10.000000    ( 0.0000,  0.0000,  0.0000)
   3 Li     1.617037    4.851111   10.000000    ( 0.0000,  0.0000,  0.0000)
   4 Li     4.851111    4.851111   10.000000    ( 0.0000,  0.0000,  0.0000)
   5 Li     8.085185    4.851111   10.000000    ( 0.0000,  0.0000,  0.0000)
   6 Li     1.617037    8.085185   10.000000    ( 0.0000,  0.0000,  0.0000)
   7 Li     4.851111    8.085185   10.000000    ( 0.0000,  0.0000,  0.0000)
   8 Li     8.085185    8.085185   10.000000    ( 0.0000,  0.0000,  0.0000)
   9 Li     0.000000    0.000000   11.617037    ( 0.0000,  0.0000,  0.0000)
  10 Li     3.234074    0.000000   11.617037    ( 0.0000,  0.0000,  0.0000)
  11 Li     6.468148    0.000000   11.617037    ( 0.0000,  0.0000,  0.0000)
  12 Li     0.000000    3.234074   11.617037    ( 0.0000,  0.0000,  0.0000)
  13 Li     3.234074    3.234074   11.617037    ( 0.0000,  0.0000,  0.0000)
  14 Li     6.468148    3.234074   11.617037    ( 0.0000,  0.0000,  0.0000)
  15 Li     0.000000    6.468148   11.617037    ( 0.0000,  0.0000,  0.0000)
  16 Li     3.234074    6.468148   11.617037    ( 0.0000,  0.0000,  0.0000)
  17 Li     6.468148    6.468148   11.617037    ( 0.0000,  0.0000,  0.0000)
  18 Li     1.617038    1.617038   13.469728    ( 0.0000,  0.0000,  0.0000)
  19 Li     4.851111    1.617038   13.469729    ( 0.0000,  0.0000,  0.0000)
  20 Li     8.085184    1.617038   13.469728    ( 0.0000,  0.0000,  0.0000)
  21 Li     1.617038    4.851111   13.469729    ( 0.0000,  0.0000,  0.0000)
  22 Li     4.851111    4.851111   13.469730    ( 0.0000,  0.0000,  0.0000)
  23 Li     8.085184    4.851111   13.469729    ( 0.0000,  0.0000,  0.0000)
  24 Li     1.617038    8.085184   13.469728    ( 0.0000,  0.0000,  0.0000)
  25 Li     4.851111    8.085184   13.469729    ( 0.0000,  0.0000,  0.0000)
  26 Li     8.085184    8.085184   13.469728    ( 0.0000,  0.0000,  0.0000)
  27 Li    -0.000000   -0.000000   15.445939    ( 0.0000,  0.0000,  0.0000)
  28 Li     3.234074    0.000000   15.445939    ( 0.0000,  0.0000,  0.0000)
  29 Li     6.468148    0.000000   15.445939    ( 0.0000,  0.0000,  0.0000)
  30 Li     0.000000    3.234074   15.445939    ( 0.0000,  0.0000,  0.0000)
  31 Li     3.234076    3.234076   15.445938    ( 0.0000,  0.0000,  0.0000)
  32 Li     6.468146    3.234076   15.445938    ( 0.0000,  0.0000,  0.0000)
  33 Li     0.000000    6.468148   15.445939    ( 0.0000,  0.0000,  0.0000)
  34 Li     3.234076    6.468146   15.445938    ( 0.0000,  0.0000,  0.0000)
  35 Li     6.468146    6.468146   15.445938    ( 0.0000,  0.0000,  0.0000)
  36 O      9.702222    9.702222   18.445939    ( 0.0000,  0.0000,  0.0000)
  37 O      6.804024    9.746216   18.213250    ( 0.0000,  0.0000,  0.0000)
  38 C      8.973661   10.873434   18.033562    ( 0.0000,  0.0000,  0.0000)
  39 C      7.564476   10.887124   18.602713    ( 0.0000,  0.0000,  0.0000)
  40 H      9.501787   11.787824   18.326395    ( 0.0000,  0.0000,  0.0000)
  41 H      8.940912   10.826136   16.943996    ( 0.0000,  0.0000,  0.0000)
  42 H      7.027757   11.761390   18.226232    ( 0.0000,  0.0000,  0.0000)
  43 H      7.614205   10.962625   19.701774    ( 0.0000,  0.0000,  0.0000)
  44 H      9.871646    9.776737   19.393261    ( 0.0000,  0.0000,  0.0000)
  45 H      7.383490    8.979095   18.309689    ( 0.0000,  0.0000,  0.0000)

Unit cell:
           periodic     x           y           z      points  spacing
  1. axis:    yes    9.702222    0.000000    0.000000    60     0.1617
  2. axis:    yes    0.000000    9.702222    0.000000    60     0.1617
  3. axis:    no     0.000000    0.000000   24.851111   156     0.1593

  Lengths:   9.702222   9.702222  24.851111
  Angles:   90.000000  90.000000  90.000000

Effective grid spacing dv^(1/3) = 0.1609

     iter     time        total  log10-change:
                         energy  eigst   dens
iter:   1 12:32:08  -486.922772
iter:   2 12:32:35  -127.524810  +2.44  -0.06
iter:   3 12:33:02   -84.499070  +3.25  -0.19
iter:   4 12:33:28  -148.240686  +2.89  -0.22
Writing to output.gpw (mode='')

iter:   5 12:33:55  -231.899467  +2.81  -0.34
iter:   6 12:34:21  -263.715477  +2.72  -0.42
iter:   7 12:34:48  -321.823827  +2.59  -0.60
iter:   8 12:35:15  -337.788162  +2.36  -0.49
iter:   9 12:35:42  -314.489837  +2.03  -0.47
Writing to output.gpw (mode='')

iter:  10 12:36:09  -318.437630  +1.62  -0.51
iter:  11 12:36:35  -395.731698  +2.34  -0.48
iter:  12 12:37:01  -350.483004  +1.50  -0.37
iter:  13 12:37:27  -295.619798  +1.51  -0.39
iter:  14 12:37:53  -296.276397  +0.89  -0.72
Writing to output.gpw (mode='')

iter:  15 12:38:20  -292.883101  +0.78  -0.73
iter:  16 12:38:46  -292.060264  +0.68  -0.82
iter:  17 12:39:13  -291.338669  -0.03  -0.88
iter:  18 12:39:39  -292.191896  +0.62  -0.97
iter:  19 12:40:05  -292.146173  +0.96  -1.01
Writing to output.gpw (mode='')

iter:  20 12:40:31  -290.975061  -0.26  -1.01
iter:  21 12:40:57  -290.913083  +0.35  -1.20
iter:  22 12:41:26  -290.808700  -0.39  -1.29
iter:  23 12:41:56  -290.702970  -0.65  -1.42
iter:  24 12:42:22  -290.681589  -0.30  -1.56
Writing to output.gpw (mode='')

iter:  25 12:42:48  -290.688792c -0.89  -1.79
iter:  26 12:43:14  -290.682887c -1.30  -1.81
iter:  27 12:43:40  -290.677064c -1.13  -1.88
iter:  28 12:44:07  -290.681055c -1.49  -2.22
iter:  29 12:44:34  -290.683400c -1.61  -2.29
Writing to output.gpw (mode='')

iter:  30 12:45:01  -290.685747c -1.68  -2.37
iter:  31 12:45:28  -290.688038c -1.74  -2.48
iter:  32 12:45:55  -290.689087c -2.06  -2.55
iter:  33 12:46:24  -290.690225c -1.95  -2.64
iter:  34 12:46:53  -290.691268c -2.33  -2.90
Writing to output.gpw (mode='')

iter:  35 12:47:23  -290.692043c -2.42  -2.99
iter:  36 12:47:53  -290.692833c -2.24  -3.01
iter:  37 12:48:22  -290.693538c -2.52  -3.08
iter:  38 12:48:47  -290.694165c -2.40  -3.20
iter:  39 12:49:17  -290.694609c -2.74  -3.27
Writing to output.gpw (mode='')

iter:  40 12:49:45  -290.694995c -2.76  -3.26
iter:  41 12:50:14  -290.695366c -2.70  -3.25
iter:  42 12:50:43  -290.695753c -2.56  -3.23
iter:  43 12:51:12  -290.696186c -2.50  -3.24
iter:  44 12:51:40  -290.696442c -2.83  -3.24
Writing to output.gpw (mode='')

iter:  45 12:52:09  -290.696666c -2.95  -3.24
iter:  46 12:52:39  -290.696888c -3.10  -3.29
iter:  47 12:53:08  -290.697017c -3.32  -3.51
iter:  48 12:53:34  -290.697135c -3.30  -3.59
iter:  49 12:54:03  -290.697230c -3.36  -3.81
Writing to output.gpw (mode='')

iter:  50 12:54:33  -290.697331c -3.21  -3.88
iter:  51 12:55:03  -290.697402c -3.51  -3.99
iter:  52 12:55:35  -290.697462c -3.62  -4.02c
iter:  53 12:56:07  -290.697517c -3.53  -4.28c
iter:  54 12:56:34  -290.697557c -3.70  -4.38c
Writing to output.gpw (mode='')

iter:  55 12:57:05  -290.697598c -3.57  -4.39c
iter:  56 12:57:36  -290.697630c -3.82  -4.36c
iter:  57 12:58:07  -290.697657c -3.87  -4.30c
iter:  58 12:58:37  -290.697683c -3.83  -4.23c
iter:  59 12:59:07  -290.697710c -3.77  -4.23c
Writing to output.gpw (mode='')

iter:  60 12:59:40  -290.697728c -4.02  -4.25c
iter:  61 13:00:10  -290.697744c -4.11  -4.19c
iter:  62 13:00:42  -290.697758c -3.99  -4.18c
iter:  63 13:01:13  -290.697769c -4.18  -4.15c
iter:  64 13:01:49  -290.697778c -4.25  -4.15c
Writing to output.gpw (mode='')

iter:  65 13:02:26  -290.697786c -4.38  -4.14c
iter:  66 13:03:05  -290.697794c -4.49  -3.99
iter:  67 13:03:39  -290.697800c -4.50  -4.34c
iter:  68 13:04:10  -290.697805c -4.44  -4.46c
iter:  69 13:04:41  -290.697810c -4.51  -4.54c
Writing to output.gpw (mode='')

iter:  70 13:05:13  -290.697814c -4.55  -4.57c
iter:  71 13:05:44  -290.697817c -4.60  -4.54c
iter:  72 13:06:14  -290.697820c -4.86  -4.53c
iter:  73 13:06:45  -290.697822c -4.95  -4.48c
iter:  74 13:07:17  -290.697824c -4.87  -4.41c
Writing to output.gpw (mode='')

iter:  75 13:07:47  -290.697826c -4.94  -4.46c
iter:  76 13:08:17  -290.697828c -4.79  -4.51c
iter:  77 13:08:48  -290.697829c -4.96  -4.49c
iter:  78 13:09:18  -290.697830c -5.00  -4.52c
iter:  79 13:09:50  -290.697832c -5.03  -4.55c
Writing to output.gpw (mode='')

iter:  80 13:10:23  -290.697832c -5.31  -4.69c
iter:  81 13:10:55  -290.697833c -5.30  -4.76c
iter:  82 13:11:32  -290.697834c -5.10  -4.88c
iter:  83 13:12:04  -290.697835c -5.16  -5.02c
iter:  84 13:12:37  -290.697835c -5.24  -5.12c
Writing to output.gpw (mode='')

iter:  85 13:13:09  -290.697836c -5.41  -5.38c
iter:  86 13:13:41  -290.697836c -5.46  -5.56c
iter:  87 13:14:16  -290.697836c -5.54  -5.57c
iter:  88 13:15:02  -290.697836c -5.52  -5.57c
iter:  89 13:15:36  -290.697836c -5.65  -5.50c
Writing to output.gpw (mode='')

iter:  90 13:16:09  -290.697836c -5.66  -5.59c
iter:  91 13:16:40  -290.697836c -5.78  -5.56c
iter:  92 13:17:12  -290.697837c -5.81  -5.47c
iter:  93 13:17:44  -290.697837c -5.84  -5.56c
iter:  94 13:18:16  -290.697837c -5.75  -5.54c
Writing to output.gpw (mode='')

iter:  95 13:18:48  -290.697837c -5.85  -5.52c
iter:  96 13:20:05  -290.697837c -5.89  -5.52c
iter:  97 13:20:57  -290.697837c -5.90  -5.38c
iter:  98 13:21:30  -290.697837c -6.03  -5.36c
iter:  99 13:22:03  -290.697837c -6.09  -5.39c
Writing to output.gpw (mode='')

iter: 100 13:22:34  -290.697837c -6.09  -5.36c
iter: 101 13:23:06  -290.697837c -5.88  -5.29c
iter: 102 13:23:37  -290.697837c -6.21  -5.26c
iter: 103 13:24:08  -290.697837c -6.18  -5.38c
iter: 104 13:24:39  -290.697837c -6.27  -5.30c
Writing to output.gpw (mode='')

iter: 105 13:25:11  -290.697837c -6.36  -5.47c
iter: 106 13:25:43  -290.697837c -6.38  -5.51c
iter: 107 13:26:14  -290.697837c -6.48  -5.50c
iter: 108 13:26:46  -290.697837c -6.52  -5.30c
iter: 109 13:27:17  -290.697837c -6.61  -5.60c
Writing to output.gpw (mode='')

iter: 110 13:27:49  -290.697837c -6.51  -5.63c
iter: 111 13:28:20  -290.697837c -6.53  -5.73c
iter: 112 13:28:52  -290.697837c -6.77  -5.87c
iter: 113 13:29:27  -290.697837c -6.69  -5.91c
iter: 114 13:30:07  -290.697837c -6.65  -6.04c
Writing to output.gpw (mode='')

iter: 115 13:30:39  -290.697837c -6.74  -6.12c
iter: 116 13:31:09  -290.697837c -6.82  -6.28c
iter: 117 13:31:42  -290.697837c -6.93  -6.40c
iter: 118 13:32:19  -290.697837c -6.97  -6.43c
iter: 119 13:33:18  -290.697837c -7.02  -6.37c
Writing to output.gpw (mode='')

iter: 120 13:34:06  -290.697837c -7.01  -6.31c
iter: 121 13:34:46  -290.697837c -7.01  -6.24c
iter: 122 13:35:44  -290.697837c -7.14  -6.23c
iter: 123 13:36:47  -290.697837c -7.22  -6.26c
iter: 124 13:38:00  -290.697837c -7.25  -6.16c
Writing to output.gpw (mode='')

iter: 125 13:39:12  -290.697837c -6.98  -6.17c
iter: 126 13:40:22  -290.697837c -7.25  -6.17c
iter: 127 13:41:09  -290.697837c -7.30  -6.13c
iter: 128 13:41:54  -290.697837c -7.42c -6.14c

Converged after 128 iterations.

Dipole moment: (-2.620240, -17.502593, 0.431455) |e|*Ang

Energy contributions relative to reference atoms: (reference = -13512.263335)

Kinetic:       +140.350761
Potential:     -131.566333
External:        +0.000000
XC:            -300.015202
Entropy (-ST):   -0.151015
Local:           +0.608444
--------------------------
Free energy:   -290.773344
Extrapolated:  -290.697837

Dipole-layer corrected work functions: 3.390265, 2.560861 eV

Showing only first 2 kpts
 Kpt  Band  Eigenvalues  Occupancy
  0    29     -3.22952    1.98763
  0    30     -3.14612    1.93610
  0    31     -2.80672    0.06605
  0    32     -2.72304    0.01273

  1    29     -2.99637    1.20509
  1    30     -2.96575    0.90219
  1    31     -2.94199    0.67633
  1    32     -2.92689    0.54839


Fermi level: -2.97556

No gap
Writing to output.gpw (mode='')


Forces in eV/Ang:
  0 Li    0.00820    0.00115   -0.27059
  1 Li   -0.00751    0.00094   -0.27128
  2 Li   -0.00121    0.00338   -0.26771
  3 Li   -0.00086   -0.00258   -0.27512
  4 Li    0.00167   -0.00245   -0.27837
  5 Li   -0.00037    0.00461   -0.27094
  6 Li    0.00109    0.00126   -0.27028
  7 Li   -0.00010    0.00125   -0.27335
  8 Li   -0.00068   -0.00749   -0.26893
  9 Li    0.00157    0.00298    0.27204
 10 Li    0.00447    0.00003    0.24835
 11 Li   -0.00521   -0.00172    0.26783
 12 Li    0.00215    0.00154    0.25827
 13 Li    0.00392   -0.00377    0.25390
 14 Li   -0.00540    0.00795    0.25242
 15 Li   -0.00150   -0.00533    0.25511
 16 Li   -0.00648    0.00402    0.26565
 17 Li    0.00732   -0.00675    0.25778
 18 Li   -0.00060   -0.00350    0.04530
 19 Li    0.00663   -0.00154    0.03948
 20 Li   -0.00504    0.00280    0.00807
 21 Li   -0.00043   -0.00356    0.03938
 22 Li   -0.00356    0.00341    0.03041
 23 Li    0.00330   -0.01141    0.05702
 24 Li   -0.00506    0.00754    0.03688
 25 Li    0.00103   -0.00142    0.02925
 26 Li    0.00338    0.00706    0.04391
 27 Li    0.16264   -0.20111   -0.19885
 28 Li   -0.00472    0.01029   -0.02407
 29 Li   -0.05445   -0.03293    0.20002
 30 Li    0.04329    0.10362   -0.15459
 31 Li   -0.00188    0.00010   -0.02852
 32 Li   -0.04269    0.07648   -0.12231
 33 Li   -0.01398   -0.01589   -0.01459
 34 Li    0.00025   -0.01082   -0.02360
 35 Li    0.01220   -0.03041   -0.03483
 36 O    -0.06949   -0.00545   -0.11606
 37 O    -0.10442   -0.02523   -0.31698
 38 C     0.07047   -0.14972    0.69711
 39 C     0.03773    0.15303    0.06132
 40 H     0.05037    0.07761   -0.07139
 41 H    -0.17442    0.21481   -0.09051
 42 H    -0.02986    0.05668    0.03316
 43 H    -0.01592    0.01733   -0.08034
 44 H     0.08717   -0.02972    0.01995
 45 H     0.04207   -0.20653    0.02927

System changes: positions 

Initializing position-dependent things.

Density initialized from wave functions
       .-----------------------.  
      /|                       |  
     / |                       |  
    /  |                       |  
   /   |                       |  
  /    |                       |  
 *     |                       |  
 |     |                       |  
 |     |                       O  
 |     |                 H     |  
 |     |                       |  
 |     |                       |  
 |     Li            H Li      |  
 H     |            C     H    |  
 |     |     Li   O  Li C    Li|  
 |     |  Li      Li    H Li   |  
 | Li  |   Li      Li          |  
 |     |Li      Li      Li     |  
 |     | Li                    |  
 |   LLi     LLi     LLi       |  
 |     |  Li      Li      Li   |  
 | Li  |   Li      Li          |  
 |     |Li      Li      Li     |  
 Li    | Li      Li            |  
 |    Li      Li      Li       |  
 |     |                       |  
 |     |                       |  
 |     |                       |  
 |     |                       |  
 |     |                       |  
 |     |                       |  
 |     .-----------------------.  
 |    /                       /   
 |   /                       /    
 |  /                       /     
 | /                       /      
 |/                       /       
 *-----------------------*        

Positions:
   0 Li     1.617037    1.617037   10.000000    ( 0.0000,  0.0000,  0.0000)
   1 Li     4.851111    1.617037   10.000000    ( 0.0000,  0.0000,  0.0000)
   2 Li     8.085185    1.617037   10.000000    ( 0.0000,  0.0000,  0.0000)
   3 Li     1.617037    4.851111   10.000000    ( 0.0000,  0.0000,  0.0000)
   4 Li     4.851111    4.851111   10.000000    ( 0.0000,  0.0000,  0.0000)
   5 Li     8.085185    4.851111   10.000000    ( 0.0000,  0.0000,  0.0000)
   6 Li     1.617037    8.085185   10.000000    ( 0.0000,  0.0000,  0.0000)
   7 Li     4.851111    8.085185   10.000000    ( 0.0000,  0.0000,  0.0000)
   8 Li     8.085185    8.085185   10.000000    ( 0.0000,  0.0000,  0.0000)
   9 Li     0.000000    0.000000   11.617037    ( 0.0000,  0.0000,  0.0000)
  10 Li     3.234074    0.000000   11.617037    ( 0.0000,  0.0000,  0.0000)
  11 Li     6.468148    0.000000   11.617037    ( 0.0000,  0.0000,  0.0000)
  12 Li     0.000000    3.234074   11.617037    ( 0.0000,  0.0000,  0.0000)
  13 Li     3.234074    3.234074   11.617037    ( 0.0000,  0.0000,  0.0000)
  14 Li     6.468148    3.234074   11.617037    ( 0.0000,  0.0000,  0.0000)
  15 Li     0.000000    6.468148   11.617037    ( 0.0000,  0.0000,  0.0000)
  16 Li     3.234074    6.468148   11.617037    ( 0.0000,  0.0000,  0.0000)
  17 Li     6.468148    6.468148   11.617037    ( 0.0000,  0.0000,  0.0000)
  18 Li     1.617029    1.616988   13.470375    ( 0.0000,  0.0000,  0.0000)
  19 Li     4.851206    1.617016   13.470294    ( 0.0000,  0.0000,  0.0000)
  20 Li     8.085112    1.617078   13.469843    ( 0.0000,  0.0000,  0.0000)
  21 Li     1.617032    4.851060   13.470292    ( 0.0000,  0.0000,  0.0000)
  22 Li     4.851060    4.851160   13.470165    ( 0.0000,  0.0000,  0.0000)
  23 Li     8.085231    4.850948   13.470544    ( 0.0000,  0.0000,  0.0000)
  24 Li     1.616966    8.085292   13.470255    ( 0.0000,  0.0000,  0.0000)
  25 Li     4.851126    8.085163   13.470147    ( 0.0000,  0.0000,  0.0000)
  26 Li     8.085232    8.085285   13.470355    ( 0.0000,  0.0000,  0.0000)
  27 Li     0.002323   -0.002873   15.443099    ( 0.0000,  0.0000,  0.0000)
  28 Li     3.234006    0.000147   15.445595    ( 0.0000,  0.0000,  0.0000)
  29 Li     6.467370   -0.000470   15.448796    ( 0.0000,  0.0000,  0.0000)
  30 Li     0.000618    3.235554   15.443730    ( 0.0000,  0.0000,  0.0000)
  31 Li     3.234050    3.234078   15.445531    ( 0.0000,  0.0000,  0.0000)
  32 Li     6.467536    3.235169   15.444191    ( 0.0000,  0.0000,  0.0000)
  33 Li    -0.000200    6.467921   15.445730    ( 0.0000,  0.0000,  0.0000)
  34 Li     3.234080    6.467991   15.445601    ( 0.0000,  0.0000,  0.0000)
  35 Li     6.468320    6.467711   15.445440    ( 0.0000,  0.0000,  0.0000)
  36 O      9.701229    9.702144   18.444281    ( 0.0000,  0.0000,  0.0000)
  37 O      6.802532    9.745855   18.208722    ( 0.0000,  0.0000,  0.0000)
  38 C      8.974668   10.871295   18.043521    ( 0.0000,  0.0000,  0.0000)
  39 C      7.565015   10.889310   18.603589    ( 0.0000,  0.0000,  0.0000)
  40 H      9.502506   11.788933   18.325375    ( 0.0000,  0.0000,  0.0000)
  41 H      8.938420   10.829205   16.942703    ( 0.0000,  0.0000,  0.0000)
  42 H      7.027331   11.762199   18.226706    ( 0.0000,  0.0000,  0.0000)
  43 H      7.613978   10.962873   19.700626    ( 0.0000,  0.0000,  0.0000)
  44 H      9.872892    9.776312   19.393545    ( 0.0000,  0.0000,  0.0000)
  45 H      7.384091    8.976145   18.310107    ( 0.0000,  0.0000,  0.0000)

Unit cell:
           periodic     x           y           z      points  spacing
  1. axis:    yes    9.702222    0.000000    0.000000    60     0.1617
  2. axis:    yes    0.000000    9.702222    0.000000    60     0.1617
  3. axis:    no     0.000000    0.000000   24.851111   156     0.1593

  Lengths:   9.702222   9.702222  24.851111
  Angles:   90.000000  90.000000  90.000000

Effective grid spacing dv^(1/3) = 0.1609

     iter     time        total  log10-change:
                         energy  eigst   dens
iter:   1 13:44:21  -290.711654  -2.05
iter:   2 13:46:03  -290.710818  -2.70  -2.44
iter:   3 13:48:30  -290.710323c -3.31  -2.52
iter:   4 13:49:56  -290.709208c -2.51  -2.70
Writing to output.gpw (mode='')

iter:   5 13:51:27  -290.708956c -3.65  -2.75
iter:   6 13:52:56  -290.708774c -3.16  -2.98
iter:   7 13:54:21  -290.708979c -3.07  -3.09
iter:   8 13:55:49  -290.708789c -3.85  -3.04
iter:   9 13:57:47  -290.708777c -4.21  -3.23
Writing to output.gpw (mode='')

iter:  10 14:00:26  -290.708749c -4.16  -3.34
iter:  11 14:02:45  -290.708736c -4.33  -3.56
iter:  12 14:04:10  -290.708741c -5.15  -3.65
iter:  13 14:05:58  -290.708757c -5.05  -3.71
iter:  14 14:07:19  -290.708757c -5.12  -3.81
Writing to output.gpw (mode='')

iter:  15 14:08:58  -290.708750c -5.32  -3.88
iter:  16 14:11:28  -290.708750c -6.12  -4.02c
iter:  17 14:13:19  -290.708750c -6.14  -4.03c
iter:  18 14:16:39  -290.708746c -5.64  -4.10c
iter:  19 14:19:12  -290.708745c -6.17  -4.33c
Writing to output.gpw (mode='')

iter:  20 14:21:19  -290.708746c -6.40  -4.45c
iter:  21 14:23:34  -290.708746c -6.75  -4.52c
iter:  22 14:25:43  -290.708747c -6.74  -4.75c
iter:  23 14:27:38  -290.708747c -7.28  -4.80c
iter:  24 14:29:54  -290.708747c -7.38  -4.94c
Writing to output.gpw (mode='')

iter:  25 14:33:14  -290.708747c -7.47c -5.10c

Converged after 25 iterations.

Dipole moment: (-2.566704, -17.422028, 0.434020) |e|*Ang

Energy contributions relative to reference atoms: (reference = -13512.263335)

Kinetic:       +139.941171
Potential:     -131.280576
External:        +0.000000
XC:            -299.902117
Entropy (-ST):   -0.151036
Local:           +0.608292
--------------------------
Free energy:   -290.784265
Extrapolated:  -290.708747

Dipole-layer corrected work functions: 3.389930, 2.555595 eV

Showing only first 2 kpts
 Kpt  Band  Eigenvalues  Occupancy
  0    29     -3.22670    1.98762
  0    30     -3.14331    1.93609
  0    31     -2.80404    0.06621
  0    32     -2.72022    0.01273

  1    29     -2.99364    1.20581
  1    30     -2.96291    0.90180
  1    31     -2.93920    0.67644
  1    32     -2.92443    0.55112


Fermi level: -2.97276

No gap

Forces in eV/Ang:
  0 Li    0.00823    0.00113   -0.27082
  1 Li   -0.00754    0.00098   -0.27127
  2 Li   -0.00120    0.00346   -0.26791
  3 Li   -0.00093   -0.00255   -0.27516
  4 Li    0.00164   -0.00247   -0.27838
  5 Li   -0.00034    0.00460   -0.27105
  6 Li    0.00107    0.00126   -0.27042
  7 Li   -0.00017    0.00129   -0.27327
  8 Li   -0.00060   -0.00756   -0.26901
  9 Li    0.00170    0.00289    0.27273
 10 Li    0.00424    0.00006    0.24874
 11 Li   -0.00521   -0.00179    0.26838
 12 Li    0.00221    0.00169    0.25907
 13 Li    0.00389   -0.00389    0.25449
 14 Li   -0.00542    0.00817    0.25310
 15 Li   -0.00157   -0.00529    0.25574
 16 Li   -0.00639    0.00408    0.26610
 17 Li    0.00735   -0.00692    0.25825
 18 Li   -0.00000   -0.00326    0.04284
 19 Li    0.00678   -0.00213    0.03866
 20 Li   -0.00528    0.00199    0.00786
 21 Li    0.00011   -0.00306    0.03751
 22 Li   -0.00385    0.00360    0.02892
 23 Li    0.00313   -0.01060    0.05452
 24 Li   -0.00403    0.00636    0.03486
 25 Li    0.00149   -0.00103    0.02891
 26 Li    0.00232    0.00659    0.04195
 27 Li    0.15579   -0.19132   -0.18694
 28 Li   -0.00421    0.00982   -0.02374
 29 Li   -0.05076   -0.03152    0.20530
 30 Li    0.04153    0.09844   -0.14997
 31 Li   -0.00151    0.00028   -0.02779
 32 Li   -0.04188    0.07549   -0.12026
 33 Li   -0.01344   -0.01643   -0.01429
 34 Li   -0.00006   -0.01038   -0.02285
 35 Li    0.01189   -0.03040   -0.03415
 36 O    -0.01790   -0.03947    0.09319
 37 O     0.06563   -0.07904   -0.25684
 38 C     0.01823   -0.02963    0.10411
 39 C    -0.03076    0.03248    0.05344
 40 H     0.06634    0.07114   -0.01093
 41 H    -0.15841    0.21277    0.20481
 42 H    -0.01129    0.07018    0.02364
 43 H    -0.05601    0.00954   -0.00946
 44 H     0.08854   -0.07601   -0.07673
 45 H    -0.06720   -0.06155    0.00613

System changes: positions 

Initializing position-dependent things.

Density initialized from wave functions
       .-----------------------.  
      /|                       |  
     / |                       |  
    /  |                       |  
   /   |                       |  
  /    |                       |  
 *     |                       |  
 |     |                       |  
 |     |                       O  
 |     |                 H     |  
 |     |                       |  
 |     |                       |  
 |     Li            H Li      |  
 H     |            C     H    |  
 |     |     Li   O  Li C    Li|  
 |     |  Li      Li    H Li   |  
 | Li  |   Li      Li          |  
 |     |Li      Li      Li     |  
 |     | Li                    |  
 |   LLi     LLi     LLi       |  
 |     |  Li      Li      Li   |  
 | Li  |   Li      Li          |  
 |     |Li      Li      Li     |  
 Li    | Li      Li            |  
 |    Li      Li      Li       |  
 |     |                       |  
 |     |                       |  
 |     |                       |  
 |     |                       |  
 |     |                       |  
 |     |                       |  
 |     .-----------------------.  
 |    /                       /   
 |   /                       /    
 |  /                       /     
 | /                       /      
 |/                       /       
 *-----------------------*        

Positions:
   0 Li     1.617037    1.617037   10.000000    ( 0.0000,  0.0000,  0.0000)
   1 Li     4.851111    1.617037   10.000000    ( 0.0000,  0.0000,  0.0000)
   2 Li     8.085185    1.617037   10.000000    ( 0.0000,  0.0000,  0.0000)
   3 Li     1.617037    4.851111   10.000000    ( 0.0000,  0.0000,  0.0000)
   4 Li     4.851111    4.851111   10.000000    ( 0.0000,  0.0000,  0.0000)
   5 Li     8.085185    4.851111   10.000000    ( 0.0000,  0.0000,  0.0000)
   6 Li     1.617037    8.085185   10.000000    ( 0.0000,  0.0000,  0.0000)
   7 Li     4.851111    8.085185   10.000000    ( 0.0000,  0.0000,  0.0000)
   8 Li     8.085185    8.085185   10.000000    ( 0.0000,  0.0000,  0.0000)
   9 Li     0.000000    0.000000   11.617037    ( 0.0000,  0.0000,  0.0000)
  10 Li     3.234074    0.000000   11.617037    ( 0.0000,  0.0000,  0.0000)
  11 Li     6.468148    0.000000   11.617037    ( 0.0000,  0.0000,  0.0000)
  12 Li     0.000000    3.234074   11.617037    ( 0.0000,  0.0000,  0.0000)
  13 Li     3.234074    3.234074   11.617037    ( 0.0000,  0.0000,  0.0000)
  14 Li     6.468148    3.234074   11.617037    ( 0.0000,  0.0000,  0.0000)
  15 Li     0.000000    6.468148   11.617037    ( 0.0000,  0.0000,  0.0000)
  16 Li     3.234074    6.468148   11.617037    ( 0.0000,  0.0000,  0.0000)
  17 Li     6.468148    6.468148   11.617037    ( 0.0000,  0.0000,  0.0000)
  18 Li     1.617022    1.616865   13.471984    ( 0.0000,  0.0000,  0.0000)
  19 Li     4.851454    1.616945   13.471730    ( 0.0000,  0.0000,  0.0000)
  20 Li     8.084920    1.617161   13.470136    ( 0.0000,  0.0000,  0.0000)
  21 Li     1.617030    4.850942   13.471698    ( 0.0000,  0.0000,  0.0000)
  22 Li     4.850921    4.851290   13.471249    ( 0.0000,  0.0000,  0.0000)
  23 Li     8.085348    4.850547   13.472585    ( 0.0000,  0.0000,  0.0000)
  24 Li     1.616805    8.085540   13.471565    ( 0.0000,  0.0000,  0.0000)
  25 Li     4.851175    8.085121   13.471218    ( 0.0000,  0.0000,  0.0000)
  26 Li     8.085330    8.085533   13.471926    ( 0.0000,  0.0000,  0.0000)
  27 Li     0.008151   -0.010046   15.436063    ( 0.0000,  0.0000,  0.0000)
  28 Li     3.233845    0.000515   15.444715    ( 0.0000,  0.0000,  0.0000)
  29 Li     6.465455   -0.001650   15.456311    ( 0.0000,  0.0000,  0.0000)
  30 Li     0.002171    3.239246   15.438143    ( 0.0000,  0.0000,  0.0000)
  31 Li     3.233990    3.234086   15.444497    ( 0.0000,  0.0000,  0.0000)
  32 Li     6.465981    3.237966   15.439730    ( 0.0000,  0.0000,  0.0000)
  33 Li    -0.000702    6.467321   15.445200    ( 0.0000,  0.0000,  0.0000)
  34 Li     3.234081    6.467603   15.444749    ( 0.0000,  0.0000,  0.0000)
  35 Li     6.468762    6.466589   15.444172    ( 0.0000,  0.0000,  0.0000)
  36 O      9.699971    9.701082   18.445294    ( 0.0000,  0.0000,  0.0000)
  37 O      6.802983    9.743562   18.198547    ( 0.0000,  0.0000,  0.0000)
  38 C      8.975946   10.868810   18.054237    ( 0.0000,  0.0000,  0.0000)
  39 C      7.564674   10.891906   18.605653    ( 0.0000,  0.0000,  0.0000)
  40 H      9.504769   11.791633   18.324271    ( 0.0000,  0.0000,  0.0000)
  41 H      8.932389   10.837079   16.946836    ( 0.0000,  0.0000,  0.0000)
  42 H      7.026699   11.764632   18.227688    ( 0.0000,  0.0000,  0.0000)
  43 H      7.612376   10.963315   19.699455    ( 0.0000,  0.0000,  0.0000)
  44 H      9.876143    9.774044   19.391835    ( 0.0000,  0.0000,  0.0000)
  45 H      7.382878    8.972193   18.310602    ( 0.0000,  0.0000,  0.0000)

Unit cell:
           periodic     x           y           z      points  spacing
  1. axis:    yes    9.702222    0.000000    0.000000    60     0.1617
  2. axis:    yes    0.000000    9.702222    0.000000    60     0.1617
  3. axis:    no     0.000000    0.000000   24.851111   156     0.1593

  Lengths:   9.702222   9.702222  24.851111
  Angles:   90.000000  90.000000  90.000000

Effective grid spacing dv^(1/3) = 0.1609

     iter     time        total  log10-change:
                         energy  eigst   dens
iter:   1 14:35:15  -290.725933  -1.78
iter:   2 14:38:27  -290.724945  -2.48  -2.32
iter:   3 14:40:52  -290.724444c -2.98  -2.52
iter:   4 14:45:04  -290.722873c -2.66  -2.57
Writing to output.gpw (mode='')

iter:   5 14:47:30  -290.722699c -3.43  -2.77
iter:   6 14:50:16  -290.722479c -2.98  -2.95
iter:   7 14:52:33  -290.722564c -3.08  -3.01
iter:   8 14:55:34  -290.722447c -3.72  -3.00
iter:   9 14:57:56  -290.722459c -3.91  -3.23
Writing to output.gpw (mode='')

iter:  10 15:02:08  -290.722432c -4.28  -3.34
iter:  11 15:04:48  -290.722441c -4.45  -3.57
iter:  12 15:07:29  -290.722437c -4.85  -3.67
iter:  13 15:09:25  -290.722440c -5.29  -3.76
iter:  14 15:11:10  -290.722440c -5.14  -3.85
Writing to output.gpw (mode='')

iter:  15 15:13:37  -290.722436c -5.38  -3.88
iter:  16 15:15:34  -290.722432c -5.41  -3.94
iter:  17 15:18:41  -290.722432c -6.05  -4.15c
iter:  18 15:20:47  -290.722433c -5.69  -4.17c
iter:  19 15:23:07  -290.722432c -6.00  -4.19c
Writing to output.gpw (mode='')

iter:  20 15:25:42  -290.722431c -6.34  -4.45c
iter:  21 15:27:30  -290.722431c -6.76  -4.50c
iter:  22 15:29:15  -290.722431c -6.48  -4.63c
iter:  23 15:31:01  -290.722431c -6.70  -4.96c
iter:  24 15:34:03  -290.722431c -7.18  -4.95c
Writing to output.gpw (mode='')

iter:  25 15:37:03  -290.722431c -7.34  -4.99c
iter:  26 15:40:22  -290.722432c -7.37  -5.03c
iter:  27 15:43:53  -290.722432c -7.61c -5.19c

Converged after 27 iterations.

Dipole moment: (-2.543257, -17.032769, 0.437761) |e|*Ang

Energy contributions relative to reference atoms: (reference = -13512.263335)

Kinetic:       +139.723849
Potential:     -131.129252
External:        +0.000000
XC:            -299.849323
Entropy (-ST):   -0.151030
Local:           +0.607809
--------------------------
Free energy:   -290.797947
Extrapolated:  -290.722432

Dipole-layer corrected work functions: 3.389433, 2.547906 eV

Showing only first 2 kpts
 Kpt  Band  Eigenvalues  Occupancy
  0    29     -3.22252    1.98760
  0    30     -3.13929    1.93618
  0    31     -2.79987    0.06611
  0    32     -2.71598    0.01269

  1    29     -2.98942    1.20459
  1    30     -2.95866    0.90027
  1    31     -2.93530    0.67813
  1    32     -2.92088    0.55543


Fermi level: -2.96867

No gap
Writing to output.gpw (mode='')


Forces in eV/Ang:
  0 Li    0.00826    0.00110   -0.27126
  1 Li   -0.00759    0.00105   -0.27128
  2 Li   -0.00116    0.00360   -0.26823
  3 Li   -0.00106   -0.00253   -0.27520
  4 Li    0.00155   -0.00249   -0.27851
  5 Li   -0.00027    0.00453   -0.27138
  6 Li    0.00104    0.00124   -0.27073
  7 Li   -0.00032    0.00135   -0.27308
  8 Li   -0.00043   -0.00765   -0.26913
  9 Li    0.00204    0.00265    0.27428
 10 Li    0.00372    0.00005    0.24988
 11 Li   -0.00527   -0.00203    0.26932
 12 Li    0.00240    0.00204    0.26095
 13 Li    0.00378   -0.00407    0.25610
 14 Li   -0.00548    0.00872    0.25466
 15 Li   -0.00171   -0.00521    0.25755
 16 Li   -0.00621    0.00423    0.26717
 17 Li    0.00738   -0.00733    0.25956
 18 Li    0.00121   -0.00276    0.03727
 19 Li    0.00717   -0.00363    0.03666
 20 Li   -0.00584   -0.00016    0.00832
 21 Li    0.00151   -0.00156    0.03275
 22 Li   -0.00471    0.00419    0.02513
 23 Li    0.00272   -0.00858    0.04824
 24 Li   -0.00139    0.00330    0.02958
 25 Li    0.00250   -0.00009    0.02815
 26 Li   -0.00028    0.00578    0.03788
 27 Li    0.14182   -0.17152   -0.16451
 28 Li   -0.00330    0.00882   -0.02280
 29 Li   -0.04419   -0.02911    0.21340
 30 Li    0.03870    0.09035   -0.14164
 31 Li   -0.00089    0.00054   -0.02607
 32 Li   -0.03988    0.07280   -0.11508
 33 Li   -0.01223   -0.01734   -0.01340
 34 Li   -0.00067   -0.00935   -0.02124
 35 Li    0.01107   -0.03011   -0.03280
 36 O    -0.01293   -0.07826    0.06369
 37 O     0.16950    0.01600   -0.16935
 38 C    -0.03054    0.17023   -0.28819
 39 C    -0.07711   -0.11344   -0.03540
 40 H     0.05481    0.00649    0.04933
 41 H    -0.11761    0.15774    0.34845
 42 H     0.01343    0.05136    0.02037
 43 H    -0.11239   -0.01675    0.09186
 44 H     0.11829   -0.09155    0.02139
 45 H    -0.10020    0.00645   -0.00564

System changes: positions 

Initializing position-dependent things.

Density initialized from wave functions
       .-----------------------.  
      /|                       |  
     / |                       |  
    /  |                       |  
   /   |                       |  
  /    |                       |  
 *     |                       |  
 |     |                       |  
 |     |                       O  
 |     |                 H     |  
 |     |                       |  
 |     |                       |  
 |     Li            H Li      |  
 H     |            C     H    |  
 |     |     Li   O  Li C    Li|  
 |     |  Li      Li    H Li   |  
 | Li  |   Li      Li          |  
 |     |Li      Li      Li     |  
 |     | Li                    |  
 |   LLi     LLi     LLi       |  
 |     |  Li      Li      Li   |  
 | Li  |   Li      Li          |  
 |     |Li      Li      Li     |  
 Li    | Li      Li            |  
 |    Li      Li      Li       |  
 |     |                       |  
 |     |                       |  
 |     |                       |  
 |     |                       |  
 |     |                       |  
 |     |                       |  
 |     .-----------------------.  
 |    /                       /   
 |   /                       /    
 |  /                       /     
 | /                       /      
 |/                       /       
 *-----------------------*        

Positions:
   0 Li     1.617037    1.617037   10.000000    ( 0.0000,  0.0000,  0.0000)
   1 Li     4.851111    1.617037   10.000000    ( 0.0000,  0.0000,  0.0000)
   2 Li     8.085185    1.617037   10.000000    ( 0.0000,  0.0000,  0.0000)
   3 Li     1.617037    4.851111   10.000000    ( 0.0000,  0.0000,  0.0000)
   4 Li     4.851111    4.851111   10.000000    ( 0.0000,  0.0000,  0.0000)
   5 Li     8.085185    4.851111   10.000000    ( 0.0000,  0.0000,  0.0000)
   6 Li     1.617037    8.085185   10.000000    ( 0.0000,  0.0000,  0.0000)
   7 Li     4.851111    8.085185   10.000000    ( 0.0000,  0.0000,  0.0000)
   8 Li     8.085185    8.085185   10.000000    ( 0.0000,  0.0000,  0.0000)
   9 Li     0.000000    0.000000   11.617037    ( 0.0000,  0.0000,  0.0000)
  10 Li     3.234074    0.000000   11.617037    ( 0.0000,  0.0000,  0.0000)
  11 Li     6.468148    0.000000   11.617037    ( 0.0000,  0.0000,  0.0000)
  12 Li     0.000000    3.234074   11.617037    ( 0.0000,  0.0000,  0.0000)
  13 Li     3.234074    3.234074   11.617037    ( 0.0000,  0.0000,  0.0000)
  14 Li     6.468148    3.234074   11.617037    ( 0.0000,  0.0000,  0.0000)
  15 Li     0.000000    6.468148   11.617037    ( 0.0000,  0.0000,  0.0000)
  16 Li     3.234074    6.468148   11.617037    ( 0.0000,  0.0000,  0.0000)
  17 Li     6.468148    6.468148   11.617037    ( 0.0000,  0.0000,  0.0000)
  18 Li     1.617042    1.616570   13.475862    ( 0.0000,  0.0000,  0.0000)
  19 Li     4.852092    1.616717   13.475282    ( 0.0000,  0.0000,  0.0000)
  20 Li     8.084419    1.617302   13.470887    ( 0.0000,  0.0000,  0.0000)
  21 Li     1.617068    4.850690   13.475087    ( 0.0000,  0.0000,  0.0000)
  22 Li     4.850545    4.851638   13.473860    ( 0.0000,  0.0000,  0.0000)
  23 Li     8.085631    4.849602   13.477526    ( 0.0000,  0.0000,  0.0000)
  24 Li     1.616483    8.086070   13.474696    ( 0.0000,  0.0000,  0.0000)
  25 Li     4.851331    8.085043   13.473890    ( 0.0000,  0.0000,  0.0000)
  26 Li     8.085495    8.086134   13.475753    ( 0.0000,  0.0000,  0.0000)
  27 Li     0.022390   -0.027491   15.419041    ( 0.0000,  0.0000,  0.0000)
  28 Li     3.233467    0.001410   15.442530    ( 0.0000,  0.0000,  0.0000)
  29 Li     6.460834   -0.004545   15.475472    ( 0.0000,  0.0000,  0.0000)
  30 Li     0.005994    3.248296   15.424333    ( 0.0000,  0.0000,  0.0000)
  31 Li     3.233857    3.234115   15.441948    ( 0.0000,  0.0000,  0.0000)
  32 Li     6.462130    3.244923   15.428661    ( 0.0000,  0.0000,  0.0000)
  33 Li    -0.001928    6.465783   15.443891    ( 0.0000,  0.0000,  0.0000)
  34 Li     3.234066    6.466658   15.442655    ( 0.0000,  0.0000,  0.0000)
  35 Li     6.469850    6.463774   15.441022    ( 0.0000,  0.0000,  0.0000)
  36 O      9.696768    9.697265   18.446075    ( 0.0000,  0.0000,  0.0000)
  37 O      6.806875    9.741117   18.175577    ( 0.0000,  0.0000,  0.0000)
  38 C      8.977763   10.868654   18.070604    ( 0.0000,  0.0000,  0.0000)
  39 C      7.562556   10.894112   18.607960    ( 0.0000,  0.0000,  0.0000)
  40 H      9.510026   11.796332   18.323238    ( 0.0000,  0.0000,  0.0000)
  41 H      8.918486   10.855104   16.960828    ( 0.0000,  0.0000,  0.0000)
  42 H      7.025848   11.770088   18.230091    ( 0.0000,  0.0000,  0.0000)
  43 H      7.606646   10.963596   19.699563    ( 0.0000,  0.0000,  0.0000)
  44 H      9.885299    9.768002   19.391120    ( 0.0000,  0.0000,  0.0000)
  45 H      7.379160    8.963923   18.311549    ( 0.0000,  0.0000,  0.0000)

Unit cell:
           periodic     x           y           z      points  spacing
  1. axis:    yes    9.702222    0.000000    0.000000    60     0.1617
  2. axis:    yes    0.000000    9.702222    0.000000    60     0.1617
  3. axis:    no     0.000000    0.000000   24.851111   156     0.1593

  Lengths:   9.702222   9.702222  24.851111
  Angles:   90.000000  90.000000  90.000000

Effective grid spacing dv^(1/3) = 0.1609

     iter     time        total  log10-change:
                         energy  eigst   dens
iter:   1 15:52:28  -290.756963  -1.20
iter:   2 16:01:25  -290.752041  -1.87  -1.99
iter:   3 16:11:48  -290.750151c -2.39  -2.22
iter:   4 16:20:29  -290.745865c -2.36  -2.27
Writing to output.gpw (mode='')

iter:   5 16:27:58  -290.745477c -2.87  -2.51
iter:   6 16:35:05  -290.744828c -2.56  -2.61
iter:   7 16:41:03  -290.744789c -2.58  -2.72
