
  ___ ___ ___ _ _ _  
 |   |   |_  | | | | 
 | | | | | . | | | | 
 |__ |  _|___|_____|  22.8.0
 |___|_|             

User:   vazumah@f004
Date:   Wed Mar  8 12:31:22 2023
Arch:   x86_64
Pid:    49514
CWD:    /home/vazumah/Research_Projects/LiMEAS/LiNRR_proton_donors/on_pure_surface/Li_BCC100/adsorbates/ethanediol_x/ontop/9.702_9.702
Python: 3.10.6
gpaw:   /home/vazumah/anaconda3/envs/NAME/lib/python3.10/site-packages/gpaw
_gpaw:  /home/vazumah/anaconda3/envs/NAME/lib/python3.10/site-packages/
        _gpaw.cpython-310-x86_64-linux-gnu.so
ase:    /home/vazumah/anaconda3/envs/NAME/lib/python3.10/site-packages/ase (version 3.22.1)
numpy:  /home/vazumah/anaconda3/envs/NAME/lib/python3.10/site-packages/numpy (version 1.23.3)
scipy:  /home/vazumah/anaconda3/envs/NAME/lib/python3.10/site-packages/scipy (version 1.9.1)
libxc:  5.2.3
units:  Angstrom and eV
cores: 32
OpenMP: True
OMP_NUM_THREADS: 1

Input parameters:
  h: 0.16
  kpts: {size: [4, 4, 1]}
  occupations: {name: fermi-dirac,
                width: 0.05}
  poissonsolver: {dipolelayer: xy}
  xc: BEEF-vdW

System changes: positions, numbers, cell, pbc, initial_charges, initial_magmoms 

Initialize ...

species:
  Li:
    name: Lithium
    id: 830b4218f175192f93f959cfc0aad614
    Z: 3.0
    valence: 1
    core: 2
    charge: 0.0
    file: /home/vazumah/anaconda3/envs/NAME/share/gpaw/Li.PBE.gz
    compensation charges: {type: gauss,
                           rc: 0.33,
                           lmax: 2}
    cutoffs: {filter: 1.91,
              core: 2.55}
    valence states:
      #              energy  rcut
      - 2s(1.00)    -2.874   1.058
      - 2p(0.00)    -1.090   1.058
      -  s          24.337   1.058
  
    # Using partial waves for Li as LCAO basis

  O:
    name: Oxygen
    id: 32ecd46bf208036f09c70b0ec9a88b78
    Z: 8.0
    valence: 6
    core: 2
    charge: 0.0
    file: /home/vazumah/anaconda3/envs/NAME/share/gpaw/O.PBE.gz
    compensation charges: {type: gauss,
                           rc: 0.21,
                           lmax: 2}
    cutoffs: {filter: 1.17,
              core: 0.83}
    valence states:
      #              energy  rcut
      - 2s(2.00)   -23.961   0.688
      - 2p(4.00)    -9.029   0.598
      -  s           3.251   0.688
      -  p          18.182   0.598
      -  d           0.000   0.619
  
    # Using partial waves for O as LCAO basis

  C:
    name: Carbon
    id: 4aa54d4b901d75f77cc0ea3eec22967b
    Z: 6.0
    valence: 4
    core: 2
    charge: 0.0
    file: /home/vazumah/anaconda3/envs/NAME/share/gpaw/C.PBE.gz
    compensation charges: {type: gauss,
                           rc: 0.20,
                           lmax: 2}
    cutoffs: {filter: 1.14,
              core: 1.14}
    valence states:
      #              energy  rcut
      - 2s(2.00)   -13.751   0.635
      - 2p(2.00)    -5.284   0.635
      -  s          13.461   0.635
      -  p          21.927   0.635
      -  d           0.000   0.635
  
    # Using partial waves for C as LCAO basis

  H:
    name: Hydrogen
    id: d65de229564ff8ea4db303e23b6d1ecf
    Z: 1.0
    valence: 1
    core: 0
    charge: 0.0
    file: /home/vazumah/anaconda3/envs/NAME/share/gpaw/H.PBE.gz
    compensation charges: {type: gauss,
                           rc: 0.15,
                           lmax: 2}
    cutoffs: {filter: 0.85,
              core: 0.53}
    valence states:
      #              energy  rcut
      - 1s(1.00)    -6.494   0.476
      -  s          20.717   0.476
      -  p           0.000   0.476
  
    # Using partial waves for H as LCAO basis

Reference energy: -13512.263335  # eV

Spin-paired calculation

Convergence criteria:
 Maximum [total energy] change in last 3 cyles: 0.0005 eV / electron
 Maximum integral of absolute [dens]ity change: 0.0001 electrons / valence electron
 Maximum integral of absolute [eigenst]ate change: 4e-08 eV^2 / valence electron
 Maximum number of scf [iter]ations: 333
 (Square brackets indicate name in SCF output, whereas a 'c' in
 the SCF output indicates the quantity has converged.)

Symmetries present (total): 1

  ( 1  0  0)
  ( 0  1  0)
  ( 0  0  1)

16 k-points: 4 x 4 x 1 Monkhorst-Pack grid
8 k-points in the irreducible part of the Brillouin zone
       k-points in crystal coordinates                weights
   0:     0.12500000   -0.37500000    0.00000000          2/16
   1:     0.12500000   -0.12500000    0.00000000          2/16
   2:     0.12500000    0.12500000    0.00000000          2/16
   3:     0.12500000    0.37500000    0.00000000          2/16
   4:     0.37500000   -0.37500000    0.00000000          2/16
   5:     0.37500000   -0.12500000    0.00000000          2/16
   6:     0.37500000    0.12500000    0.00000000          2/16
   7:     0.37500000    0.37500000    0.00000000          2/16

Wave functions: Uniform real-space grid
  Kinetic energy operator: 6*3+1=19 point O(h^6) finite-difference Laplacian
  ScaLapack parameters: grid=1x1, blocksize=None
  Wavefunction extrapolation:
    Improved wavefunction reuse through dual PAW basis 

Occupation numbers: Fermi-Dirac:
  width: 0.0500  # eV
 

Eigensolver
   Davidson(niter=2) 

Densities:
  Coarse grid: 60*60*156 grid
  Fine grid: 120*120*312 grid
  Total Charge: 0.000000 

Density mixing:
  Method: separate
  Backend: pulay
  Linear mixing parameter: 0.05
  old densities: 5
  Damping of long wavelength oscillations: 50 

Hamiltonian:
  XC and Coulomb potentials evaluated on a 120*120*312 grid
  Using the BEEF-vdW Exchange-Correlation functional
  Interpolation: tri-quintic (5. degree polynomial)
  Poisson solver: FastPoissonSolver using
    Stencil: 6*3+1=19 point O(h^6) finite-difference Laplacian
    FFT axes: [0, 1]
    FST axes: [2]

Dipole correction along z-axis 

XC parameters: BEEF-vdW with 2 nearest neighbor stencil

Memory estimate:
  Process memory now: 212.35 MiB
  Calculator: 298.81 MiB
    Density: 88.21 MiB
      Arrays: 27.47 MiB
      Localized functions: 50.30 MiB
      Mixer: 10.44 MiB
    Hamiltonian: 21.93 MiB
      Arrays: 17.96 MiB
      XC: 0.00 MiB
      Poisson: 0.00 MiB
      vbar: 3.97 MiB
    Wavefunctions: 188.67 MiB
      Arrays psit_nG: 87.67 MiB
      Eigensolver: 98.38 MiB
      Projections: 0.04 MiB
      Projectors: 2.58 MiB

Total number of cores used: 32
Parallelization over k-points: 8
Domain decomposition: 1 x 1 x 4

Number of atoms: 46
Number of atomic orbitals: 166
Number of bands in calculation: 42
Number of valence electrons: 62
Bands to converge: occupied

... initialized

Initializing position-dependent things.

Density initialized from atomic densities
Creating initial wave functions:
  42 bands from LCAO basis set

       .-----------------------.  
      /|                       |  
     / |                       |  
    /  |                       |  
   /   |                       |  
  /    |                       |  
 *     |                       |  
 |     |                       |  
 |     |                       |  
 |     |                 H     |  
 |     |                       |  
 |     |                       |  
 |     |             H         |  
 H     |            C     H    |  
 O   Li|     Li   O  Li C      |  
 |     |  Li      Li    H Li   |  
 | Li  |   Li      Li          |  
 |     |Li      Li      Li     |  
 Li    | Li      Li            |  
 |   LLi     LLi     LLi       |  
 |     |  Li      Li      Li   |  
 | Li  |   Li      Li          |  
 |     |Li      Li      Li     |  
 Li    | Li      Li            |  
 |    Li      Li      Li       |  
 |     |                       |  
 |     |                       |  
 |     |                       |  
 |     |                       |  
 |     |                       |  
 |     |                       |  
 |     .-----------------------.  
 |    /                       /   
 |   /                       /    
 |  /                       /     
 | /                       /      
 |/                       /       
 *-----------------------*        

Positions:
   0 Li     1.617037    1.617037   10.000000    ( 0.0000,  0.0000,  0.0000)
   1 Li     4.851111    1.617037   10.000000    ( 0.0000,  0.0000,  0.0000)
   2 Li     8.085185    1.617037   10.000000    ( 0.0000,  0.0000,  0.0000)
   3 Li     1.617037    4.851111   10.000000    ( 0.0000,  0.0000,  0.0000)
   4 Li     4.851111    4.851111   10.000000    ( 0.0000,  0.0000,  0.0000)
   5 Li     8.085185    4.851111   10.000000    ( 0.0000,  0.0000,  0.0000)
   6 Li     1.617037    8.085185   10.000000    ( 0.0000,  0.0000,  0.0000)
   7 Li     4.851111    8.085185   10.000000    ( 0.0000,  0.0000,  0.0000)
   8 Li     8.085185    8.085185   10.000000    ( 0.0000,  0.0000,  0.0000)
   9 Li     0.000000    0.000000   11.617037    ( 0.0000,  0.0000,  0.0000)
  10 Li     3.234074    0.000000   11.617037    ( 0.0000,  0.0000,  0.0000)
  11 Li     6.468148    0.000000   11.617037    ( 0.0000,  0.0000,  0.0000)
  12 Li     0.000000    3.234074   11.617037    ( 0.0000,  0.0000,  0.0000)
  13 Li     3.234074    3.234074   11.617037    ( 0.0000,  0.0000,  0.0000)
  14 Li     6.468148    3.234074   11.617037    ( 0.0000,  0.0000,  0.0000)
  15 Li     0.000000    6.468148   11.617037    ( 0.0000,  0.0000,  0.0000)
  16 Li     3.234074    6.468148   11.617037    ( 0.0000,  0.0000,  0.0000)
  17 Li     6.468148    6.468148   11.617037    ( 0.0000,  0.0000,  0.0000)
  18 Li     1.617038    1.617038   13.469728    ( 0.0000,  0.0000,  0.0000)
  19 Li     4.851111    1.617038   13.469729    ( 0.0000,  0.0000,  0.0000)
  20 Li     8.085184    1.617038   13.469728    ( 0.0000,  0.0000,  0.0000)
  21 Li     1.617038    4.851111   13.469729    ( 0.0000,  0.0000,  0.0000)
  22 Li     4.851111    4.851111   13.469730    ( 0.0000,  0.0000,  0.0000)
  23 Li     8.085184    4.851111   13.469729    ( 0.0000,  0.0000,  0.0000)
  24 Li     1.617038    8.085184   13.469728    ( 0.0000,  0.0000,  0.0000)
  25 Li     4.851111    8.085184   13.469729    ( 0.0000,  0.0000,  0.0000)
  26 Li     8.085184    8.085184   13.469728    ( 0.0000,  0.0000,  0.0000)
  27 Li    -0.000000   -0.000000   15.445939    ( 0.0000,  0.0000,  0.0000)
  28 Li     3.234074    0.000000   15.445939    ( 0.0000,  0.0000,  0.0000)
  29 Li     6.468148    0.000000   15.445939    ( 0.0000,  0.0000,  0.0000)
  30 Li     0.000000    3.234074   15.445939    ( 0.0000,  0.0000,  0.0000)
  31 Li     3.234076    3.234076   15.445938    ( 0.0000,  0.0000,  0.0000)
  32 Li     6.468146    3.234076   15.445938    ( 0.0000,  0.0000,  0.0000)
  33 Li     0.000000    6.468148   15.445939    ( 0.0000,  0.0000,  0.0000)
  34 Li     3.234076    6.468146   15.445938    ( 0.0000,  0.0000,  0.0000)
  35 Li     6.468146    6.468146   15.445938    ( 0.0000,  0.0000,  0.0000)
  36 O      9.702222    9.702222   18.445939    ( 0.0000,  0.0000,  0.0000)
  37 O      6.804024    9.746216   18.213250    ( 0.0000,  0.0000,  0.0000)
  38 C      8.973661   10.873434   18.033562    ( 0.0000,  0.0000,  0.0000)
  39 C      7.564476   10.887124   18.602713    ( 0.0000,  0.0000,  0.0000)
  40 H      9.501787   11.787824   18.326395    ( 0.0000,  0.0000,  0.0000)
  41 H      8.940912   10.826136   16.943996    ( 0.0000,  0.0000,  0.0000)
  42 H      7.027757   11.761390   18.226232    ( 0.0000,  0.0000,  0.0000)
  43 H      7.614205   10.962625   19.701774    ( 0.0000,  0.0000,  0.0000)
  44 H      9.871646    9.776737   19.393261    ( 0.0000,  0.0000,  0.0000)
  45 H      7.383490    8.979095   18.309689    ( 0.0000,  0.0000,  0.0000)

Unit cell:
           periodic     x           y           z      points  spacing
  1. axis:    yes    9.702222    0.000000    0.000000    60     0.1617
  2. axis:    yes    0.000000    9.702222    0.000000    60     0.1617
  3. axis:    no     0.000000    0.000000   24.851111   156     0.1593

  Lengths:   9.702222   9.702222  24.851111
  Angles:   90.000000  90.000000  90.000000

Effective grid spacing dv^(1/3) = 0.1609

     iter     time        total  log10-change:
                         energy  eigst   dens
iter:   1 12:32:08  -486.922772
iter:   2 12:32:35  -127.524810  +2.44  -0.06
iter:   3 12:33:02   -84.499070  +3.25  -0.19
iter:   4 12:33:28  -148.240686  +2.89  -0.22
Writing to output.gpw (mode='')

iter:   5 12:33:55  -231.899467  +2.81  -0.34
iter:   6 12:34:21  -263.715477  +2.72  -0.42
iter:   7 12:34:48  -321.823827  +2.59  -0.60
iter:   8 12:35:15  -337.788162  +2.36  -0.49
iter:   9 12:35:42  -314.489837  +2.03  -0.47
Writing to output.gpw (mode='')

iter:  10 12:36:09  -318.437630  +1.62  -0.51
iter:  11 12:36:35  -395.731698  +2.34  -0.48
iter:  12 12:37:01  -350.483004  +1.50  -0.37
iter:  13 12:37:27  -295.619798  +1.51  -0.39
iter:  14 12:37:53  -296.276397  +0.89  -0.72
Writing to output.gpw (mode='')

iter:  15 12:38:20  -292.883101  +0.78  -0.73
iter:  16 12:38:46  -292.060264  +0.68  -0.82
iter:  17 12:39:13  -291.338669  -0.03  -0.88
iter:  18 12:39:39  -292.191896  +0.62  -0.97
iter:  19 12:40:05  -292.146173  +0.96  -1.01
Writing to output.gpw (mode='')

iter:  20 12:40:31  -290.975061  -0.26  -1.01
iter:  21 12:40:57  -290.913083  +0.35  -1.20
iter:  22 12:41:26  -290.808700  -0.39  -1.29
iter:  23 12:41:56  -290.702970  -0.65  -1.42
iter:  24 12:42:22  -290.681589  -0.30  -1.56
Writing to output.gpw (mode='')

iter:  25 12:42:48  -290.688792c -0.89  -1.79
iter:  26 12:43:14  -290.682887c -1.30  -1.81
iter:  27 12:43:40  -290.677064c -1.13  -1.88
iter:  28 12:44:07  -290.681055c -1.49  -2.22
iter:  29 12:44:34  -290.683400c -1.61  -2.29
Writing to output.gpw (mode='')

iter:  30 12:45:01  -290.685747c -1.68  -2.37
iter:  31 12:45:28  -290.688038c -1.74  -2.48
iter:  32 12:45:55  -290.689087c -2.06  -2.55
iter:  33 12:46:24  -290.690225c -1.95  -2.64
iter:  34 12:46:53  -290.691268c -2.33  -2.90
Writing to output.gpw (mode='')

iter:  35 12:47:23  -290.692043c -2.42  -2.99
iter:  36 12:47:53  -290.692833c -2.24  -3.01
iter:  37 12:48:22  -290.693538c -2.52  -3.08
iter:  38 12:48:47  -290.694165c -2.40  -3.20
iter:  39 12:49:17  -290.694609c -2.74  -3.27
Writing to output.gpw (mode='')

iter:  40 12:49:45  -290.694995c -2.76  -3.26
iter:  41 12:50:14  -290.695366c -2.70  -3.25
iter:  42 12:50:43  -290.695753c -2.56  -3.23
iter:  43 12:51:12  -290.696186c -2.50  -3.24
iter:  44 12:51:40  -290.696442c -2.83  -3.24
Writing to output.gpw (mode='')

iter:  45 12:52:09  -290.696666c -2.95  -3.24
iter:  46 12:52:39  -290.696888c -3.10  -3.29
iter:  47 12:53:08  -290.697017c -3.32  -3.51
iter:  48 12:53:34  -290.697135c -3.30  -3.59
iter:  49 12:54:03  -290.697230c -3.36  -3.81
Writing to output.gpw (mode='')

iter:  50 12:54:33  -290.697331c -3.21  -3.88
iter:  51 12:55:03  -290.697402c -3.51  -3.99
iter:  52 12:55:35  -290.697462c -3.62  -4.02c
iter:  53 12:56:07  -290.697517c -3.53  -4.28c
iter:  54 12:56:34  -290.697557c -3.70  -4.38c
Writing to output.gpw (mode='')

iter:  55 12:57:05  -290.697598c -3.57  -4.39c
iter:  56 12:57:36  -290.697630c -3.82  -4.36c
iter:  57 12:58:07  -290.697657c -3.87  -4.30c
iter:  58 12:58:37  -290.697683c -3.83  -4.23c
iter:  59 12:59:07  -290.697710c -3.77  -4.23c
Writing to output.gpw (mode='')

iter:  60 12:59:40  -290.697728c -4.02  -4.25c
iter:  61 13:00:10  -290.697744c -4.11  -4.19c
iter:  62 13:00:42  -290.697758c -3.99  -4.18c
iter:  63 13:01:13  -290.697769c -4.18  -4.15c
iter:  64 13:01:49  -290.697778c -4.25  -4.15c
Writing to output.gpw (mode='')

iter:  65 13:02:26  -290.697786c -4.38  -4.14c
iter:  66 13:03:05  -290.697794c -4.49  -3.99
iter:  67 13:03:39  -290.697800c -4.50  -4.34c
iter:  68 13:04:10  -290.697805c -4.44  -4.46c
iter:  69 13:04:41  -290.697810c -4.51  -4.54c
Writing to output.gpw (mode='')

iter:  70 13:05:13  -290.697814c -4.55  -4.57c
iter:  71 13:05:44  -290.697817c -4.60  -4.54c
iter:  72 13:06:14  -290.697820c -4.86  -4.53c
iter:  73 13:06:45  -290.697822c -4.95  -4.48c
iter:  74 13:07:17  -290.697824c -4.87  -4.41c
Writing to output.gpw (mode='')

iter:  75 13:07:47  -290.697826c -4.94  -4.46c
iter:  76 13:08:17  -290.697828c -4.79  -4.51c
iter:  77 13:08:48  -290.697829c -4.96  -4.49c
iter:  78 13:09:18  -290.697830c -5.00  -4.52c
iter:  79 13:09:50  -290.697832c -5.03  -4.55c
Writing to output.gpw (mode='')

iter:  80 13:10:23  -290.697832c -5.31  -4.69c
iter:  81 13:10:55  -290.697833c -5.30  -4.76c
iter:  82 13:11:32  -290.697834c -5.10  -4.88c
iter:  83 13:12:04  -290.697835c -5.16  -5.02c
iter:  84 13:12:37  -290.697835c -5.24  -5.12c
Writing to output.gpw (mode='')

iter:  85 13:13:09  -290.697836c -5.41  -5.38c
iter:  86 13:13:41  -290.697836c -5.46  -5.56c
iter:  87 13:14:16  -290.697836c -5.54  -5.57c
iter:  88 13:15:02  -290.697836c -5.52  -5.57c
iter:  89 13:15:36  -290.697836c -5.65  -5.50c
Writing to output.gpw (mode='')

iter:  90 13:16:09  -290.697836c -5.66  -5.59c
iter:  91 13:16:40  -290.697836c -5.78  -5.56c
iter:  92 13:17:12  -290.697837c -5.81  -5.47c
iter:  93 13:17:44  -290.697837c -5.84  -5.56c
iter:  94 13:18:16  -290.697837c -5.75  -5.54c
Writing to output.gpw (mode='')

iter:  95 13:18:48  -290.697837c -5.85  -5.52c
iter:  96 13:20:05  -290.697837c -5.89  -5.52c
iter:  97 13:20:57  -290.697837c -5.90  -5.38c
iter:  98 13:21:30  -290.697837c -6.03  -5.36c
iter:  99 13:22:03  -290.697837c -6.09  -5.39c
Writing to output.gpw (mode='')

iter: 100 13:22:34  -290.697837c -6.09  -5.36c
iter: 101 13:23:06  -290.697837c -5.88  -5.29c
iter: 102 13:23:37  -290.697837c -6.21  -5.26c
iter: 103 13:24:08  -290.697837c -6.18  -5.38c
iter: 104 13:24:39  -290.697837c -6.27  -5.30c
Writing to output.gpw (mode='')

iter: 105 13:25:11  -290.697837c -6.36  -5.47c
iter: 106 13:25:43  -290.697837c -6.38  -5.51c
iter: 107 13:26:14  -290.697837c -6.48  -5.50c
iter: 108 13:26:46  -290.697837c -6.52  -5.30c
iter: 109 13:27:17  -290.697837c -6.61  -5.60c
Writing to output.gpw (mode='')

iter: 110 13:27:49  -290.697837c -6.51  -5.63c
iter: 111 13:28:20  -290.697837c -6.53  -5.73c
iter: 112 13:28:52  -290.697837c -6.77  -5.87c
iter: 113 13:29:27  -290.697837c -6.69  -5.91c
iter: 114 13:30:07  -290.697837c -6.65  -6.04c
Writing to output.gpw (mode='')

iter: 115 13:30:39  -290.697837c -6.74  -6.12c
iter: 116 13:31:09  -290.697837c -6.82  -6.28c
iter: 117 13:31:42  -290.697837c -6.93  -6.40c
iter: 118 13:32:19  -290.697837c -6.97  -6.43c
iter: 119 13:33:18  -290.697837c -7.02  -6.37c
Writing to output.gpw (mode='')

iter: 120 13:34:06  -290.697837c -7.01  -6.31c
iter: 121 13:34:46  -290.697837c -7.01  -6.24c
iter: 122 13:35:44  -290.697837c -7.14  -6.23c
iter: 123 13:36:47  -290.697837c -7.22  -6.26c
iter: 124 13:38:00  -290.697837c -7.25  -6.16c
Writing to output.gpw (mode='')

iter: 125 13:39:12  -290.697837c -6.98  -6.17c
iter: 126 13:40:22  -290.697837c -7.25  -6.17c
iter: 127 13:41:09  -290.697837c -7.30  -6.13c
iter: 128 13:41:54  -290.697837c -7.42c -6.14c

Converged after 128 iterations.

Dipole moment: (-2.620240, -17.502593, 0.431455) |e|*Ang

Energy contributions relative to reference atoms: (reference = -13512.263335)

Kinetic:       +140.350761
Potential:     -131.566333
External:        +0.000000
XC:            -300.015202
Entropy (-ST):   -0.151015
Local:           +0.608444
--------------------------
Free energy:   -290.773344
Extrapolated:  -290.697837

Dipole-layer corrected work functions: 3.390265, 2.560861 eV

Showing only first 2 kpts
 Kpt  Band  Eigenvalues  Occupancy
  0    29     -3.22952    1.98763
  0    30     -3.14612    1.93610
  0    31     -2.80672    0.06605
  0    32     -2.72304    0.01273

  1    29     -2.99637    1.20509
  1    30     -2.96575    0.90219
  1    31     -2.94199    0.67633
  1    32     -2.92689    0.54839


Fermi level: -2.97556

No gap
Writing to output.gpw (mode='')


Forces in eV/Ang:
  0 Li    0.00820    0.00115   -0.27059
  1 Li   -0.00751    0.00094   -0.27128
  2 Li   -0.00121    0.00338   -0.26771
  3 Li   -0.00086   -0.00258   -0.27512
  4 Li    0.00167   -0.00245   -0.27837
  5 Li   -0.00037    0.00461   -0.27094
  6 Li    0.00109    0.00126   -0.27028
  7 Li   -0.00010    0.00125   -0.27335
  8 Li   -0.00068   -0.00749   -0.26893
  9 Li    0.00157    0.00298    0.27204
 10 Li    0.00447    0.00003    0.24835
 11 Li   -0.00521   -0.00172    0.26783
 12 Li    0.00215    0.00154    0.25827
 13 Li    0.00392   -0.00377    0.25390
 14 Li   -0.00540    0.00795    0.25242
 15 Li   -0.00150   -0.00533    0.25511
 16 Li   -0.00648    0.00402    0.26565
 17 Li    0.00732   -0.00675    0.25778
 18 Li   -0.00060   -0.00350    0.04530
 19 Li    0.00663   -0.00154    0.03948
 20 Li   -0.00504    0.00280    0.00807
 21 Li   -0.00043   -0.00356    0.03938
 22 Li   -0.00356    0.00341    0.03041
 23 Li    0.00330   -0.01141    0.05702
 24 Li   -0.00506    0.00754    0.03688
 25 Li    0.00103   -0.00142    0.02925
 26 Li    0.00338    0.00706    0.04391
 27 Li    0.16264   -0.20111   -0.19885
 28 Li   -0.00472    0.01029   -0.02407
 29 Li   -0.05445   -0.03293    0.20002
 30 Li    0.04329    0.10362   -0.15459
 31 Li   -0.00188    0.00010   -0.02852
 32 Li   -0.04269    0.07648   -0.12231
 33 Li   -0.01398   -0.01589   -0.01459
 34 Li    0.00025   -0.01082   -0.02360
 35 Li    0.01220   -0.03041   -0.03483
 36 O    -0.06949   -0.00545   -0.11606
 37 O    -0.10442   -0.02523   -0.31698
 38 C     0.07047   -0.14972    0.69711
 39 C     0.03773    0.15303    0.06132
 40 H     0.05037    0.07761   -0.07139
 41 H    -0.17442    0.21481   -0.09051
 42 H    -0.02986    0.05668    0.03316
 43 H    -0.01592    0.01733   -0.08034
 44 H     0.08717   -0.02972    0.01995
 45 H     0.04207   -0.20653    0.02927

System changes: positions 

Initializing position-dependent things.

Density initialized from wave functions
       .-----------------------.  
      /|                       |  
     / |                       |  
    /  |                       |  
   /   |                       |  
  /    |                       |  
 *     |                       |  
 |     |                       |  
 |     |                       O  
 |     |                 H     |  
 |     |                       |  
 |     |                       |  
 |     Li            H Li      |  
 H     |            C     H    |  
 |     |     Li   O  Li C    Li|  
 |     |  Li      Li    H Li   |  
 | Li  |   Li      Li          |  
 |     |Li      Li      Li     |  
 |     | Li                    |  
 |   LLi     LLi     LLi       |  
 |     |  Li      Li      Li   |  
 | Li  |   Li      Li          |  
 |     |Li      Li      Li     |  
 Li    | Li      Li            |  
 |    Li      Li      Li       |  
 |     |                       |  
 |     |                       |  
 |     |                       |  
 |     |                       |  
 |     |                       |  
 |     |                       |  
 |     .-----------------------.  
 |    /                       /   
 |   /                       /    
 |  /                       /     
 | /                       /      
 |/                       /       
 *-----------------------*        

Positions:
   0 Li     1.617037    1.617037   10.000000    ( 0.0000,  0.0000,  0.0000)
   1 Li     4.851111    1.617037   10.000000    ( 0.0000,  0.0000,  0.0000)
   2 Li     8.085185    1.617037   10.000000    ( 0.0000,  0.0000,  0.0000)
   3 Li     1.617037    4.851111   10.000000    ( 0.0000,  0.0000,  0.0000)
   4 Li     4.851111    4.851111   10.000000    ( 0.0000,  0.0000,  0.0000)
   5 Li     8.085185    4.851111   10.000000    ( 0.0000,  0.0000,  0.0000)
   6 Li     1.617037    8.085185   10.000000    ( 0.0000,  0.0000,  0.0000)
   7 Li     4.851111    8.085185   10.000000    ( 0.0000,  0.0000,  0.0000)
   8 Li     8.085185    8.085185   10.000000    ( 0.0000,  0.0000,  0.0000)
   9 Li     0.000000    0.000000   11.617037    ( 0.0000,  0.0000,  0.0000)
  10 Li     3.234074    0.000000   11.617037    ( 0.0000,  0.0000,  0.0000)
  11 Li     6.468148    0.000000   11.617037    ( 0.0000,  0.0000,  0.0000)
  12 Li     0.000000    3.234074   11.617037    ( 0.0000,  0.0000,  0.0000)
  13 Li     3.234074    3.234074   11.617037    ( 0.0000,  0.0000,  0.0000)
  14 Li     6.468148    3.234074   11.617037    ( 0.0000,  0.0000,  0.0000)
  15 Li     0.000000    6.468148   11.617037    ( 0.0000,  0.0000,  0.0000)
  16 Li     3.234074    6.468148   11.617037    ( 0.0000,  0.0000,  0.0000)
  17 Li     6.468148    6.468148   11.617037    ( 0.0000,  0.0000,  0.0000)
  18 Li     1.617029    1.616988   13.470375    ( 0.0000,  0.0000,  0.0000)
  19 Li     4.851206    1.617016   13.470294    ( 0.0000,  0.0000,  0.0000)
  20 Li     8.085112    1.617078   13.469843    ( 0.0000,  0.0000,  0.0000)
  21 Li     1.617032    4.851060   13.470292    ( 0.0000,  0.0000,  0.0000)
  22 Li     4.851060    4.851160   13.470165    ( 0.0000,  0.0000,  0.0000)
  23 Li     8.085231    4.850948   13.470544    ( 0.0000,  0.0000,  0.0000)
  24 Li     1.616966    8.085292   13.470255    ( 0.0000,  0.0000,  0.0000)
  25 Li     4.851126    8.085163   13.470147    ( 0.0000,  0.0000,  0.0000)
  26 Li     8.085232    8.085285   13.470355    ( 0.0000,  0.0000,  0.0000)
  27 Li     0.002323   -0.002873   15.443099    ( 0.0000,  0.0000,  0.0000)
  28 Li     3.234006    0.000147   15.445595    ( 0.0000,  0.0000,  0.0000)
  29 Li     6.467370   -0.000470   15.448796    ( 0.0000,  0.0000,  0.0000)
  30 Li     0.000618    3.235554   15.443730    ( 0.0000,  0.0000,  0.0000)
  31 Li     3.234050    3.234078   15.445531    ( 0.0000,  0.0000,  0.0000)
  32 Li     6.467536    3.235169   15.444191    ( 0.0000,  0.0000,  0.0000)
  33 Li    -0.000200    6.467921   15.445730    ( 0.0000,  0.0000,  0.0000)
  34 Li     3.234080    6.467991   15.445601    ( 0.0000,  0.0000,  0.0000)
  35 Li     6.468320    6.467711   15.445440    ( 0.0000,  0.0000,  0.0000)
  36 O      9.701229    9.702144   18.444281    ( 0.0000,  0.0000,  0.0000)
  37 O      6.802532    9.745855   18.208722    ( 0.0000,  0.0000,  0.0000)
  38 C      8.974668   10.871295   18.043521    ( 0.0000,  0.0000,  0.0000)
  39 C      7.565015   10.889310   18.603589    ( 0.0000,  0.0000,  0.0000)
  40 H      9.502506   11.788933   18.325375    ( 0.0000,  0.0000,  0.0000)
  41 H      8.938420   10.829205   16.942703    ( 0.0000,  0.0000,  0.0000)
  42 H      7.027331   11.762199   18.226706    ( 0.0000,  0.0000,  0.0000)
  43 H      7.613978   10.962873   19.700626    ( 0.0000,  0.0000,  0.0000)
  44 H      9.872892    9.776312   19.393545    ( 0.0000,  0.0000,  0.0000)
  45 H      7.384091    8.976145   18.310107    ( 0.0000,  0.0000,  0.0000)

Unit cell:
           periodic     x           y           z      points  spacing
  1. axis:    yes    9.702222    0.000000    0.000000    60     0.1617
  2. axis:    yes    0.000000    9.702222    0.000000    60     0.1617
  3. axis:    no     0.000000    0.000000   24.851111   156     0.1593

  Lengths:   9.702222   9.702222  24.851111
  Angles:   90.000000  90.000000  90.000000

Effective grid spacing dv^(1/3) = 0.1609

     iter     time        total  log10-change:
                         energy  eigst   dens
iter:   1 13:44:21  -290.711654  -2.05
iter:   2 13:46:03  -290.710818  -2.70  -2.44
iter:   3 13:48:30  -290.710323c -3.31  -2.52
iter:   4 13:49:56  -290.709208c -2.51  -2.70
Writing to output.gpw (mode='')

iter:   5 13:51:27  -290.708956c -3.65  -2.75
iter:   6 13:52:56  -290.708774c -3.16  -2.98
iter:   7 13:54:21  -290.708979c -3.07  -3.09
iter:   8 13:55:49  -290.708789c -3.85  -3.04
iter:   9 13:57:47  -290.708777c -4.21  -3.23
Writing to output.gpw (mode='')

iter:  10 14:00:26  -290.708749c -4.16  -3.34
iter:  11 14:02:45  -290.708736c -4.33  -3.56
iter:  12 14:04:10  -290.708741c -5.15  -3.65
iter:  13 14:05:58  -290.708757c -5.05  -3.71
iter:  14 14:07:19  -290.708757c -5.12  -3.81
Writing to output.gpw (mode='')

iter:  15 14:08:58  -290.708750c -5.32  -3.88
iter:  16 14:11:28  -290.708750c -6.12  -4.02c
iter:  17 14:13:19  -290.708750c -6.14  -4.03c
iter:  18 14:16:39  -290.708746c -5.64  -4.10c
iter:  19 14:19:12  -290.708745c -6.17  -4.33c
Writing to output.gpw (mode='')

iter:  20 14:21:19  -290.708746c -6.40  -4.45c
iter:  21 14:23:34  -290.708746c -6.75  -4.52c
iter:  22 14:25:43  -290.708747c -6.74  -4.75c
iter:  23 14:27:38  -290.708747c -7.28  -4.80c
iter:  24 14:29:54  -290.708747c -7.38  -4.94c
Writing to output.gpw (mode='')

iter:  25 14:33:14  -290.708747c -7.47c -5.10c

Converged after 25 iterations.

Dipole moment: (-2.566704, -17.422028, 0.434020) |e|*Ang

Energy contributions relative to reference atoms: (reference = -13512.263335)

Kinetic:       +139.941171
Potential:     -131.280576
External:        +0.000000
XC:            -299.902117
Entropy (-ST):   -0.151036
Local:           +0.608292
--------------------------
Free energy:   -290.784265
Extrapolated:  -290.708747

Dipole-layer corrected work functions: 3.389930, 2.555595 eV

Showing only first 2 kpts
 Kpt  Band  Eigenvalues  Occupancy
  0    29     -3.22670    1.98762
  0    30     -3.14331    1.93609
  0    31     -2.80404    0.06621
  0    32     -2.72022    0.01273

  1    29     -2.99364    1.20581
  1    30     -2.96291    0.90180
  1    31     -2.93920    0.67644
  1    32     -2.92443    0.55112


Fermi level: -2.97276

No gap

Forces in eV/Ang:
  0 Li    0.00823    0.00113   -0.27082
  1 Li   -0.00754    0.00098   -0.27127
  2 Li   -0.00120    0.00346   -0.26791
  3 Li   -0.00093   -0.00255   -0.27516
  4 Li    0.00164   -0.00247   -0.27838
  5 Li   -0.00034    0.00460   -0.27105
  6 Li    0.00107    0.00126   -0.27042
  7 Li   -0.00017    0.00129   -0.27327
  8 Li   -0.00060   -0.00756   -0.26901
  9 Li    0.00170    0.00289    0.27273
 10 Li    0.00424    0.00006    0.24874
 11 Li   -0.00521   -0.00179    0.26838
 12 Li    0.00221    0.00169    0.25907
 13 Li    0.00389   -0.00389    0.25449
 14 Li   -0.00542    0.00817    0.25310
 15 Li   -0.00157   -0.00529    0.25574
 16 Li   -0.00639    0.00408    0.26610
 17 Li    0.00735   -0.00692    0.25825
 18 Li   -0.00000   -0.00326    0.04284
 19 Li    0.00678   -0.00213    0.03866
 20 Li   -0.00528    0.00199    0.00786
 21 Li    0.00011   -0.00306    0.03751
 22 Li   -0.00385    0.00360    0.02892
 23 Li    0.00313   -0.01060    0.05452
 24 Li   -0.00403    0.00636    0.03486
 25 Li    0.00149   -0.00103    0.02891
 26 Li    0.00232    0.00659    0.04195
 27 Li    0.15579   -0.19132   -0.18694
 28 Li   -0.00421    0.00982   -0.02374
 29 Li   -0.05076   -0.03152    0.20530
 30 Li    0.04153    0.09844   -0.14997
 31 Li   -0.00151    0.00028   -0.02779
 32 Li   -0.04188    0.07549   -0.12026
 33 Li   -0.01344   -0.01643   -0.01429
 34 Li   -0.00006   -0.01038   -0.02285
 35 Li    0.01189   -0.03040   -0.03415
 36 O    -0.01790   -0.03947    0.09319
 37 O     0.06563   -0.07904   -0.25684
 38 C     0.01823   -0.02963    0.10411
 39 C    -0.03076    0.03248    0.05344
 40 H     0.06634    0.07114   -0.01093
 41 H    -0.15841    0.21277    0.20481
 42 H    -0.01129    0.07018    0.02364
 43 H    -0.05601    0.00954   -0.00946
 44 H     0.08854   -0.07601   -0.07673
 45 H    -0.06720   -0.06155    0.00613

System changes: positions 

Initializing position-dependent things.

Density initialized from wave functions
       .-----------------------.  
      /|                       |  
     / |                       |  
    /  |                       |  
   /   |                       |  
  /    |                       |  
 *     |                       |  
 |     |                       |  
 |     |                       O  
 |     |                 H     |  
 |     |                       |  
 |     |                       |  
 |     Li            H Li      |  
 H     |            C     H    |  
 |     |     Li   O  Li C    Li|  
 |     |  Li      Li    H Li   |  
 | Li  |   Li      Li          |  
 |     |Li      Li      Li     |  
 |     | Li                    |  
 |   LLi     LLi     LLi       |  
 |     |  Li      Li      Li   |  
 | Li  |   Li      Li          |  
 |     |Li      Li      Li     |  
 Li    | Li      Li            |  
 |    Li      Li      Li       |  
 |     |                       |  
 |     |                       |  
 |     |                       |  
 |     |                       |  
 |     |                       |  
 |     |                       |  
 |     .-----------------------.  
 |    /                       /   
 |   /                       /    
 |  /                       /     
 | /                       /      
 |/                       /       
 *-----------------------*        

Positions:
   0 Li     1.617037    1.617037   10.000000    ( 0.0000,  0.0000,  0.0000)
   1 Li     4.851111    1.617037   10.000000    ( 0.0000,  0.0000,  0.0000)
   2 Li     8.085185    1.617037   10.000000    ( 0.0000,  0.0000,  0.0000)
   3 Li     1.617037    4.851111   10.000000    ( 0.0000,  0.0000,  0.0000)
   4 Li     4.851111    4.851111   10.000000    ( 0.0000,  0.0000,  0.0000)
   5 Li     8.085185    4.851111   10.000000    ( 0.0000,  0.0000,  0.0000)
   6 Li     1.617037    8.085185   10.000000    ( 0.0000,  0.0000,  0.0000)
   7 Li     4.851111    8.085185   10.000000    ( 0.0000,  0.0000,  0.0000)
   8 Li     8.085185    8.085185   10.000000    ( 0.0000,  0.0000,  0.0000)
   9 Li     0.000000    0.000000   11.617037    ( 0.0000,  0.0000,  0.0000)
  10 Li     3.234074    0.000000   11.617037    ( 0.0000,  0.0000,  0.0000)
  11 Li     6.468148    0.000000   11.617037    ( 0.0000,  0.0000,  0.0000)
  12 Li     0.000000    3.234074   11.617037    ( 0.0000,  0.0000,  0.0000)
  13 Li     3.234074    3.234074   11.617037    ( 0.0000,  0.0000,  0.0000)
  14 Li     6.468148    3.234074   11.617037    ( 0.0000,  0.0000,  0.0000)
  15 Li     0.000000    6.468148   11.617037    ( 0.0000,  0.0000,  0.0000)
  16 Li     3.234074    6.468148   11.617037    ( 0.0000,  0.0000,  0.0000)
  17 Li     6.468148    6.468148   11.617037    ( 0.0000,  0.0000,  0.0000)
  18 Li     1.617022    1.616865   13.471984    ( 0.0000,  0.0000,  0.0000)
  19 Li     4.851454    1.616945   13.471730    ( 0.0000,  0.0000,  0.0000)
  20 Li     8.084920    1.617161   13.470136    ( 0.0000,  0.0000,  0.0000)
  21 Li     1.617030    4.850942   13.471698    ( 0.0000,  0.0000,  0.0000)
  22 Li     4.850921    4.851290   13.471249    ( 0.0000,  0.0000,  0.0000)
  23 Li     8.085348    4.850547   13.472585    ( 0.0000,  0.0000,  0.0000)
  24 Li     1.616805    8.085540   13.471565    ( 0.0000,  0.0000,  0.0000)
  25 Li     4.851175    8.085121   13.471218    ( 0.0000,  0.0000,  0.0000)
  26 Li     8.085330    8.085533   13.471926    ( 0.0000,  0.0000,  0.0000)
  27 Li     0.008151   -0.010046   15.436063    ( 0.0000,  0.0000,  0.0000)
  28 Li     3.233845    0.000515   15.444715    ( 0.0000,  0.0000,  0.0000)
  29 Li     6.465455   -0.001650   15.456311    ( 0.0000,  0.0000,  0.0000)
  30 Li     0.002171    3.239246   15.438143    ( 0.0000,  0.0000,  0.0000)
  31 Li     3.233990    3.234086   15.444497    ( 0.0000,  0.0000,  0.0000)
  32 Li     6.465981    3.237966   15.439730    ( 0.0000,  0.0000,  0.0000)
  33 Li    -0.000702    6.467321   15.445200    ( 0.0000,  0.0000,  0.0000)
  34 Li     3.234081    6.467603   15.444749    ( 0.0000,  0.0000,  0.0000)
  35 Li     6.468762    6.466589   15.444172    ( 0.0000,  0.0000,  0.0000)
  36 O      9.699971    9.701082   18.445294    ( 0.0000,  0.0000,  0.0000)
  37 O      6.802983    9.743562   18.198547    ( 0.0000,  0.0000,  0.0000)
  38 C      8.975946   10.868810   18.054237    ( 0.0000,  0.0000,  0.0000)
  39 C      7.564674   10.891906   18.605653    ( 0.0000,  0.0000,  0.0000)
  40 H      9.504769   11.791633   18.324271    ( 0.0000,  0.0000,  0.0000)
  41 H      8.932389   10.837079   16.946836    ( 0.0000,  0.0000,  0.0000)
  42 H      7.026699   11.764632   18.227688    ( 0.0000,  0.0000,  0.0000)
  43 H      7.612376   10.963315   19.699455    ( 0.0000,  0.0000,  0.0000)
  44 H      9.876143    9.774044   19.391835    ( 0.0000,  0.0000,  0.0000)
  45 H      7.382878    8.972193   18.310602    ( 0.0000,  0.0000,  0.0000)

Unit cell:
           periodic     x           y           z      points  spacing
  1. axis:    yes    9.702222    0.000000    0.000000    60     0.1617
  2. axis:    yes    0.000000    9.702222    0.000000    60     0.1617
  3. axis:    no     0.000000    0.000000   24.851111   156     0.1593

  Lengths:   9.702222   9.702222  24.851111
  Angles:   90.000000  90.000000  90.000000

Effective grid spacing dv^(1/3) = 0.1609

     iter     time        total  log10-change:
                         energy  eigst   dens
iter:   1 14:35:15  -290.725933  -1.78
iter:   2 14:38:27  -290.724945  -2.48  -2.32
iter:   3 14:40:52  -290.724444c -2.98  -2.52
iter:   4 14:45:04  -290.722873c -2.66  -2.57
Writing to output.gpw (mode='')

iter:   5 14:47:30  -290.722699c -3.43  -2.77
iter:   6 14:50:16  -290.722479c -2.98  -2.95
iter:   7 14:52:33  -290.722564c -3.08  -3.01
iter:   8 14:55:34  -290.722447c -3.72  -3.00
iter:   9 14:57:56  -290.722459c -3.91  -3.23
Writing to output.gpw (mode='')

iter:  10 15:02:08  -290.722432c -4.28  -3.34
iter:  11 15:04:48  -290.722441c -4.45  -3.57
iter:  12 15:07:29  -290.722437c -4.85  -3.67
iter:  13 15:09:25  -290.722440c -5.29  -3.76
iter:  14 15:11:10  -290.722440c -5.14  -3.85
Writing to output.gpw (mode='')

iter:  15 15:13:37  -290.722436c -5.38  -3.88
iter:  16 15:15:34  -290.722432c -5.41  -3.94
iter:  17 15:18:41  -290.722432c -6.05  -4.15c
iter:  18 15:20:47  -290.722433c -5.69  -4.17c
iter:  19 15:23:07  -290.722432c -6.00  -4.19c
Writing to output.gpw (mode='')

iter:  20 15:25:42  -290.722431c -6.34  -4.45c
iter:  21 15:27:30  -290.722431c -6.76  -4.50c
iter:  22 15:29:15  -290.722431c -6.48  -4.63c
iter:  23 15:31:01  -290.722431c -6.70  -4.96c
iter:  24 15:34:03  -290.722431c -7.18  -4.95c
Writing to output.gpw (mode='')

iter:  25 15:37:03  -290.722431c -7.34  -4.99c
iter:  26 15:40:22  -290.722432c -7.37  -5.03c
iter:  27 15:43:53  -290.722432c -7.61c -5.19c

Converged after 27 iterations.

Dipole moment: (-2.543257, -17.032769, 0.437761) |e|*Ang

Energy contributions relative to reference atoms: (reference = -13512.263335)

Kinetic:       +139.723849
Potential:     -131.129252
External:        +0.000000
XC:            -299.849323
Entropy (-ST):   -0.151030
Local:           +0.607809
--------------------------
Free energy:   -290.797947
Extrapolated:  -290.722432

Dipole-layer corrected work functions: 3.389433, 2.547906 eV

Showing only first 2 kpts
 Kpt  Band  Eigenvalues  Occupancy
  0    29     -3.22252    1.98760
  0    30     -3.13929    1.93618
  0    31     -2.79987    0.06611
  0    32     -2.71598    0.01269

  1    29     -2.98942    1.20459
  1    30     -2.95866    0.90027
  1    31     -2.93530    0.67813
  1    32     -2.92088    0.55543


Fermi level: -2.96867

No gap
Writing to output.gpw (mode='')


Forces in eV/Ang:
  0 Li    0.00826    0.00110   -0.27126
  1 Li   -0.00759    0.00105   -0.27128
  2 Li   -0.00116    0.00360   -0.26823
  3 Li   -0.00106   -0.00253   -0.27520
  4 Li    0.00155   -0.00249   -0.27851
  5 Li   -0.00027    0.00453   -0.27138
  6 Li    0.00104    0.00124   -0.27073
  7 Li   -0.00032    0.00135   -0.27308
  8 Li   -0.00043   -0.00765   -0.26913
  9 Li    0.00204    0.00265    0.27428
 10 Li    0.00372    0.00005    0.24988
 11 Li   -0.00527   -0.00203    0.26932
 12 Li    0.00240    0.00204    0.26095
 13 Li    0.00378   -0.00407    0.25610
 14 Li   -0.00548    0.00872    0.25466
 15 Li   -0.00171   -0.00521    0.25755
 16 Li   -0.00621    0.00423    0.26717
 17 Li    0.00738   -0.00733    0.25956
 18 Li    0.00121   -0.00276    0.03727
 19 Li    0.00717   -0.00363    0.03666
 20 Li   -0.00584   -0.00016    0.00832
 21 Li    0.00151   -0.00156    0.03275
 22 Li   -0.00471    0.00419    0.02513
 23 Li    0.00272   -0.00858    0.04824
 24 Li   -0.00139    0.00330    0.02958
 25 Li    0.00250   -0.00009    0.02815
 26 Li   -0.00028    0.00578    0.03788
 27 Li    0.14182   -0.17152   -0.16451
 28 Li   -0.00330    0.00882   -0.02280
 29 Li   -0.04419   -0.02911    0.21340
 30 Li    0.03870    0.09035   -0.14164
 31 Li   -0.00089    0.00054   -0.02607
 32 Li   -0.03988    0.07280   -0.11508
 33 Li   -0.01223   -0.01734   -0.01340
 34 Li   -0.00067   -0.00935   -0.02124
 35 Li    0.01107   -0.03011   -0.03280
 36 O    -0.01293   -0.07826    0.06369
 37 O     0.16950    0.01600   -0.16935
 38 C    -0.03054    0.17023   -0.28819
 39 C    -0.07711   -0.11344   -0.03540
 40 H     0.05481    0.00649    0.04933
 41 H    -0.11761    0.15774    0.34845
 42 H     0.01343    0.05136    0.02037
 43 H    -0.11239   -0.01675    0.09186
 44 H     0.11829   -0.09155    0.02139
 45 H    -0.10020    0.00645   -0.00564

System changes: positions 

Initializing position-dependent things.

Density initialized from wave functions
       .-----------------------.  
      /|                       |  
     / |                       |  
    /  |                       |  
   /   |                       |  
  /    |                       |  
 *     |                       |  
 |     |                       |  
 |     |                       O  
 |     |                 H     |  
 |     |                       |  
 |     |                       |  
 |     Li            H Li      |  
 H     |            C     H    |  
 |     |     Li   O  Li C    Li|  
 |     |  Li      Li    H Li   |  
 | Li  |   Li      Li          |  
 |     |Li      Li      Li     |  
 |     | Li                    |  
 |   LLi     LLi     LLi       |  
 |     |  Li      Li      Li   |  
 | Li  |   Li      Li          |  
 |     |Li      Li      Li     |  
 Li    | Li      Li            |  
 |    Li      Li      Li       |  
 |     |                       |  
 |     |                       |  
 |     |                       |  
 |     |                       |  
 |     |                       |  
 |     |                       |  
 |     .-----------------------.  
 |    /                       /   
 |   /                       /    
 |  /                       /     
 | /                       /      
 |/                       /       
 *-----------------------*        

Positions:
   0 Li     1.617037    1.617037   10.000000    ( 0.0000,  0.0000,  0.0000)
   1 Li     4.851111    1.617037   10.000000    ( 0.0000,  0.0000,  0.0000)
   2 Li     8.085185    1.617037   10.000000    ( 0.0000,  0.0000,  0.0000)
   3 Li     1.617037    4.851111   10.000000    ( 0.0000,  0.0000,  0.0000)
   4 Li     4.851111    4.851111   10.000000    ( 0.0000,  0.0000,  0.0000)
   5 Li     8.085185    4.851111   10.000000    ( 0.0000,  0.0000,  0.0000)
   6 Li     1.617037    8.085185   10.000000    ( 0.0000,  0.0000,  0.0000)
   7 Li     4.851111    8.085185   10.000000    ( 0.0000,  0.0000,  0.0000)
   8 Li     8.085185    8.085185   10.000000    ( 0.0000,  0.0000,  0.0000)
   9 Li     0.000000    0.000000   11.617037    ( 0.0000,  0.0000,  0.0000)
  10 Li     3.234074    0.000000   11.617037    ( 0.0000,  0.0000,  0.0000)
  11 Li     6.468148    0.000000   11.617037    ( 0.0000,  0.0000,  0.0000)
  12 Li     0.000000    3.234074   11.617037    ( 0.0000,  0.0000,  0.0000)
  13 Li     3.234074    3.234074   11.617037    ( 0.0000,  0.0000,  0.0000)
  14 Li     6.468148    3.234074   11.617037    ( 0.0000,  0.0000,  0.0000)
  15 Li     0.000000    6.468148   11.617037    ( 0.0000,  0.0000,  0.0000)
  16 Li     3.234074    6.468148   11.617037    ( 0.0000,  0.0000,  0.0000)
  17 Li     6.468148    6.468148   11.617037    ( 0.0000,  0.0000,  0.0000)
  18 Li     1.617042    1.616570   13.475862    ( 0.0000,  0.0000,  0.0000)
  19 Li     4.852092    1.616717   13.475282    ( 0.0000,  0.0000,  0.0000)
  20 Li     8.084419    1.617302   13.470887    ( 0.0000,  0.0000,  0.0000)
  21 Li     1.617068    4.850690   13.475087    ( 0.0000,  0.0000,  0.0000)
  22 Li     4.850545    4.851638   13.473860    ( 0.0000,  0.0000,  0.0000)
  23 Li     8.085631    4.849602   13.477526    ( 0.0000,  0.0000,  0.0000)
  24 Li     1.616483    8.086070   13.474696    ( 0.0000,  0.0000,  0.0000)
  25 Li     4.851331    8.085043   13.473890    ( 0.0000,  0.0000,  0.0000)
  26 Li     8.085495    8.086134   13.475753    ( 0.0000,  0.0000,  0.0000)
  27 Li     0.022390   -0.027491   15.419041    ( 0.0000,  0.0000,  0.0000)
  28 Li     3.233467    0.001410   15.442530    ( 0.0000,  0.0000,  0.0000)
  29 Li     6.460834   -0.004545   15.475472    ( 0.0000,  0.0000,  0.0000)
  30 Li     0.005994    3.248296   15.424333    ( 0.0000,  0.0000,  0.0000)
  31 Li     3.233857    3.234115   15.441948    ( 0.0000,  0.0000,  0.0000)
  32 Li     6.462130    3.244923   15.428661    ( 0.0000,  0.0000,  0.0000)
  33 Li    -0.001928    6.465783   15.443891    ( 0.0000,  0.0000,  0.0000)
  34 Li     3.234066    6.466658   15.442655    ( 0.0000,  0.0000,  0.0000)
  35 Li     6.469850    6.463774   15.441022    ( 0.0000,  0.0000,  0.0000)
  36 O      9.696768    9.697265   18.446075    ( 0.0000,  0.0000,  0.0000)
  37 O      6.806875    9.741117   18.175577    ( 0.0000,  0.0000,  0.0000)
  38 C      8.977763   10.868654   18.070604    ( 0.0000,  0.0000,  0.0000)
  39 C      7.562556   10.894112   18.607960    ( 0.0000,  0.0000,  0.0000)
  40 H      9.510026   11.796332   18.323238    ( 0.0000,  0.0000,  0.0000)
  41 H      8.918486   10.855104   16.960828    ( 0.0000,  0.0000,  0.0000)
  42 H      7.025848   11.770088   18.230091    ( 0.0000,  0.0000,  0.0000)
  43 H      7.606646   10.963596   19.699563    ( 0.0000,  0.0000,  0.0000)
  44 H      9.885299    9.768002   19.391120    ( 0.0000,  0.0000,  0.0000)
  45 H      7.379160    8.963923   18.311549    ( 0.0000,  0.0000,  0.0000)

Unit cell:
           periodic     x           y           z      points  spacing
  1. axis:    yes    9.702222    0.000000    0.000000    60     0.1617
  2. axis:    yes    0.000000    9.702222    0.000000    60     0.1617
  3. axis:    no     0.000000    0.000000   24.851111   156     0.1593

  Lengths:   9.702222   9.702222  24.851111
  Angles:   90.000000  90.000000  90.000000

Effective grid spacing dv^(1/3) = 0.1609

     iter     time        total  log10-change:
                         energy  eigst   dens
iter:   1 15:52:28  -290.756963  -1.20
iter:   2 16:01:25  -290.752041  -1.87  -1.99
iter:   3 16:11:48  -290.750151c -2.39  -2.22
iter:   4 16:20:29  -290.745865c -2.36  -2.27
Writing to output.gpw (mode='')

iter:   5 16:27:58  -290.745477c -2.87  -2.51
iter:   6 16:35:05  -290.744828c -2.56  -2.61
iter:   7 16:41:03  -290.744789c -2.58  -2.72
iter:   8 16:47:30  -290.744760c -3.08  -2.91
iter:   9 16:53:59  -290.744774c -3.25  -2.96
Writing to output.gpw (mode='')

iter:  10 16:58:13  -290.744731c -3.45  -3.04
iter:  11 17:05:27  -290.744712c -4.02  -3.33
iter:  12 17:10:55  -290.744720c -4.22  -3.43
iter:  13 17:16:22  -290.744712c -4.65  -3.49
iter:  14 17:21:29  -290.744711c -4.43  -3.61
Writing to output.gpw (mode='')

iter:  15 17:28:37  -290.744709c -4.72  -3.71
iter:  16 17:35:18  -290.744703c -5.13  -3.71
iter:  17 17:43:26  -290.744689c -5.02  -3.80
iter:  18 17:49:41  -290.744691c -5.65  -4.04c
iter:  19 17:55:12  -290.744695c -5.40  -4.12c
Writing to output.gpw (mode='')

iter:  20 18:01:36  -290.744693c -5.97  -4.13c
iter:  21 18:08:41  -290.744691c -5.75  -4.22c
iter:  22 18:14:49  -290.744692c -6.22  -4.37c
iter:  23 18:19:00  -290.744692c -6.05  -4.47c
iter:  24 18:24:37  -290.744691c -6.46  -4.71c
Writing to output.gpw (mode='')

iter:  25 18:28:44  -290.744692c -6.65  -4.75c
iter:  26 18:32:22  -290.744692c -6.76  -4.93c
iter:  27 18:35:59  -290.744693c -6.84  -4.90c
iter:  28 18:41:10  -290.744693c -6.92  -5.15c
iter:  29 18:44:49  -290.744693c -7.00  -5.26c
Writing to output.gpw (mode='')

iter:  30 18:48:34  -290.744693c -7.10  -5.28c
iter:  31 18:53:21  -290.744693c -7.22  -5.32c
iter:  32 18:59:36  -290.744693c -7.48c -5.37c

Converged after 32 iterations.

Dipole moment: (-2.488381, -16.176574, 0.443382) |e|*Ang

Energy contributions relative to reference atoms: (reference = -13512.263335)

Kinetic:       +139.213054
Potential:     -130.764032
External:        +0.000000
XC:            -299.725738
Entropy (-ST):   -0.150982
Local:           +0.607514
--------------------------
Free energy:   -290.820184
Extrapolated:  -290.744693

Dipole-layer corrected work functions: 3.388558, 2.536224 eV

Showing only first 2 kpts
 Kpt  Band  Eigenvalues  Occupancy
  0    29     -3.21599    1.98754
  0    30     -3.13316    1.93637
  0    31     -2.79307    0.06545
  0    32     -2.70935    0.01260

  1    29     -2.98283    1.20160
  1    30     -2.95192    0.89563
  1    31     -2.92968    0.68412
  1    32     -2.91544    0.56222


Fermi level: -2.96239

No gap
Writing to output.gpw (mode='')


Forces in eV/Ang:
  0 Li    0.00839    0.00105   -0.27238
  1 Li   -0.00775    0.00122   -0.27133
  2 Li   -0.00110    0.00392   -0.26902
  3 Li   -0.00141   -0.00253   -0.27526
  4 Li    0.00140   -0.00259   -0.27893
  5 Li   -0.00010    0.00445   -0.27221
  6 Li    0.00092    0.00121   -0.27151
  7 Li   -0.00056    0.00156   -0.27269
  8 Li   -0.00006   -0.00789   -0.26942
  9 Li    0.00286    0.00212    0.27805
 10 Li    0.00263    0.00002    0.25262
 11 Li   -0.00553   -0.00264    0.27104
 12 Li    0.00281    0.00282    0.26542
 13 Li    0.00365   -0.00451    0.25994
 14 Li   -0.00566    0.01004    0.25837
 15 Li   -0.00217   -0.00500    0.26193
 16 Li   -0.00578    0.00461    0.26962
 17 Li    0.00756   -0.00828    0.26271
 18 Li    0.00399   -0.00152    0.02398
 19 Li    0.00824   -0.00734    0.03192
 20 Li   -0.00724   -0.00551    0.00962
 21 Li    0.00498    0.00222    0.02114
 22 Li   -0.00688    0.00575    0.01565
 23 Li    0.00176   -0.00374    0.03273
 24 Li    0.00536   -0.00445    0.01603
 25 Li    0.00495    0.00222    0.02661
 26 Li   -0.00666    0.00426    0.02888
 27 Li    0.11194   -0.12945   -0.11678
 28 Li   -0.00133    0.00656   -0.02014
 29 Li   -0.03046   -0.02413    0.22802
 30 Li    0.03257    0.07334   -0.12326
 31 Li    0.00038    0.00102   -0.02186
 32 Li   -0.03516    0.06590   -0.10192
 33 Li   -0.00969   -0.01910   -0.01067
 34 Li   -0.00194   -0.00689   -0.01720
 35 Li    0.00922   -0.02892   -0.02944
 36 O    -0.00014   -0.06318    0.14103
 37 O     0.30840    0.08297   -0.00560
 38 C    -0.11968    0.38333   -0.65115
 39 C    -0.09191   -0.19925   -0.09302
 40 H     0.04273   -0.06873    0.16449
 41 H    -0.02395    0.03327    0.35600
 42 H     0.05360   -0.01675    0.02160
 43 H    -0.20703   -0.08521    0.16728
 44 H     0.12337   -0.11763   -0.00520
 45 H    -0.16235    0.15128   -0.03503

System changes: positions 

Initializing position-dependent things.

Density initialized from wave functions
       .-----------------------.  
      /|                       |  
     / |                       |  
    /  |                       |  
   /   |                       |  
  /    |                       |  
 *     |                       |  
 |     |                       |  
 |     |                       O  
 |     |                 H     |  
 |     |                       |  
 |     |                       |  
 |     Li            H Li      |  
 |H    |            C     H    |  
 |     |     Li   O  Li C    Li|  
 |     |  Li      Li    H Li   |  
 | Li  |   Li      Li          |  
 |     |Li      Li      Li     |  
 |     | Li                    |  
 |   LLi     LLi     LLi       |  
 |     |  Li      Li      Li   |  
 | Li  |   Li      Li          |  
 |     |Li      Li      Li     |  
 Li    | Li      Li            |  
 |    Li      Li      Li       |  
 |     |                       |  
 |     |                       |  
 |     |                       |  
 |     |                       |  
 |     |                       |  
 |     |                       |  
 |     .-----------------------.  
 |    /                       /   
 |   /                       /    
 |  /                       /     
 | /                       /      
 |/                       /       
 *-----------------------*        

Positions:
   0 Li     1.617037    1.617037   10.000000    ( 0.0000,  0.0000,  0.0000)
   1 Li     4.851111    1.617037   10.000000    ( 0.0000,  0.0000,  0.0000)
   2 Li     8.085185    1.617037   10.000000    ( 0.0000,  0.0000,  0.0000)
   3 Li     1.617037    4.851111   10.000000    ( 0.0000,  0.0000,  0.0000)
   4 Li     4.851111    4.851111   10.000000    ( 0.0000,  0.0000,  0.0000)
   5 Li     8.085185    4.851111   10.000000    ( 0.0000,  0.0000,  0.0000)
   6 Li     1.617037    8.085185   10.000000    ( 0.0000,  0.0000,  0.0000)
   7 Li     4.851111    8.085185   10.000000    ( 0.0000,  0.0000,  0.0000)
   8 Li     8.085185    8.085185   10.000000    ( 0.0000,  0.0000,  0.0000)
   9 Li     0.000000    0.000000   11.617037    ( 0.0000,  0.0000,  0.0000)
  10 Li     3.234074    0.000000   11.617037    ( 0.0000,  0.0000,  0.0000)
  11 Li     6.468148    0.000000   11.617037    ( 0.0000,  0.0000,  0.0000)
  12 Li     0.000000    3.234074   11.617037    ( 0.0000,  0.0000,  0.0000)
  13 Li     3.234074    3.234074   11.617037    ( 0.0000,  0.0000,  0.0000)
  14 Li     6.468148    3.234074   11.617037    ( 0.0000,  0.0000,  0.0000)
  15 Li     0.000000    6.468148   11.617037    ( 0.0000,  0.0000,  0.0000)
  16 Li     3.234074    6.468148   11.617037    ( 0.0000,  0.0000,  0.0000)
  17 Li     6.468148    6.468148   11.617037    ( 0.0000,  0.0000,  0.0000)
  18 Li     1.617140    1.616215   13.480620    ( 0.0000,  0.0000,  0.0000)
  19 Li     4.852959    1.616321   13.479835    ( 0.0000,  0.0000,  0.0000)
  20 Li     8.083723    1.617348   13.471912    ( 0.0000,  0.0000,  0.0000)
  21 Li     1.617209    4.850458   13.479246    ( 0.0000,  0.0000,  0.0000)
  22 Li     4.849993    4.852136   13.477050    ( 0.0000,  0.0000,  0.0000)
  23 Li     8.085978    4.848484   13.483625    ( 0.0000,  0.0000,  0.0000)
  24 Li     1.616236    8.086564   13.478465    ( 0.0000,  0.0000,  0.0000)
  25 Li     4.851601    8.085002   13.477366    ( 0.0000,  0.0000,  0.0000)
  26 Li     8.085546    8.086886   13.480557    ( 0.0000,  0.0000,  0.0000)
  27 Li     0.040353   -0.049357   15.397878    ( 0.0000,  0.0000,  0.0000)
  28 Li     3.233021    0.002529   15.439723    ( 0.0000,  0.0000,  0.0000)
  29 Li     6.455108   -0.008226   15.501072    ( 0.0000,  0.0000,  0.0000)
  30 Li     0.010867    3.259767   15.406634    ( 0.0000,  0.0000,  0.0000)
  31 Li     3.233716    3.234166   15.438703    ( 0.0000,  0.0000,  0.0000)
  32 Li     6.457183    3.253899   15.414436    ( 0.0000,  0.0000,  0.0000)
  33 Li    -0.003476    6.463713   15.442240    ( 0.0000,  0.0000,  0.0000)
  34 Li     3.234013    6.465478   15.440003    ( 0.0000,  0.0000,  0.0000)
  35 Li     6.471234    6.460100   15.436963    ( 0.0000,  0.0000,  0.0000)
  36 O      9.692783    9.692630   18.448597    ( 0.0000,  0.0000,  0.0000)
  37 O      6.815396    9.739900   18.149578    ( 0.0000,  0.0000,  0.0000)
  38 C      8.977887   10.874028   18.083365    ( 0.0000,  0.0000,  0.0000)
  39 C      7.559449   10.894803   18.609375    ( 0.0000,  0.0000,  0.0000)
  40 H      9.516580   11.800483   18.324818    ( 0.0000,  0.0000,  0.0000)
  41 H      8.902630   10.875538   16.979077    ( 0.0000,  0.0000,  0.0000)
  42 H      7.025766   11.775457   18.233299    ( 0.0000,  0.0000,  0.0000)
  43 H      7.596656   10.962176   19.701675    ( 0.0000,  0.0000,  0.0000)
  44 H      9.897530    9.759448   19.389874    ( 0.0000,  0.0000,  0.0000)
  45 H      7.372839    8.956574   18.312067    ( 0.0000,  0.0000,  0.0000)

Unit cell:
           periodic     x           y           z      points  spacing
  1. axis:    yes    9.702222    0.000000    0.000000    60     0.1617
  2. axis:    yes    0.000000    9.702222    0.000000    60     0.1617
  3. axis:    no     0.000000    0.000000   24.851111   156     0.1593

  Lengths:   9.702222   9.702222  24.851111
  Angles:   90.000000  90.000000  90.000000

Effective grid spacing dv^(1/3) = 0.1609

     iter     time        total  log10-change:
                         energy  eigst   dens
iter:   1 19:03:37  -290.795079  -1.06
iter:   2 19:09:21  -290.778348  -1.72  -1.81
iter:   3 19:13:47  -290.774336c -2.27  -2.08
iter:   4 19:19:11  -290.769726c -2.36  -2.22
Writing to output.gpw (mode='')

iter:   5 19:22:49  -290.769037c -2.72  -2.42
iter:   6 19:28:33  -290.768330c -2.46  -2.54
iter:   7 19:35:06  -290.768253c -2.50  -2.67
iter:   8 19:40:46  -290.768262c -3.02  -2.91
iter:   9 19:44:13  -290.768237c -3.29  -2.90
Writing to output.gpw (mode='')

iter:  10 19:49:34  -290.768228c -3.25  -3.01
iter:  11 19:55:13  -290.768184c -3.94  -3.27
iter:  12 20:01:25  -290.768196c -4.05  -3.38
iter:  13 20:06:49  -290.768189c -4.51  -3.45
iter:  14 20:12:42  -290.768186c -4.32  -3.56
Writing to output.gpw (mode='')

iter:  15 20:17:17  -290.768169c -4.77  -3.70
iter:  16 20:23:21  -290.768168c -4.94  -3.81
iter:  17 20:28:17  -290.768169c -5.01  -3.86
iter:  18 20:34:11  -290.768169c -5.40  -3.95
iter:  19 20:38:46  -290.768170c -5.48  -4.10c
Writing to output.gpw (mode='')

iter:  20 20:45:22  -290.768171c -5.72  -4.21c
iter:  21 20:51:23  -290.768171c -5.81  -4.30c
iter:  22 20:56:32  -290.768172c -5.87  -4.36c
iter:  23 20:59:02  -290.768172c -6.00  -4.44c
iter:  24 21:02:58  -290.768173c -6.30  -4.50c
Writing to output.gpw (mode='')

iter:  25 21:06:41  -290.768173c -6.43  -4.63c
iter:  26 21:11:26  -290.768173c -6.38  -4.74c
iter:  27 21:16:05  -290.768173c -6.71  -4.91c
iter:  28 21:19:31  -290.768173c -6.70  -5.03c
iter:  29 21:24:36  -290.768173c -6.90  -5.11c
Writing to output.gpw (mode='')

iter:  30 21:27:52  -290.768173c -6.96  -5.15c
iter:  31 21:30:46  -290.768173c -7.05  -5.28c
iter:  32 21:34:11  -290.768173c -7.23  -5.34c
iter:  33 21:37:53  -290.768173c -7.22  -5.46c
iter:  34 21:40:39  -290.768173c -7.40c -5.56c

Converged after 34 iterations.

Dipole moment: (-2.431252, -15.205151, 0.448196) |e|*Ang

Energy contributions relative to reference atoms: (reference = -13512.263335)

Kinetic:       +138.985410
Potential:     -130.598730
External:        +0.000000
XC:            -299.686491
Entropy (-ST):   -0.150883
Local:           +0.607080
--------------------------
Free energy:   -290.843614
Extrapolated:  -290.768173

Dipole-layer corrected work functions: 3.387691, 2.526105 eV

Showing only first 2 kpts
 Kpt  Band  Eigenvalues  Occupancy
  0    29     -3.21015    1.98745
  0    30     -3.12779    1.93651
  0    31     -2.78675    0.06441
  0    32     -2.70341    0.01249

  1    29     -2.97699    1.19828
  1    30     -2.94587    0.89020
  1    31     -2.92524    0.69356
  1    32     -2.91046    0.56632


Fermi level: -2.95690

No gap
Writing to output.gpw (mode='')


Forces in eV/Ang:
  0 Li    0.00858    0.00102   -0.27381
  1 Li   -0.00795    0.00139   -0.27138
  2 Li   -0.00107    0.00428   -0.26996
  3 Li   -0.00184   -0.00255   -0.27524
  4 Li    0.00119   -0.00268   -0.27952
  5 Li    0.00013    0.00439   -0.27331
  6 Li    0.00080    0.00115   -0.27251
  7 Li   -0.00078    0.00185   -0.27216
  8 Li    0.00033   -0.00819   -0.26976
  9 Li    0.00384    0.00143    0.28278
 10 Li    0.00144   -0.00008    0.25605
 11 Li   -0.00600   -0.00346    0.27250
 12 Li    0.00330    0.00374    0.27096
 13 Li    0.00362   -0.00503    0.26470
 14 Li   -0.00592    0.01161    0.26298
 15 Li   -0.00279   -0.00464    0.26740
 16 Li   -0.00513    0.00512    0.27243
 17 Li    0.00770   -0.00941    0.26658
 18 Li    0.00727   -0.00002    0.00782
 19 Li    0.00969   -0.01215    0.02628
 20 Li   -0.00878   -0.01227    0.01167
 21 Li    0.00958    0.00727    0.00648
 22 Li   -0.00984    0.00795    0.00341
 23 Li    0.00055    0.00240    0.01311
 24 Li    0.01448   -0.01479   -0.00198
 25 Li    0.00806    0.00518    0.02509
 26 Li   -0.01477    0.00276    0.01847
 27 Li    0.08063   -0.08590   -0.06660
 28 Li    0.00115    0.00391   -0.01659
 29 Li   -0.01449   -0.01831    0.24136
 30 Li    0.02529    0.05369   -0.10085
 31 Li    0.00178    0.00150   -0.01656
 32 Li   -0.02919    0.05654   -0.08473
 33 Li   -0.00676   -0.02103   -0.00692
 34 Li   -0.00335   -0.00383   -0.01207
 35 Li    0.00693   -0.02694   -0.02518
 36 O    -0.05866    0.02982    0.05055
 37 O     0.29029    0.17107    0.04490
 38 C    -0.13417    0.33942   -0.68396
 39 C    -0.05589   -0.17745   -0.05864
 40 H     0.03670   -0.08928    0.26561
 41 H     0.08379   -0.07507    0.19082
 42 H     0.06013   -0.08635    0.01642
 43 H    -0.27977   -0.16075    0.15513
 44 H     0.12130   -0.10071    0.02059
 45 H    -0.13665    0.20365   -0.04608

System changes: positions 

Initializing position-dependent things.

Density initialized from wave functions
       .-----------------------.  
      /|                       |  
     / |                       |  
    /  |                       |  
   /   |                       |  
  /    |                       |  
 *     |                       |  
 |     |                       |  
 |     |                       O  
 |     |                 H     |  
 |     |                       |  
 |     |                       |  
 |     Li            H Li      |  
 |H    |            C     H    |  
 |     |     Li   O  Li C    Li|  
 |     |  Li      Li    H Li   |  
 | Li  |   Li      Li          |  
 |     |Li      Li      Li     |  
 |     | Li                    |  
 |   LLi     LLi     LLi       |  
 |     |  Li      Li      Li   |  
 | Li  |   Li      Li          |  
 |     |Li      Li      Li     |  
 Li    | Li      Li            |  
 |    Li      Li      Li       |  
 |     |                       |  
 |     |                       |  
 |     |                       |  
 |     |                       |  
 |     |                       |  
 |     |                       |  
 |     .-----------------------.  
 |    /                       /   
 |   /                       /    
 |  /                       /     
 | /                       /      
 |/                       /       
 *-----------------------*        

Positions:
   0 Li     1.617037    1.617037   10.000000    ( 0.0000,  0.0000,  0.0000)
   1 Li     4.851111    1.617037   10.000000    ( 0.0000,  0.0000,  0.0000)
   2 Li     8.085185    1.617037   10.000000    ( 0.0000,  0.0000,  0.0000)
   3 Li     1.617037    4.851111   10.000000    ( 0.0000,  0.0000,  0.0000)
   4 Li     4.851111    4.851111   10.000000    ( 0.0000,  0.0000,  0.0000)
   5 Li     8.085185    4.851111   10.000000    ( 0.0000,  0.0000,  0.0000)
   6 Li     1.617037    8.085185   10.000000    ( 0.0000,  0.0000,  0.0000)
   7 Li     4.851111    8.085185   10.000000    ( 0.0000,  0.0000,  0.0000)
   8 Li     8.085185    8.085185   10.000000    ( 0.0000,  0.0000,  0.0000)
   9 Li     0.000000    0.000000   11.617037    ( 0.0000,  0.0000,  0.0000)
  10 Li     3.234074    0.000000   11.617037    ( 0.0000,  0.0000,  0.0000)
  11 Li     6.468148    0.000000   11.617037    ( 0.0000,  0.0000,  0.0000)
  12 Li     0.000000    3.234074   11.617037    ( 0.0000,  0.0000,  0.0000)
  13 Li     3.234074    3.234074   11.617037    ( 0.0000,  0.0000,  0.0000)
  14 Li     6.468148    3.234074   11.617037    ( 0.0000,  0.0000,  0.0000)
  15 Li     0.000000    6.468148   11.617037    ( 0.0000,  0.0000,  0.0000)
  16 Li     3.234074    6.468148   11.617037    ( 0.0000,  0.0000,  0.0000)
  17 Li     6.468148    6.468148   11.617037    ( 0.0000,  0.0000,  0.0000)
  18 Li     1.617371    1.615837   13.485809    ( 0.0000,  0.0000,  0.0000)
  19 Li     4.854051    1.615683   13.485131    ( 0.0000,  0.0000,  0.0000)
  20 Li     8.082831    1.617177   13.473211    ( 0.0000,  0.0000,  0.0000)
  21 Li     1.617530    4.850344   13.483770    ( 0.0000,  0.0000,  0.0000)
  22 Li     4.849230    4.852807   13.480489    ( 0.0000,  0.0000,  0.0000)
  23 Li     8.086356    4.847341   13.490322    ( 0.0000,  0.0000,  0.0000)
  24 Li     1.616237    8.086821   13.482416    ( 0.0000,  0.0000,  0.0000)
  25 Li     4.852030    8.085050   13.481501    ( 0.0000,  0.0000,  0.0000)
  26 Li     8.085337    8.087737   13.485989    ( 0.0000,  0.0000,  0.0000)
  27 Li     0.060893   -0.074160   15.374152    ( 0.0000,  0.0000,  0.0000)
  28 Li     3.232566    0.003788   15.436455    ( 0.0000,  0.0000,  0.0000)
  29 Li     6.448759   -0.012463   15.532436    ( 0.0000,  0.0000,  0.0000)
  30 Li     0.016490    3.272911   15.386061    ( 0.0000,  0.0000,  0.0000)
  31 Li     3.233596    3.234244   15.434968    ( 0.0000,  0.0000,  0.0000)
  32 Li     6.451421    3.264413   15.397856    ( 0.0000,  0.0000,  0.0000)
  33 Li    -0.005241    6.461148   15.440372    ( 0.0000,  0.0000,  0.0000)
  34 Li     3.233900    6.464158   15.436978    ( 0.0000,  0.0000,  0.0000)
  35 Li     6.472824    6.455732   15.432211    ( 0.0000,  0.0000,  0.0000)
  36 O      9.686765    9.689234   18.450351    ( 0.0000,  0.0000,  0.0000)
  37 O      6.827238    9.741526   18.121435    ( 0.0000,  0.0000,  0.0000)
  38 C      8.976575   10.882426   18.091814    ( 0.0000,  0.0000,  0.0000)
  39 C      7.556120   10.894525   18.611009    ( 0.0000,  0.0000,  0.0000)
  40 H      9.524205   11.804015   18.330622    ( 0.0000,  0.0000,  0.0000)
  41 H      8.887219   10.896147   16.998287    ( 0.0000,  0.0000,  0.0000)
  42 H      7.026328   11.779553   18.237015    ( 0.0000,  0.0000,  0.0000)
  43 H      7.581652   10.957862   19.705179    ( 0.0000,  0.0000,  0.0000)
  44 H      9.912406    9.749167   19.389035    ( 0.0000,  0.0000,  0.0000)
  45 H      7.364948    8.950872   18.312064    ( 0.0000,  0.0000,  0.0000)

Unit cell:
           periodic     x           y           z      points  spacing
  1. axis:    yes    9.702222    0.000000    0.000000    60     0.1617
  2. axis:    yes    0.000000    9.702222    0.000000    60     0.1617
  3. axis:    no     0.000000    0.000000   24.851111   156     0.1593

  Lengths:   9.702222   9.702222  24.851111
  Angles:   90.000000  90.000000  90.000000

Effective grid spacing dv^(1/3) = 0.1609

     iter     time        total  log10-change:
                         energy  eigst   dens
iter:   1 21:45:23  -290.826393  -0.97
iter:   2 21:48:42  -290.802148  -1.62  -1.74
iter:   3 21:52:29  -290.796708c -2.17  -2.02
iter:   4 21:57:44  -290.791370c -2.31  -2.18
Writing to output.gpw (mode='')

iter:   5 22:01:53  -290.790214c -2.57  -2.37
iter:   6 22:06:02  -290.789487c -2.33  -2.51
iter:   7 22:09:17  -290.789425c -2.50  -2.66
iter:   8 22:12:29  -290.789432c -2.93  -2.89
iter:   9 22:16:22  -290.789413c -3.30  -2.88
Writing to output.gpw (mode='')

iter:  10 22:21:17  -290.789386c -3.27  -2.97
iter:  11 22:23:53  -290.789354c -3.75  -3.23
iter:  12 22:27:08  -290.789369c -3.96  -3.35
iter:  13 22:30:13  -290.789361c -4.38  -3.41
iter:  14 22:34:10  -290.789351c -4.16  -3.51
Writing to output.gpw (mode='')

iter:  15 22:38:02  -290.789341c -4.76  -3.66
iter:  16 22:42:16  -290.789339c -4.92  -3.75
iter:  17 22:46:51  -290.789341c -4.83  -3.80
iter:  18 22:49:59  -290.789340c -5.19  -3.86
iter:  19 22:52:46  -290.789340c -5.40  -4.10c
Writing to output.gpw (mode='')

iter:  20 22:56:22  -290.789340c -5.53  -4.15c
iter:  21 22:58:39  -290.789340c -5.57  -4.28c
iter:  22 23:01:31  -290.789341c -5.90  -4.37c
iter:  23 23:05:02  -290.789341c -6.10  -4.44c
iter:  24 23:09:05  -290.789341c -6.08  -4.49c
Writing to output.gpw (mode='')

iter:  25 23:13:31  -290.789341c -6.45  -4.62c
iter:  26 23:16:57  -290.789342c -6.31  -4.67c
iter:  27 23:19:43  -290.789341c -6.74  -4.86c
iter:  28 23:23:03  -290.789341c -6.64  -4.99c
iter:  29 23:27:06  -290.789341c -6.72  -5.03c
Writing to output.gpw (mode='')

iter:  30 23:33:45  -290.789341c -6.90  -5.17c
iter:  31 23:37:56  -290.789341c -6.97  -5.29c
iter:  32 23:43:40  -290.789341c -7.09  -5.40c
iter:  33 23:50:51  -290.789341c -7.12  -5.42c
iter:  34 23:55:54  -290.789341c -7.31  -5.45c
Writing to output.gpw (mode='')

iter:  35 00:00:53  -290.789341c -7.57c -5.70c

Converged after 35 iterations.

Dipole moment: (-2.228899, -14.447793, 0.453984) |e|*Ang

Energy contributions relative to reference atoms: (reference = -13512.263335)

Kinetic:       +138.927810
Potential:     -130.554522
External:        +0.000000
XC:            -299.694447
Entropy (-ST):   -0.150745
Local:           +0.607190
--------------------------
Free energy:   -290.864714
Extrapolated:  -290.789341

Dipole-layer corrected work functions: 3.386825, 2.514112 eV

Showing only first 2 kpts
 Kpt  Band  Eigenvalues  Occupancy
  0    29     -3.20331    1.98735
  0    30     -3.12137    1.93653
  0    31     -2.77930    0.06315
  0    32     -2.69647    0.01236

  1    29     -2.97026    1.19541
  1    30     -2.93903    0.88609
  1    31     -2.92019    0.70614
  1    32     -2.90391    0.56539


Fermi level: -2.95047

No gap

Forces in eV/Ang:
  0 Li    0.00884    0.00101   -0.27547
  1 Li   -0.00821    0.00160   -0.27147
  2 Li   -0.00106    0.00467   -0.27101
  3 Li   -0.00234   -0.00259   -0.27512
  4 Li    0.00093   -0.00281   -0.28028
  5 Li    0.00037    0.00440   -0.27461
  6 Li    0.00066    0.00103   -0.27368
  7 Li   -0.00097    0.00219   -0.27155
  8 Li    0.00075   -0.00857   -0.27014
  9 Li    0.00490    0.00055    0.28822
 10 Li    0.00026   -0.00026    0.25993
 11 Li   -0.00667   -0.00443    0.27353
 12 Li    0.00382    0.00477    0.27725
 13 Li    0.00373   -0.00565    0.27007
 14 Li   -0.00624    0.01329    0.26826
 15 Li   -0.00358   -0.00414    0.27356
 16 Li   -0.00416    0.00579    0.27533
 17 Li    0.00773   -0.01066    0.27085
 18 Li    0.01075    0.00158   -0.00999
 19 Li    0.01139   -0.01773    0.02009
 20 Li   -0.01014   -0.01979    0.01398
 21 Li    0.01516    0.01338   -0.01042
 22 Li   -0.01348    0.01070   -0.01078
 23 Li   -0.00086    0.00957   -0.00960
 24 Li    0.02563   -0.02727   -0.02345
 25 Li    0.01169    0.00863    0.02382
 26 Li   -0.02400    0.00127    0.00738
 27 Li    0.05005   -0.04423   -0.01869
 28 Li    0.00409    0.00102   -0.01251
 29 Li    0.00305   -0.01163    0.25350
 30 Li    0.01755    0.03245   -0.07530
 31 Li    0.00321    0.00201   -0.01057
 32 Li   -0.02250    0.04519   -0.06440
 33 Li   -0.00362   -0.02293   -0.00254
 34 Li   -0.00485   -0.00039   -0.00616
 35 Li    0.00429   -0.02408   -0.02010
 36 O    -0.08272    0.11467    0.01639
 37 O     0.17888    0.19164    0.09465
 38 C    -0.08196    0.22313   -0.40916
 39 C    -0.00588   -0.08600   -0.01779
 40 H     0.01260   -0.10024    0.31983
 41 H     0.17671   -0.15962   -0.10029
 42 H     0.04240   -0.13104    0.01119
 43 H    -0.31346   -0.23114    0.10928
 44 H     0.06219   -0.04397   -0.06946
 45 H    -0.09551    0.23900   -0.05126

System changes: positions 

Initializing position-dependent things.

Density initialized from wave functions
       .-----------------------.  
      /|                       |  
     / |                       |  
    /  |                       |  
   /   |                       |  
  /    |                       |  
 *     |                       |  
 |     |                       |  
 |     |                       O  
 |     |                 H     |  
 |     |                       |  
 |     |                       |  
 |     Li           H  Li      |  
 |H    |            C     H    |  
 |     |     Li   O  Li C    Li|  
 |     |  Li      Li    H Li   |  
 | Li  |   Li      Li          |  
 |     |Li      Li      Li     |  
 |     | Li                    |  
 |   LLi     LLi     LLi       |  
 |     |  Li      Li      Li   |  
 | Li  |   Li      Li          |  
 |     |Li      Li      Li     |  
 Li    | Li      Li            |  
 |    Li      Li      Li       |  
 |     |                       |  
 |     |                       |  
 |     |                       |  
 |     |                       |  
 |     |                       |  
 |     |                       |  
 |     .-----------------------.  
 |    /                       /   
 |   /                       /    
 |  /                       /     
 | /                       /      
 |/                       /       
 *-----------------------*        

Positions:
   0 Li     1.617037    1.617037   10.000000    ( 0.0000,  0.0000,  0.0000)
   1 Li     4.851111    1.617037   10.000000    ( 0.0000,  0.0000,  0.0000)
   2 Li     8.085185    1.617037   10.000000    ( 0.0000,  0.0000,  0.0000)
   3 Li     1.617037    4.851111   10.000000    ( 0.0000,  0.0000,  0.0000)
   4 Li     4.851111    4.851111   10.000000    ( 0.0000,  0.0000,  0.0000)
   5 Li     8.085185    4.851111   10.000000    ( 0.0000,  0.0000,  0.0000)
   6 Li     1.617037    8.085185   10.000000    ( 0.0000,  0.0000,  0.0000)
   7 Li     4.851111    8.085185   10.000000    ( 0.0000,  0.0000,  0.0000)
   8 Li     8.085185    8.085185   10.000000    ( 0.0000,  0.0000,  0.0000)
   9 Li     0.000000    0.000000   11.617037    ( 0.0000,  0.0000,  0.0000)
  10 Li     3.234074    0.000000   11.617037    ( 0.0000,  0.0000,  0.0000)
  11 Li     6.468148    0.000000   11.617037    ( 0.0000,  0.0000,  0.0000)
  12 Li     0.000000    3.234074   11.617037    ( 0.0000,  0.0000,  0.0000)
  13 Li     3.234074    3.234074   11.617037    ( 0.0000,  0.0000,  0.0000)
  14 Li     6.468148    3.234074   11.617037    ( 0.0000,  0.0000,  0.0000)
  15 Li     0.000000    6.468148   11.617037    ( 0.0000,  0.0000,  0.0000)
  16 Li     3.234074    6.468148   11.617037    ( 0.0000,  0.0000,  0.0000)
  17 Li     6.468148    6.468148   11.617037    ( 0.0000,  0.0000,  0.0000)
  18 Li     1.617786    1.615535   13.490191    ( 0.0000,  0.0000,  0.0000)
  19 Li     4.855242    1.614767   13.490204    ( 0.0000,  0.0000,  0.0000)
  20 Li     8.081845    1.616634   13.474636    ( 0.0000,  0.0000,  0.0000)
  21 Li     1.618119    4.850513   13.487550    ( 0.0000,  0.0000,  0.0000)
  22 Li     4.848287    4.853615   13.483304    ( 0.0000,  0.0000,  0.0000)
  23 Li     8.086672    4.846525   13.496033    ( 0.0000,  0.0000,  0.0000)
  24 Li     1.616754    8.086498   13.485423    ( 0.0000,  0.0000,  0.0000)
  25 Li     4.852641    8.085265   13.485626    ( 0.0000,  0.0000,  0.0000)
  26 Li     8.084674    8.088516   13.490934    ( 0.0000,  0.0000,  0.0000)
  27 Li     0.080053   -0.096989   15.352770    ( 0.0000,  0.0000,  0.0000)
  28 Li     3.232247    0.004919   15.433326    ( 0.0000,  0.0000,  0.0000)
  29 Li     6.443210   -0.016433   15.565107    ( 0.0000,  0.0000,  0.0000)
  30 Li     0.021805    3.285166   15.366414    ( 0.0000,  0.0000,  0.0000)
  31 Li     3.233551    3.234352   15.431464    ( 0.0000,  0.0000,  0.0000)
  32 Li     6.445891    3.274579   15.381960    ( 0.0000,  0.0000,  0.0000)
  33 Li    -0.006872    6.458434   15.438676    ( 0.0000,  0.0000,  0.0000)
  34 Li     3.233704    6.462987   15.434188    ( 0.0000,  0.0000,  0.0000)
  35 Li     6.474312    6.451406   15.427623    ( 0.0000,  0.0000,  0.0000)
  36 O      9.679808    9.688731   18.452007    ( 0.0000,  0.0000,  0.0000)
  37 O      6.839929    9.746284   18.098013    ( 0.0000,  0.0000,  0.0000)
  38 C      8.974495   10.892799   18.095333    ( 0.0000,  0.0000,  0.0000)
  39 C      7.553445   10.893674   18.612487    ( 0.0000,  0.0000,  0.0000)
  40 H      9.531084   11.805434   18.341565    ( 0.0000,  0.0000,  0.0000)
  41 H      8.876952   10.911447   17.011414    ( 0.0000,  0.0000,  0.0000)
  42 H      7.027385   11.780726   18.240529    ( 0.0000,  0.0000,  0.0000)
  43 H      7.562643   10.949553   19.709764    ( 0.0000,  0.0000,  0.0000)
  44 H      9.926349    9.739637   19.386259    ( 0.0000,  0.0000,  0.0000)
  45 H      7.356575    8.949951   18.311170    ( 0.0000,  0.0000,  0.0000)

Unit cell:
           periodic     x           y           z      points  spacing
  1. axis:    yes    9.702222    0.000000    0.000000    60     0.1617
  2. axis:    yes    0.000000    9.702222    0.000000    60     0.1617
  3. axis:    no     0.000000    0.000000   24.851111   156     0.1593

  Lengths:   9.702222   9.702222  24.851111
  Angles:   90.000000  90.000000  90.000000

Effective grid spacing dv^(1/3) = 0.1609

     iter     time        total  log10-change:
                         energy  eigst   dens
iter:   1 00:06:30  -290.848379  -1.02
iter:   2 00:12:33  -290.819604  -1.67  -1.73
iter:   3 00:20:22  -290.813718  -2.25  -2.02
iter:   4 00:26:52  -290.809749c -2.41  -2.23
Writing to output.gpw (mode='')

iter:   5 00:32:14  -290.808745c -2.58  -2.41
iter:   6 00:36:46  -290.808223c -2.40  -2.56
iter:   7 00:42:03  -290.808210c -2.66  -2.73
iter:   8 00:47:27  -290.808161c -3.07  -2.92
iter:   9 00:52:11  -290.808135c -3.50  -2.94
Writing to output.gpw (mode='')

iter:  10 00:57:43  -290.808128c -3.42  -3.05
iter:  11 01:00:38  -290.808108c -3.83  -3.27
iter:  12 01:05:43  -290.808119c -4.05  -3.37
iter:  13 01:10:26  -290.808115c -4.30  -3.48
iter:  14 01:16:11  -290.808105c -4.30  -3.56
Writing to output.gpw (mode='')

iter:  15 01:21:39  -290.808099c -4.81  -3.71
iter:  16 01:25:36  -290.808101c -5.03  -3.78
iter:  17 01:32:29  -290.808101c -5.14  -3.86
iter:  18 01:38:04  -290.808102c -5.21  -3.91
iter:  19 01:43:05  -290.808097c -5.44  -3.99
Writing to output.gpw (mode='')

iter:  20 01:47:47  -290.808096c -5.61  -4.21c
iter:  21 01:54:01  -290.808098c -5.75  -4.28c
iter:  22 01:59:01  -290.808099c -5.98  -4.36c
iter:  23 02:04:11  -290.808098c -6.03  -4.47c
iter:  24 02:10:19  -290.808098c -6.33  -4.64c
Writing to output.gpw (mode='')

iter:  25 02:15:11  -290.808098c -6.22  -4.68c
iter:  26 02:21:47  -290.808098c -6.43  -4.83c
iter:  27 02:26:28  -290.808098c -6.80  -4.96c
iter:  28 02:32:41  -290.808098c -6.92  -5.05c
iter:  29 02:38:42  -290.808098c -6.87  -5.04c
Writing to output.gpw (mode='')

iter:  30 02:45:05  -290.808098c -6.94  -5.03c
iter:  31 02:52:31  -290.808098c -7.09  -5.01c
iter:  32 02:58:50  -290.808098c -7.11  -5.00c
iter:  33 03:06:54  -290.808098c -7.17  -5.01c
iter:  34 03:12:50  -290.808098c -7.23  -5.03c
Writing to output.gpw (mode='')

iter:  35 03:19:09  -290.808098c -7.14  -5.09c
iter:  36 03:24:11  -290.808098c -7.45c -5.19c

Converged after 36 iterations.

Dipole moment: (-1.902994, -14.184502, 0.459929) |e|*Ang

Energy contributions relative to reference atoms: (reference = -13512.263335)

Kinetic:       +139.292623
Potential:     -130.820274
External:        +0.000000
XC:            -299.811851
Entropy (-ST):   -0.150610
Local:           +0.606710
--------------------------
Free energy:   -290.883403
Extrapolated:  -290.808098

Dipole-layer corrected work functions: 3.386178, 2.502037 eV

Showing only first 2 kpts
 Kpt  Band  Eigenvalues  Occupancy
  0    29     -3.19656    1.98725
  0    30     -3.11488    1.93636
  0    31     -2.77203    0.06205
  0    32     -2.68966    0.01225

  1    29     -2.96374    1.19384
  1    30     -2.93249    0.88429
  1    31     -2.91527    0.71933
  1    32     -2.89687    0.55987


Fermi level: -2.94411

No gap
Writing to output.gpw (mode='')


Forces in eV/Ang:
  0 Li    0.00913    0.00100   -0.27708
  1 Li   -0.00847    0.00180   -0.27155
  2 Li   -0.00108    0.00500   -0.27193
  3 Li   -0.00280   -0.00261   -0.27488
  4 Li    0.00071   -0.00295   -0.28115
  5 Li    0.00054    0.00448   -0.27593
  6 Li    0.00052    0.00090   -0.27484
  7 Li   -0.00109    0.00255   -0.27097
  8 Li    0.00109   -0.00896   -0.27043
  9 Li    0.00579   -0.00042    0.29328
 10 Li   -0.00053   -0.00048    0.26340
 11 Li   -0.00748   -0.00534    0.27363
 12 Li    0.00416    0.00560    0.28318
 13 Li    0.00411   -0.00636    0.27494
 14 Li   -0.00655    0.01463    0.27327
 15 Li   -0.00445   -0.00347    0.27909
 16 Li   -0.00284    0.00655    0.27751
 17 Li    0.00758   -0.01169    0.27452
 18 Li    0.01367    0.00280   -0.02569
 19 Li    0.01309   -0.02297    0.01470
 20 Li   -0.01111   -0.02654    0.01622
 21 Li    0.02045    0.01920   -0.02607
 22 Li   -0.01701    0.01340   -0.02406
 23 Li   -0.00214    0.01624   -0.03085
 24 Li    0.03623   -0.03906   -0.04366
 25 Li    0.01522    0.01198    0.02314
 26 Li   -0.03224    0.00031   -0.00169
 27 Li    0.02447   -0.01117    0.01989
 28 Li    0.00693   -0.00156   -0.00885
 29 Li    0.01733   -0.00554    0.26201
 30 Li    0.01052    0.01346   -0.05149
[...]
Writing to output.gpw (mode='')

iter:  25 14:27:24  -291.119173c -6.78  -4.91c
iter:  26 14:32:27  -291.119173c -7.04  -5.00c
iter:  27 14:35:16  -291.119173c -7.01  -5.01c
iter:  28 14:38:55  -291.119174c -7.11  -5.03c
iter:  29 14:42:36  -291.119174c -7.46c -5.06c

Converged after 29 iterations.

Dipole moment: (4.247918, -18.151957, 0.539347) |e|*Ang

Energy contributions relative to reference atoms: (reference = -13512.263335)

Kinetic:       +140.220352
Potential:     -131.749283
External:        +0.000000
XC:            -300.124924
Entropy (-ST):   -0.152174
Local:           +0.610768
--------------------------
Free energy:   -291.195261
Extrapolated:  -291.119174

Dipole-layer corrected work functions: 3.375236, 2.338426 eV

Showing only first 2 kpts
 Kpt  Band  Eigenvalues  Occupancy
  0    29     -3.10773    1.98685
  0    30     -3.02373    1.93141
  0    31     -2.68892    0.06726
  0    32     -2.60110    0.01194

  1    29     -2.89046    1.32419
  1    30     -2.84688    0.90081
  1    31     -2.81916    0.64011
  1    32     -2.80571    0.52909


Fermi level: -2.85683

No gap
Writing to output.gpw (mode='')


Forces in eV/Ang:
  0 Li    0.00840   -0.00336   -0.28129
  1 Li   -0.00756   -0.00054   -0.27638
  2 Li   -0.00364    0.00450   -0.27091
  3 Li   -0.00076   -0.00127   -0.25758
  4 Li    0.00399   -0.00202   -0.27736
  5 Li   -0.00288    0.00553   -0.29117
  6 Li    0.00044    0.00459   -0.27954
  7 Li   -0.00138    0.00318   -0.27457
  8 Li   -0.00318   -0.00824   -0.26536
  9 Li   -0.01699   -0.02888    0.29873
 10 Li    0.05729   -0.02959    0.26879
 11 Li   -0.00494   -0.02554    0.20577
 12 Li   -0.02123   -0.04291    0.32136
 13 Li    0.03813   -0.05829    0.28685
 14 Li   -0.00585   -0.03057    0.31219
 15 Li   -0.02147    0.05259    0.27822
 16 Li    0.04008    0.08605    0.24768
 17 Li   -0.00490    0.05404    0.26478
 18 Li   -0.02407    0.00080    0.02706
 19 Li   -0.03984    0.03832   -0.03568
 20 Li    0.02615    0.03885   -0.04212
 21 Li    0.00484    0.00366    0.01630
 22 Li    0.01017   -0.01061    0.02482
 23 Li   -0.00197   -0.00448    0.03923
 24 Li   -0.02065    0.00760    0.01394
 25 Li   -0.04725   -0.02331   -0.04451
 26 Li    0.02971   -0.01903   -0.02768
 27 Li   -0.00572   -0.03818    0.06742
 28 Li   -0.00322    0.01395    0.00181
 29 Li    0.04826   -0.01020   -0.01221
 30 Li    0.01253    0.03360   -0.00643
 31 Li    0.00567   -0.01379    0.00666
 32 Li   -0.01088   -0.00599   -0.00648
 33 Li   -0.00284    0.00059    0.02073
 34 Li   -0.00286   -0.00461   -0.02398
 35 Li    0.01066    0.01953   -0.00414
 36 O    -0.07298    0.29530   -0.04303
 37 O     0.00815   -0.01039   -0.00027
 38 C    -0.11234    0.02338    0.21906
 39 C    -0.14043    0.04385    0.09309
 40 H     0.11588   -0.15140    0.00281
 41 H     0.05221   -0.03658   -0.11566
 42 H    -0.03523   -0.01201   -0.06127
 43 H     0.08229   -0.06405    0.02733
 44 H     0.02985   -0.03781   -0.08558
 45 H    -0.00381    0.00871   -0.07933

System changes: positions 

Initializing position-dependent things.

Density initialized from wave functions
       .-----------------------.  
      /|                       |  
     / |                       |  
    /  |                       |  
   /   |                       |  
  /    |                       |  
 *     |                       |  
 |     |H                      |  
 |     |                       |  
 |     |                 H     |  
 |     |                       |  
 |     |                       |  
 |     Li      Li   H    H     |  
 |     |           HC   C      |  
 |     |     Li      Li  O   Li|  
 |     |  Li      Oi      Li   |  
 | Li  |   Li      Li          |  
 |     |Li      LLi     Li     |  
 |     |                       |  
 |   LLi     LLi     LLi       |  
 |     |  Li      Li      Li   |  
 | Li  |   Li      Li          |  
 |     |Li      Li      Li     |  
 Li    | Li      Li            |  
 |    Li      Li      Li       |  
 |     |                       |  
 |     |                       |  
 |     |                       |  
 |     |                       |  
 |     |                       |  
 |     |                       |  
 |     .-----------------------.  
 |    /                       /   
 |   /                       /    
 |  /                       /     
 | /                       /      
 |/                       /       
 *-----------------------*        

Positions:
   0 Li     1.617037    1.617037   10.000000    ( 0.0000,  0.0000,  0.0000)
   1 Li     4.851111    1.617037   10.000000    ( 0.0000,  0.0000,  0.0000)
   2 Li     8.085185    1.617037   10.000000    ( 0.0000,  0.0000,  0.0000)
   3 Li     1.617037    4.851111   10.000000    ( 0.0000,  0.0000,  0.0000)
   4 Li     4.851111    4.851111   10.000000    ( 0.0000,  0.0000,  0.0000)
   5 Li     8.085185    4.851111   10.000000    ( 0.0000,  0.0000,  0.0000)
   6 Li     1.617037    8.085185   10.000000    ( 0.0000,  0.0000,  0.0000)
   7 Li     4.851111    8.085185   10.000000    ( 0.0000,  0.0000,  0.0000)
   8 Li     8.085185    8.085185   10.000000    ( 0.0000,  0.0000,  0.0000)
   9 Li     0.000000    0.000000   11.617037    ( 0.0000,  0.0000,  0.0000)
  10 Li     3.234074    0.000000   11.617037    ( 0.0000,  0.0000,  0.0000)
  11 Li     6.468148    0.000000   11.617037    ( 0.0000,  0.0000,  0.0000)
  12 Li     0.000000    3.234074   11.617037    ( 0.0000,  0.0000,  0.0000)
  13 Li     3.234074    3.234074   11.617037    ( 0.0000,  0.0000,  0.0000)
  14 Li     6.468148    3.234074   11.617037    ( 0.0000,  0.0000,  0.0000)
  15 Li     0.000000    6.468148   11.617037    ( 0.0000,  0.0000,  0.0000)
  16 Li     3.234074    6.468148   11.617037    ( 0.0000,  0.0000,  0.0000)
  17 Li     6.468148    6.468148   11.617037    ( 0.0000,  0.0000,  0.0000)
  18 Li     1.642955    1.563577   13.447543    ( 0.0000,  0.0000,  0.0000)
  19 Li     4.920444    1.553685   13.536846    ( 0.0000,  0.0000,  0.0000)
  20 Li     8.040074    1.491455   13.549632    ( 0.0000,  0.0000,  0.0000)
  21 Li     1.652436    4.866327   13.413307    ( 0.0000,  0.0000,  0.0000)
  22 Li     4.814775    4.906501   13.426791    ( 0.0000,  0.0000,  0.0000)
  23 Li     8.074617    4.885210   13.392738    ( 0.0000,  0.0000,  0.0000)
  24 Li     1.635936    8.065671   13.471932    ( 0.0000,  0.0000,  0.0000)
  25 Li     4.939944    8.141971   13.580990    ( 0.0000,  0.0000,  0.0000)
  26 Li     8.038283    8.139135   13.587899    ( 0.0000,  0.0000,  0.0000)
  27 Li     0.169351   -0.118761   15.560701    ( 0.0000,  0.0000,  0.0000)
  28 Li     3.216159   -0.004467   15.399293    ( 0.0000,  0.0000,  0.0000)
  29 Li     6.314988    0.117498   15.872582    ( 0.0000,  0.0000,  0.0000)
  30 Li     0.026081    3.243339   15.186607    ( 0.0000,  0.0000,  0.0000)
  31 Li     3.249423    3.237659   15.362252    ( 0.0000,  0.0000,  0.0000)
  32 Li     6.468200    3.374505   15.273763    ( 0.0000,  0.0000,  0.0000)
  33 Li    -0.002015    6.365779   15.357634    ( 0.0000,  0.0000,  0.0000)
  34 Li     3.229246    6.480931   15.456821    ( 0.0000,  0.0000,  0.0000)
  35 Li     6.460141    6.398776   15.438301    ( 0.0000,  0.0000,  0.0000)
  36 O      9.600717    9.707079   18.305957    ( 0.0000,  0.0000,  0.0000)
  37 O      6.864775    9.806829   17.747509    ( 0.0000,  0.0000,  0.0000)
  38 C      8.939330   10.999223   18.274338    ( 0.0000,  0.0000,  0.0000)
  39 C      7.456817   10.849341   18.550110    ( 0.0000,  0.0000,  0.0000)
  40 H      9.360355   11.723627   18.984408    ( 0.0000,  0.0000,  0.0000)
  41 H      9.074155   11.417898   17.271743    ( 0.0000,  0.0000,  0.0000)
  42 H      6.953338   11.781060   18.282939    ( 0.0000,  0.0000,  0.0000)
  43 H      7.253745   10.648868   19.606512    ( 0.0000,  0.0000,  0.0000)
  44 H     10.155057    9.663354   19.095351    ( 0.0000,  0.0000,  0.0000)
  45 H      7.323649    8.979865   17.971083    ( 0.0000,  0.0000,  0.0000)

Unit cell:
           periodic     x           y           z      points  spacing
  1. axis:    yes    9.702222    0.000000    0.000000    60     0.1617
  2. axis:    yes    0.000000    9.702222    0.000000    60     0.1617
  3. axis:    no     0.000000    0.000000   24.851111   156     0.1593

  Lengths:   9.702222   9.702222  24.851111
  Angles:   90.000000  90.000000  90.000000

Effective grid spacing dv^(1/3) = 0.1609

     iter     time        total  log10-change:
                         energy  eigst   dens
iter:   1 14:48:14  -291.126231  -1.01
iter:   2 14:51:54  -291.127173  -1.79  -2.22
iter:   3 14:54:36  -291.127480c -2.28  -2.35
iter:   4 14:57:08  -291.126346c -2.51  -2.42
Writing to output.gpw (mode='')

iter:   5 14:59:50  -291.125913c -2.43  -2.60
iter:   6 15:02:06  -291.125723c -2.63  -2.65
iter:   7 15:05:37  -291.126040c -2.83  -2.96
iter:   8 15:07:56  -291.125787c -3.36  -2.93
iter:   9 15:10:30  -291.125783c -3.64  -3.09
Writing to output.gpw (mode='')

iter:  10 15:13:21  -291.125786c -4.00  -3.26
iter:  11 15:16:07  -291.125787c -4.20  -3.45
iter:  12 15:19:37  -291.125781c -4.63  -3.64
iter:  13 15:22:29  -291.125783c -4.96  -3.67
iter:  14 15:26:21  -291.125770c -4.72  -3.75
Writing to output.gpw (mode='')

iter:  15 15:29:04  -291.125778c -4.97  -3.79
iter:  16 15:31:33  -291.125779c -5.48  -4.01c
iter:  17 15:35:10  -291.125777c -5.35  -4.04c
iter:  18 15:39:29  -291.125776c -5.63  -4.13c
iter:  19 15:43:17  -291.125776c -5.68  -4.26c
Writing to output.gpw (mode='')

iter:  20 15:45:48  -291.125776c -6.01  -4.48c
iter:  21 15:49:27  -291.125776c -6.34  -4.54c
iter:  22 15:52:35  -291.125776c -6.33  -4.58c
iter:  23 15:57:11  -291.125776c -6.38  -4.67c
iter:  24 16:00:05  -291.125776c -6.54  -4.77c
Writing to output.gpw (mode='')

iter:  25 16:03:19  -291.125776c -6.59  -4.78c
iter:  26 16:06:20  -291.125776c -6.73  -4.71c
iter:  27 16:09:52  -291.125776c -6.90  -4.85c
iter:  28 16:14:25  -291.125776c -6.90  -4.90c
iter:  29 16:18:52  -291.125777c -7.03  -5.09c
Writing to output.gpw (mode='')

iter:  30 16:23:15  -291.125777c -7.25  -5.25c
iter:  31 16:26:57  -291.125777c -7.25  -5.31c
iter:  32 16:30:20  -291.125776c -7.48c -5.31c

Converged after 32 iterations.

Dipole moment: (4.811405, -18.355271, 0.539415) |e|*Ang

Energy contributions relative to reference atoms: (reference = -13512.263335)

Kinetic:       +140.232680
Potential:     -131.765315
External:        +0.000000
XC:            -300.127666
Entropy (-ST):   -0.152145
Local:           +0.610598
--------------------------
Free energy:   -291.201849
Extrapolated:  -291.125776

Dipole-layer corrected work functions: 3.374765, 2.337824 eV

Showing only first 2 kpts
 Kpt  Band  Eigenvalues  Occupancy
  0    29     -3.10703    1.98681
  0    30     -3.02307    1.93126
  0    31     -2.68832    0.06717
  0    32     -2.60027    0.01188

  1    29     -2.89031    1.32765
  1    30     -2.84649    0.90227
  1    31     -2.81795    0.63427
  1    32     -2.80559    0.53238


Fermi level: -2.85629

No gap
Writing to output.gpw (mode='')


Forces in eV/Ang:
  0 Li    0.00841   -0.00357   -0.28085
  1 Li   -0.00753   -0.00031   -0.27677
  2 Li   -0.00354    0.00476   -0.27087
  3 Li   -0.00067   -0.00142   -0.25902
  4 Li    0.00421   -0.00213   -0.27647
  5 Li   -0.00295    0.00542   -0.29164
  6 Li    0.00036    0.00481   -0.27919
  7 Li   -0.00157    0.00293   -0.27531
  8 Li   -0.00288   -0.00824   -0.26507
  9 Li   -0.01700   -0.02939    0.29434
 10 Li    0.05613   -0.03044    0.26910
 11 Li   -0.00485   -0.02673    0.20772
 12 Li   -0.02148   -0.04259    0.32279
 13 Li    0.03657   -0.05836    0.28874
 14 Li   -0.00498   -0.02970    0.31229
 15 Li   -0.02104    0.05196    0.28000
 16 Li    0.03753    0.08771    0.25180
 17 Li   -0.00376    0.05459    0.26613
 18 Li   -0.02491    0.00086    0.02553
 19 Li   -0.03999    0.03526   -0.03682
 20 Li    0.02721    0.04008   -0.04030
 21 Li    0.00784    0.00539    0.01163
 22 Li    0.00772   -0.00950    0.01861
 23 Li   -0.00092   -0.00270    0.03212
 24 Li   -0.01996    0.00630    0.01163
 25 Li   -0.04638   -0.02146   -0.04333
 26 Li    0.02773   -0.01894   -0.02765
 27 Li   -0.00844   -0.04026    0.07292
 28 Li    0.00206    0.01360    0.00049
 29 Li    0.05096   -0.01278   -0.00913
 30 Li    0.01270    0.03278    0.00036
 31 Li    0.00415   -0.01282    0.01148
 32 Li   -0.01132   -0.01009   -0.00378
 33 Li   -0.00313    0.00282    0.02677
 34 Li   -0.00433   -0.00508   -0.02308
 35 Li    0.01144    0.02373   -0.00547
 36 O    -0.06777    0.36379   -0.04390
 37 O    -0.02566   -0.01657   -0.03231
 38 C    -0.04394    0.03094    0.17965
 39 C    -0.12035    0.07950    0.10101
 40 H     0.13799   -0.21678   -0.03038
 41 H     0.04229   -0.06850   -0.06933
 42 H    -0.08990   -0.00267   -0.05601
 43 H     0.05606   -0.06820    0.03048
 44 H     0.03496   -0.04876   -0.10200
 45 H     0.00106    0.00128   -0.07475

System changes: positions 

Initializing position-dependent things.

Density initialized from wave functions
       .-----------------------.  
      /|                       |  
     / |                       |  
    /  |                       |  
   /   |                       |  
  /    |                       |  
 *     |                       |  
 |     |H                      |  
 |     |                       |  
 |     |                 H     |  
 |     |                       |  
 |     |                       |  
 |     Li      Li  H     H     |  
 |     |           HC   C      |  
 |     |     Li      Li  O   Li|  
 |     |  Li      Oi      Li   |  
 | Li  |   Li      Li          |  
 |     |Li      LLi     Li     |  
 |     |                       |  
 |   LLi     LLi     LLi       |  
 |     |  Li      Li      Li   |  
 | Li  |   Li      Li          |  
 |     |Li      Li      Li     |  
 Li    | Li      Li            |  
 |    Li      Li      Li       |  
 |     |                       |  
 |     |                       |  
 |     |                       |  
 |     |                       |  
 |     |                       |  
 |     |                       |  
 |     .-----------------------.  
 |    /                       /   
 |   /                       /    
 |  /                       /     
 | /                       /      
 |/                       /       
 *-----------------------*        

Positions:
   0 Li     1.617037    1.617037   10.000000    ( 0.0000,  0.0000,  0.0000)
   1 Li     4.851111    1.617037   10.000000    ( 0.0000,  0.0000,  0.0000)
   2 Li     8.085185    1.617037   10.000000    ( 0.0000,  0.0000,  0.0000)
   3 Li     1.617037    4.851111   10.000000    ( 0.0000,  0.0000,  0.0000)
   4 Li     4.851111    4.851111   10.000000    ( 0.0000,  0.0000,  0.0000)
   5 Li     8.085185    4.851111   10.000000    ( 0.0000,  0.0000,  0.0000)
   6 Li     1.617037    8.085185   10.000000    ( 0.0000,  0.0000,  0.0000)
   7 Li     4.851111    8.085185   10.000000    ( 0.0000,  0.0000,  0.0000)
   8 Li     8.085185    8.085185   10.000000    ( 0.0000,  0.0000,  0.0000)
   9 Li     0.000000    0.000000   11.617037    ( 0.0000,  0.0000,  0.0000)
  10 Li     3.234074    0.000000   11.617037    ( 0.0000,  0.0000,  0.0000)
  11 Li     6.468148    0.000000   11.617037    ( 0.0000,  0.0000,  0.0000)
  12 Li     0.000000    3.234074   11.617037    ( 0.0000,  0.0000,  0.0000)
  13 Li     3.234074    3.234074   11.617037    ( 0.0000,  0.0000,  0.0000)
  14 Li     6.468148    3.234074   11.617037    ( 0.0000,  0.0000,  0.0000)
  15 Li     0.000000    6.468148   11.617037    ( 0.0000,  0.0000,  0.0000)
  16 Li     3.234074    6.468148   11.617037    ( 0.0000,  0.0000,  0.0000)
  17 Li     6.468148    6.468148   11.617037    ( 0.0000,  0.0000,  0.0000)
  18 Li     1.641011    1.559716   13.450186    ( 0.0000,  0.0000,  0.0000)
  19 Li     4.919146    1.557363   13.534381    ( 0.0000,  0.0000,  0.0000)
  20 Li     8.040648    1.489221   13.547558    ( 0.0000,  0.0000,  0.0000)
  21 Li     1.652076    4.865008   13.414104    ( 0.0000,  0.0000,  0.0000)
  22 Li     4.816391    4.907111   13.430249    ( 0.0000,  0.0000,  0.0000)
  23 Li     8.073380    4.885114   13.395334    ( 0.0000,  0.0000,  0.0000)
  24 Li     1.630588    8.069873   13.478177    ( 0.0000,  0.0000,  0.0000)
  25 Li     4.938914    8.141433   13.579585    ( 0.0000,  0.0000,  0.0000)
  26 Li     8.042155    8.140306   13.591223    ( 0.0000,  0.0000,  0.0000)
  27 Li     0.170809   -0.118990   15.585611    ( 0.0000,  0.0000,  0.0000)
  28 Li     3.212033   -0.003402   15.398690    ( 0.0000,  0.0000,  0.0000)
  29 Li     6.308441    0.128498   15.860810    ( 0.0000,  0.0000,  0.0000)
  30 Li     0.026407    3.242020   15.176996    ( 0.0000,  0.0000,  0.0000)
  31 Li     3.251411    3.235707   15.357020    ( 0.0000,  0.0000,  0.0000)
  32 Li     6.470687    3.378725   15.269507    ( 0.0000,  0.0000,  0.0000)
  33 Li    -0.001660    6.360801   15.352172    ( 0.0000,  0.0000,  0.0000)
  34 Li     3.229692    6.481767   15.455618    ( 0.0000,  0.0000,  0.0000)
  35 Li     6.459810    6.397841   15.440721    ( 0.0000,  0.0000,  0.0000)
  36 O      9.593080    9.710451   18.293931    ( 0.0000,  0.0000,  0.0000)
  37 O      6.873516    9.809975   17.728901    ( 0.0000,  0.0000,  0.0000)
  38 C      8.933445   11.006683   18.289023    ( 0.0000,  0.0000,  0.0000)
  39 C      7.450580   10.844932   18.549732    ( 0.0000,  0.0000,  0.0000)
  40 H      9.345502   11.717226   19.019960    ( 0.0000,  0.0000,  0.0000)
  41 H      9.077183   11.449221   17.296436    ( 0.0000,  0.0000,  0.0000)
  42 H      6.952205   11.779667   18.286482    ( 0.0000,  0.0000,  0.0000)
  43 H      7.241938   10.632470   19.602890    ( 0.0000,  0.0000,  0.0000)
  44 H     10.164759    9.656892   19.070342    ( 0.0000,  0.0000,  0.0000)
  45 H      7.332672    8.982800   17.951243    ( 0.0000,  0.0000,  0.0000)

Unit cell:
           periodic     x           y           z      points  spacing
  1. axis:    yes    9.702222    0.000000    0.000000    60     0.1617
  2. axis:    yes    0.000000    9.702222    0.000000    60     0.1617
  3. axis:    no     0.000000    0.000000   24.851111   156     0.1593

  Lengths:   9.702222   9.702222  24.851111
  Angles:   90.000000  90.000000  90.000000

Effective grid spacing dv^(1/3) = 0.1609

     iter     time        total  log10-change:
                         energy  eigst   dens
iter:   1 16:34:21  -291.134815  -0.98
iter:   2 16:38:19  -291.134156  -1.76  -2.11
iter:   3 16:43:36  -291.134244c -2.25  -2.30
iter:   4 16:48:34  -291.133126c -2.48  -2.40
Writing to output.gpw (mode='')

iter:   5 16:52:23  -291.132808c -2.39  -2.59
iter:   6 16:55:22  -291.132588c -2.63  -2.63
iter:   7 16:57:23  -291.132955c -2.78  -2.92
iter:   8 16:59:41  -291.132650c -3.39  -2.88
iter:   9 17:03:41  -291.132621c -3.28  -3.03
Writing to output.gpw (mode='')

iter:  10 17:06:52  -291.132588c -4.25  -3.15
iter:  11 17:09:28  -291.132616c -4.25  -3.34
iter:  12 17:12:14  -291.132632c -4.08  -3.50
iter:  13 17:15:30  -291.132611c -4.44  -3.55
iter:  14 17:18:16  -291.132623c -5.02  -3.51
Writing to output.gpw (mode='')

iter:  15 17:21:35  -291.132622c -5.05  -3.62
iter:  16 17:25:42  -291.132622c -5.59  -3.62
iter:  17 17:28:32  -291.132622c -5.58  -3.65
iter:  18 17:31:33  -291.132621c -5.57  -3.66
iter:  19 17:34:59  -291.132616c -5.06  -3.69
Writing to output.gpw (mode='')

iter:  20 17:38:30  -291.132613c -5.25  -3.83
iter:  21 17:42:16  -291.132611c -5.60  -3.89
iter:  22 17:45:30  -291.132609c -5.48  -3.98
iter:  23 17:49:49  -291.132610c -5.71  -4.24c
iter:  24 17:53:54  -291.132610c -6.43  -4.38c
Writing to output.gpw (mode='')

iter:  25 17:57:51  -291.132610c -6.66  -4.56c
iter:  26 18:02:33  -291.132609c -6.55  -4.62c
iter:  27 18:06:44  -291.132610c -6.64  -4.74c
iter:  28 18:11:12  -291.132610c -6.90  -4.77c
iter:  29 18:16:25  -291.132610c -6.87  -4.94c
Writing to output.gpw (mode='')

iter:  30 18:21:06  -291.132610c -7.33  -5.07c
iter:  31 18:25:36  -291.132610c -7.35  -5.15c
