
  ___ ___ ___ _ _ _  
 |   |   |_  | | | | 
 | | | | | . | | | | 
 |__ |  _|___|_____|  22.8.0
 |___|_|             

User:   vazumah@c09.hercules
Date:   Tue Feb 28 10:40:16 2023
Arch:   x86_64
Pid:    8716
CWD:    /home/vazumah/Python_projects/LiNRR/Li_adsorb_studies/proton_donors/N2_with_proton_donor/Li_BCC_100/adsorbates/BH3_retest/ontop/9.702_9.702/N2_x
Python: 3.10.8
gpaw:   /home/vazumah/.conda/envs/GPAW/lib/python3.10/site-packages/gpaw
_gpaw:  /home/vazumah/.conda/envs/GPAW/lib/python3.10/site-packages/
        _gpaw.cpython-310-x86_64-linux-gnu.so
ase:    /home/vazumah/.conda/envs/GPAW/lib/python3.10/site-packages/ase (version 3.22.1)
numpy:  /home/vazumah/.conda/envs/GPAW/lib/python3.10/site-packages/numpy (version 1.24.1)
scipy:  /home/vazumah/.conda/envs/GPAW/lib/python3.10/site-packages/scipy (version 1.10.0)
libxc:  5.2.3
units:  Angstrom and eV
cores: 24
OpenMP: True
OMP_NUM_THREADS: 1

Input parameters:
  h: 0.16
  kpts: {size: [4, 4, 1]}
  occupations: {name: fermi-dirac,
                width: 0.05}
  poissonsolver: {dipolelayer: xy}
  xc: BEEF-vdW

System changes: positions, numbers, cell, pbc, initial_charges, initial_magmoms 

Initialize ...

species:
  Li:
    name: Lithium
    id: 830b4218f175192f93f959cfc0aad614
    Z: 3.0
    valence: 1
    core: 2
    charge: 0.0
    file: /home/vazumah/.conda/envs/GPAW/share/gpaw/Li.PBE.gz
    compensation charges: {type: gauss,
                           rc: 0.33,
                           lmax: 2}
    cutoffs: {filter: 1.91,
              core: 2.55}
    valence states:
      #              energy  rcut
      - 2s(1.00)    -2.874   1.058
      - 2p(0.00)    -1.090   1.058
      -  s          24.337   1.058
  
    # Using partial waves for Li as LCAO basis

  B:
    name: Boron
    id: 6e91439235a05fd7549e31636e8f777c
    Z: 5.0
    valence: 3
    core: 2
    charge: 0.0
    file: /home/vazumah/.conda/envs/GPAW/share/gpaw/B.PBE.gz
    compensation charges: {type: gauss,
                           rc: 0.20,
                           lmax: 2}
    cutoffs: {filter: 1.14,
              core: 1.38}
    valence states:
      #              energy  rcut
      - 2s(2.00)    -9.443   0.635
      - 2p(1.00)    -3.606   0.635
      -  s          17.768   0.635
      -  p          23.605   0.635
      -  d           0.000   0.635
  
    # Using partial waves for B as LCAO basis

  H:
    name: Hydrogen
    id: d65de229564ff8ea4db303e23b6d1ecf
    Z: 1.0
    valence: 1
    core: 0
    charge: 0.0
    file: /home/vazumah/.conda/envs/GPAW/share/gpaw/H.PBE.gz
    compensation charges: {type: gauss,
                           rc: 0.15,
                           lmax: 2}
    cutoffs: {filter: 0.85,
              core: 0.53}
    valence states:
      #              energy  rcut
      - 1s(1.00)    -6.494   0.476
      -  s          20.717   0.476
      -  p           0.000   0.476
  
    # Using partial waves for H as LCAO basis

  N:
    name: Nitrogen
    id: f7500608b86eaa90eef8b1d9a670dc53
    Z: 7.0
    valence: 5
    core: 2
    charge: 0.0
    file: /home/vazumah/.conda/envs/GPAW/share/gpaw/N.PBE.gz
    compensation charges: {type: gauss,
                           rc: 0.18,
                           lmax: 2}
    cutoffs: {filter: 1.11,
              core: 0.96}
    valence states:
      #              energy  rcut
      - 2s(2.00)   -18.583   0.603
      - 2p(3.00)    -7.089   0.529
      -  s           8.629   0.603
      -  p          20.123   0.529
      -  d           0.000   0.577
  
    # Using partial waves for N as LCAO basis

Reference energy: -10970.764591  # eV

Spin-paired calculation

Convergence criteria:
 Maximum [total energy] change in last 3 cyles: 0.0005 eV / electron
 Maximum integral of absolute [dens]ity change: 0.0001 electrons / valence electron
 Maximum integral of absolute [eigenst]ate change: 4e-08 eV^2 / valence electron
 Maximum number of scf [iter]ations: 333
 (Square brackets indicate name in SCF output, whereas a 'c' in
 the SCF output indicates the quantity has converged.)

Symmetries present (total): 1

  ( 1  0  0)
  ( 0  1  0)
  ( 0  0  1)

16 k-points: 4 x 4 x 1 Monkhorst-Pack grid
8 k-points in the irreducible part of the Brillouin zone
       k-points in crystal coordinates                weights
   0:     0.12500000   -0.37500000    0.00000000          2/16
   1:     0.12500000   -0.12500000    0.00000000          2/16
   2:     0.12500000    0.12500000    0.00000000          2/16
   3:     0.12500000    0.37500000    0.00000000          2/16
   4:     0.37500000   -0.37500000    0.00000000          2/16
   5:     0.37500000   -0.12500000    0.00000000          2/16
   6:     0.37500000    0.12500000    0.00000000          2/16
   7:     0.37500000    0.37500000    0.00000000          2/16

Wave functions: Uniform real-space grid
  Kinetic energy operator: 6*3+1=19 point O(h^6) finite-difference Laplacian
  ScaLapack parameters: grid=1x1, blocksize=None
  Wavefunction extrapolation:
    Improved wavefunction reuse through dual PAW basis 

Occupation numbers: Fermi-Dirac:
  width: 0.0500  # eV
 

Eigensolver
   Davidson(niter=2) 

Densities:
  Coarse grid: 60*60*164 grid
  Fine grid: 120*120*328 grid
  Total Charge: 0.000000 

Density mixing:
  Method: separate
  Backend: pulay
  Linear mixing parameter: 0.05
  old densities: 5
  Damping of long wavelength oscillations: 50 

Hamiltonian:
  XC and Coulomb potentials evaluated on a 120*120*328 grid
  Using the BEEF-vdW Exchange-Correlation functional
  Interpolation: tri-quintic (5. degree polynomial)
  Poisson solver: FastPoissonSolver using
    Stencil: 6*3+1=19 point O(h^6) finite-difference Laplacian
    FFT axes: [0, 1]
    FST axes: [2]

Dipole correction along z-axis 

XC parameters: BEEF-vdW with 2 nearest neighbor stencil

Memory estimate:
  Process memory now: 223.32 MiB
  Calculator: 381.63 MiB
    Density: 119.06 MiB
      Arrays: 38.89 MiB
      Localized functions: 65.34 MiB
      Mixer: 14.83 MiB
    Hamiltonian: 30.60 MiB
      Arrays: 25.43 MiB
      XC: 0.00 MiB
      Poisson: 0.00 MiB
      vbar: 5.17 MiB
    Wavefunctions: 231.97 MiB
      Arrays psit_nG: 106.79 MiB
      Eigensolver: 121.82 MiB
      Projections: 0.04 MiB
      Projectors: 3.32 MiB

Total number of cores used: 24
Parallelization over k-points: 8
Domain decomposition: 1 x 1 x 3

Number of atoms: 42
Number of atomic orbitals: 159
Number of bands in calculation: 36
Number of valence electrons: 52
Bands to converge: occupied

... initialized

Initializing position-dependent things.

Density initialized from atomic densities
Creating initial wave functions:
  36 bands from LCAO basis set

       .-----------------------.  
      /|                       |  
     / |                       |  
    /  |                       |  
   /   |                       |  
  /    |                       |  
 *     |                       |  
 |     |                       |  
 |     |                       |  
 |     |                       |  
 |    H|                       |  
 |     |  N                    N  
 |     |                       |  
 |     |                       |  
 |     |                       |  
 |  HLi|     Li      LiH       |  
 B     |                       |  
 | Li  |  LLi     LLi     Li   |  
 |     |                       |  
 Li    |LLi     LLi     Li     |  
 |   Li|     Li      Li        |  
 |    Li  Li  Li  Li  Li  Li   |  
 | Li  |   Li      Li          |  
 |     |Li      Li      Li     |  
 Li    | Li      Li            |  
 |    Li      Li      Li       |  
 |     |                       |  
 |     |                       |  
 |     |                       |  
 |     |                       |  
 |     |                       |  
 |     |                       |  
 |     .-----------------------.  
 |    /                       /   
 |   /                       /    
 |  /                       /     
 | /                       /      
 |/                       /       
 *-----------------------*        

Positions:
   0 Li     1.617037    1.617037   10.000000    ( 0.0000,  0.0000,  0.0000)
   1 Li     4.851111    1.617037   10.000000    ( 0.0000,  0.0000,  0.0000)
   2 Li     8.085185    1.617037   10.000000    ( 0.0000,  0.0000,  0.0000)
   3 Li     1.617037    4.851111   10.000000    ( 0.0000,  0.0000,  0.0000)
   4 Li     4.851111    4.851111   10.000000    ( 0.0000,  0.0000,  0.0000)
   5 Li     8.085185    4.851111   10.000000    ( 0.0000,  0.0000,  0.0000)
   6 Li     1.617037    8.085185   10.000000    ( 0.0000,  0.0000,  0.0000)
   7 Li     4.851111    8.085185   10.000000    ( 0.0000,  0.0000,  0.0000)
   8 Li     8.085185    8.085185   10.000000    ( 0.0000,  0.0000,  0.0000)
   9 Li     0.000000    0.000000   11.617037    ( 0.0000,  0.0000,  0.0000)
  10 Li     3.234074    0.000000   11.617037    ( 0.0000,  0.0000,  0.0000)
  11 Li     6.468148    0.000000   11.617037    ( 0.0000,  0.0000,  0.0000)
  12 Li     0.000000    3.234074   11.617037    ( 0.0000,  0.0000,  0.0000)
  13 Li     3.234074    3.234074   11.617037    ( 0.0000,  0.0000,  0.0000)
  14 Li     6.468148    3.234074   11.617037    ( 0.0000,  0.0000,  0.0000)
  15 Li     0.000000    6.468148   11.617037    ( 0.0000,  0.0000,  0.0000)
  16 Li     3.234074    6.468148   11.617037    ( 0.0000,  0.0000,  0.0000)
  17 Li     6.468148    6.468148   11.617037    ( 0.0000,  0.0000,  0.0000)
  18 Li     1.617038    1.617038   13.469728    ( 0.0000,  0.0000,  0.0000)
  19 Li     4.851111    1.617038   13.469729    ( 0.0000,  0.0000,  0.0000)
  20 Li     8.085184    1.617038   13.469728    ( 0.0000,  0.0000,  0.0000)
  21 Li     1.617038    4.851111   13.469729    ( 0.0000,  0.0000,  0.0000)
  22 Li     4.851111    4.851111   13.469730    ( 0.0000,  0.0000,  0.0000)
  23 Li     8.085184    4.851111   13.469729    ( 0.0000,  0.0000,  0.0000)
  24 Li     1.617038    8.085184   13.469728    ( 0.0000,  0.0000,  0.0000)
  25 Li     4.851111    8.085184   13.469729    ( 0.0000,  0.0000,  0.0000)
  26 Li     8.085184    8.085184   13.469728    ( 0.0000,  0.0000,  0.0000)
  27 Li    -0.000000   -0.000000   15.445939    ( 0.0000,  0.0000,  0.0000)
  28 Li     3.234074    0.000000   15.445939    ( 0.0000,  0.0000,  0.0000)
  29 Li     6.468148    0.000000   15.445939    ( 0.0000,  0.0000,  0.0000)
  30 Li     0.000000    3.234074   15.445939    ( 0.0000,  0.0000,  0.0000)
  31 Li     3.234076    3.234076   15.445938    ( 0.0000,  0.0000,  0.0000)
  32 Li     6.468146    3.234076   15.445938    ( 0.0000,  0.0000,  0.0000)
  33 Li     0.000000    6.468148   15.445939    ( 0.0000,  0.0000,  0.0000)
  34 Li     3.234076    6.468146   15.445938    ( 0.0000,  0.0000,  0.0000)
  35 Li     6.468146    6.468146   15.445938    ( 0.0000,  0.0000,  0.0000)
  36 B      9.702222    9.702222   18.445939    ( 0.0000,  0.0000,  0.0000)
  37 H     10.734791   10.294508   18.445939    ( 0.0000,  0.0000,  0.0000)
  38 H      8.672313   10.299181   18.445939    ( 0.0000,  0.0000,  0.0000)
  39 H      9.702308    8.513623   18.445939    ( 0.0000,  0.0000,  0.0000)
  40 N      9.702000    9.702000   16.945939    ( 0.0000,  0.0000,  0.0000)
  41 N     10.798622    9.702000   16.945939    ( 0.0000,  0.0000,  0.0000)

Unit cell:
           periodic     x           y           z      points  spacing
  1. axis:    yes    9.702222    0.000000    0.000000    60     0.1617
  2. axis:    yes    0.000000    9.702222    0.000000    60     0.1617
  3. axis:    no     0.000000    0.000000   26.351111   164     0.1607

  Lengths:   9.702222   9.702222  26.351111
  Angles:   90.000000  90.000000  90.000000

Effective grid spacing dv^(1/3) = 0.1614

     iter     time        total  log10-change:
                         energy  eigst   dens
iter:   1 10:43:38  -322.642529
iter:   2 10:46:11  -220.875517  +2.17  -0.16
iter:   3 10:48:40  -190.682163  +2.66  -0.35
iter:   4 10:51:09  -216.487215  +2.85  -0.39
Writing to output.gpw (mode='')

iter:   5 10:54:03  -235.271055  +2.33  -0.46
iter:   6 10:56:31  -244.045158  +1.92  -0.67
iter:   7 10:58:59  -264.439998  +2.09  -0.81
iter:   8 11:01:30  -264.066314  +1.54  -0.53
iter:   9 11:03:54  -257.310048  +0.97  -0.53
Writing to output.gpw (mode='')

iter:  10 11:06:29  -257.350387  +1.35  -0.63
iter:  11 11:08:58  -264.983196  +1.13  -0.67
iter:  12 11:11:23  -256.990401  +0.38  -0.51
iter:  13 11:13:55  -251.072441  +1.15  -0.70
iter:  14 11:16:22  -250.892599  +0.94  -0.90
Writing to output.gpw (mode='')

iter:  15 11:18:56  -250.867294  +0.50  -1.05
iter:  16 11:21:25  -250.909038  +0.12  -1.18
iter:  17 11:23:56  -250.955652  +0.01  -1.28
iter:  18 11:26:33  -250.918106  +0.11  -1.32
iter:  19 11:28:55  -251.065667  -0.18  -1.41
Writing to output.gpw (mode='')

iter:  20 11:31:29  -250.899537  -0.54  -1.49
iter:  21 11:33:51  -250.904279  -0.82  -1.56
iter:  22 11:36:22  -250.915571c -0.49  -1.61
iter:  23 11:38:53  -250.936735  -0.77  -1.74
iter:  24 11:41:21  -250.941761  -0.82  -1.69
Writing to output.gpw (mode='')

iter:  25 11:43:56  -250.945182c -1.14  -1.75
iter:  26 11:46:31  -250.951016c -1.21  -1.77
iter:  27 11:48:54  -250.956845c -1.39  -1.76
iter:  28 11:51:12  -251.008983  -0.67  -1.75
iter:  29 11:53:38  -251.028706  -0.68  -1.73
Writing to output.gpw (mode='')

iter:  30 11:56:08  -251.006009c -1.02  -1.69
iter:  31 11:58:36  -251.015746c -1.51  -1.72
iter:  32 12:01:12  -250.987911  -1.29  -1.71
iter:  33 12:03:48  -251.021063  -1.24  -1.73
iter:  34 12:06:14  -250.992612  -1.45  -1.62
Writing to output.gpw (mode='')

iter:  35 12:08:44  -251.004386  -1.31  -1.69
iter:  36 12:11:11  -250.978848c -1.51  -1.64
iter:  37 12:13:42  -250.972867  -1.65  -1.77
iter:  38 12:16:17  -250.967835c -1.35  -1.85
iter:  39 12:18:39  -250.961607c -1.75  -2.04
Writing to output.gpw (mode='')

iter:  40 12:21:11  -250.962262c -1.90  -2.29
iter:  41 12:23:34  -250.962492c -2.09  -2.34
iter:  42 12:26:00  -250.962281c -2.63  -2.40
iter:  43 12:28:28  -250.962915c -2.30  -2.47
iter:  44 12:30:55  -250.963477c -2.47  -2.55
Writing to output.gpw (mode='')

iter:  45 12:33:29  -250.963422c -2.91  -2.54
iter:  46 12:35:52  -250.963439c -2.74  -2.57
iter:  47 12:38:19  -250.963483c -3.08  -2.66
iter:  48 12:40:52  -250.964082c -2.70  -2.67
iter:  49 12:43:17  -250.963637c -2.91  -2.68
Writing to output.gpw (mode='')

iter:  50 12:45:49  -250.963621c -2.68  -2.90
iter:  51 12:48:27  -250.963672c -3.15  -3.05
iter:  52 12:51:07  -250.963734c -3.41  -3.17
iter:  53 12:53:47  -250.963767c -3.41  -3.37
iter:  54 12:56:06  -250.963800c -3.56  -3.37
Writing to output.gpw (mode='')

iter:  55 12:58:46  -250.963833c -3.65  -3.52
iter:  56 13:01:17  -250.963873c -3.53  -3.74
iter:  57 13:03:44  -250.963898c -3.67  -3.84
iter:  58 13:06:12  -250.963921c -3.88  -3.81
iter:  59 13:08:43  -250.963940c -3.75  -3.78
Writing to output.gpw (mode='')

iter:  60 13:11:22  -250.963958c -4.01  -3.78
iter:  61 13:13:59  -250.963968c -4.09  -3.72
iter:  62 13:16:32  -250.963985c -3.91  -3.80
iter:  63 13:18:59  -250.963998c -3.90  -3.84
iter:  64 13:21:19  -250.964011c -4.06  -3.82
Writing to output.gpw (mode='')

iter:  65 13:23:50  -250.964023c -3.99  -3.79
iter:  66 13:26:15  -250.964034c -4.30  -3.69
iter:  67 13:28:45  -250.964036c -4.48  -3.82
iter:  68 13:31:11  -250.964046c -4.44  -3.69
iter:  69 13:33:35  -250.964052c -4.15  -3.78
Writing to output.gpw (mode='')

iter:  70 13:36:07  -250.964070c -4.47  -3.74
iter:  71 13:38:34  -250.964069c -4.78  -3.89
iter:  72 13:41:03  -250.964089c -4.58  -3.84
iter:  73 13:43:22  -250.964087c -4.75  -3.76
iter:  74 13:45:45  -250.964092c -4.60  -3.68
Writing to output.gpw (mode='')

iter:  75 13:48:11  -250.964095c -4.65  -3.85
iter:  76 13:50:43  -250.964096c -4.70  -3.86
iter:  77 13:53:04  -250.964100c -4.71  -3.87
iter:  78 13:55:31  -250.964100c -4.65  -3.84
iter:  79 13:57:57  -250.964100c -4.94  -3.86
Writing to output.gpw (mode='')

iter:  80 14:00:38  -250.964101c -4.96  -3.85
iter:  81 14:03:10  -250.964100c -5.06  -3.85
iter:  82 14:04:45  -250.964102c -5.19  -3.92
iter:  83 14:07:18  -250.964106c -5.14  -3.95
iter:  84 14:09:59  -250.964103c -5.39  -3.98
Writing to output.gpw (mode='')

iter:  85 14:12:31  -250.964104c -5.17  -4.13c
iter:  86 14:15:06  -250.964104c -5.34  -4.28c
iter:  87 14:17:38  -250.964104c -4.99  -4.29c
iter:  88 14:20:06  -250.964105c -5.15  -4.32c
iter:  89 14:22:33  -250.964108c -5.57  -4.35c
Writing to output.gpw (mode='')

iter:  90 14:25:11  -250.964108c -5.59  -4.59c
iter:  91 14:27:40  -250.964107c -5.62  -4.62c
iter:  92 14:30:08  -250.964106c -5.38  -4.65c
iter:  93 14:32:32  -250.964107c -5.85  -4.78c
iter:  94 14:34:58  -250.964107c -6.00  -4.85c
Writing to output.gpw (mode='')

iter:  95 14:37:32  -250.964107c -5.89  -4.97c
iter:  96 14:40:03  -250.964107c -5.76  -5.04c
iter:  97 14:42:35  -250.964108c -5.79  -5.12c
iter:  98 14:45:10  -250.964107c -5.97  -5.17c
iter:  99 14:47:39  -250.964107c -6.05  -5.35c
Writing to output.gpw (mode='')

iter: 100 14:50:09  -250.964107c -6.14  -5.39c
iter: 101 14:52:43  -250.964108c -6.11  -5.45c
iter: 102 14:55:19  -250.964108c -6.33  -5.48c
iter: 103 14:57:59  -250.964108c -6.35  -5.46c
iter: 104 15:00:30  -250.964108c -6.46  -5.42c
Writing to output.gpw (mode='')

iter: 105 15:03:04  -250.964108c -6.50  -5.43c
iter: 106 15:05:35  -250.964108c -6.52  -5.40c
iter: 107 15:07:56  -250.964108c -6.55  -5.39c
iter: 108 15:10:26  -250.964108c -6.25  -5.37c
iter: 109 15:12:57  -250.964108c -6.54  -5.32c
Writing to output.gpw (mode='')

iter: 110 15:15:27  -250.964108c -6.52  -5.32c
iter: 111 15:17:51  -250.964108c -6.50  -5.30c
iter: 112 15:20:22  -250.964108c -6.63  -5.29c
iter: 113 15:22:49  -250.964108c -6.74  -5.28c
iter: 114 15:25:13  -250.964108c -6.91  -5.23c
Writing to output.gpw (mode='')

iter: 115 15:27:46  -250.964108c -6.71  -5.22c
iter: 116 15:30:13  -250.964108c -6.88  -5.22c
iter: 117 15:32:43  -250.964108c -6.88  -5.22c
iter: 118 15:35:08  -250.964108c -7.12  -5.28c
iter: 119 15:37:31  -250.964108c -7.08  -5.26c
Writing to output.gpw (mode='')

iter: 120 15:40:03  -250.964108c -7.09  -5.28c
iter: 121 15:42:37  -250.964108c -7.14  -5.27c
iter: 122 15:44:56  -250.964108c -6.84  -5.24c
iter: 123 15:47:20  -250.964108c -6.98  -5.26c
iter: 124 15:49:45  -250.964108c -7.02  -5.27c
Writing to output.gpw (mode='')

iter: 125 15:52:18  -250.964109c -7.25  -5.26c
iter: 126 15:54:41  -250.964109c -7.09  -5.28c
iter: 127 15:57:04  -250.964109c -7.32  -5.31c
iter: 128 15:59:30  -250.964108c -7.47c -5.54c

Converged after 128 iterations.

Dipole moment: (-11.939756, -14.369714, -0.344685) |e|*Ang

Energy contributions relative to reference atoms: (reference = -10970.764591)

Kinetic:       +147.457768
Potential:     -127.138278
External:        +0.000000
XC:            -271.559618
Entropy (-ST):   -0.147590
Local:           +0.349815
--------------------------
Free energy:   -251.037903
Extrapolated:  -250.964108

Dipole-layer corrected work functions: 3.424905, 4.087507 eV

Showing only first 2 kpts
 Kpt  Band  Eigenvalues  Occupancy
  0    24     -3.99252    1.98244
  0    25     -3.88400    1.85594
  0    26     -3.65606    0.23778
  0    27     -3.51593    0.01624

  1    24     -3.81759    1.54679
  1    25     -3.74348    0.87340
  1    26     -3.71463    0.60663
  1    27     -3.62847    0.14422


Fermi level: -3.75621

No gap
Writing to output.gpw (mode='')


Forces in eV/Ang:
  0 Li    0.01071    0.01132   -0.26853
  1 Li    0.00741   -0.00446   -0.27086
  2 Li   -0.01717    0.00465   -0.27800
  3 Li    0.00650    0.00058   -0.27526
  4 Li   -0.00180    0.00078   -0.29190
  5 Li    0.00308   -0.00085   -0.26914
  6 Li    0.01197   -0.01135   -0.26992
  7 Li    0.00607    0.00185   -0.27373
  8 Li   -0.01919   -0.00438   -0.27729
  9 Li   -0.00302    0.00100    0.32557
 10 Li    0.02357   -0.00009    0.24836
 11 Li   -0.00893    0.00010    0.24935
 12 Li    0.00505    0.00507    0.26733
 13 Li   -0.00945    0.00319    0.25890
 14 Li   -0.00266    0.01598    0.24748
 15 Li    0.00487   -0.00951    0.26272
 16 Li   -0.00879   -0.00231    0.25963
 17 Li    0.00117   -0.01390    0.24741
 18 Li    0.01249   -0.02291   -0.02173
 19 Li   -0.00486   -0.00238    0.04660
 20 Li   -0.01542    0.01725   -0.02952
 21 Li   -0.01399   -0.00070    0.06452
 22 Li    0.00226   -0.00495    0.02105
 23 Li    0.00553    0.00451    0.06369
 24 Li    0.00388    0.02140   -0.01716
 25 Li    0.00129    0.00703    0.05338
 26 Li   -0.01131   -0.01934   -0.04111
 27 Li   -0.45140    0.06112   -7.55967
 28 Li   -0.25580    0.00146    0.15709
 29 Li    0.00656    0.01074    0.02953
 30 Li   -0.02346    0.08206   -0.02512
 31 Li    0.03731    0.04343   -0.03291
 32 Li   -0.00494   -0.00756   -0.01277
 33 Li   -0.01487   -0.08229   -0.02424
 34 Li    0.03800   -0.04482   -0.03116
 35 Li   -0.01755   -0.00455   -0.02081
 36 B    -1.31815   -0.50858    1.87350
 37 H     0.53238    0.80296    3.45864
 38 H    -0.39569    0.72501    1.39050
 39 H    -0.33466   -0.48760    1.83465
 40 N    -9.62486   -0.96417    2.31924
 41 N    11.79076    0.37124   -3.35112

System changes: positions 

Initializing position-dependent things.

Density initialized from wave functions
       .-----------------------.  
      /|                       |  
     / |                       |  
    /  |                       |  
   /   |                       |  
  /    |                       |  
 *     |                       |  
 |     |                       |  
 |     |                       |  
 |     |                       |  
 |     |                      HB  
 |     |                       N  
 |     |                       |  
 |     |                       |  
 |     |                       |  
 |  H  |     Li      LiH     Li|  
 |     |                       |  
 |  N  |  LLi     LLi     LLi  |  
 |     |                       |  
 |     |LLi     LLi     LLi    |  
 |   Li|     Li      Li        |  
 |    Li  Li  Li  Li  Li  Li   |  
 | Li  |   Li      Li          |  
 |     |Li      Li      Li     |  
 Li    | Li      Li            |  
 |    Li      Li      Li       |  
 |     |                       |  
 |     |                       |  
 |     |                       |  
 |     |                       |  
 |     |                       |  
 |     |                       |  
 |     .-----------------------.  
 |    /                       /   
 |   /                       /    
 |  /                       /     
 | /                       /      
 |/                       /       
 *-----------------------*        

Positions:
   0 Li     1.617037    1.617037   10.000000    ( 0.0000,  0.0000,  0.0000)
   1 Li     4.851111    1.617037   10.000000    ( 0.0000,  0.0000,  0.0000)
   2 Li     8.085185    1.617037   10.000000    ( 0.0000,  0.0000,  0.0000)
   3 Li     1.617037    4.851111   10.000000    ( 0.0000,  0.0000,  0.0000)
   4 Li     4.851111    4.851111   10.000000    ( 0.0000,  0.0000,  0.0000)
   5 Li     8.085185    4.851111   10.000000    ( 0.0000,  0.0000,  0.0000)
   6 Li     1.617037    8.085185   10.000000    ( 0.0000,  0.0000,  0.0000)
   7 Li     4.851111    8.085185   10.000000    ( 0.0000,  0.0000,  0.0000)
   8 Li     8.085185    8.085185   10.000000    ( 0.0000,  0.0000,  0.0000)
   9 Li     0.000000    0.000000   11.617037    ( 0.0000,  0.0000,  0.0000)
  10 Li     3.234074    0.000000   11.617037    ( 0.0000,  0.0000,  0.0000)
  11 Li     6.468148    0.000000   11.617037    ( 0.0000,  0.0000,  0.0000)
  12 Li     0.000000    3.234074   11.617037    ( 0.0000,  0.0000,  0.0000)
  13 Li     3.234074    3.234074   11.617037    ( 0.0000,  0.0000,  0.0000)
  14 Li     6.468148    3.234074   11.617037    ( 0.0000,  0.0000,  0.0000)
  15 Li     0.000000    6.468148   11.617037    ( 0.0000,  0.0000,  0.0000)
  16 Li     3.234074    6.468148   11.617037    ( 0.0000,  0.0000,  0.0000)
  17 Li     6.468148    6.468148   11.617037    ( 0.0000,  0.0000,  0.0000)
  18 Li     1.617079    1.616963   13.469657    ( 0.0000,  0.0000,  0.0000)
  19 Li     4.851095    1.617031   13.469881    ( 0.0000,  0.0000,  0.0000)
  20 Li     8.085134    1.617094   13.469632    ( 0.0000,  0.0000,  0.0000)
  21 Li     1.616993    4.851109   13.469940    ( 0.0000,  0.0000,  0.0000)
  22 Li     4.851118    4.851095   13.469799    ( 0.0000,  0.0000,  0.0000)
  23 Li     8.085202    4.851126   13.469937    ( 0.0000,  0.0000,  0.0000)
  24 Li     1.617051    8.085254   13.469672    ( 0.0000,  0.0000,  0.0000)
  25 Li     4.851115    8.085207   13.469904    ( 0.0000,  0.0000,  0.0000)
  26 Li     8.085147    8.085121   13.469594    ( 0.0000,  0.0000,  0.0000)
  27 Li    -0.001472    0.000199   15.421282    ( 0.0000,  0.0000,  0.0000)
  28 Li     3.233239    0.000005   15.446451    ( 0.0000,  0.0000,  0.0000)
  29 Li     6.468170    0.000035   15.446035    ( 0.0000,  0.0000,  0.0000)
  30 Li    -0.000077    3.234341   15.445857    ( 0.0000,  0.0000,  0.0000)
  31 Li     3.234198    3.234218   15.445831    ( 0.0000,  0.0000,  0.0000)
  32 Li     6.468129    3.234052   15.445896    ( 0.0000,  0.0000,  0.0000)
  33 Li    -0.000049    6.467880   15.445860    ( 0.0000,  0.0000,  0.0000)
  34 Li     3.234200    6.467999   15.445836    ( 0.0000,  0.0000,  0.0000)
  35 Li     6.468088    6.468131   15.445870    ( 0.0000,  0.0000,  0.0000)
  36 B      9.697923    9.700563   18.452050    ( 0.0000,  0.0000,  0.0000)
  37 H     10.736528   10.297127   18.457221    ( 0.0000,  0.0000,  0.0000)
  38 H      8.671022   10.301546   18.450475    ( 0.0000,  0.0000,  0.0000)
  39 H      9.701216    8.512032   18.451924    ( 0.0000,  0.0000,  0.0000)
  40 N      9.670606    9.698855   16.953504    ( 0.0000,  0.0000,  0.0000)
  41 N     10.837080    9.703211   16.935009    ( 0.0000,  0.0000,  0.0000)

Unit cell:
           periodic     x           y           z      points  spacing
  1. axis:    yes    9.702222    0.000000    0.000000    60     0.1617
  2. axis:    yes    0.000000    9.702222    0.000000    60     0.1617
  3. axis:    no     0.000000    0.000000   26.351111   164     0.1607

  Lengths:   9.702222   9.702222  26.351111
  Angles:   90.000000  90.000000  90.000000

Effective grid spacing dv^(1/3) = 0.1614

     iter     time        total  log10-change:
                         energy  eigst   dens
iter:   1 16:02:32  -255.667227  +0.69
iter:   2 16:04:56  -252.589836  +0.43  -0.90
iter:   3 16:07:24  -251.951393  -0.44  -1.06
iter:   4 16:09:55  -251.771574  -0.55  -1.43
Writing to output.gpw (mode='')

iter:   5 16:12:26  -251.750376  -0.84  -1.74
iter:   6 16:14:51  -251.743308  -0.84  -1.91
iter:   7 16:17:16  -251.742283c -0.97  -2.01
iter:   8 16:19:40  -251.739875c -1.56  -2.09
iter:   9 16:21:57  -251.738118c -1.90  -2.15
Writing to output.gpw (mode='')

iter:  10 16:24:37  -251.737720c -1.76  -2.28
iter:  11 16:26:59  -251.736507c -2.26  -2.36
iter:  12 16:29:24  -251.736720c -2.54  -2.65
iter:  13 16:31:46  -251.736651c -2.56  -2.70
iter:  14 16:34:18  -251.736987c -2.55  -2.91
Writing to output.gpw (mode='')

iter:  15 16:36:46  -251.737071c -2.88  -2.89
iter:  16 16:39:08  -251.737193c -2.99  -2.97
iter:  17 16:41:31  -251.737308c -3.09  -3.10
iter:  18 16:43:53  -251.737541c -3.06  -3.18
iter:  19 16:46:23  -251.737560c -3.38  -3.07
Writing to output.gpw (mode='')

iter:  20 16:49:03  -251.737584c -3.30  -3.35
iter:  21 16:51:28  -251.737628c -3.69  -3.48
iter:  22 16:53:53  -251.737648c -3.74  -3.56
iter:  23 16:56:21  -251.737668c -3.70  -3.58
iter:  24 16:58:48  -251.737683c -3.87  -3.66
Writing to output.gpw (mode='')

iter:  25 17:01:31  -251.737703c -4.00  -3.77
iter:  26 17:03:53  -251.737715c -4.19  -3.90
iter:  27 17:06:15  -251.737725c -4.12  -3.90
iter:  28 17:08:48  -251.737729c -4.02  -3.92
iter:  29 17:11:26  -251.737736c -4.24  -3.94
Writing to output.gpw (mode='')

iter:  30 17:14:01  -251.737741c -4.38  -3.95
iter:  31 17:16:22  -251.737748c -4.47  -3.93
iter:  32 17:18:49  -251.737753c -4.62  -3.94
iter:  33 17:21:21  -251.737754c -4.44  -3.92
iter:  34 17:23:44  -251.737758c -4.70  -3.92
Writing to output.gpw (mode='')

iter:  35 17:26:16  -251.737761c -4.90  -3.89
iter:  36 17:28:39  -251.737763c -4.98  -3.92
iter:  37 17:31:00  -251.737759c -4.96  -3.91
iter:  38 17:33:24  -251.737776c -4.78  -3.90
iter:  39 17:36:00  -251.737762c -5.01  -3.77
Writing to output.gpw (mode='')

iter:  40 17:38:38  -251.737767c -5.18  -3.91
iter:  41 17:41:11  -251.737763c -5.24  -3.84
iter:  42 17:43:39  -251.737757c -4.97  -3.93
iter:  43 17:46:11  -251.737752c -5.15  -4.03c
iter:  44 17:48:49  -251.737752c -5.29  -4.09c
Writing to output.gpw (mode='')

iter:  45 17:51:18  -251.737746c -5.41  -4.20c
iter:  46 17:53:49  -251.737748c -5.71  -4.36c
iter:  47 17:56:13  -251.737748c -5.72  -4.39c
iter:  48 17:58:39  -251.737749c -5.69  -4.43c
iter:  49 18:01:04  -251.737750c -5.79  -4.48c
Writing to output.gpw (mode='')

iter:  50 18:03:40  -251.737750c -5.98  -4.67c
iter:  51 18:06:08  -251.737751c -5.88  -4.76c
iter:  52 18:08:37  -251.737751c -6.14  -4.88c
iter:  53 18:10:57  -251.737751c -6.15  -4.89c
iter:  54 18:13:30  -251.737751c -6.06  -4.86c
Writing to output.gpw (mode='')

iter:  55 18:16:05  -251.737751c -6.28  -4.78c
iter:  56 18:18:34  -251.737752c -6.33  -4.89c
iter:  57 18:21:01  -251.737751c -6.25  -4.83c
iter:  58 18:23:30  -251.737751c -6.30  -4.94c
iter:  59 18:25:50  -251.737751c -6.33  -4.95c
Writing to output.gpw (mode='')

iter:  60 18:28:30  -251.737751c -6.29  -4.94c
iter:  61 18:30:58  -251.737751c -6.34  -4.93c
iter:  62 18:33:17  -251.737750c -6.61  -4.94c
iter:  63 18:35:48  -251.737750c -6.54  -4.80c
iter:  64 18:38:21  -251.737751c -6.55  -4.87c
Writing to output.gpw (mode='')

iter:  65 18:41:03  -251.737750c -6.70  -4.75c
iter:  66 18:43:30  -251.737750c -6.81  -4.92c
iter:  67 18:45:54  -251.737749c -6.65  -4.93c
iter:  68 18:48:17  -251.737749c -6.68  -5.02c
iter:  69 18:50:49  -251.737749c -7.01  -5.19c
Writing to output.gpw (mode='')

iter:  70 18:53:25  -251.737749c -7.06  -5.23c
iter:  71 18:55:50  -251.737749c -6.83  -5.24c
iter:  72 18:58:09  -251.737749c -6.94  -5.32c
iter:  73 19:00:30  -251.737749c -7.30  -5.50c
iter:  74 19:02:55  -251.737749c -7.26  -5.56c
Writing to output.gpw (mode='')

iter:  75 19:05:22  -251.737749c -7.15  -5.59c
iter:  76 19:07:37  -251.737749c -7.26  -5.66c
iter:  77 19:09:55  -251.737749c -7.30  -5.73c
iter:  78 19:12:17  -251.737749c -7.35  -5.75c
iter:  79 19:14:50  -251.737749c -7.41c -5.76c

Converged after 79 iterations.

Dipole moment: (-8.244499, -14.101677, -0.412454) |e|*Ang

Energy contributions relative to reference atoms: (reference = -10970.764591)

Kinetic:       +136.340997
Potential:     -118.667174
External:        +0.000000
XC:            -269.677946
Entropy (-ST):   -0.150255
Local:           +0.341502
--------------------------
Free energy:   -251.812876
Extrapolated:  -251.737749

Dipole-layer corrected work functions: 3.429014, 4.221892 eV

Showing only first 2 kpts
 Kpt  Band  Eigenvalues  Occupancy
  0    24     -4.05155    1.97850
  0    25     -3.94477    1.83157
  0    26     -3.74164    0.31517
  0    27     -3.58760    0.01703

  1    24     -3.89521    1.60281
  1    25     -3.81150    0.86140
  1    26     -3.78384    0.60633
  1    27     -3.68325    0.10998


Fermi level: -3.82545

No gap
Writing to output.gpw (mode='')


Forces in eV/Ang:
  0 Li    0.01120    0.01064   -0.27093
  1 Li    0.00750   -0.00430   -0.27152
  2 Li   -0.01794    0.00535   -0.28077
  3 Li    0.00641    0.00106   -0.27588
  4 Li   -0.00132    0.00067   -0.29288
  5 Li    0.00251   -0.00092   -0.26874
  6 Li    0.01242   -0.01114   -0.27220
  7 Li    0.00569    0.00181   -0.27413
  8 Li   -0.01927   -0.00526   -0.28020
  9 Li   -0.00491    0.00088    0.33065
 10 Li    0.02383   -0.00007    0.24884
 11 Li   -0.00770    0.00037    0.25245
 12 Li    0.00601    0.00286    0.27107
 13 Li   -0.01067    0.00129    0.26160
 14 Li   -0.00229    0.01885    0.24627
 15 Li    0.00618   -0.00717    0.26609
 16 Li   -0.00930   -0.00070    0.26147
 17 Li    0.00035   -0.01675    0.24643
 18 Li    0.01712   -0.02114   -0.03364
 19 Li   -0.00191   -0.00352    0.04518
 20 Li   -0.02424    0.02606   -0.05066
 21 Li   -0.01539   -0.00087    0.06538
 22 Li    0.00075   -0.00566    0.02103
 23 Li    0.00888    0.00473    0.06728
 24 Li    0.00932    0.01899   -0.02773
 25 Li    0.00359    0.00861    0.05260
 26 Li   -0.02030   -0.02750   -0.06254
 27 Li   -0.24006    0.07481   -6.25350
 28 Li   -0.32133    0.00342    0.22045
 29 Li    0.01847    0.01104    0.04256
 30 Li   -0.02098    0.06338   -0.00279
 31 Li    0.03944    0.04487   -0.02702
 32 Li   -0.00820   -0.00275   -0.01256
 33 Li   -0.01096   -0.06209   -0.00131
 34 Li    0.03823   -0.04455   -0.02479
 35 Li   -0.02061   -0.01017   -0.02077
 36 B    -1.10010   -0.42995    1.24451
 37 H     0.43186    0.68793    3.19348
 38 H    -0.49717    0.77380    1.51165
 39 H    -0.36806   -0.54492    1.84151
 40 N    -2.18373   -0.95551    1.64396
 41 N     4.21141    0.40640   -3.30982

System changes: positions 

Initializing position-dependent things.

Density initialized from wave functions
       .-----------------------.  
      /|                       |  
     / |                       |  
    /  |                       |  
   /   |                       |  
  /    |                       |  
 *     |                       |  
 |     |                       |  
 |     |                       |  
 |     |                       |  
 |     |                      HB  
 |     |                       N  
 |     |                       |  
 |     |                       |  
 |     |                       |  
 |  H  |     Li      LiH     Li|  
 |     |                       |  
 |  N  |  LLi     LLi     LLi  |  
 |     |                       |  
 |     |LLi     LLi     LLi    |  
 |   Li|     Li      Li        |  
 |    Li  Li  Li  Li  Li  Li   |  
 | Li  |   Li      Li          |  
 |     |Li      Li      Li     |  
 Li    | Li      Li            |  
 |    Li      Li      Li       |  
 |     |                       |  
 |     |                       |  
 |     |                       |  
 |     |                       |  
 |     |                       |  
 |     |                       |  
 |     .-----------------------.  
 |    /                       /   
 |   /                       /    
 |  /                       /     
 | /                       /      
 |/                       /       
 *-----------------------*        

Positions:
   0 Li     1.617037    1.617037   10.000000    ( 0.0000,  0.0000,  0.0000)
   1 Li     4.851111    1.617037   10.000000    ( 0.0000,  0.0000,  0.0000)
   2 Li     8.085185    1.617037   10.000000    ( 0.0000,  0.0000,  0.0000)
   3 Li     1.617037    4.851111   10.000000    ( 0.0000,  0.0000,  0.0000)
   4 Li     4.851111    4.851111   10.000000    ( 0.0000,  0.0000,  0.0000)
   5 Li     8.085185    4.851111   10.000000    ( 0.0000,  0.0000,  0.0000)
   6 Li     1.617037    8.085185   10.000000    ( 0.0000,  0.0000,  0.0000)
   7 Li     4.851111    8.085185   10.000000    ( 0.0000,  0.0000,  0.0000)
   8 Li     8.085185    8.085185   10.000000    ( 0.0000,  0.0000,  0.0000)
   9 Li     0.000000    0.000000   11.617037    ( 0.0000,  0.0000,  0.0000)
  10 Li     3.234074    0.000000   11.617037    ( 0.0000,  0.0000,  0.0000)
  11 Li     6.468148    0.000000   11.617037    ( 0.0000,  0.0000,  0.0000)
  12 Li     0.000000    3.234074   11.617037    ( 0.0000,  0.0000,  0.0000)
  13 Li     3.234074    3.234074   11.617037    ( 0.0000,  0.0000,  0.0000)
  14 Li     6.468148    3.234074   11.617037    ( 0.0000,  0.0000,  0.0000)
  15 Li     0.000000    6.468148   11.617037    ( 0.0000,  0.0000,  0.0000)
  16 Li     3.234074    6.468148   11.617037    ( 0.0000,  0.0000,  0.0000)
  17 Li     6.468148    6.468148   11.617037    ( 0.0000,  0.0000,  0.0000)
  18 Li     1.617205    1.616823   13.469403    ( 0.0000,  0.0000,  0.0000)
  19 Li     4.851088    1.617004   13.470187    ( 0.0000,  0.0000,  0.0000)
  20 Li     8.084950    1.617290   13.469243    ( 0.0000,  0.0000,  0.0000)
  21 Li     1.616885    4.851102   13.470388    ( 0.0000,  0.0000,  0.0000)
  22 Li     4.851120    4.851055   13.469942    ( 0.0000,  0.0000,  0.0000)
  23 Li     8.085269    4.851158   13.470403    ( 0.0000,  0.0000,  0.0000)
  24 Li     1.617125    8.085378   13.469461    ( 0.0000,  0.0000,  0.0000)
  25 Li     4.851144    8.085269   13.470261    ( 0.0000,  0.0000,  0.0000)
  26 Li     8.084990    8.084916   13.469123    ( 0.0000,  0.0000,  0.0000)
  27 Li    -0.002677    0.000738   15.381303    ( 0.0000,  0.0000,  0.0000)
  28 Li     3.230913    0.000032   15.448085    ( 0.0000,  0.0000,  0.0000)
  29 Li     6.468320    0.000111   15.446352    ( 0.0000,  0.0000,  0.0000)
  30 Li    -0.000215    3.234735   15.445884    ( 0.0000,  0.0000,  0.0000)
  31 Li     3.234472    3.234527   15.445659    ( 0.0000,  0.0000,  0.0000)
  32 Li     6.468067    3.234043   15.445811    ( 0.0000,  0.0000,  0.0000)
  33 Li    -0.000115    6.467498   15.445898    ( 0.0000,  0.0000,  0.0000)
  34 Li     3.234462    6.467696   15.445680    ( 0.0000,  0.0000,  0.0000)
  35 Li     6.467941    6.468050   15.445729    ( 0.0000,  0.0000,  0.0000)
  36 B      9.690866    9.697792   18.459250    ( 0.0000,  0.0000,  0.0000)
  37 H     10.739267   10.301584   18.478460    ( 0.0000,  0.0000,  0.0000)
  38 H      8.667423   10.306924   18.461034    ( 0.0000,  0.0000,  0.0000)
  39 H      9.698637    8.508198   18.464499    ( 0.0000,  0.0000,  0.0000)
  40 N      9.670966    9.692355   16.963333    ( 0.0000,  0.0000,  0.0000)
  41 N     10.850268    9.706055   16.912517    ( 0.0000,  0.0000,  0.0000)

Unit cell:
           periodic     x           y           z      points  spacing
  1. axis:    yes    9.702222    0.000000    0.000000    60     0.1617
  2. axis:    yes    0.000000    9.702222    0.000000    60     0.1617
  3. axis:    no     0.000000    0.000000   26.351111   164     0.1607

  Lengths:   9.702222   9.702222  26.351111
  Angles:   90.000000  90.000000  90.000000

Effective grid spacing dv^(1/3) = 0.1614

     iter     time        total  log10-change:
                         energy  eigst   dens
iter:   1 19:17:56  -252.422570  -0.60
iter:   2 19:20:26  -252.306592  -0.71  -1.51
iter:   3 19:22:52  -252.251076  -1.48  -1.55
iter:   4 19:25:23  -252.236226  -1.48  -1.98
Writing to output.gpw (mode='')

iter:   5 19:27:53  -252.235266c -2.10  -2.19
iter:   6 19:30:20  -252.234477c -1.97  -2.35
iter:   7 19:32:52  -252.234406c -1.96  -2.35
iter:   8 19:35:20  -252.233909c -2.55  -2.53
iter:   9 19:37:49  -252.234053c -2.83  -2.77
Writing to output.gpw (mode='')

iter:  10 19:40:30  -252.233986c -2.96  -2.83
iter:  11 19:43:04  -252.234022c -2.97  -3.06
iter:  12 19:45:31  -252.234053c -3.58  -3.00
iter:  13 19:47:55  -252.234042c -3.49  -3.06
iter:  14 19:50:23  -252.234043c -3.86  -3.30
Writing to output.gpw (mode='')

iter:  15 19:52:51  -252.234060c -3.79  -3.35
iter:  16 19:55:12  -252.234093c -3.94  -3.38
iter:  17 19:57:34  -252.234092c -4.29  -3.50
iter:  18 19:59:51  -252.234089c -4.29  -3.52
iter:  19 20:02:17  -252.234097c -4.46  -3.56
Writing to output.gpw (mode='')

iter:  20 20:04:54  -252.234129c -4.02  -3.78
iter:  21 20:07:21  -252.234112c -4.63  -3.49
iter:  22 20:09:48  -252.234112c -4.71  -3.78
iter:  23 20:12:11  -252.234112c -4.69  -3.85
iter:  24 20:14:37  -252.234108c -4.80  -3.92
Writing to output.gpw (mode='')

iter:  25 20:17:20  -252.234109c -4.93  -4.07c
iter:  26 20:19:52  -252.234114c -4.92  -4.18c
iter:  27 20:22:19  -252.234114c -5.25  -4.35c
iter:  28 20:24:38  -252.234115c -5.34  -4.41c
iter:  29 20:27:01  -252.234115c -5.18  -4.43c
Writing to output.gpw (mode='')

iter:  30 20:29:34  -252.234118c -5.28  -4.42c
iter:  31 20:32:02  -252.234117c -5.54  -4.36c
iter:  32 20:34:28  -252.234116c -5.40  -4.39c
iter:  33 20:36:53  -252.234117c -5.59  -4.43c
iter:  34 20:39:24  -252.234117c -5.65  -4.31c
Writing to output.gpw (mode='')

iter:  35 20:42:05  -252.234116c -5.95  -4.37c
iter:  36 20:44:29  -252.234118c -5.95  -4.41c
iter:  37 20:47:01  -252.234116c -5.92  -4.33c
iter:  38 20:49:20  -252.234115c -5.93  -4.48c
iter:  39 20:51:43  -252.234115c -5.85  -4.51c
Writing to output.gpw (mode='')

iter:  40 20:54:17  -252.234113c -6.07  -4.53c
iter:  41 20:56:48  -252.234112c -6.13  -4.61c
iter:  42 20:59:13  -252.234112c -6.20  -4.68c
iter:  43 21:01:37  -252.234111c -6.16  -4.74c
iter:  44 21:04:03  -252.234112c -6.43  -4.89c
Writing to output.gpw (mode='')

iter:  45 21:06:39  -252.234112c -6.50  -4.98c
iter:  46 21:09:05  -252.234113c -6.35  -4.95c
iter:  47 21:11:31  -252.234113c -6.51  -4.97c
iter:  48 21:13:54  -252.234113c -6.77  -4.92c
iter:  49 21:16:17  -252.234112c -6.72  -4.91c
Writing to output.gpw (mode='')

iter:  50 21:18:52  -252.234112c -6.80  -4.92c
iter:  51 21:21:22  -252.234113c -6.69  -4.96c
iter:  52 21:23:46  -252.234113c -6.54  -4.86c
iter:  53 21:26:17  -252.234112c -6.87  -4.84c
iter:  54 21:28:51  -252.234113c -7.06  -4.90c
Writing to output.gpw (mode='')

iter:  55 21:31:25  -252.234113c -6.97  -4.86c
iter:  56 21:34:00  -252.234113c -7.12  -4.91c
iter:  57 21:36:31  -252.234112c -7.03  -4.81c
iter:  58 21:38:55  -252.234111c -6.98  -4.87c
iter:  59 21:41:25  -252.234112c -7.15  -4.89c
Writing to output.gpw (mode='')

iter:  60 21:44:05  -252.234112c -7.38  -4.98c
iter:  61 21:46:41  -252.234112c -7.08  -5.03c
iter:  62 21:49:13  -252.234111c -7.28  -5.10c
iter:  63 21:51:38  -252.234112c -7.50c -5.46c

Converged after 63 iterations.

Dipole moment: (-7.700703, -13.499174, -0.451005) |e|*Ang

Energy contributions relative to reference atoms: (reference = -10970.764591)

Kinetic:       +132.498573
Potential:     -115.953557
External:        +0.000000
XC:            -269.037663
Entropy (-ST):   -0.149694
Local:           +0.333383
--------------------------
Free energy:   -252.308959
Extrapolated:  -252.234112

Dipole-layer corrected work functions: 3.430994, 4.297979 eV

Showing only first 2 kpts
 Kpt  Band  Eigenvalues  Occupancy
  0    24     -4.08388    1.97545
  0    25     -3.98209    1.82619
  0    26     -3.78755    0.35342
  0    27     -3.61982    0.01488

  1    24     -3.95031    1.69536
  1    25     -3.84467    0.80441
  1    26     -3.82095    0.59018
  1    27     -3.71599    0.09761


Fermi level: -3.86449

No gap
Writing to output.gpw (mode='')


Forces in eV/Ang:
  0 Li    0.01155    0.01056   -0.27238
  1 Li    0.00768   -0.00406   -0.27243
  2 Li   -0.01839    0.00532   -0.28257
  3 Li    0.00638    0.00096   -0.27618
  4 Li   -0.00134    0.00053   -0.29340
  5 Li    0.00211   -0.00102   -0.26946
  6 Li    0.01282   -0.01104   -0.27329
  7 Li    0.00589    0.00196   -0.27442
  8 Li   -0.01936   -0.00521   -0.28214
  9 Li   -0.00528    0.00054    0.33528
 10 Li    0.02341    0.00005    0.25063
 11 Li   -0.00763    0.00046    0.25258
 12 Li    0.00622    0.00289    0.27327
 13 Li   -0.01065    0.00211    0.26201
 14 Li   -0.00184    0.01926    0.24658
 15 Li    0.00646   -0.00613    0.26980
 16 Li   -0.00915   -0.00205    0.26121
 17 Li   -0.00037   -0.01735    0.24697
 18 Li    0.02169   -0.01557   -0.04489
 19 Li   -0.00138   -0.00421    0.04474
 20 Li   -0.03168    0.03168   -0.06428
 21 Li   -0.01510   -0.00078    0.06611
 22 Li    0.00076   -0.00458    0.02199
 23 Li    0.00871    0.00399    0.06705
 24 Li    0.01677    0.01390   -0.03836
 25 Li    0.00305    0.00855    0.05103
 26 Li   -0.02920   -0.03220   -0.07486
 27 Li   -0.22178    0.06575   -4.81993
 28 Li   -0.35738    0.00274    0.24510
 29 Li    0.02472    0.00949    0.04957
 30 Li   -0.01997    0.06335    0.00256
 31 Li    0.04069    0.04781   -0.02533
 32 Li   -0.01059   -0.00058   -0.01200
 33 Li   -0.01084   -0.05871    0.00622
 34 Li    0.03893   -0.04534   -0.02363
 35 Li   -0.02153   -0.01119   -0.01933
 36 B    -0.88678   -0.11527    1.15323
 37 H     0.15009    0.44536    3.00996
 38 H    -0.54128    0.68208    1.52694
 39 H    -0.38722   -0.53755    1.76285
 40 N    -0.75281   -0.95109    0.60252
 41 N     2.97415    0.37747   -3.38933

System changes: positions 

Initializing position-dependent things.

Density initialized from wave functions
       .-----------------------.  
      /|                       |  
     / |                       |  
    /  |                       |  
   /   |                       |  
  /    |                       |  
 *     |                       |  
 |     |                       |  
 |     |                       |  
 |     |                       |  
 |     |                      HB  
 |     |                       N  
 |     |                       |  
 |     |                       |  
 |     |                       |  
 |  H  |     Li      LiH     Li|  
 |     |                       |  
 |  N  |  LLi     LLi     LLi  |  
 |     |                       |  
 |     |LLi     LLi     LLi    |  
 |   Li|     Li      Li        |  
 |    Li  Li  Li  Li  Li  Li   |  
 | Li  |   Li      Li          |  
 |     |Li      Li      Li     |  
 Li    | Li      Li            |  
 |    Li      Li      Li       |  
 |     |                       |  
 |     |                       |  
 |     |                       |  
 |     |                       |  
 |     |                       |  
 |     |                       |  
 |     .-----------------------.  
 |    /                       /   
 |   /                       /    
 |  /                       /     
 | /                       /      
 |/                       /       
 *-----------------------*        

Positions:
   0 Li     1.617037    1.617037   10.000000    ( 0.0000,  0.0000,  0.0000)
   1 Li     4.851111    1.617037   10.000000    ( 0.0000,  0.0000,  0.0000)
   2 Li     8.085185    1.617037   10.000000    ( 0.0000,  0.0000,  0.0000)
   3 Li     1.617037    4.851111   10.000000    ( 0.0000,  0.0000,  0.0000)
   4 Li     4.851111    4.851111   10.000000    ( 0.0000,  0.0000,  0.0000)
   5 Li     8.085185    4.851111   10.000000    ( 0.0000,  0.0000,  0.0000)
   6 Li     1.617037    8.085185   10.000000    ( 0.0000,  0.0000,  0.0000)
   7 Li     4.851111    8.085185   10.000000    ( 0.0000,  0.0000,  0.0000)
   8 Li     8.085185    8.085185   10.000000    ( 0.0000,  0.0000,  0.0000)
   9 Li     0.000000    0.000000   11.617037    ( 0.0000,  0.0000,  0.0000)
  10 Li     3.234074    0.000000   11.617037    ( 0.0000,  0.0000,  0.0000)
  11 Li     6.468148    0.000000   11.617037    ( 0.0000,  0.0000,  0.0000)
  12 Li     0.000000    3.234074   11.617037    ( 0.0000,  0.0000,  0.0000)
  13 Li     3.234074    3.234074   11.617037    ( 0.0000,  0.0000,  0.0000)
  14 Li     6.468148    3.234074   11.617037    ( 0.0000,  0.0000,  0.0000)
  15 Li     0.000000    6.468148   11.617037    ( 0.0000,  0.0000,  0.0000)
  16 Li     3.234074    6.468148   11.617037    ( 0.0000,  0.0000,  0.0000)
  17 Li     6.468148    6.468148   11.617037    ( 0.0000,  0.0000,  0.0000)
  18 Li     1.617443    1.616695   13.468901    ( 0.0000,  0.0000,  0.0000)
  19 Li     4.851080    1.616959   13.470623    ( 0.0000,  0.0000,  0.0000)
  20 Li     8.084597    1.617635   13.468529    ( 0.0000,  0.0000,  0.0000)
  21 Li     1.616736    4.851095   13.471042    ( 0.0000,  0.0000,  0.0000)
  22 Li     4.851126    4.851014   13.470163    ( 0.0000,  0.0000,  0.0000)
  23 Li     8.085358    4.851195   13.471066    ( 0.0000,  0.0000,  0.0000)
  24 Li     1.617328    8.085491   13.469027    ( 0.0000,  0.0000,  0.0000)
  25 Li     4.851175    8.085354   13.470755    ( 0.0000,  0.0000,  0.0000)
  26 Li     8.084655    8.084571   13.468311    ( 0.0000,  0.0000,  0.0000)
  27 Li    -0.004547    0.001362   15.341352    ( 0.0000,  0.0000,  0.0000)
  28 Li     3.227172    0.000058   15.450671    ( 0.0000,  0.0000,  0.0000)
  29 Li     6.468603    0.000198   15.446884    ( 0.0000,  0.0000,  0.0000)
  30 Li    -0.000404    3.235338   15.445956    ( 0.0000,  0.0000,  0.0000)
  31 Li     3.234880    3.235012   15.445423    ( 0.0000,  0.0000,  0.0000)
  32 Li     6.467949    3.234052   15.445696    ( 0.0000,  0.0000,  0.0000)
  33 Li    -0.000217    6.466957   15.446016    ( 0.0000,  0.0000,  0.0000)
  34 Li     3.234848    6.467247   15.445460    ( 0.0000,  0.0000,  0.0000)
  35 Li     6.467722    6.467929   15.445544    ( 0.0000,  0.0000,  0.0000)
  36 B      9.683278    9.698068   18.469514    ( 0.0000,  0.0000,  0.0000)
  37 H     10.739448   10.304819   18.507014    ( 0.0000,  0.0000,  0.0000)
  38 H      8.661797   10.313305   18.476261    ( 0.0000,  0.0000,  0.0000)
  39 H      9.694709    8.502875   18.481524    ( 0.0000,  0.0000,  0.0000)
  40 N      9.677868    9.683024   16.964132    ( 0.0000,  0.0000,  0.0000)
  41 N     10.865886    9.709687   16.878874    ( 0.0000,  0.0000,  0.0000)

Unit cell:
           periodic     x           y           z      points  spacing
  1. axis:    yes    9.702222    0.000000    0.000000    60     0.1617
  2. axis:    yes    0.000000    9.702222    0.000000    60     0.1617
  3. axis:    no     0.000000    0.000000   26.351111   164     0.1607

  Lengths:   9.702222   9.702222  26.351111
  Angles:   90.000000  90.000000  90.000000

Effective grid spacing dv^(1/3) = 0.1614

     iter     time        total  log10-change:
                         energy  eigst   dens
iter:   1 21:54:50  -252.864512  -0.61
iter:   2 21:57:29  -252.775947  -0.93  -1.63
iter:   3 21:59:54  -252.748002  -1.54  -1.66
iter:   4 22:02:25  -252.736154  -1.50  -2.00
Writing to output.gpw (mode='')

iter:   5 22:05:02  -252.737051c -2.40  -2.19
iter:   6 22:07:32  -252.734394c -1.92  -2.22
iter:   7 22:10:10  -252.732624c -1.84  -2.23
iter:   8 22:12:37  -252.732156c -2.55  -2.50
iter:   9 22:15:01  -252.732037c -2.72  -2.67
Writing to output.gpw (mode='')

iter:  10 22:17:33  -252.732163c -3.01  -2.77
iter:  11 22:20:00  -252.732014c -3.09  -2.82
iter:  12 22:22:32  -252.732042c -3.41  -3.11
iter:  13 22:25:09  -252.732048c -3.75  -3.11
iter:  14 22:27:36  -252.732100c -3.81  -3.20
Writing to output.gpw (mode='')

iter:  15 22:30:07  -252.732102c -3.75  -3.31
iter:  16 22:32:29  -252.732086c -4.08  -3.41
iter:  17 22:34:55  -252.732098c -4.33  -3.41
iter:  18 22:37:25  -252.732128c -4.20  -3.48
iter:  19 22:39:48  -252.732120c -4.52  -3.75
Writing to output.gpw (mode='')

iter:  20 22:42:27  -252.732128c -4.59  -3.82
iter:  21 22:44:56  -252.732130c -4.66  -3.83
iter:  22 22:47:20  -252.732127c -4.94  -3.90
iter:  23 22:49:42  -252.732130c -4.86  -4.01c
iter:  24 22:52:04  -252.732131c -4.74  -4.05c
Writing to output.gpw (mode='')

iter:  25 22:54:33  -252.732129c -4.97  -4.08c
iter:  26 22:57:01  -252.732127c -5.17  -4.22c
iter:  27 22:59:28  -252.732130c -5.37  -4.27c
iter:  28 23:02:01  -252.732130c -5.37  -4.34c
iter:  29 23:04:28  -252.732129c -5.36  -4.43c
Writing to output.gpw (mode='')

iter:  30 23:07:08  -252.732129c -5.70  -4.50c
iter:  31 23:09:31  -252.732129c -5.65  -4.58c
iter:  32 23:12:00  -252.732129c -5.72  -4.67c
iter:  33 23:14:28  -252.732128c -5.82  -4.70c
iter:  34 23:16:59  -252.732129c -5.93  -4.88c
Writing to output.gpw (mode='')

iter:  35 23:19:33  -252.732130c -6.01  -5.02c
iter:  36 23:21:59  -252.732130c -6.17  -5.12c
iter:  37 23:24:26  -252.732130c -6.02  -5.07c
iter:  38 23:26:49  -252.732130c -6.14  -5.02c
iter:  39 23:29:24  -252.732131c -6.07  -4.88c
Writing to output.gpw (mode='')

iter:  40 23:31:52  -252.732131c -6.14  -4.79c
iter:  41 23:34:27  -252.732130c -6.22  -4.74c
iter:  42 23:37:01  -252.732130c -6.45  -4.87c
iter:  43 23:39:30  -252.732130c -6.31  -4.91c
iter:  44 23:41:52  -252.732129c -6.26  -4.96c
Writing to output.gpw (mode='')

iter:  45 23:44:30  -252.732129c -6.42  -5.07c
iter:  46 23:46:53  -252.732129c -6.52  -5.22c
iter:  47 23:49:26  -252.732129c -6.62  -5.29c
iter:  48 23:52:03  -252.732128c -6.73  -5.32c
iter:  49 23:54:30  -252.732129c -6.78  -5.36c
Writing to output.gpw (mode='')

iter:  50 23:57:05  -252.732129c -7.06  -5.68c
iter:  51 23:59:33  -252.732129c -7.09  -5.69c
iter:  52 00:01:57  -252.732129c -6.87  -5.67c
iter:  53 00:04:23  -252.732129c -7.17  -5.47c
iter:  54 00:06:54  -252.732129c -7.28  -5.55c
Writing to output.gpw (mode='')

iter:  55 00:09:31  -252.732129c -7.20  -5.50c
iter:  56 00:12:07  -252.732129c -7.25  -5.60c
iter:  57 00:14:32  -252.732129c -7.13  -5.65c
iter:  58 00:17:06  -252.732128c -7.24  -5.55c
iter:  59 00:19:36  -252.732128c -7.34  -5.69c
Writing to output.gpw (mode='')

iter:  60 00:22:23  -252.732129c -7.48c -5.69c

Converged after 60 iterations.

Dipole moment: (-7.765233, -12.857823, -0.493662) |e|*Ang

Energy contributions relative to reference atoms: (reference = -10970.764591)

Kinetic:       +128.824217
Potential:     -113.375550
External:        +0.000000
XC:            -268.433879
Entropy (-ST):   -0.149651
Local:           +0.327909
--------------------------
Free energy:   -252.806954
Extrapolated:  -252.732129

Dipole-layer corrected work functions: 3.433286, 4.382274 eV

Showing only first 2 kpts
 Kpt  Band  Eigenvalues  Occupancy
  0    24     -4.11859    1.97092
  0    25     -4.02316    1.81901
  0    26     -3.83944    0.40624
  0    27     -3.65770    0.01336

  1    24     -4.01178    1.77787
  1    25     -3.88317    0.75877
  1    26     -3.86031    0.55801
  1    27     -3.75204    0.08500


Fermi level: -3.90778

No gap

Forces in eV/Ang:
  0 Li    0.01183    0.01078   -0.27409
  1 Li    0.00795   -0.00382   -0.27340
  2 Li   -0.01889    0.00521   -0.28454
  3 Li    0.00631    0.00075   -0.27669
  4 Li   -0.00157    0.00030   -0.29389
  5 Li    0.00203   -0.00111   -0.27010
  6 Li    0.01309   -0.01118   -0.27456
  7 Li    0.00628    0.00223   -0.27461
  8 Li   -0.01946   -0.00510   -0.28424
  9 Li   -0.00577    0.00016    0.33962
 10 Li    0.02311    0.00019    0.25273
 11 Li   -0.00735    0.00050    0.25264
 12 Li    0.00650    0.00309    0.27536
 13 Li   -0.01044    0.00291    0.26259
 14 Li   -0.00161    0.01961    0.24692
 15 Li    0.00677   -0.00512    0.27383
 16 Li   -0.00886   -0.00339    0.26107
 17 Li   -0.00146   -0.01792    0.24764
 18 Li    0.02584   -0.01030   -0.05633
 19 Li   -0.00094   -0.00550    0.04450
 20 Li   -0.03929    0.03769   -0.07784
 21 Li   -0.01486   -0.00058    0.06693
 22 Li    0.00104   -0.00323    0.02266
 23 Li    0.00841    0.00303    0.06616
 24 Li    0.02440    0.00919   -0.04967
 25 Li    0.00198    0.00898    0.04942
 26 Li   -0.03840   -0.03696   -0.08631
 27 Li   -0.21735    0.05373   -3.82916
 28 Li   -0.40037    0.00250    0.27494
 29 Li    0.03132    0.00739    0.05706
 30 Li   -0.01948    0.06255    0.00887
 31 Li    0.04244    0.05163   -0.02290
 32 Li   -0.01284    0.00186   -0.01127
 33 Li   -0.01188   -0.05361    0.01569
 34 Li    0.04033   -0.04718   -0.02212
 35 Li   -0.02185   -0.01194   -0.01721
 36 B    -0.67319    0.07720    0.83192
 37 H    -0.11763    0.23891    2.76229
 38 H    -0.55344    0.55740    1.46661
 39 H    -0.38181   -0.43133    1.64452
 40 N     0.34831   -0.85641    0.23056
 41 N     1.98977    0.29519   -3.29780

System changes: positions 

Initializing position-dependent things.

Density initialized from wave functions
       .-----------------------.  
      /|                       |  
     / |                       |  
    /  |                       |  
   /   |                       |  
  /    |                       |  
 *     |                       |  
 |     |                       |  
 |     |                       |  
 |     |                       |  
 |     |                      HB  
 |     |                       N  
 |     |                       |  
 |     |                       |  
 |     |                       |  
 |  H  |     Li      LiH     Li|  
 |     |                       |  
 |     |  LLi     LLi     LLi  |  
 |  N  |                       |  
 |     |LLi     LLi     LLi    |  
 |   Li|     Li      Li        |  
 |    Li  Li  Li  Li  Li  Li   |  
 | Li  |   Li      Li          |  
 |     |Li      Li      Li     |  
 Li    | Li      Li            |  
 |    Li      Li      Li       |  
 |     |                       |  
 |     |                       |  
 |     |                       |  
 |     |                       |  
 |     |                       |  
 |     |                       |  
 |     .-----------------------.  
 |    /                       /   
 |   /                       /    
 |  /                       /     
 | /                       /      
 |/                       /       
 *-----------------------*        

Positions:
   0 Li     1.617037    1.617037   10.000000    ( 0.0000,  0.0000,  0.0000)
   1 Li     4.851111    1.617037   10.000000    ( 0.0000,  0.0000,  0.0000)
   2 Li     8.085185    1.617037   10.000000    ( 0.0000,  0.0000,  0.0000)
   3 Li     1.617037    4.851111   10.000000    ( 0.0000,  0.0000,  0.0000)
   4 Li     4.851111    4.851111   10.000000    ( 0.0000,  0.0000,  0.0000)
   5 Li     8.085185    4.851111   10.000000    ( 0.0000,  0.0000,  0.0000)
   6 Li     1.617037    8.085185   10.000000    ( 0.0000,  0.0000,  0.0000)
   7 Li     4.851111    8.085185   10.000000    ( 0.0000,  0.0000,  0.0000)
   8 Li     8.085185    8.085185   10.000000    ( 0.0000,  0.0000,  0.0000)
   9 Li     0.000000    0.000000   11.617037    ( 0.0000,  0.0000,  0.0000)
  10 Li     3.234074    0.000000   11.617037    ( 0.0000,  0.0000,  0.0000)
  11 Li     6.468148    0.000000   11.617037    ( 0.0000,  0.0000,  0.0000)
  12 Li     0.000000    3.234074   11.617037    ( 0.0000,  0.0000,  0.0000)
  13 Li     3.234074    3.234074   11.617037    ( 0.0000,  0.0000,  0.0000)
  14 Li     6.468148    3.234074   11.617037    ( 0.0000,  0.0000,  0.0000)
  15 Li     0.000000    6.468148   11.617037    ( 0.0000,  0.0000,  0.0000)
  16 Li     3.234074    6.468148   11.617037    ( 0.0000,  0.0000,  0.0000)
  17 Li     6.468148    6.468148   11.617037    ( 0.0000,  0.0000,  0.0000)
  18 Li     1.617754    1.616606   13.468214    ( 0.0000,  0.0000,  0.0000)
  19 Li     4.851073    1.616892   13.471119    ( 0.0000,  0.0000,  0.0000)
  20 Li     8.084120    1.618087   13.467589    ( 0.0000,  0.0000,  0.0000)
  21 Li     1.616571    4.851089   13.471795    ( 0.0000,  0.0000,  0.0000)
  22 Li     4.851138    4.850983   13.470420    ( 0.0000,  0.0000,  0.0000)
  23 Li     8.085452    4.851225   13.471804    ( 0.0000,  0.0000,  0.0000)
  24 Li     1.617638    8.085570   13.468416    ( 0.0000,  0.0000,  0.0000)
  25 Li     4.851193    8.085456   13.471301    ( 0.0000,  0.0000,  0.0000)
  26 Li     8.084180    8.084133   13.467284    ( 0.0000,  0.0000,  0.0000)
  27 Li    -0.006880    0.001915   15.304502    ( 0.0000,  0.0000,  0.0000)
  28 Li     3.222488    0.000085   15.453892    ( 0.0000,  0.0000,  0.0000)
  29 Li     6.468987    0.000272   15.447560    ( 0.0000,  0.0000,  0.0000)
  30 Li    -0.000618    3.236031   15.446088    ( 0.0000,  0.0000,  0.0000)
  31 Li     3.235362    3.235606   15.445178    ( 0.0000,  0.0000,  0.0000)
  32 Li     6.467794    3.234085   15.445573    ( 0.0000,  0.0000,  0.0000)
  33 Li    -0.000352    6.466382   15.446238    ( 0.0000,  0.0000,  0.0000)
  34 Li     3.235304    6.466713   15.445220    ( 0.0000,  0.0000,  0.0000)
  35 Li     6.467474    6.467790   15.445360    ( 0.0000,  0.0000,  0.0000)
  36 B      9.676815    9.700135   18.477650    ( 0.0000,  0.0000,  0.0000)
  37 H     10.736800   10.306401   18.536817    ( 0.0000,  0.0000,  0.0000)
  38 H      8.655455   10.319029   18.492573    ( 0.0000,  0.0000,  0.0000)
  39 H      9.690402    8.498328   18.499446    ( 0.0000,  0.0000,  0.0000)
  40 N      9.689395    9.673699   16.963322    ( 0.0000,  0.0000,  0.0000)
  41 N     10.881213    9.712721   16.842051    ( 0.0000,  0.0000,  0.0000)

Unit cell:
           periodic     x           y           z      points  spacing
  1. axis:    yes    9.702222    0.000000    0.000000    60     0.1617
  2. axis:    yes    0.000000    9.702222    0.000000    60     0.1617
  3. axis:    no     0.000000    0.000000   26.351111   164     0.1607

  Lengths:   9.702222   9.702222  26.351111
  Angles:   90.000000  90.000000  90.000000

Effective grid spacing dv^(1/3) = 0.1614

     iter     time        total  log10-change:
                         energy  eigst   dens
iter:   1 00:25:34  -253.228734  -0.69
iter:   2 00:27:58  -253.193026  -1.15  -1.82
iter:   3 00:30:30  -253.180943  -1.61  -1.81
iter:   4 00:33:03  -253.175516c -1.71  -2.09
Writing to output.gpw (mode='')

iter:   5 00:35:44  -253.179343c -2.06  -2.26
iter:   6 00:38:15  -253.174123c -2.04  -2.12
iter:   7 00:40:49  -253.172830c -1.95  -2.29
iter:   8 00:43:16  -253.172594c -2.60  -2.62
iter:   9 00:45:41  -253.172607c -2.94  -2.80
Writing to output.gpw (mode='')

iter:  10 00:48:22  -253.172706c -3.15  -2.83
iter:  11 00:50:54  -253.172588c -3.18  -2.88
iter:  12 00:53:27  -253.172588c -3.68  -3.09
iter:  13 00:55:50  -253.172596c -3.65  -3.16
iter:  14 00:58:08  -253.172627c -3.84  -3.32
Writing to output.gpw (mode='')

iter:  15 01:00:38  -253.172626c -4.24  -3.49
iter:  16 01:03:07  -253.172635c -4.22  -3.51
iter:  17 01:05:33  -253.172647c -4.24  -3.64
iter:  18 01:07:57  -253.172649c -4.72  -3.74
iter:  19 01:10:15  -253.172652c -4.53  -3.77
Writing to output.gpw (mode='')

iter:  20 01:12:45  -253.172652c -4.58  -3.81
iter:  21 01:15:10  -253.172653c -4.68  -3.90
iter:  22 01:17:38  -253.172656c -4.74  -3.99
iter:  23 01:20:01  -253.172660c -4.87  -4.16c
iter:  24 01:22:31  -253.172660c -5.08  -4.11c
Writing to output.gpw (mode='')

iter:  25 01:25:06  -253.172659c -5.23  -4.26c
iter:  26 01:27:42  -253.172659c -5.24  -4.28c
iter:  27 01:30:12  -253.172659c -5.12  -4.42c
iter:  28 01:32:47  -253.172658c -5.60  -4.45c
iter:  29 01:35:11  -253.172658c -5.17  -4.66c
Writing to output.gpw (mode='')

iter:  30 01:37:38  -253.172658c -5.67  -4.70c
iter:  31 01:40:10  -253.172658c -5.69  -4.76c
iter:  32 01:42:44  -253.172658c -5.72  -4.80c
iter:  33 01:45:06  -253.172658c -5.64  -4.91c
iter:  34 01:47:31  -253.172658c -5.98  -4.87c
Writing to output.gpw (mode='')

iter:  35 01:49:56  -253.172660c -6.21  -4.86c
iter:  36 01:52:16  -253.172660c -5.87  -4.74c
iter:  37 01:54:48  -253.172660c -6.09  -4.66c
iter:  38 01:57:23  -253.172660c -5.80  -4.62c
iter:  39 01:59:52  -253.172659c -6.33  -4.60c
Writing to output.gpw (mode='')

iter:  40 02:02:22  -253.172660c -6.47  -4.74c
iter:  41 02:04:53  -253.172660c -6.39  -4.58c
iter:  42 02:07:23  -253.172659c -6.39  -4.57c
iter:  43 02:09:51  -253.172659c -6.71  -4.84c
iter:  44 02:12:19  -253.172658c -6.65  -4.87c
Writing to output.gpw (mode='')

iter:  45 02:14:49  -253.172658c -6.73  -4.88c
iter:  46 02:17:24  -253.172658c -6.70  -4.88c
iter:  47 02:19:56  -253.172658c -6.95  -5.11c
iter:  48 02:22:20  -253.172658c -6.49  -5.20c
iter:  49 02:24:44  -253.172659c -6.88  -5.28c
Writing to output.gpw (mode='')

iter:  50 02:27:11  -253.172659c -6.95  -5.33c
iter:  51 02:29:39  -253.172659c -7.09  -5.37c
iter:  52 02:32:04  -253.172659c -7.07  -5.39c
iter:  53 02:34:30  -253.172659c -7.00  -5.41c
iter:  54 02:36:47  -253.172658c -7.12  -5.44c
Writing to output.gpw (mode='')

iter:  55 02:39:06  -253.172658c -7.22  -5.49c
iter:  56 02:41:32  -253.172658c -7.51c -5.69c

Converged after 56 iterations.

Dipole moment: (-8.364121, -12.259099, -0.535085) |e|*Ang

Energy contributions relative to reference atoms: (reference = -10970.764591)

Kinetic:       +125.870555
Potential:     -111.307784
External:        +0.000000
XC:            -267.984865
Entropy (-ST):   -0.150211
Local:           +0.324542
--------------------------
Free energy:   -253.247764
Extrapolated:  -253.172658

Dipole-layer corrected work functions: 3.435379, 4.463996 eV

Showing only first 2 kpts
 Kpt  Band  Eigenvalues  Occupancy
  0    24     -4.15118    1.96506
  0    25     -4.06286    1.81162
  0    26     -3.89025    0.46695
  0    27     -3.69592    0.01242

  1    24     -4.07047    1.83602
  1    25     -3.92188    0.72885
  1    26     -3.89728    0.51918
  1    27     -3.78711    0.07454


Fermi level: -3.94969

No gap
Writing to output.gpw (mode='')


Forces in eV/Ang:
  0 Li    0.01197    0.01122   -0.27582
  1 Li    0.00833   -0.00366   -0.27418
  2 Li   -0.01938    0.00504   -0.28638
  3 Li    0.00620    0.00058   -0.27722
  4 Li   -0.00191    0.00006   -0.29437
  5 Li    0.00215   -0.00120   -0.27052
  6 Li    0.01322   -0.01156   -0.27587
  7 Li    0.00676    0.00250   -0.27466
  8 Li   -0.01959   -0.00491   -0.28617
  9 Li   -0.00622   -0.00020    0.34356
 10 Li    0.02283    0.00032    0.25515
 11 Li   -0.00700    0.00053    0.25246
 12 Li    0.00667    0.00337    0.27720
 13 Li   -0.01001    0.00384    0.26314
 14 Li   -0.00166    0.01968    0.24737
 15 Li    0.00699   -0.00436    0.27749
 16 Li   -0.00840   -0.00478    0.26092
 17 Li   -0.00261   -0.01819    0.24834
 18 Li    0.02959   -0.00525   -0.06727
 19 Li   -0.00089   -0.00710    0.04428
 20 Li   -0.04636    0.04330   -0.08935
 21 Li   -0.01468   -0.00034    0.06773
 22 Li    0.00168   -0.00197    0.02302
 23 Li    0.00798    0.00213    0.06470
 24 Li    0.03136    0.00468   -0.06032
 25 Li    0.00059    0.00987    0.04800
 26 Li   -0.04685   -0.04134   -0.09562
 27 Li   -0.22225    0.03870   -3.07910
 28 Li   -0.44468    0.00266    0.30614
 29 Li    0.03820    0.00542    0.06428
 30 Li   -0.01957    0.06064    0.01552
 31 Li    0.04419    0.05536   -0.01993
 32 Li   -0.01437    0.00408   -0.01029
 33 Li   -0.01345   -0.04734    0.02543
 34 Li    0.04178   -0.04942   -0.02034
 35 Li   -0.02170   -0.01250   -0.01489
 36 B    -0.52999    0.18076    0.56521
 37 H    -0.28017    0.08977    2.52716
 38 H    -0.53802    0.43004    1.36898
 39 H    -0.37116   -0.29982    1.51857
 40 N     1.03007   -0.67648    0.02519
 41 N     1.32274    0.20639   -3.11515

System changes: positions 

Initializing position-dependent things.

Density initialized from wave functions
       .-----------------------.  
      /|                       |  
     / |                       |  
    /  |                       |  
   /   |                       |  
  /    |                       |  
 *     |                       |  
 |     |                       |  
 |     |                       |  
 |     |                       |  
 |     |                      H|  
 |     N                       |  
 |     |                       |  
 |     |                       |  
 |     |                       |  
 |  H  |     Li      LiH     Li|  
 |     |                 B     |  
 |     |  LLi     LLi     LLi  |  
 |  N  |                       |  
 |     |LLi     LLi     LLi    |  
 |   Li|     Li      Li        |  
 |    Li  Li  Li  Li  Li  Li   |  
 | Li  |   Li      Li          |  
 |     |Li      Li      Li     |  
 Li    | Li      Li            |  
 |    Li      Li      Li       |  
 |     |                       |  
 |     |                       |  
 |     |                       |  
 |     |                       |  
 |     |                       |  
 |     |                       |  
 |     .-----------------------.  
 |    /                       /   
 |   /                       /    
 |  /                       /     
 | /                       /      
 |/                       /       
 *-----------------------*        

Positions:
   0 Li     1.617037    1.617037   10.000000    ( 0.0000,  0.0000,  0.0000)
   1 Li     4.851111    1.617037   10.000000    ( 0.0000,  0.0000,  0.0000)
   2 Li     8.085185    1.617037   10.000000    ( 0.0000,  0.0000,  0.0000)
   3 Li     1.617037    4.851111   10.000000    ( 0.0000,  0.0000,  0.0000)
   4 Li     4.851111    4.851111   10.000000    ( 0.0000,  0.0000,  0.0000)
   5 Li     8.085185    4.851111   10.000000    ( 0.0000,  0.0000,  0.0000)
   6 Li     1.617037    8.085185   10.000000    ( 0.0000,  0.0000,  0.0000)
   7 Li     4.851111    8.085185   10.000000    ( 0.0000,  0.0000,  0.0000)
   8 Li     8.085185    8.085185   10.000000    ( 0.0000,  0.0000,  0.0000)
   9 Li     0.000000    0.000000   11.617037    ( 0.0000,  0.0000,  0.0000)
  10 Li     3.234074    0.000000   11.617037    ( 0.0000,  0.0000,  0.0000)
  11 Li     6.468148    0.000000   11.617037    ( 0.0000,  0.0000,  0.0000)
  12 Li     0.000000    3.234074   11.617037    ( 0.0000,  0.0000,  0.0000)
  13 Li     3.234074    3.234074   11.617037    ( 0.0000,  0.0000,  0.0000)
  14 Li     6.468148    3.234074   11.617037    ( 0.0000,  0.0000,  0.0000)
  15 Li     0.000000    6.468148   11.617037    ( 0.0000,  0.0000,  0.0000)
  16 Li     3.234074    6.468148   11.617037    ( 0.0000,  0.0000,  0.0000)
  17 Li     6.468148    6.468148   11.617037    ( 0.0000,  0.0000,  0.0000)
  18 Li     1.618126    1.616564   13.467360    ( 0.0000,  0.0000,  0.0000)
  19 Li     4.851062    1.616801   13.471652    ( 0.0000,  0.0000,  0.0000)
  20 Li     8.083533    1.618630   13.466466    ( 0.0000,  0.0000,  0.0000)
  21 Li     1.616395    4.851086   13.472614    ( 0.0000,  0.0000,  0.0000)
  22 Li     4.851161    4.850965   13.470700    ( 0.0000,  0.0000,  0.0000)
  23 Li     8.085545    4.851247   13.472579    ( 0.0000,  0.0000,  0.0000)
  24 Li     1.618045    8.085607   13.467647    ( 0.0000,  0.0000,  0.0000)
  25 Li     4.851195    8.085577   13.471873    ( 0.0000,  0.0000,  0.0000)
  26 Li     8.083582    8.083618   13.466094    ( 0.0000,  0.0000,  0.0000)
  27 Li    -0.009615    0.002323   15.271082    ( 0.0000,  0.0000,  0.0000)
  28 Li     3.216973    0.000115   15.457684    ( 0.0000,  0.0000,  0.0000)
  29 Li     6.469471    0.000329   15.448361    ( 0.0000,  0.0000,  0.0000)
  30 Li    -0.000853    3.236764   15.446295    ( 0.0000,  0.0000,  0.0000)
  31 Li     3.235901    3.236288   15.444947    ( 0.0000,  0.0000,  0.0000)
  32 Li     6.467613    3.234142   15.445452    ( 0.0000,  0.0000,  0.0000)
  33 Li    -0.000519    6.465827   15.446576    ( 0.0000,  0.0000,  0.0000)
  34 Li     3.235813    6.466109   15.444980    ( 0.0000,  0.0000,  0.0000)
  35 Li     6.467213    6.467638   15.445190    ( 0.0000,  0.0000,  0.0000)
  36 B      9.671118    9.703037   18.483633    ( 0.0000,  0.0000,  0.0000)
  37 H     10.732523   10.306729   18.566396    ( 0.0000,  0.0000,  0.0000)
  38 H      8.648980   10.323693   18.508770    ( 0.0000,  0.0000,  0.0000)
  39 H      9.685951    8.495141   18.517264    ( 0.0000,  0.0000,  0.0000)
  40 N      9.703465    9.666031   16.961990    ( 0.0000,  0.0000,  0.0000)
  41 N     10.895901    9.714885   16.804909    ( 0.0000,  0.0000,  0.0000)

Unit cell:
           periodic     x           y           z      points  spacing
  1. axis:    yes    9.702222    0.000000    0.000000    60     0.1617
  2. axis:    yes    0.000000    9.702222    0.000000    60     0.1617
  3. axis:    no     0.000000    0.000000   26.351111   164     0.1607

  Lengths:   9.702222   9.702222  26.351111
  Angles:   90.000000  90.000000  90.000000

Effective grid spacing dv^(1/3) = 0.1614

     iter     time        total  log10-change:
                         energy  eigst   dens
iter:   1 02:44:35  -253.576805  -0.75
iter:   2 02:46:59  -253.563913  -1.32  -1.98
iter:   3 02:49:18  -253.558915c -1.74  -1.98
iter:   4 02:51:37  -253.557281c -1.87  -2.22
Writing to output.gpw (mode='')

iter:   5 02:54:03  -253.557347c -2.08  -2.34
iter:   6 02:56:31  -253.555676c -2.13  -2.32
iter:   7 02:58:52  -253.555260c -2.42  -2.46
iter:   8 03:01:19  -253.555300c -2.70  -2.77
iter:   9 03:03:45  -253.555246c -3.04  -2.80
Writing to output.gpw (mode='')

iter:  10 03:06:21  -253.555215c -3.25  -2.98
iter:  11 03:08:52  -253.555222c -3.65  -3.20
iter:  12 03:11:15  -253.555241c -3.87  -3.26
iter:  13 03:13:48  -253.555244c -4.02  -3.26
iter:  14 03:16:06  -253.555238c -3.94  -3.32
Writing to output.gpw (mode='')

iter:  15 03:18:46  -253.555250c -4.33  -3.49
iter:  16 03:21:05  -253.555268c -4.32  -3.58
iter:  17 03:23:34  -253.555268c -4.41  -3.77
iter:  18 03:25:55  -253.555276c -4.43  -3.84
iter:  19 03:28:20  -253.555280c -4.60  -3.89
Writing to output.gpw (mode='')

iter:  20 03:30:55  -253.555282c -4.51  -3.94
iter:  21 03:33:18  -253.555286c -4.78  -3.96
iter:  22 03:35:57  -253.555285c -4.99  -3.94
iter:  23 03:38:28  -253.555288c -5.32  -4.07c
iter:  24 03:40:57  -253.555286c -5.27  -4.10c
Writing to output.gpw (mode='')

iter:  25 03:43:37  -253.555285c -5.42  -4.21c
iter:  26 03:46:07  -253.555286c -5.43  -4.22c
iter:  27 03:48:31  -253.555287c -5.19  -4.22c
iter:  28 03:50:52  -253.555283c -5.57  -4.19c
iter:  29 03:53:15  -253.555283c -5.71  -4.33c
Writing to output.gpw (mode='')

iter:  30 03:55:44  -253.555283c -5.71  -4.40c
iter:  31 03:58:07  -253.555284c -5.72  -4.51c
iter:  32 04:00:36  -253.555285c -5.89  -4.54c
iter:  33 04:03:02  -253.555285c -5.97  -4.66c
iter:  34 04:05:33  -253.555284c -5.97  -4.77c
Writing to output.gpw (mode='')

iter:  35 04:08:06  -253.555284c -6.01  -4.91c
iter:  36 04:10:32  -253.555284c -6.14  -5.11c
iter:  37 04:12:58  -253.555284c -5.95  -5.17c
iter:  38 04:15:22  -253.555284c -6.21  -5.23c
iter:  39 04:17:49  -253.555284c -6.23  -5.20c
Writing to output.gpw (mode='')

iter:  40 04:20:25  -253.555284c -6.55  -5.24c
iter:  41 04:22:53  -253.555284c -6.36  -5.19c
iter:  42 04:25:15  -253.555284c -6.51  -5.17c
iter:  43 04:27:44  -253.555284c -6.49  -5.14c
iter:  44 04:30:08  -253.555284c -6.45  -5.11c
Writing to output.gpw (mode='')

iter:  45 04:32:40  -253.555284c -6.62  -5.09c
iter:  46 04:35:13  -253.555285c -6.75  -5.00c
iter:  47 04:37:53  -253.555284c -6.84  -4.99c
iter:  48 04:40:25  -253.555285c -6.95  -4.99c
iter:  49 04:42:49  -253.555285c -6.83  -5.02c
Writing to output.gpw (mode='')

iter:  50 04:45:23  -253.555284c -6.94  -4.99c
iter:  51 04:47:51  -253.555285c -6.89  -4.83c
iter:  52 04:50:18  -253.555285c -7.14  -4.88c
iter:  53 04:52:45  -253.555286c -6.93  -4.86c
iter:  54 04:55:17  -253.555286c -6.90  -4.86c
Writing to output.gpw (mode='')

iter:  55 04:57:59  -253.555286c -7.12  -4.82c
iter:  56 05:00:30  -253.555286c -7.24  -4.82c
iter:  57 05:03:02  -253.555286c -7.16  -4.81c
iter:  58 05:05:26  -253.555286c -7.34  -4.72c
iter:  59 05:07:52  -253.555285c -7.25  -4.74c
Writing to output.gpw (mode='')

iter:  60 05:10:20  -253.555285c -7.23  -4.80c
iter:  61 05:12:39  -253.555284c -7.27  -4.86c
iter:  62 05:15:09  -253.555284c -7.30  -5.04c
iter:  63 05:17:31  -253.555284c -7.53c -5.13c

Converged after 63 iterations.

Dipole moment: (-9.228981, -11.799754, -0.572605) |e|*Ang

Energy contributions relative to reference atoms: (reference = -10970.764591)

Kinetic:       +123.465335
Potential:     -109.621852
External:        +0.000000
XC:            -267.645148
Entropy (-ST):   -0.151172
Local:           +0.321966
--------------------------
Free energy:   -253.630870
Extrapolated:  -253.555284

Dipole-layer corrected work functions: 3.437050, 4.537793 eV

Showing only first 2 kpts
 Kpt  Band  Eigenvalues  Occupancy
  0    24     -4.17950    1.95798
  0    25     -4.09847    1.80424
  0    26     -3.93634    0.52939
  0    27     -3.73118    0.01182

  1    24     -4.12275    1.87482
  1    25     -3.95738    0.70827
  1    26     -3.93013    0.48254
  1    27     -3.81875    0.06627


Fermi level: -3.98742

No gap
Writing to output.gpw (mode='')


Forces in eV/Ang:
  0 Li    0.01198    0.01180   -0.27747
  1 Li    0.00883   -0.00353   -0.27470
  2 Li   -0.01983    0.00482   -0.28803
  3 Li    0.00607    0.00046   -0.27766
  4 Li   -0.00228   -0.00015   -0.29486
  5 Li    0.00238   -0.00128   -0.27070
  6 Li    0.01322   -0.01212   -0.27717
  7 Li    0.00731    0.00273   -0.27457
  8 Li   -0.01973   -0.00469   -0.28790
  9 Li   -0.00664   -0.00047    0.34703
 10 Li    0.02262    0.00042    0.25769
 11 Li   -0.00664    0.00056    0.25208
 12 Li    0.00674    0.00368    0.27882
 13 Li   -0.00944    0.00488    0.26364
 14 Li   -0.00196    0.01961    0.24784
 15 Li    0.00710   -0.00386    0.28057
 16 Li   -0.00786   -0.00618    0.26081
 17 Li   -0.00374   -0.01831    0.24901
 18 Li    0.03299   -0.00044   -0.07715
 19 Li   -0.00126   -0.00883    0.04406
 20 Li   -0.05287    0.04843   -0.09873
 21 Li   -0.01460   -0.00011    0.06835
 22 Li    0.00255   -0.00090    0.02299
 23 Li    0.00748    0.00133    0.06293
 24 Li    0.03736    0.00039   -0.06966
 25 Li   -0.00098    0.01108    0.04684
 26 Li   -0.05443   -0.04541   -0.10289
 27 Li   -0.22799    0.02230   -2.49653
 28 Li   -0.48798    0.00317    0.33664
 29 Li    0.04487    0.00372    0.07070
 30 Li   -0.01993    0.05774    0.02203
 31 Li    0.04568    0.05851   -0.01661
 32 Li   -0.01519    0.00604   -0.00923
 33 Li   -0.01518   -0.04047    0.03461
 34 Li    0.04308   -0.05170   -0.01834
 35 Li   -0.02112   -0.01293   -0.01266
 36 B    -0.41892    0.22819    0.35680
 37 H    -0.37887   -0.00997    2.29392
 38 H    -0.51512    0.32034    1.27125
 39 H    -0.36150   -0.18664    1.40557
 40 N     1.50482   -0.55253   -0.18021
 41 N     0.82573    0.14338   -2.87976

System changes: positions 

Initializing position-dependent things.

Density initialized from wave functions
       .-----------------------.  
      /|                       |  
     / |                       |  
    /  |                       |  
   /   |                       |  
  /    |                       |  
 *     |                       |  
 |     |                       |  
 |     |                       |  
 |     |                       |  
 |     |                      H|  
 |     N                       |  
 |     |                       |  
 |     |                       |  
 |     |                       |  
 |  H  |     Li      LiH     Li|  
 |     |                 B     |  
 |     |  LLi     LLi     LLi  |  
 |  N  |                       |  
 |     |LLi     LLi     LLi    |  
 |   Li|     Li      Li        |  
 |    Li  Li  Li  Li  Li  Li   |  
 | Li  |   Li      Li          |  
 |     |Li      Li      Li     |  
 Li    | Li      Li            |  
 |    Li      Li      Li       |  
 |     |                       |  
 |     |                       |  
 |     |                       |  
 |     |                       |  
 |     |                       |  
 |     |                       |  
 |     .-----------------------.  
 |    /                       /   
 |   /                       /    
 |  /                       /     
 | /                       /      
 |/                       /       
 *-----------------------*        

Positions:
   0 Li     1.617037    1.617037   10.000000    ( 0.0000,  0.0000,  0.0000)
   1 Li     4.851111    1.617037   10.000000    ( 0.0000,  0.0000,  0.0000)
   2 Li     8.085185    1.617037   10.000000    ( 0.0000,  0.0000,  0.0000)
   3 Li     1.617037    4.851111   10.000000    ( 0.0000,  0.0000,  0.0000)
   4 Li     4.851111    4.851111   10.000000    ( 0.0000,  0.0000,  0.0000)
   5 Li     8.085185    4.851111   10.000000    ( 0.0000,  0.0000,  0.0000)
   6 Li     1.617037    8.085185   10.000000    ( 0.0000,  0.0000,  0.0000)
   7 Li     4.851111    8.085185   10.000000    ( 0.0000,  0.0000,  0.0000)
   8 Li     8.085185    8.085185   10.000000    ( 0.0000,  0.0000,  0.0000)
   9 Li     0.000000    0.000000   11.617037    ( 0.0000,  0.0000,  0.0000)
  10 Li     3.234074    0.000000   11.617037    ( 0.0000,  0.0000,  0.0000)
  11 Li     6.468148    0.000000   11.617037    ( 0.0000,  0.0000,  0.0000)
  12 Li     0.000000    3.234074   11.617037    ( 0.0000,  0.0000,  0.0000)
  13 Li     3.234074    3.234074   11.617037    ( 0.0000,  0.0000,  0.0000)
  14 Li     6.468148    3.234074   11.617037    ( 0.0000,  0.0000,  0.0000)
  15 Li     0.000000    6.468148   11.617037    ( 0.0000,  0.0000,  0.0000)
  16 Li     3.234074    6.468148   11.617037    ( 0.0000,  0.0000,  0.0000)
  17 Li     6.468148    6.468148   11.617037    ( 0.0000,  0.0000,  0.0000)
  18 Li     1.618567    1.616573   13.466322    ( 0.0000,  0.0000,  0.0000)
  19 Li     4.851043    1.616681   13.472231    ( 0.0000,  0.0000,  0.0000)
  20 Li     8.082824    1.619276   13.465151    ( 0.0000,  0.0000,  0.0000)
[...]
  3. axis:    no     0.000000    0.000000   26.351111   164     0.1607

  Lengths:   9.702222   9.702222  26.351111
  Angles:   90.000000  90.000000  90.000000

Effective grid spacing dv^(1/3) = 0.1614

     iter     time        total  log10-change:
                         energy  eigst   dens
iter:   1 19:51:29  -256.013653  -1.31
iter:   2 19:53:58  -256.013479  -2.05  -2.26
iter:   3 19:56:28  -256.012855c -2.56  -2.29
iter:   4 19:58:57  -256.010600c -2.76  -2.37
Writing to output.gpw (mode='')

iter:   5 20:01:38  -256.009571c -2.73  -2.53
iter:   6 20:04:05  -256.009264c -2.82  -2.72
iter:   7 20:06:24  -256.009107c -3.11  -2.84
iter:   8 20:08:53  -256.009148c -2.93  -2.99
iter:   9 20:11:17  -256.009147c -3.40  -3.03
Writing to output.gpw (mode='')

iter:  10 20:14:03  -256.009144c -3.79  -3.05
iter:  11 20:16:36  -256.009145c -4.11  -3.13
iter:  12 20:18:56  -256.009157c -4.11  -3.23
iter:  13 20:21:19  -256.009145c -4.50  -3.49
iter:  14 20:23:42  -256.009125c -4.69  -3.58
Writing to output.gpw (mode='')

iter:  15 20:26:03  -256.009124c -5.05  -3.71
iter:  16 20:28:25  -256.009129c -5.10  -3.81
iter:  17 20:30:55  -256.009134c -5.27  -3.95
iter:  18 20:33:20  -256.009132c -5.53  -4.06c
iter:  19 20:35:44  -256.009132c -5.70  -4.18c
Writing to output.gpw (mode='')

iter:  20 20:38:24  -256.009131c -5.94  -4.29c
iter:  21 20:40:49  -256.009132c -5.95  -4.39c
iter:  22 20:43:10  -256.009132c -6.24  -4.65c
iter:  23 20:45:39  -256.009132c -6.38  -4.68c
iter:  24 20:48:01  -256.009133c -6.49  -4.74c
Writing to output.gpw (mode='')

iter:  25 20:50:30  -256.009133c -6.71  -4.88c
iter:  26 20:53:03  -256.009133c -6.72  -5.10c
iter:  27 20:55:32  -256.009133c -6.87  -5.12c
iter:  28 20:57:57  -256.009134c -6.96  -5.11c
iter:  29 21:00:24  -256.009133c -6.93  -5.10c
Writing to output.gpw (mode='')

iter:  30 21:02:52  -256.009134c -7.19  -5.09c
iter:  31 21:05:18  -256.009133c -7.25  -4.98c
iter:  32 21:07:43  -256.009134c -7.35  -5.06c
iter:  33 21:10:12  -256.009134c -7.10  -5.02c
iter:  34 21:12:31  -256.009133c -7.61c -5.03c

Converged after 34 iterations.

Dipole moment: (-9.352335, -30.035140, -0.506727) |e|*Ang

Energy contributions relative to reference atoms: (reference = -10970.764591)

Kinetic:       +106.608394
Potential:      -97.900945
External:        +0.000000
XC:            -264.967265
Entropy (-ST):   -0.166027
Local:           +0.333696
--------------------------
Free energy:   -256.092147
Extrapolated:  -256.009133

Dipole-layer corrected work functions: 3.428336, 4.402439 eV

Showing only first 2 kpts
 Kpt  Band  Eigenvalues  Occupancy
  0    24     -4.08108    1.92981
  0    25     -3.99577    1.66618
  0    26     -3.92433    1.08921
  0    27     -3.64802    0.00948

  1    24     -4.10704    1.95763
  1    25     -3.89020    0.75336
  1    26     -3.84995    0.42537
  1    27     -3.72912    0.04708


Fermi level: -3.91539

No gap
Writing to output.gpw (mode='')


Forces in eV/Ang:
  0 Li    0.00366    0.01176   -0.28824
  1 Li   -0.00226   -0.00325   -0.26342
  2 Li   -0.02484   -0.00290   -0.29192
  3 Li    0.00178   -0.00017   -0.25809
  4 Li   -0.00556   -0.00025   -0.32322
  5 Li   -0.00862   -0.00211   -0.26248
  6 Li    0.00226   -0.01605   -0.29153
  7 Li   -0.00263   -0.00024   -0.26627
  8 Li   -0.02252    0.00414   -0.29131
  9 Li    0.05651    0.01313    0.39267
 10 Li    0.10720    0.01091    0.24342
 11 Li   -0.03461    0.00437    0.23349
 12 Li    0.00635    0.00383    0.30630
 13 Li    0.09779    0.07989    0.26727
 14 Li   -0.03622   -0.01547    0.31403
 15 Li   -0.01144   -0.00284    0.30426
 16 Li    0.08781   -0.04351    0.28183
 17 Li   -0.01835    0.03425    0.32764
 18 Li   -0.01705   -0.01144    0.00266
 19 Li    0.03292   -0.00100   -0.03998
 20 Li   -0.05337   -0.01443    0.00632
 21 Li    0.04560   -0.01979    0.00520
 22 Li   -0.01206   -0.00420   -0.00824
 23 Li    0.00966   -0.00137   -0.00424
 24 Li   -0.01300   -0.00746    0.02435
 25 Li    0.02434   -0.01803   -0.04141
 26 Li   -0.05485    0.00778   -0.00992
 27 Li    0.08931   -0.06537   -0.06468
 28 Li   -0.11677    0.00131   -0.07260
 29 Li    0.09634    0.00428    0.30216
 30 Li   -0.02655    0.08139    0.00795
 31 Li   -0.00123   -0.04989   -0.00319
 32 Li    0.02376    0.00833   -0.00167
 33 Li   -0.02388   -0.02094    0.02652
 34 Li    0.01322    0.00838   -0.02956
 35 Li    0.03422    0.01376    0.00798
 36 B    -0.07958   -0.01855   -0.10015
 37 H    -0.04624    0.01754   -0.23543
 38 H     0.09464   -0.13728   -0.03918
 39 H     0.09172    0.16618   -0.12697
 40 N     0.13400   -0.06425   -0.10881
 41 N    -0.42788    0.05326    0.36966

System changes: positions 

Initializing position-dependent things.

Density initialized from wave functions
       .-----------------------.  
      /|                       |  
     / |                       |  
    /  |                       |  
   /   |                       |  
  /    |                       |  
 *     |                       |  
 |     |                       |  
 |     |                       |  
 |     |                       |  
 |     |                    H  |  
 |     |                       |  
 |     |                       |  
 |     |                       |  
 |H    |                       |  
 |     |     Li      LH      Li|  
 |     |          Li    B      |  
 |N    |  LLi      Li     LLi  |  
 |   N |           Li          |  
 |     |LLi     Li      Li     |  
 |Li Li|     LLi     Li        |  
 |     Li Li      Li  Li  Li   |  
 | Li  |   Li      Li          |  
 |     |Li      Li      Li     |  
 Li    | Li      Li            |  
 |    Li      Li      Li       |  
 |     |                       |  
 |     |                       |  
 |     |                       |  
 |     |                       |  
 |     |                       |  
 |     |                       |  
 |     .-----------------------.  
 |    /                       /   
 |   /                       /    
 |  /                       /     
 | /                       /      
 |/                       /       
 *-----------------------*        

Positions:
   0 Li     1.617037    1.617037   10.000000    ( 0.0000,  0.0000,  0.0000)
   1 Li     4.851111    1.617037   10.000000    ( 0.0000,  0.0000,  0.0000)
   2 Li     8.085185    1.617037   10.000000    ( 0.0000,  0.0000,  0.0000)
   3 Li     1.617037    4.851111   10.000000    ( 0.0000,  0.0000,  0.0000)
   4 Li     4.851111    4.851111   10.000000    ( 0.0000,  0.0000,  0.0000)
   5 Li     8.085185    4.851111   10.000000    ( 0.0000,  0.0000,  0.0000)
   6 Li     1.617037    8.085185   10.000000    ( 0.0000,  0.0000,  0.0000)
   7 Li     4.851111    8.085185   10.000000    ( 0.0000,  0.0000,  0.0000)
   8 Li     8.085185    8.085185   10.000000    ( 0.0000,  0.0000,  0.0000)
   9 Li     0.000000    0.000000   11.617037    ( 0.0000,  0.0000,  0.0000)
  10 Li     3.234074    0.000000   11.617037    ( 0.0000,  0.0000,  0.0000)
  11 Li     6.468148    0.000000   11.617037    ( 0.0000,  0.0000,  0.0000)
  12 Li     0.000000    3.234074   11.617037    ( 0.0000,  0.0000,  0.0000)
  13 Li     3.234074    3.234074   11.617037    ( 0.0000,  0.0000,  0.0000)
  14 Li     6.468148    3.234074   11.617037    ( 0.0000,  0.0000,  0.0000)
  15 Li     0.000000    6.468148   11.617037    ( 0.0000,  0.0000,  0.0000)
  16 Li     3.234074    6.468148   11.617037    ( 0.0000,  0.0000,  0.0000)
  17 Li     6.468148    6.468148   11.617037    ( 0.0000,  0.0000,  0.0000)
  18 Li     1.807250    1.697945   13.418409    ( 0.0000,  0.0000,  0.0000)
  19 Li     4.894354    1.557315   13.690867    ( 0.0000,  0.0000,  0.0000)
  20 Li     8.104569    1.619602   13.464629    ( 0.0000,  0.0000,  0.0000)
  21 Li     1.520052    4.871192   13.527597    ( 0.0000,  0.0000,  0.0000)
  22 Li     4.845974    4.881378   13.504325    ( 0.0000,  0.0000,  0.0000)
  23 Li     8.046311    4.834293   13.550486    ( 0.0000,  0.0000,  0.0000)
  24 Li     1.769796    8.049381   13.394410    ( 0.0000,  0.0000,  0.0000)
  25 Li     4.909197    8.230091   13.701744    ( 0.0000,  0.0000,  0.0000)
  26 Li     8.112981    8.081391   13.496522    ( 0.0000,  0.0000,  0.0000)
  27 Li     0.335064    0.042678   15.064949    ( 0.0000,  0.0000,  0.0000)
  28 Li     3.253016    0.060460   16.002293    ( 0.0000,  0.0000,  0.0000)
  29 Li     7.461859    0.065124   16.067990    ( 0.0000,  0.0000,  0.0000)
  30 Li    -0.025889    3.115543   15.502447    ( 0.0000,  0.0000,  0.0000)
  31 Li     3.223455    3.450554   15.477068    ( 0.0000,  0.0000,  0.0000)
  32 Li     6.402226    3.256879   15.521460    ( 0.0000,  0.0000,  0.0000)
  33 Li    -0.040873    6.452855   15.474495    ( 0.0000,  0.0000,  0.0000)
  34 Li     3.189458    6.444316   15.493059    ( 0.0000,  0.0000,  0.0000)
  35 Li     6.366062    6.437417   15.514703    ( 0.0000,  0.0000,  0.0000)
  36 B      9.218242    9.771393   18.383315    ( 0.0000,  0.0000,  0.0000)
  37 H      9.919901    9.907580   19.367183    ( 0.0000,  0.0000,  0.0000)
  38 H      8.385360   10.677834   18.218388    ( 0.0000,  0.0000,  0.0000)
  39 H      8.615782    8.689032   18.367696    ( 0.0000,  0.0000,  0.0000)
  40 N     10.022096    9.771652   17.016362    ( 0.0000,  0.0000,  0.0000)
  41 N     11.191096    9.739216   16.708485    ( 0.0000,  0.0000,  0.0000)

Unit cell:
           periodic     x           y           z      points  spacing
  1. axis:    yes    9.702222    0.000000    0.000000    60     0.1617
  2. axis:    yes    0.000000    9.702222    0.000000    60     0.1617
  3. axis:    no     0.000000    0.000000   26.351111   164     0.1607

  Lengths:   9.702222   9.702222  26.351111
  Angles:   90.000000  90.000000  90.000000

Effective grid spacing dv^(1/3) = 0.1614

     iter     time        total  log10-change:
                         energy  eigst   dens
iter:   1 21:15:28  -256.024955  -1.31
iter:   2 21:17:51  -256.024743  -2.04  -2.26
iter:   3 21:20:22  -256.024051c -2.56  -2.29
iter:   4 21:22:41  -256.021804c -2.74  -2.37
Writing to output.gpw (mode='')

iter:   5 21:25:06  -256.020715c -2.68  -2.53
iter:   6 21:27:46  -256.020450c -2.80  -2.72
iter:   7 21:30:15  -256.020326c -3.21  -2.83
iter:   8 21:32:44  -256.020346c -2.87  -2.97
iter:   9 21:35:08  -256.020342c -3.32  -3.00
Writing to output.gpw (mode='')

iter:  10 21:37:30  -256.020320c -3.83  -2.99
iter:  11 21:39:52  -256.020325c -3.87  -3.04
iter:  12 21:42:17  -256.020352c -4.01  -3.30
iter:  13 21:44:46  -256.020337c -4.48  -3.41
iter:  14 21:47:06  -256.020323c -4.59  -3.47
Writing to output.gpw (mode='')

iter:  15 21:49:31  -256.020311c -4.83  -3.51
iter:  16 21:51:57  -256.020312c -5.01  -3.59
iter:  17 21:54:25  -256.020317c -5.15  -3.67
iter:  18 21:56:49  -256.020319c -5.28  -3.75
iter:  19 21:59:10  -256.020315c -5.44  -3.97
Writing to output.gpw (mode='')

iter:  20 22:01:37  -256.020308c -5.35  -4.11c
iter:  21 22:04:03  -256.020309c -5.87  -4.28c
iter:  22 22:06:24  -256.020312c -6.05  -4.31c
iter:  23 22:08:49  -256.020312c -6.25  -4.42c
iter:  24 22:11:14  -256.020311c -6.32  -4.49c
Writing to output.gpw (mode='')

iter:  25 22:13:46  -256.020313c -6.49  -4.57c
iter:  26 22:16:14  -256.020312c -6.52  -4.74c
iter:  27 22:18:42  -256.020312c -6.87  -4.85c
iter:  28 22:21:10  -256.020313c -6.64  -4.95c
iter:  29 22:23:31  -256.020313c -7.10  -5.00c
Writing to output.gpw (mode='')

iter:  30 22:25:52  -256.020313c -7.14  -5.04c
iter:  31 22:28:19  -256.020313c -7.31  -5.20c
iter:  32 22:30:44  -256.020313c -7.30  -5.26c
iter:  33 22:33:08  -256.020313c -7.45c -5.37c

Converged after 33 iterations.

Dipole moment: (-10.012152, -30.292987, -0.501084) |e|*Ang

Energy contributions relative to reference atoms: (reference = -10970.764591)

Kinetic:       +106.587887
Potential:      -97.858743
External:        +0.000000
XC:            -265.000075
Entropy (-ST):   -0.166042
Local:           +0.333639
--------------------------
Free energy:   -256.103334
Extrapolated:  -256.020313

Dipole-layer corrected work functions: 3.428494, 4.391749 eV

Showing only first 2 kpts
 Kpt  Band  Eigenvalues  Occupancy
  0    24     -4.07612    1.93021
  0    25     -3.98950    1.66053
  0    26     -3.92225    1.12073
  0    27     -3.64256    0.00944

  1    24     -4.10486    1.96011
  1    25     -3.88468    0.75092
  1    26     -3.84299    0.41415
  1    27     -3.72350    0.04675


Fermi level: -3.91012

No gap
Writing to output.gpw (mode='')


Forces in eV/Ang:
  0 Li    0.00379    0.01144   -0.28815
  1 Li   -0.00272   -0.00327   -0.26389
  2 Li   -0.02477   -0.00320   -0.29189
  3 Li    0.00167   -0.00014   -0.25801
  4 Li   -0.00520   -0.00023   -0.32283
  5 Li   -0.00872   -0.00224   -0.26255
  6 Li    0.00238   -0.01600   -0.29158
  7 Li   -0.00320   -0.00034   -0.26661
  8 Li   -0.02240    0.00454   -0.29133
  9 Li    0.05977    0.01422    0.39122
 10 Li    0.10828    0.01220    0.24166
 11 Li   -0.03622    0.00472    0.23275
 12 Li    0.00576    0.00113    0.30747
 13 Li    0.09919    0.08090    0.26733
 14 Li   -0.03598   -0.01772    0.31492
 15 Li   -0.01319   -0.00021    0.30438
 16 Li    0.08983   -0.04396    0.28142
 17 Li   -0.01732    0.03689    0.32883
 18 Li   -0.01616   -0.01219   -0.00181
 19 Li    0.03226   -0.00504   -0.03987
 20 Li   -0.05859   -0.00971    0.00499
 21 Li    0.04824   -0.02275    0.00910
 22 Li   -0.01642   -0.00490   -0.01222
 23 Li    0.01015   -0.00146   -0.00065
 24 Li   -0.01550   -0.00535    0.02710
 25 Li    0.02347   -0.01502   -0.04110
 26 Li   -0.05994    0.00307   -0.01200
 27 Li    0.09743   -0.07056   -0.07170
 28 Li   -0.13433    0.00350   -0.07686
 29 Li    0.10252    0.00519    0.32898
 30 Li   -0.02710    0.08693    0.00858
 31 Li   -0.00069   -0.04962   -0.00255
 32 Li    0.02675    0.00790   -0.00141
 33 Li   -0.02425   -0.02278    0.02871
 34 Li    0.01392    0.00618   -0.03045
 35 Li    0.03802    0.01491    0.00899
 36 B    -0.08303   -0.02798   -0.08738
 37 H    -0.04549    0.01797   -0.24122
 38 H     0.08669   -0.14379   -0.03158
 39 H     0.08851    0.18669   -0.14524
 40 N     0.13140   -0.07575   -0.12627
 41 N    -0.46057    0.04395    0.39011

System changes: positions 

Initializing position-dependent things.

Density initialized from wave functions
       .-----------------------.  
      /|                       |  
     / |                       |  
    /  |                       |  
   /   |                       |  
  /    |                       |  
 *     |                       |  
 |     |                       |  
 |     |                       |  
 |     |                       |  
 |     |                    H  |  
 |     |                       |  
 |     |                       |  
 |     |                       |  
 |H    |                       |  
 |     |     Li      LH      Li|  
 |     |          Li    B      |  
 |N    |  LLi      Li     LLi  |  
 |   N |            Li         |  
 |     |LLi     Li      Li     |  
 |Li Li|     LLi     Li        |  
 |     Li Li      Li  Li  Li   |  
 | Li  |   Li      Li          |  
 |     |Li      Li      Li     |  
 Li    | Li      Li            |  
 |    Li      Li      Li       |  
 |     |                       |  
 |     |                       |  
 |     |                       |  
 |     |                       |  
 |     |                       |  
 |     |                       |  
 |     .-----------------------.  
 |    /                       /   
 |   /                       /    
 |  /                       /     
 | /                       /      
 |/                       /       
 *-----------------------*        

Positions:
   0 Li     1.617037    1.617037   10.000000    ( 0.0000,  0.0000,  0.0000)
   1 Li     4.851111    1.617037   10.000000    ( 0.0000,  0.0000,  0.0000)
   2 Li     8.085185    1.617037   10.000000    ( 0.0000,  0.0000,  0.0000)
   3 Li     1.617037    4.851111   10.000000    ( 0.0000,  0.0000,  0.0000)
   4 Li     4.851111    4.851111   10.000000    ( 0.0000,  0.0000,  0.0000)
   5 Li     8.085185    4.851111   10.000000    ( 0.0000,  0.0000,  0.0000)
   6 Li     1.617037    8.085185   10.000000    ( 0.0000,  0.0000,  0.0000)
   7 Li     4.851111    8.085185   10.000000    ( 0.0000,  0.0000,  0.0000)
   8 Li     8.085185    8.085185   10.000000    ( 0.0000,  0.0000,  0.0000)
   9 Li     0.000000    0.000000   11.617037    ( 0.0000,  0.0000,  0.0000)
  10 Li     3.234074    0.000000   11.617037    ( 0.0000,  0.0000,  0.0000)
  11 Li     6.468148    0.000000   11.617037    ( 0.0000,  0.0000,  0.0000)
  12 Li     0.000000    3.234074   11.617037    ( 0.0000,  0.0000,  0.0000)
  13 Li     3.234074    3.234074   11.617037    ( 0.0000,  0.0000,  0.0000)
  14 Li     6.468148    3.234074   11.617037    ( 0.0000,  0.0000,  0.0000)
  15 Li     0.000000    6.468148   11.617037    ( 0.0000,  0.0000,  0.0000)
  16 Li     3.234074    6.468148   11.617037    ( 0.0000,  0.0000,  0.0000)
  17 Li     6.468148    6.468148   11.617037    ( 0.0000,  0.0000,  0.0000)
  18 Li     1.809869    1.699215   13.420574    ( 0.0000,  0.0000,  0.0000)
  19 Li     4.893372    1.559387   13.692126    ( 0.0000,  0.0000,  0.0000)
  20 Li     8.106104    1.615531   13.465263    ( 0.0000,  0.0000,  0.0000)
  21 Li     1.518830    4.872850   13.522349    ( 0.0000,  0.0000,  0.0000)
  22 Li     4.848284    4.882160   13.506606    ( 0.0000,  0.0000,  0.0000)
  23 Li     8.043972    4.833890   13.547759    ( 0.0000,  0.0000,  0.0000)
  24 Li     1.771442    8.050074   13.393106    ( 0.0000,  0.0000,  0.0000)
  25 Li     4.908962    8.229882   13.702679    ( 0.0000,  0.0000,  0.0000)
  26 Li     8.115162    8.086337   13.497564    ( 0.0000,  0.0000,  0.0000)
  27 Li     0.337176    0.047848   15.062915    ( 0.0000,  0.0000,  0.0000)
  28 Li     3.252102    0.057541   16.019139    ( 0.0000,  0.0000,  0.0000)
  29 Li     7.496574    0.067803   16.087681    ( 0.0000,  0.0000,  0.0000)
  30 Li    -0.025093    3.112902   15.497686    ( 0.0000,  0.0000,  0.0000)
  31 Li     3.220638    3.454066   15.475118    ( 0.0000,  0.0000,  0.0000)
  32 Li     6.400195    3.256201   15.522451    ( 0.0000,  0.0000,  0.0000)
  33 Li    -0.039932    6.452983   15.466103    ( 0.0000,  0.0000,  0.0000)
  34 Li     3.186607    6.445776   15.492251    ( 0.0000,  0.0000,  0.0000)
  35 Li     6.362811    6.437606   15.515078    ( 0.0000,  0.0000,  0.0000)
  36 B      9.205795    9.773192   18.377700    ( 0.0000,  0.0000,  0.0000)
  37 H      9.902870    9.902582   19.365968    ( 0.0000,  0.0000,  0.0000)
  38 H      8.377444   10.684165   18.210998    ( 0.0000,  0.0000,  0.0000)
  39 H      8.598522    8.692775   18.357892    ( 0.0000,  0.0000,  0.0000)
  40 N     10.011383    9.773494   17.013295    ( 0.0000,  0.0000,  0.0000)
  41 N     11.181943    9.738390   16.709076    ( 0.0000,  0.0000,  0.0000)

Unit cell:
           periodic     x           y           z      points  spacing
  1. axis:    yes    9.702222    0.000000    0.000000    60     0.1617
  2. axis:    yes    0.000000    9.702222    0.000000    60     0.1617
  3. axis:    no     0.000000    0.000000   26.351111   164     0.1607

  Lengths:   9.702222   9.702222  26.351111
  Angles:   90.000000  90.000000  90.000000

Effective grid spacing dv^(1/3) = 0.1614

     iter     time        total  log10-change:
                         energy  eigst   dens
iter:   1 22:36:05  -256.037159  -1.32
iter:   2 22:38:26  -256.036886  -2.06  -2.27
iter:   3 22:40:52  -256.036112c -2.59  -2.30
iter:   4 22:43:15  -256.034003c -2.74  -2.39
Writing to output.gpw (mode='')

iter:   5 22:45:43  -256.032925c -2.68  -2.54
iter:   6 22:48:03  -256.032696c -2.82  -2.74
iter:   7 22:50:35  -256.032611c -3.35  -2.83
iter:   8 22:53:02  -256.032607c -2.87  -2.96
iter:   9 22:55:30  -256.032643c -3.26  -2.99
Writing to output.gpw (mode='')

iter:  10 22:58:03  -256.032555c -3.81  -2.96
iter:  11 23:00:36  -256.032547c -3.85  -3.06
iter:  12 23:03:02  -256.032580c -4.07  -3.22
