
  ___ ___ ___ _ _ _  
 |   |   |_  | | | | 
 | | | | | . | | | | 
 |__ |  _|___|_____|  22.8.0
 |___|_|             

User:   vazumah@r421.ib.bridges2.psc.edu
Date:   Fri Mar 10 18:31:27 2023
Arch:   x86_64
Pid:    88635
CWD:    /jet/home/vazumah/Calcs/LiMEAS/proton_donors/propan_1_ol_z/bridge/8.085_1.617/N2_z
Python: 3.11.0
gpaw:   /jet/home/vazumah/.conda/envs/GPAW_mpich/lib/python3.11/site-packages/gpaw
_gpaw:  /jet/home/vazumah/.conda/envs/GPAW_mpich/lib/python3.11/site-packages/
        _gpaw.cpython-311-x86_64-linux-gnu.so
ase:    /jet/home/vazumah/.conda/envs/GPAW_mpich/lib/python3.11/site-packages/ase (version 3.22.1)
numpy:  /jet/home/vazumah/.conda/envs/GPAW_mpich/lib/python3.11/site-packages/numpy (version 1.24.2)
scipy:  /jet/home/vazumah/.conda/envs/GPAW_mpich/lib/python3.11/site-packages/scipy (version 1.10.1)
libxc:  5.2.3
units:  Angstrom and eV
cores: 128
OpenMP: True
OMP_NUM_THREADS: 1

Input parameters:
  h: 0.16
  kpts: {size: [4, 4, 1]}
  occupations: {name: fermi-dirac,
                width: 0.05}
  poissonsolver: {dipolelayer: xy}
  xc: BEEF-vdW

System changes: positions, numbers, cell, pbc, initial_charges, initial_magmoms 

Initialize ...

species:
  Li:
    name: Lithium
    id: 830b4218f175192f93f959cfc0aad614
    Z: 3.0
    valence: 1
    core: 2
    charge: 0.0
    file: /jet/home/vazumah/datasets/gpaw-setups-0.9.20000/Li.PBE.gz
    compensation charges: {type: gauss,
                           rc: 0.33,
                           lmax: 2}
    cutoffs: {filter: 1.91,
              core: 2.55}
    valence states:
      #              energy  rcut
      - 2s(1.00)    -2.874   1.058
      - 2p(0.00)    -1.090   1.058
      -  s          24.337   1.058
  
    # Using partial waves for Li as LCAO basis

  O:
    name: Oxygen
    id: 32ecd46bf208036f09c70b0ec9a88b78
    Z: 8.0
    valence: 6
    core: 2
    charge: 0.0
    file: /jet/home/vazumah/datasets/gpaw-setups-0.9.20000/O.PBE.gz
    compensation charges: {type: gauss,
                           rc: 0.21,
                           lmax: 2}
    cutoffs: {filter: 1.17,
              core: 0.83}
    valence states:
      #              energy  rcut
      - 2s(2.00)   -23.961   0.688
      - 2p(4.00)    -9.029   0.598
      -  s           3.251   0.688
      -  p          18.182   0.598
      -  d           0.000   0.619
  
    # Using partial waves for O as LCAO basis

  C:
    name: Carbon
    id: 4aa54d4b901d75f77cc0ea3eec22967b
    Z: 6.0
    valence: 4
    core: 2
    charge: 0.0
    file: /jet/home/vazumah/datasets/gpaw-setups-0.9.20000/C.PBE.gz
    compensation charges: {type: gauss,
                           rc: 0.20,
                           lmax: 2}
    cutoffs: {filter: 1.14,
              core: 1.14}
    valence states:
      #              energy  rcut
      - 2s(2.00)   -13.751   0.635
      - 2p(2.00)    -5.284   0.635
      -  s          13.461   0.635
      -  p          21.927   0.635
      -  d           0.000   0.635
  
    # Using partial waves for C as LCAO basis

  H:
    name: Hydrogen
    id: d65de229564ff8ea4db303e23b6d1ecf
    Z: 1.0
    valence: 1
    core: 0
    charge: 0.0
    file: /jet/home/vazumah/datasets/gpaw-setups-0.9.20000/H.PBE.gz
    compensation charges: {type: gauss,
                           rc: 0.15,
                           lmax: 2}
    cutoffs: {filter: 0.85,
              core: 0.53}
    valence states:
      #              energy  rcut
      - 1s(1.00)    -6.494   0.476
      -  s          20.717   0.476
      -  p           0.000   0.476
  
    # Using partial waves for H as LCAO basis

  N:
    name: Nitrogen
    id: f7500608b86eaa90eef8b1d9a670dc53
    Z: 7.0
    valence: 5
    core: 2
    charge: 0.0
    file: /jet/home/vazumah/datasets/gpaw-setups-0.9.20000/N.PBE.gz
    compensation charges: {type: gauss,
                           rc: 0.18,
                           lmax: 2}
    cutoffs: {filter: 1.11,
              core: 0.96}
    valence states:
      #              energy  rcut
      - 2s(2.00)   -18.583   0.603
      - 2p(3.00)    -7.089   0.529
      -  s           8.629   0.603
      -  p          20.123   0.529
      -  d           0.000   0.577
  
    # Using partial waves for N as LCAO basis

Reference energy: -15487.462483  # eV

Spin-paired calculation

Convergence criteria:
 Maximum [total energy] change in last 3 cyles: 0.0005 eV / electron
 Maximum integral of absolute [dens]ity change: 0.0001 electrons / valence electron
 Maximum integral of absolute [eigenst]ate change: 4e-08 eV^2 / valence electron
 Maximum number of scf [iter]ations: 333
 (Square brackets indicate name in SCF output, whereas a 'c' in
 the SCF output indicates the quantity has converged.)

Symmetries present (total): 1

  ( 1  0  0)
  ( 0  1  0)
  ( 0  0  1)

16 k-points: 4 x 4 x 1 Monkhorst-Pack grid
8 k-points in the irreducible part of the Brillouin zone
       k-points in crystal coordinates                weights
   0:     0.12500000   -0.37500000    0.00000000          2/16
   1:     0.12500000   -0.12500000    0.00000000          2/16
   2:     0.12500000    0.12500000    0.00000000          2/16
   3:     0.12500000    0.37500000    0.00000000          2/16
   4:     0.37500000   -0.37500000    0.00000000          2/16
   5:     0.37500000   -0.12500000    0.00000000          2/16
   6:     0.37500000    0.12500000    0.00000000          2/16
   7:     0.37500000    0.37500000    0.00000000          2/16

Wave functions: Uniform real-space grid
  Kinetic energy operator: 6*3+1=19 point O(h^6) finite-difference Laplacian
  ScaLapack parameters: grid=1x1, blocksize=None
  Wavefunction extrapolation:
    Improved wavefunction reuse through dual PAW basis 

Occupation numbers: Fermi-Dirac:
  width: 0.0500  # eV
 

Eigensolver
   Davidson(niter=2) 

Densities:
  Coarse grid: 60*60*168 grid
  Fine grid: 120*120*336 grid
  Total Charge: 0.000000 

Density mixing:
  Method: separate
  Backend: pulay
  Linear mixing parameter: 0.05
  old densities: 5
  Damping of long wavelength oscillations: 50 

Hamiltonian:
  XC and Coulomb potentials evaluated on a 120*120*336 grid
  Using the BEEF-vdW Exchange-Correlation functional
  Interpolation: tri-quintic (5. degree polynomial)
  Poisson solver: FastPoissonSolver using
    Stencil: 6*3+1=19 point O(h^6) finite-difference Laplacian
    FFT axes: [0, 1]
    FST axes: [2]

Dipole correction along z-axis 

XC parameters: BEEF-vdW with 2 nearest neighbor stencil

Memory estimate:
  Process memory now: 131.16 MiB
  Calculator: 86.79 MiB
    Density: 23.03 MiB
      Arrays: 7.40 MiB
      Localized functions: 12.82 MiB
      Mixer: 2.82 MiB
    Hamiltonian: 5.85 MiB
      Arrays: 4.84 MiB
      XC: 0.00 MiB
      Poisson: 0.00 MiB
      vbar: 1.01 MiB
    Wavefunctions: 57.90 MiB
      Arrays psit_nG: 27.03 MiB
      Eigensolver: 30.19 MiB
      Projections: 0.01 MiB
      Projectors: 0.67 MiB

Total number of cores used: 128
Parallelization over k-points: 8
Domain decomposition: 2 x 2 x 4

Number of atoms: 50
Number of atomic orbitals: 176
Number of bands in calculation: 48
Number of valence electrons: 72
Bands to converge: occupied

... initialized

Initializing position-dependent things.

Density initialized from atomic densities
Creating initial wave functions:
  48 bands from LCAO basis set

       .-----------------------.  
      /|                       |  
     / |                       |  
    /  |                       |  
   /   |                       |  
  /    |                       |  
 *     |                       |  
 |     |                       |  
 |     |            H H  H     |  
 |     |              C        |  
 |     |                       |  
 |     |           H HC HH     |  
 |     |              C        |  
 |     |                       |  
 |     |              O H      |  
 |     |              N        |  
 |   Li|     Li      Li        |  
 |     |  Li      Li  N   Li   |  
 | Li  |   Li      Li          |  
 |     |Li      Li      Li     |  
 Li    | Li      Li            |  
 |   LLi     LLi     LLi       |  
 |     |  Li      Li      Li   |  
 | Li  |   Li      Li          |  
 |     |Li      Li      Li     |  
 Li    | Li      Li            |  
 |    Li      Li      Li       |  
 |     |                       |  
 |     |                       |  
 |     |                       |  
 |     |                       |  
 |     |                       |  
 |     |                       |  
 |     .-----------------------.  
 |    /                       /   
 |   /                       /    
 |  /                       /     
 | /                       /      
 |/                       /       
 *-----------------------*        

Positions:
   0 Li     1.617037    1.617037   10.000000    ( 0.0000,  0.0000,  0.0000)
   1 Li     4.851111    1.617037   10.000000    ( 0.0000,  0.0000,  0.0000)
   2 Li     8.085185    1.617037   10.000000    ( 0.0000,  0.0000,  0.0000)
   3 Li     1.617037    4.851111   10.000000    ( 0.0000,  0.0000,  0.0000)
   4 Li     4.851111    4.851111   10.000000    ( 0.0000,  0.0000,  0.0000)
   5 Li     8.085185    4.851111   10.000000    ( 0.0000,  0.0000,  0.0000)
   6 Li     1.617037    8.085185   10.000000    ( 0.0000,  0.0000,  0.0000)
   7 Li     4.851111    8.085185   10.000000    ( 0.0000,  0.0000,  0.0000)
   8 Li     8.085185    8.085185   10.000000    ( 0.0000,  0.0000,  0.0000)
   9 Li     0.000000    0.000000   11.617037    ( 0.0000,  0.0000,  0.0000)
  10 Li     3.234074    0.000000   11.617037    ( 0.0000,  0.0000,  0.0000)
  11 Li     6.468148    0.000000   11.617037    ( 0.0000,  0.0000,  0.0000)
  12 Li     0.000000    3.234074   11.617037    ( 0.0000,  0.0000,  0.0000)
  13 Li     3.234074    3.234074   11.617037    ( 0.0000,  0.0000,  0.0000)
  14 Li     6.468148    3.234074   11.617037    ( 0.0000,  0.0000,  0.0000)
  15 Li     0.000000    6.468148   11.617037    ( 0.0000,  0.0000,  0.0000)
  16 Li     3.234074    6.468148   11.617037    ( 0.0000,  0.0000,  0.0000)
  17 Li     6.468148    6.468148   11.617037    ( 0.0000,  0.0000,  0.0000)
  18 Li     1.617038    1.617038   13.469728    ( 0.0000,  0.0000,  0.0000)
  19 Li     4.851111    1.617038   13.469729    ( 0.0000,  0.0000,  0.0000)
  20 Li     8.085184    1.617038   13.469728    ( 0.0000,  0.0000,  0.0000)
  21 Li     1.617038    4.851111   13.469729    ( 0.0000,  0.0000,  0.0000)
  22 Li     4.851111    4.851111   13.469730    ( 0.0000,  0.0000,  0.0000)
  23 Li     8.085184    4.851111   13.469729    ( 0.0000,  0.0000,  0.0000)
  24 Li     1.617038    8.085184   13.469728    ( 0.0000,  0.0000,  0.0000)
  25 Li     4.851111    8.085184   13.469729    ( 0.0000,  0.0000,  0.0000)
  26 Li     8.085184    8.085184   13.469728    ( 0.0000,  0.0000,  0.0000)
  27 Li    -0.000000   -0.000000   15.445939    ( 0.0000,  0.0000,  0.0000)
  28 Li     3.234074    0.000000   15.445939    ( 0.0000,  0.0000,  0.0000)
  29 Li     6.468148    0.000000   15.445939    ( 0.0000,  0.0000,  0.0000)
  30 Li     0.000000    3.234074   15.445939    ( 0.0000,  0.0000,  0.0000)
  31 Li     3.234076    3.234076   15.445938    ( 0.0000,  0.0000,  0.0000)
  32 Li     6.468146    3.234076   15.445938    ( 0.0000,  0.0000,  0.0000)
  33 Li     0.000000    6.468148   15.445939    ( 0.0000,  0.0000,  0.0000)
  34 Li     3.234076    6.468146   15.445938    ( 0.0000,  0.0000,  0.0000)
  35 Li     6.468146    6.468146   15.445938    ( 0.0000,  0.0000,  0.0000)
  36 O      8.085185    1.617037   19.645939    ( 0.0000,  0.0000,  0.0000)
  37 C      8.085315    1.229416   22.080188    ( 0.0000,  0.0000,  0.0000)
  38 C      8.095868    2.239826   20.937999    ( 0.0000,  0.0000,  0.0000)
  39 C      8.078954    1.891829   23.460523    ( 0.0000,  0.0000,  0.0000)
  40 H      7.208014    0.586566   21.961575    ( 0.0000,  0.0000,  0.0000)
  41 H      8.970994    0.587658   21.986274    ( 0.0000,  0.0000,  0.0000)
  42 H      7.195976    2.859769   20.961807    ( 0.0000,  0.0000,  0.0000)
  43 H      8.963642    2.906729   21.031582    ( 0.0000,  0.0000,  0.0000)
  44 H      7.193275    2.517909   23.594060    ( 0.0000,  0.0000,  0.0000)
  45 H      8.078148    1.147054   24.257805    ( 0.0000,  0.0000,  0.0000)
  46 H      8.957215    2.527345   23.602072    ( 0.0000,  0.0000,  0.0000)
  47 H      8.856497    1.039479   19.597178    ( 0.0000,  0.0000,  0.0000)
  48 N      8.085000    1.617000   17.195939    ( 0.0000,  0.0000,  0.0000)
  49 N      8.085000    1.617000   18.292561    ( 0.0000,  0.0000,  0.0000)

Unit cell:
           periodic     x           y           z      points  spacing
  1. axis:    yes    9.702222    0.000000    0.000000    60     0.1617
  2. axis:    yes    0.000000    9.702222    0.000000    60     0.1617
  3. axis:    no     0.000000    0.000000   26.601111   168     0.1583

  Lengths:   9.702222   9.702222  26.601111
  Angles:   90.000000  90.000000  90.000000

Effective grid spacing dv^(1/3) = 0.1606

     iter     time        total  log10-change:
                         energy  eigst   dens
iter:   1 18:31:42  -783.541608
iter:   2 18:31:50   156.530634  +2.70  +0.06
iter:   3 18:31:57   499.312708  +3.39  -0.07
iter:   4 18:32:04   -44.845506  +3.71  -0.10
Writing to output.gpw (mode='')

iter:   5 18:32:12  -314.100521  +3.20  -0.11
iter:   6 18:32:19  -247.726466  +2.75  -0.21
iter:   7 18:32:27  -306.358979  +2.45  -0.50
iter:   8 18:32:34  -449.652748  +2.57  -0.48
iter:   9 18:32:42  -669.936735  +2.86  -0.28
Writing to output.gpw (mode='')

iter:  10 18:32:49  -428.706350  +1.99  -0.14
iter:  11 18:32:57  -318.491166  +2.43  -0.26
iter:  12 18:33:04  -342.598475  +1.89  -0.72
iter:  13 18:33:12  -332.133826  +1.29  -0.63
iter:  14 18:33:19  -803.383903  +2.68  -0.73
Writing to output.gpw (mode='')

iter:  15 18:33:27  -660.549083  +1.95  -0.06
iter:  16 18:33:34  -560.587770  +1.27  -0.10
iter:  17 18:33:42  -305.683636  +2.10  -0.11
iter:  18 18:33:49  -331.283611  +1.74  -0.22
iter:  19 18:33:57  -465.885575  +1.83  -0.22
Writing to output.gpw (mode='')

iter:  20 18:34:04  -363.860618  +1.94  -0.17
iter:  21 18:34:12  -242.295828  +2.66  -0.18
iter:  22 18:34:19  -250.548951  +2.75  -0.33
iter:  23 18:34:27  -293.172434  +2.59  -0.49
iter:  24 18:34:34  -319.971992  +2.18  -0.73
Writing to output.gpw (mode='')

iter:  25 18:34:46  -338.307862  +1.99  -0.80
iter:  26 18:34:54  -344.809538  +1.69  -0.78
iter:  27 18:35:01  -351.115487  +1.57  -0.71
iter:  28 18:35:09  -341.051796  +1.26  -0.64
iter:  29 18:35:16  -349.622696  +1.38  -0.63
Writing to output.gpw (mode='')

iter:  30 18:35:24  -400.129694  +2.05  -0.56
iter:  31 18:35:31  -397.955427  +1.81  -0.40
iter:  32 18:35:39  -327.932554  +0.86  -0.36
iter:  33 18:35:46  -351.539273  +0.58  -0.68
iter:  34 18:35:54  -369.726999  +1.23  -0.44
Writing to output.gpw (mode='')

iter:  35 18:36:01  -434.005377  +2.24  -0.37
iter:  36 18:36:11  -337.773150  +0.86  -0.22
iter:  37 18:36:19  -328.160295  +1.90  -0.49
iter:  38 18:36:27  -327.109657  +1.13  -0.81
iter:  39 18:36:34  -361.420267  +2.08  -0.81
Writing to output.gpw (mode='')

iter:  40 18:36:42  -331.526757  +0.86  -0.51
iter:  41 18:36:49  -335.433588  +0.89  -0.73
iter:  42 18:36:57  -329.562646  +0.10  -0.60
iter:  43 18:37:04  -327.086466  +0.42  -0.69
iter:  44 18:37:11  -328.878809  +0.01  -0.87
Writing to output.gpw (mode='')

iter:  45 18:37:19  -329.568882  +0.52  -0.78
iter:  46 18:37:26  -325.443282  +0.29  -0.77
iter:  47 18:37:34  -324.874329  -0.44  -1.09
iter:  48 18:37:41  -324.527928  +0.07  -1.18
iter:  49 18:37:49  -324.287065  -0.50  -1.31
Writing to output.gpw (mode='')

iter:  50 18:37:56  -324.348424  -0.40  -1.48
iter:  51 18:38:04  -324.492370  -0.27  -1.44
iter:  52 18:38:11  -324.265746  -0.86  -1.38
iter:  53 18:38:19  -324.256428  -0.73  -1.62
iter:  54 18:38:26  -324.255057c -0.98  -1.77
Writing to output.gpw (mode='')

iter:  55 18:38:34  -324.253324c -1.29  -1.82
iter:  56 18:38:41  -324.270268c -1.22  -1.94
iter:  57 18:38:49  -324.263603c -1.89  -1.97
iter:  58 18:38:56  -324.263585c -1.95  -2.10
iter:  59 18:39:04  -324.265543c -2.27  -2.17
Writing to output.gpw (mode='')

iter:  60 18:39:11  -324.268035c -1.92  -2.21
iter:  61 18:39:19  -324.268565c -2.17  -2.36
iter:  62 18:39:26  -324.268375c -2.23  -2.41
iter:  63 18:39:34  -324.268835c -2.30  -2.58
iter:  64 18:39:48  -324.269211c -2.56  -2.70
Writing to output.gpw (mode='')

iter:  65 18:39:55  -324.269621c -2.65  -2.74
iter:  66 18:40:03  -324.269903c -2.77  -2.88
iter:  67 18:40:10  -324.270220c -2.76  -2.96
iter:  68 18:40:18  -324.270314c -3.18  -3.01
iter:  69 18:40:25  -324.270463c -3.17  -3.04
Writing to output.gpw (mode='')

iter:  70 18:40:33  -324.270493c -3.44  -3.18
iter:  71 18:40:40  -324.270538c -3.59  -3.40
iter:  72 18:40:48  -324.270580c -3.68  -3.45
iter:  73 18:40:55  -324.270612c -3.77  -3.48
iter:  74 18:41:02  -324.270673c -3.92  -3.52
Writing to output.gpw (mode='')

iter:  75 18:41:10  -324.270699c -4.05  -3.65
iter:  76 18:41:18  -324.270713c -4.05  -3.71
iter:  77 18:41:25  -324.270728c -4.19  -3.81
iter:  78 18:41:32  -324.270741c -4.13  -3.91
iter:  79 18:41:40  -324.270758c -4.14  -3.97
Writing to output.gpw (mode='')

iter:  80 18:41:47  -324.270772c -4.35  -4.06c
iter:  81 18:41:55  -324.270786c -4.46  -4.10c
iter:  82 18:42:02  -324.270788c -4.54  -4.18c
iter:  83 18:42:10  -324.270794c -4.55  -4.25c
iter:  84 18:42:17  -324.270800c -4.71  -4.38c
Writing to output.gpw (mode='')

iter:  85 18:42:24  -324.270803c -4.69  -4.47c
iter:  86 18:42:32  -324.270806c -4.83  -4.52c
iter:  87 18:42:39  -324.270810c -4.94  -4.56c
iter:  88 18:42:47  -324.270813c -4.92  -4.61c
iter:  89 18:42:54  -324.270814c -4.99  -4.74c
Writing to output.gpw (mode='')

iter:  90 18:43:02  -324.270816c -4.98  -4.80c
iter:  91 18:43:09  -324.270818c -5.16  -4.87c
iter:  92 18:43:18  -324.270818c -5.36  -4.83c
iter:  93 18:43:28  -324.270820c -5.35  -4.73c
iter:  94 18:43:41  -324.270821c -5.41  -4.83c
Writing to output.gpw (mode='')

iter:  95 18:43:49  -324.270822c -5.45  -4.85c
iter:  96 18:43:56  -324.270822c -5.48  -4.89c
iter:  97 18:44:03  -324.270823c -5.63  -4.84c
iter:  98 18:44:11  -324.270823c -5.72  -4.96c
iter:  99 18:44:18  -324.270823c -5.77  -5.00c
Writing to output.gpw (mode='')

iter: 100 18:44:26  -324.270823c -5.78  -5.05c
iter: 101 18:44:33  -324.270824c -5.61  -5.10c
iter: 102 18:44:46  -324.270824c -5.92  -5.15c
iter: 103 18:44:54  -324.270824c -6.00  -5.18c
iter: 104 18:45:01  -324.270824c -6.04  -5.34c
Writing to output.gpw (mode='')

iter: 105 18:45:08  -324.270824c -6.17  -5.37c
iter: 106 18:45:16  -324.270825c -6.18  -5.39c
iter: 107 18:45:23  -324.270824c -6.27  -5.41c
iter: 108 18:45:31  -324.270824c -6.31  -5.57c
iter: 109 18:45:38  -324.270824c -6.40  -5.78c
Writing to output.gpw (mode='')

iter: 110 18:45:45  -324.270824c -6.44  -5.83c
iter: 111 18:45:53  -324.270824c -6.40  -5.91c
iter: 112 18:46:00  -324.270824c -6.50  -6.09c
iter: 113 18:46:07  -324.270824c -6.43  -6.09c
iter: 114 18:46:15  -324.270824c -6.56  -6.06c
Writing to output.gpw (mode='')

iter: 115 18:46:22  -324.270824c -6.68  -5.99c
iter: 116 18:46:30  -324.270824c -6.71  -5.86c
iter: 117 18:46:37  -324.270824c -6.74  -5.94c
iter: 118 18:46:44  -324.270824c -6.91  -5.94c
iter: 119 18:46:52  -324.270824c -6.91  -5.83c
Writing to output.gpw (mode='')

iter: 120 18:46:59  -324.270824c -6.99  -5.80c
iter: 121 18:47:06  -324.270824c -7.02  -5.76c
iter: 122 18:47:14  -324.270824c -7.04  -5.69c
iter: 123 18:47:21  -324.270825c -7.06  -5.70c
iter: 124 18:47:28  -324.270824c -7.02  -5.70c
Writing to output.gpw (mode='')

iter: 125 18:47:36  -324.270825c -7.24  -5.69c
iter: 126 18:47:43  -324.270825c -7.31  -6.05c
iter: 127 18:47:51  -324.270825c -7.36  -6.15c
iter: 128 18:47:58  -324.270825c -7.39  -6.19c
iter: 129 18:48:05  -324.270825c -7.51c -6.36c

Converged after 129 iterations.

Dipole moment: (0.705145, -5.869666, 0.528089) |e|*Ang

Energy contributions relative to reference atoms: (reference = -15487.462483)

Kinetic:       +205.651461
Potential:     -188.796331
External:        +0.000000
XC:            -341.771226
Entropy (-ST):   -0.151809
Local:           +0.721176
--------------------------
Free energy:   -324.346729
Extrapolated:  -324.270825

Dipole-layer corrected work functions: 3.380894, 2.365726 eV

Showing only first 2 kpts
 Kpt  Band  Eigenvalues  Occupancy
  0    34     -3.11253    1.98342
  0    35     -3.00381    1.86300
  0    36     -2.70988    0.07333
  0    37     -2.64763    0.02168

  1    34     -2.92083    1.44240
  1    35     -2.87564    1.02327
  1    36     -2.86311    0.89836
  1    37     -2.77316    0.23779


Fermi level: -2.87331

No gap
Writing to output.gpw (mode='')


Forces in eV/Ang:
  0 Li    0.02781    0.00089   -0.27126
  1 Li   -0.02780    0.00160   -0.27052
  2 Li    0.00069   -0.00240   -0.27807
  3 Li    0.00134   -0.00283   -0.27459
  4 Li   -0.00006   -0.00141   -0.27789
  5 Li   -0.00132    0.02844   -0.27150
  6 Li   -0.00250    0.00111   -0.27823
  7 Li    0.00350   -0.00053   -0.27519
  8 Li   -0.00067   -0.02761   -0.27071
  9 Li    0.00415   -0.00439    0.28754
 10 Li   -0.00338    0.01125    0.25356
 11 Li   -0.00202   -0.00199    0.28904
 12 Li   -0.00208   -0.00096    0.29533
 13 Li   -0.00028   -0.00411    0.24481
 14 Li    0.00270   -0.00229    0.29591
 15 Li   -0.00836    0.00715    0.25136
 16 Li    0.00232   -0.00534    0.26527
 17 Li    0.00544    0.00426    0.24680
 18 Li   -0.00524    0.00468    0.04693
 19 Li    0.00110    0.00229    0.03985
 20 Li    0.00048   -0.00359   -0.15403
 21 Li   -0.01631   -0.00921    0.04876
 22 Li    0.01498   -0.01239    0.04737
 23 Li   -0.00020    0.00568    0.03052
 24 Li   -0.00174    0.00481    0.03503
 25 Li    0.00473    0.01257    0.04456
 26 Li   -0.00229    0.00720    0.05100
 27 Li    0.06612   -0.06760   -0.02753
 28 Li   -0.00361    0.02473   -0.01333
 29 Li   -0.04815   -0.04856   -0.01574
 30 Li    0.01865    0.03295    0.00187
 31 Li   -0.00440   -0.02073   -0.01813
 32 Li   -0.01108    0.02506    0.01617
 33 Li   -0.02060    0.00626   -0.01618
 34 Li    0.00135   -0.00501   -0.01946
 35 Li    0.01959    0.00696   -0.01910
 36 O    -0.03048    0.69765   14.86575
 37 C    -0.00679    0.23068    0.11106
 38 C    -0.32172    2.49759    5.81599
 39 C    -0.02689   -0.04410    0.15934
 40 H     0.00478   -0.06773    0.06097
 41 H    -0.03803   -0.02752    0.05055
 42 H     0.00216   -0.01599    0.02253
 43 H    -0.05689   -0.06659   -0.12098
 44 H    -0.00185   -0.00920   -0.03881
 45 H     0.00890   -0.05109    0.03510
 46 H    -0.00200   -0.03059   -0.04723
 47 H     0.40069   -0.62606    0.67912
 48 N    -1.25055    3.32613   -7.36880
 49 N     1.32099   -5.82996  -14.27725

System changes: positions 

Initializing position-dependent things.

Density initialized from wave functions
       .-----------------------.  
      /|                       |  
     / |                       |  
    /  |                       |  
   /   |                       |  
  /    |                       |  
 *     |                       |  
 |     |                       |  
 |     |            H H  H     |  
 |     |              C        |  
 |     |                       |  
 |     |           H HC HH     |  
 |     |              C        |  
 |     |                       |  
 |     Li             OLH      |  
 |     |              N        |  
 |     |     Li      Li      Li|  
 |     |  Li      Li  N   Li   |  
 | Li  |   Li      Li          |  
 |     |Li      Li      Li     |  
 |     | Li                    |  
 |   LLi     LLi     LLi       |  
 |     |  Li      Li      Li   |  
 | Li  |   Li      Li          |  
 |     |Li      Li      Li     |  
 Li    | Li      Li            |  
 |    Li      Li      Li       |  
 |     |                       |  
 |     |                       |  
 |     |                       |  
 |     |                       |  
 |     |                       |  
 |     |                       |  
 |     .-----------------------.  
 |    /                       /   
 |   /                       /    
 |  /                       /     
 | /                       /      
 |/                       /       
 *-----------------------*        

Positions:
   0 Li     1.617037    1.617037   10.000000    ( 0.0000,  0.0000,  0.0000)
   1 Li     4.851111    1.617037   10.000000    ( 0.0000,  0.0000,  0.0000)
   2 Li     8.085185    1.617037   10.000000    ( 0.0000,  0.0000,  0.0000)
   3 Li     1.617037    4.851111   10.000000    ( 0.0000,  0.0000,  0.0000)
   4 Li     4.851111    4.851111   10.000000    ( 0.0000,  0.0000,  0.0000)
   5 Li     8.085185    4.851111   10.000000    ( 0.0000,  0.0000,  0.0000)
   6 Li     1.617037    8.085185   10.000000    ( 0.0000,  0.0000,  0.0000)
   7 Li     4.851111    8.085185   10.000000    ( 0.0000,  0.0000,  0.0000)
   8 Li     8.085185    8.085185   10.000000    ( 0.0000,  0.0000,  0.0000)
   9 Li     0.000000    0.000000   11.617037    ( 0.0000,  0.0000,  0.0000)
  10 Li     3.234074    0.000000   11.617037    ( 0.0000,  0.0000,  0.0000)
  11 Li     6.468148    0.000000   11.617037    ( 0.0000,  0.0000,  0.0000)
  12 Li     0.000000    3.234074   11.617037    ( 0.0000,  0.0000,  0.0000)
  13 Li     3.234074    3.234074   11.617037    ( 0.0000,  0.0000,  0.0000)
  14 Li     6.468148    3.234074   11.617037    ( 0.0000,  0.0000,  0.0000)
  15 Li     0.000000    6.468148   11.617037    ( 0.0000,  0.0000,  0.0000)
  16 Li     3.234074    6.468148   11.617037    ( 0.0000,  0.0000,  0.0000)
  17 Li     6.468148    6.468148   11.617037    ( 0.0000,  0.0000,  0.0000)
  18 Li     1.617025    1.617050   13.469849    ( 0.0000,  0.0000,  0.0000)
  19 Li     4.851114    1.617044   13.469832    ( 0.0000,  0.0000,  0.0000)
  20 Li     8.085185    1.617029   13.469330    ( 0.0000,  0.0000,  0.0000)
  21 Li     1.616996    4.851087   13.469855    ( 0.0000,  0.0000,  0.0000)
  22 Li     4.851150    4.851079   13.469853    ( 0.0000,  0.0000,  0.0000)
  23 Li     8.085183    4.851126   13.469808    ( 0.0000,  0.0000,  0.0000)
  24 Li     1.617034    8.085196   13.469818    ( 0.0000,  0.0000,  0.0000)
  25 Li     4.851123    8.085216   13.469845    ( 0.0000,  0.0000,  0.0000)
  26 Li     8.085178    8.085202   13.469860    ( 0.0000,  0.0000,  0.0000)
  27 Li     0.000171   -0.000175   15.445868    ( 0.0000,  0.0000,  0.0000)
  28 Li     3.234064    0.000064   15.445904    ( 0.0000,  0.0000,  0.0000)
  29 Li     6.468024   -0.000126   15.445898    ( 0.0000,  0.0000,  0.0000)
  30 Li     0.000048    3.234159   15.445944    ( 0.0000,  0.0000,  0.0000)
  31 Li     3.234065    3.234023   15.445891    ( 0.0000,  0.0000,  0.0000)
  32 Li     6.468117    3.234141   15.445980    ( 0.0000,  0.0000,  0.0000)
  33 Li    -0.000053    6.468164   15.445897    ( 0.0000,  0.0000,  0.0000)
  34 Li     3.234080    6.468133   15.445888    ( 0.0000,  0.0000,  0.0000)
  35 Li     6.468196    6.468164   15.445889    ( 0.0000,  0.0000,  0.0000)
  36 O      8.085106    1.618840   19.684357    ( 0.0000,  0.0000,  0.0000)
  37 C      8.085297    1.230012   22.080475    ( 0.0000,  0.0000,  0.0000)
  38 C      8.095036    2.246280   20.953030    ( 0.0000,  0.0000,  0.0000)
  39 C      8.078884    1.891715   23.460935    ( 0.0000,  0.0000,  0.0000)
  40 H      7.208026    0.586391   21.961733    ( 0.0000,  0.0000,  0.0000)
  41 H      8.970896    0.587587   21.986405    ( 0.0000,  0.0000,  0.0000)
  42 H      7.195982    2.859728   20.961865    ( 0.0000,  0.0000,  0.0000)
  43 H      8.963495    2.906557   21.031269    ( 0.0000,  0.0000,  0.0000)
  44 H      7.193271    2.517885   23.593960    ( 0.0000,  0.0000,  0.0000)
  45 H      8.078171    1.146922   24.257895    ( 0.0000,  0.0000,  0.0000)
  46 H      8.957210    2.527266   23.601950    ( 0.0000,  0.0000,  0.0000)
  47 H      8.857532    1.037861   19.598933    ( 0.0000,  0.0000,  0.0000)
  48 N      8.081768    1.625596   17.176896    ( 0.0000,  0.0000,  0.0000)
  49 N      8.088414    1.601934   18.255665    ( 0.0000,  0.0000,  0.0000)

Unit cell:
           periodic     x           y           z      points  spacing
  1. axis:    yes    9.702222    0.000000    0.000000    60     0.1617
  2. axis:    yes    0.000000    9.702222    0.000000    60     0.1617
  3. axis:    no     0.000000    0.000000   26.601111   168     0.1583

  Lengths:   9.702222   9.702222  26.601111
  Angles:   90.000000  90.000000  90.000000

Effective grid spacing dv^(1/3) = 0.1606

     iter     time        total  log10-change:
                         energy  eigst   dens
iter:   1 18:48:14  -325.927988  -0.48
iter:   2 18:48:22  -325.833261  -0.67  -1.52
iter:   3 18:48:29  -325.798781  -1.18  -1.66
iter:   4 18:48:37  -325.756569  -0.94  -1.94
Writing to output.gpw (mode='')

iter:   5 18:48:44  -325.757074  -1.74  -2.12
iter:   6 18:48:52  -325.754073c -1.63  -2.16
iter:   7 18:48:59  -325.747033c -1.45  -2.10
iter:   8 18:49:07  -325.743581c -2.06  -2.34
iter:   9 18:49:14  -325.743932c -2.50  -2.58
Writing to output.gpw (mode='')

iter:  10 18:49:21  -325.743788c -2.61  -2.63
iter:  11 18:49:29  -325.743853c -2.89  -2.79
iter:  12 18:49:42  -325.743818c -3.21  -2.88
iter:  13 18:49:51  -325.743801c -3.59  -2.97
iter:  14 18:49:59  -325.743758c -3.38  -3.04
Writing to output.gpw (mode='')

iter:  15 18:50:06  -325.743807c -3.74  -3.28
iter:  16 18:50:14  -325.743810c -3.97  -3.36
iter:  17 18:50:21  -325.743814c -4.01  -3.44
iter:  18 18:50:29  -325.743823c -4.30  -3.62
iter:  19 18:50:36  -325.743833c -4.39  -3.69
Writing to output.gpw (mode='')

iter:  20 18:50:44  -325.743838c -4.51  -3.73
iter:  21 18:50:51  -325.743843c -4.58  -3.78
iter:  22 18:50:58  -325.743849c -4.74  -3.89
iter:  23 18:51:06  -325.743851c -5.12  -4.13c
iter:  24 18:51:13  -325.743851c -5.07  -4.17c
Writing to output.gpw (mode='')

iter:  25 18:51:21  -325.743853c -5.22  -4.26c
iter:  26 18:51:28  -325.743853c -5.40  -4.38c
iter:  27 18:51:36  -325.743854c -5.26  -4.41c
iter:  28 18:51:43  -325.743855c -5.62  -4.29c
iter:  29 18:51:51  -325.743856c -5.52  -4.39c
Writing to output.gpw (mode='')

iter:  30 18:51:58  -325.743856c -5.67  -4.44c
iter:  31 18:52:08  -325.743857c -5.78  -4.44c
iter:  32 18:52:16  -325.743858c -5.97  -4.43c
iter:  33 18:52:23  -325.743858c -5.99  -4.45c
iter:  34 18:52:31  -325.743859c -5.91  -4.47c
Writing to output.gpw (mode='')

iter:  35 18:52:38  -325.743859c -6.18  -4.52c
iter:  36 18:52:46  -325.743859c -6.36  -4.78c
iter:  37 18:52:53  -325.743860c -6.43  -4.84c
iter:  38 18:53:01  -325.743860c -6.31  -5.00c
iter:  39 18:53:08  -325.743860c -6.50  -5.12c
Writing to output.gpw (mode='')

iter:  40 18:53:16  -325.743860c -6.68  -5.24c
iter:  41 18:53:23  -325.743860c -6.68  -5.26c
iter:  42 18:53:31  -325.743860c -6.87  -5.33c
iter:  43 18:53:38  -325.743860c -6.95  -5.49c
iter:  44 18:53:46  -325.743860c -6.64  -5.43c
Writing to output.gpw (mode='')

iter:  45 18:53:53  -325.743860c -7.02  -5.37c
iter:  46 18:54:01  -325.743860c -7.11  -5.31c
iter:  47 18:54:08  -325.743860c -7.31  -5.32c
iter:  48 18:54:15  -325.743860c -7.27  -5.25c
iter:  49 18:54:23  -325.743860c -7.41c -5.26c

Converged after 49 iterations.

Dipole moment: (0.610376, -5.798923, 0.525103) |e|*Ang

Energy contributions relative to reference atoms: (reference = -15487.462483)

Kinetic:       +208.373651
Potential:     -192.014393
External:        +0.000000
XC:            -342.752524
Entropy (-ST):   -0.147423
Local:           +0.723118
--------------------------
Free energy:   -325.817572
Extrapolated:  -325.743860

Dipole-layer corrected work functions: 3.378758, 2.369331 eV

Showing only first 2 kpts
 Kpt  Band  Eigenvalues  Occupancy
  0    34     -3.12279    1.98628
  0    35     -3.01593    1.88935
  0    36     -2.70410    0.06466
  0    37     -2.63281    0.01593

  1    34     -2.91780    1.41163
  1    35     -2.87521    1.01165
  1    36     -2.86451    0.90496
  1    37     -2.77200    0.22994


Fermi level: -2.87404

No gap
Writing to output.gpw (mode='')


Forces in eV/Ang:
  0 Li    0.02765    0.00017   -0.27067
  1 Li   -0.02769    0.00087   -0.27077
  2 Li    0.00057   -0.00166   -0.27644
  3 Li   -0.00139   -0.00301   -0.27448
  4 Li    0.00219   -0.00223   -0.27579
  5 Li   -0.00101    0.02823   -0.27159
  6 Li   -0.00314    0.00280   -0.27650
  7 Li    0.00354    0.00165   -0.27508
  8 Li   -0.00036   -0.02783   -0.27059
  9 Li    0.00287   -0.00254    0.28600
 10 Li   -0.00229    0.01035    0.25051
 11 Li   -0.00143   -0.00114    0.28805
 12 Li   -0.00202   -0.00085    0.29300
 13 Li   -0.00076   -0.00551    0.24499
 14 Li    0.00258   -0.00161    0.29364
 15 Li   -0.00807    0.00497    0.24879
 16 Li    0.00162   -0.00455    0.27198
 17 Li    0.00643    0.00354    0.24539
 18 Li   -0.00775    0.00307    0.05138
 19 Li    0.00391    0.00172    0.04417
 20 Li    0.00118   -0.00507   -0.16877
 21 Li   -0.01551   -0.01107    0.04820
 22 Li    0.01557   -0.01350    0.04914
 23 Li   -0.00037    0.00222    0.03832
 24 Li   -0.00559    0.00767    0.04045
 25 Li    0.00753    0.01210    0.04469
 26 Li   -0.00156    0.00937    0.05250
 27 Li    0.08349   -0.08335   -0.06127
 28 Li   -0.00404    0.02745   -0.01481
 29 Li   -0.06802   -0.06828   -0.04405
 30 Li    0.04554    0.05294   -0.03222
 31 Li   -0.00326   -0.02521   -0.01752
 32 Li   -0.03592    0.04432   -0.02032
 33 Li   -0.02444    0.00328   -0.01683
 34 Li    0.00017   -0.00228   -0.01783
 35 Li    0.02427    0.00244   -0.01909
 36 O    -0.07466    1.30489   15.46870
 37 C    -0.02671    0.28477    0.48494
 38 C    -0.07927    1.26349    4.34990
 39 C    -0.01700   -0.12095    0.18642
 40 H     0.01144   -0.03255    0.02927
 41 H    -0.03096    0.00330    0.01479
 42 H    -0.12286    0.09084    0.10157
 43 H     0.06103    0.07634    0.02139
 44 H    -0.00738   -0.00669   -0.03064
 45 H     0.00722   -0.02398    0.04136
 46 H     0.00099   -0.02721   -0.03844
 47 H     0.06160   -0.21672    0.64814
 48 N    -1.17919    3.06693   -8.30544
 49 N     1.39677   -5.64150  -12.86650

System changes: positions 

Initializing position-dependent things.

Density initialized from wave functions
       .-----------------------.  
      /|                       |  
     / |                       |  
    /  |                       |  
   /   |                       |  
  /    |                       |  
 *     |                       |  
 |     |                       |  
 |     |            H H  H     |  
 |     |              C        |  
 |     |                       |  
 |     |           H HC HH     |  
 |     |              C        |  
 |     |                       |  
 |     Li             OLH      |  
 |     |              N        |  
 |     |     Li      Li      Li|  
 |     |  Li      Li  N   Li   |  
 | Li  |   Li      Li          |  
 |     |Li      Li      Li     |  
 |     | Li                    |  
 |   LLi     LLi     LLi       |  
 |     |  Li      Li      Li   |  
 | Li  |   Li      Li          |  
 |     |Li      Li      Li     |  
 Li    | Li      Li            |  
 |    Li      Li      Li       |  
 |     |                       |  
 |     |                       |  
 |     |                       |  
 |     |                       |  
 |     |                       |  
 |     |                       |  
 |     .-----------------------.  
 |    /                       /   
 |   /                       /    
 |  /                       /     
 | /                       /      
 |/                       /       
 *-----------------------*        

Positions:
   0 Li     1.617037    1.617037   10.000000    ( 0.0000,  0.0000,  0.0000)
   1 Li     4.851111    1.617037   10.000000    ( 0.0000,  0.0000,  0.0000)
   2 Li     8.085185    1.617037   10.000000    ( 0.0000,  0.0000,  0.0000)
   3 Li     1.617037    4.851111   10.000000    ( 0.0000,  0.0000,  0.0000)
   4 Li     4.851111    4.851111   10.000000    ( 0.0000,  0.0000,  0.0000)
   5 Li     8.085185    4.851111   10.000000    ( 0.0000,  0.0000,  0.0000)
   6 Li     1.617037    8.085185   10.000000    ( 0.0000,  0.0000,  0.0000)
   7 Li     4.851111    8.085185   10.000000    ( 0.0000,  0.0000,  0.0000)
   8 Li     8.085185    8.085185   10.000000    ( 0.0000,  0.0000,  0.0000)
   9 Li     0.000000    0.000000   11.617037    ( 0.0000,  0.0000,  0.0000)
  10 Li     3.234074    0.000000   11.617037    ( 0.0000,  0.0000,  0.0000)
  11 Li     6.468148    0.000000   11.617037    ( 0.0000,  0.0000,  0.0000)
  12 Li     0.000000    3.234074   11.617037    ( 0.0000,  0.0000,  0.0000)
  13 Li     3.234074    3.234074   11.617037    ( 0.0000,  0.0000,  0.0000)
  14 Li     6.468148    3.234074   11.617037    ( 0.0000,  0.0000,  0.0000)
  15 Li     0.000000    6.468148   11.617037    ( 0.0000,  0.0000,  0.0000)
  16 Li     3.234074    6.468148   11.617037    ( 0.0000,  0.0000,  0.0000)
  17 Li     6.468148    6.468148   11.617037    ( 0.0000,  0.0000,  0.0000)
  18 Li     1.617001    1.617055   13.469985    ( 0.0000,  0.0000,  0.0000)
  19 Li     4.851128    1.617048   13.469950    ( 0.0000,  0.0000,  0.0000)
  20 Li     8.085189    1.617014   13.468883    ( 0.0000,  0.0000,  0.0000)
  21 Li     1.616959    4.851057   13.469976    ( 0.0000,  0.0000,  0.0000)
  22 Li     4.851190    4.851043   13.469979    ( 0.0000,  0.0000,  0.0000)
  23 Li     8.085182    4.851126   13.469916    ( 0.0000,  0.0000,  0.0000)
  24 Li     1.617014    8.085220   13.469928    ( 0.0000,  0.0000,  0.0000)
  25 Li     4.851146    8.085246   13.469957    ( 0.0000,  0.0000,  0.0000)
  26 Li     8.085175    8.085229   13.469994    ( 0.0000,  0.0000,  0.0000)
  27 Li     0.000407   -0.000408   15.445663    ( 0.0000,  0.0000,  0.0000)
  28 Li     3.234054    0.000137   15.445865    ( 0.0000,  0.0000,  0.0000)
  29 Li     6.467823   -0.000327   15.445744    ( 0.0000,  0.0000,  0.0000)
  30 Li     0.000204    3.234322   15.445811    ( 0.0000,  0.0000,  0.0000)
  31 Li     3.234059    3.233953   15.445848    ( 0.0000,  0.0000,  0.0000)
  32 Li     6.467989    3.234282   15.445873    ( 0.0000,  0.0000,  0.0000)
  33 Li    -0.000120    6.468168   15.445854    ( 0.0000,  0.0000,  0.0000)
  34 Li     3.234079    6.468131   15.445845    ( 0.0000,  0.0000,  0.0000)
  35 Li     6.468264    6.468163   15.445841    ( 0.0000,  0.0000,  0.0000)
  36 O      8.084851    1.623045   19.724134    ( 0.0000,  0.0000,  0.0000)
  37 C      8.085200    1.230810   22.082265    ( 0.0000,  0.0000,  0.0000)
  38 C      8.095208    2.247569   20.961716    ( 0.0000,  0.0000,  0.0000)
  39 C      8.078857    1.891294   23.461445    ( 0.0000,  0.0000,  0.0000)
  40 H      7.208065    0.586363   21.961758    ( 0.0000,  0.0000,  0.0000)
  41 H      8.970829    0.587642   21.986387    ( 0.0000,  0.0000,  0.0000)
  42 H      7.195482    2.860119   20.962241    ( 0.0000,  0.0000,  0.0000)
  43 H      8.963828    2.906967   21.031540    ( 0.0000,  0.0000,  0.0000)
  44 H      7.193244    2.517872   23.593895    ( 0.0000,  0.0000,  0.0000)
  45 H      8.078186    1.146903   24.258009    ( 0.0000,  0.0000,  0.0000)
  46 H      8.957217    2.527203   23.601867    ( 0.0000,  0.0000,  0.0000)
  47 H      8.857169    1.037942   19.600514    ( 0.0000,  0.0000,  0.0000)
  48 N      8.078915    1.632904   17.154603    ( 0.0000,  0.0000,  0.0000)
  49 N      8.092038    1.588051   18.225500    ( 0.0000,  0.0000,  0.0000)

Unit cell:
           periodic     x           y           z      points  spacing
  1. axis:    yes    9.702222    0.000000    0.000000    60     0.1617
  2. axis:    yes    0.000000    9.702222    0.000000    60     0.1617
  3. axis:    no     0.000000    0.000000   26.601111   168     0.1583

  Lengths:   9.702222   9.702222  26.601111
  Angles:   90.000000  90.000000  90.000000

Effective grid spacing dv^(1/3) = 0.1606

     iter     time        total  log10-change:
                         energy  eigst   dens
iter:   1 18:54:32  -327.126964  -0.66
iter:   2 18:54:43  -327.056110  -0.86  -1.59
iter:   3 18:54:52  -327.034132  -1.47  -1.77
iter:   4 18:54:59  -327.022655c -1.28  -2.08
Writing to output.gpw (mode='')

iter:   5 18:55:07  -327.020178c -1.42  -2.30
iter:   6 18:55:14  -327.017919c -1.94  -2.33
iter:   7 18:55:22  -327.018734c -2.21  -2.52
iter:   8 18:55:29  -327.018644c -2.35  -2.60
iter:   9 18:55:37  -327.018833c -2.73  -2.67
Writing to output.gpw (mode='')

iter:  10 18:55:44  -327.018655c -3.19  -2.78
iter:  11 18:55:52  -327.018658c -3.24  -2.90
iter:  12 18:55:59  -327.018757c -3.09  -3.07
iter:  13 18:56:06  -327.018777c -3.61  -3.12
iter:  14 18:56:14  -327.018767c -3.63  -3.18
Writing to output.gpw (mode='')

iter:  15 18:56:21  -327.018783c -3.96  -3.46
iter:  16 18:56:29  -327.018791c -4.01  -3.53
iter:  17 18:56:36  -327.018799c -4.37  -3.58
iter:  18 18:56:44  -327.018798c -4.47  -3.63
iter:  19 18:56:51  -327.018802c -4.69  -3.78
Writing to output.gpw (mode='')

iter:  20 18:56:59  -327.018808c -4.83  -3.83
iter:  21 18:57:06  -327.018813c -4.81  -3.91
iter:  22 18:57:13  -327.018819c -5.02  -4.00
iter:  23 18:57:21  -327.018820c -4.94  -4.13c
iter:  24 18:57:28  -327.018821c -5.25  -4.23c
Writing to output.gpw (mode='')

iter:  25 18:57:36  -327.018822c -5.40  -4.27c
iter:  26 18:57:43  -327.018823c -5.50  -4.34c
iter:  27 18:57:51  -327.018822c -5.70  -4.44c
iter:  28 18:57:58  -327.018822c -5.77  -4.57c
iter:  29 18:58:06  -327.018823c -5.66  -4.62c
Writing to output.gpw (mode='')

iter:  30 18:58:13  -327.018823c -5.88  -4.65c
iter:  31 18:58:21  -327.018825c -6.24  -4.71c
iter:  32 18:58:28  -327.018825c -6.34  -4.86c
iter:  33 18:58:36  -327.018824c -6.18  -5.00c
iter:  34 18:58:43  -327.018825c -6.61  -5.00c
Writing to output.gpw (mode='')

iter:  35 18:58:51  -327.018825c -6.76  -5.15c
iter:  36 18:58:58  -327.018825c -6.67  -5.26c
iter:  37 18:59:06  -327.018825c -6.86  -5.49c
iter:  38 18:59:13  -327.018825c -7.02  -5.59c
iter:  39 18:59:21  -327.018825c -7.02  -5.61c
Writing to output.gpw (mode='')

iter:  40 18:59:29  -327.018825c -7.05  -5.61c
iter:  41 18:59:43  -327.018825c -6.98  -5.60c
iter:  42 18:59:52  -327.018825c -7.27  -5.53c
iter:  43 18:59:59  -327.018825c -7.40c -5.55c

Converged after 43 iterations.

Dipole moment: (0.553502, -5.745500, 0.522335) |e|*Ang

Energy contributions relative to reference atoms: (reference = -15487.462483)

Kinetic:       +207.817030
Potential:     -192.275979
External:        +0.000000
XC:            -343.218917
Entropy (-ST):   -0.146853
Local:           +0.732468
--------------------------
Free energy:   -327.092251
Extrapolated:  -327.018825

Dipole-layer corrected work functions: 3.376864, 2.372758 eV

Showing only first 2 kpts
 Kpt  Band  Eigenvalues  Occupancy
  0    34     -3.12486    1.98663
  0    35     -3.01921    1.89450
  0    36     -2.70403    0.06362
  0    37     -2.63145    0.01527

  1    34     -2.91730    1.40105
  1    35     -2.87609    1.01275
  1    36     -2.86587    0.91087
  1    37     -2.77194    0.22659


Fermi level: -2.87481

No gap
Writing to output.gpw (mode='')


Forces in eV/Ang:
  0 Li    0.02726   -0.00006   -0.27044
  1 Li   -0.02723    0.00054   -0.27090
  2 Li    0.00047   -0.00123   -0.27610
  3 Li   -0.00234   -0.00287   -0.27429
  4 Li    0.00288   -0.00241   -0.27486
  5 Li   -0.00085    0.02766   -0.27172
  6 Li   -0.00320    0.00333   -0.27577
  7 Li    0.00330    0.00243   -0.27486
  8 Li   -0.00029   -0.02760   -0.27037
  9 Li    0.00224   -0.00175    0.28586
 10 Li   -0.00193    0.00983    0.24958
 11 Li   -0.00107   -0.00063    0.28800
 12 Li   -0.00216   -0.00088    0.29239
 13 Li   -0.00096   -0.00601    0.24538
 14 Li    0.00264   -0.00145    0.29312
 15 Li   -0.00785    0.00420    0.24821
 16 Li    0.00148   -0.00419    0.27395
 17 Li    0.00665    0.00328    0.24517
 18 Li   -0.00897    0.00238    0.05277
 19 Li    0.00514    0.00159    0.04557
 20 Li    0.00154   -0.00583   -0.17541
 21 Li   -0.01461   -0.01178    0.04757
 22 Li    0.01529   -0.01374    0.04944
 23 Li   -0.00053    0.00072    0.04109
 24 Li   -0.00713    0.00860    0.04255
 25 Li    0.00883    0.01163    0.04468
 26 Li   -0.00124    0.01038    0.05267
 27 Li    0.08996   -0.08937   -0.07477
 28 Li   -0.00408    0.02836   -0.01479
 29 Li   -0.07614   -0.07673   -0.05618
 30 Li    0.05732    0.06159   -0.04713
 31 Li   -0.00272   -0.02699   -0.01662
 32 Li   -0.04570    0.05159   -0.03463
 33 Li   -0.02586    0.00163   -0.01639
 34 Li   -0.00038   -0.00096   -0.01733
 35 Li    0.02606    0.00024   -0.01849
 36 O     0.02446    1.05449   13.61938
 37 C    -0.02952    0.22606    0.70468
 38 C     0.05908    0.86399    3.58919
 39 C    -0.01231   -0.12230    0.20221
 40 H     0.02234   -0.00490    0.01565
 41 H    -0.03707    0.02748    0.00025
 42 H    -0.13878    0.13086    0.18346
 43 H     0.10588    0.16022    0.14755
 44 H    -0.00594   -0.00796   -0.02209
 45 H     0.00629   -0.01544    0.04644
 46 H    -0.00099   -0.02744   -0.02966
 47 H    -0.22159    0.10281    0.74662
 48 N    -1.08841    2.78599   -8.58691
 49 N     1.31755   -5.13495  -10.44628

System changes: positions 

Initializing position-dependent things.

Density initialized from wave functions
       .-----------------------.  
      /|                       |  
     / |                       |  
    /  |                       |  
   /   |                       |  
  /    |                       |  
 *     |                       |  
 |     |                       |  
 |     |            H H  H     |  
 |     |              C        |  
 |     |                       |  
 |     |           H HC HH     |  
 |     |              C        |  
 |     |              O        |  
 |     Li              LH      |  
 |     |              N        |  
 |     |     Li      Li      Li|  
 |     |  Li      Li  N   Li   |  
 | Li  |   Li      Li          |  
 |     |Li      Li      Li     |  
 |     | Li                    |  
 |   LLi     LLi     LLi       |  
 |     |  Li      Li      Li   |  
 | Li  |   Li      Li          |  
 |     |Li      Li      Li     |  
 Li    | Li      Li            |  
 |    Li      Li      Li       |  
 |     |                       |  
 |     |                       |  
 |     |                       |  
 |     |                       |  
 |     |                       |  
 |     |                       |  
 |     .-----------------------.  
 |    /                       /   
 |   /                       /    
 |  /                       /     
 | /                       /      
 |/                       /       
 *-----------------------*        

Positions:
   0 Li     1.617037    1.617037   10.000000    ( 0.0000,  0.0000,  0.0000)
   1 Li     4.851111    1.617037   10.000000    ( 0.0000,  0.0000,  0.0000)
   2 Li     8.085185    1.617037   10.000000    ( 0.0000,  0.0000,  0.0000)
   3 Li     1.617037    4.851111   10.000000    ( 0.0000,  0.0000,  0.0000)
   4 Li     4.851111    4.851111   10.000000    ( 0.0000,  0.0000,  0.0000)
   5 Li     8.085185    4.851111   10.000000    ( 0.0000,  0.0000,  0.0000)
   6 Li     1.617037    8.085185   10.000000    ( 0.0000,  0.0000,  0.0000)
   7 Li     4.851111    8.085185   10.000000    ( 0.0000,  0.0000,  0.0000)
   8 Li     8.085185    8.085185   10.000000    ( 0.0000,  0.0000,  0.0000)
   9 Li     0.000000    0.000000   11.617037    ( 0.0000,  0.0000,  0.0000)
  10 Li     3.234074    0.000000   11.617037    ( 0.0000,  0.0000,  0.0000)
  11 Li     6.468148    0.000000   11.617037    ( 0.0000,  0.0000,  0.0000)
  12 Li     0.000000    3.234074   11.617037    ( 0.0000,  0.0000,  0.0000)
  13 Li     3.234074    3.234074   11.617037    ( 0.0000,  0.0000,  0.0000)
  14 Li     6.468148    3.234074   11.617037    ( 0.0000,  0.0000,  0.0000)
  15 Li     0.000000    6.468148   11.617037    ( 0.0000,  0.0000,  0.0000)
  16 Li     3.234074    6.468148   11.617037    ( 0.0000,  0.0000,  0.0000)
  17 Li     6.468148    6.468148   11.617037    ( 0.0000,  0.0000,  0.0000)
  18 Li     1.616956    1.617064   13.470221    ( 0.0000,  0.0000,  0.0000)
  19 Li     4.851156    1.617055   13.470155    ( 0.0000,  0.0000,  0.0000)
  20 Li     8.085198    1.616984   13.468076    ( 0.0000,  0.0000,  0.0000)
  21 Li     1.616900    4.851002   13.470182    ( 0.0000,  0.0000,  0.0000)
  22 Li     4.851253    4.850983   13.470197    ( 0.0000,  0.0000,  0.0000)
  23 Li     8.085178    4.851123   13.470106    ( 0.0000,  0.0000,  0.0000)
  24 Li     1.616977    8.085260   13.470124    ( 0.0000,  0.0000,  0.0000)
  25 Li     4.851191    8.085294   13.470155    ( 0.0000,  0.0000,  0.0000)
  26 Li     8.085171    8.085280   13.470226    ( 0.0000,  0.0000,  0.0000)
  27 Li     0.000825   -0.000823   15.445287    ( 0.0000,  0.0000,  0.0000)
  28 Li     3.234036    0.000265   15.445803    ( 0.0000,  0.0000,  0.0000)
  29 Li     6.467457   -0.000700   15.445450    ( 0.0000,  0.0000,  0.0000)
  30 Li     0.000504    3.234629   15.445544    ( 0.0000,  0.0000,  0.0000)
  31 Li     3.234049    3.233827   15.445782    ( 0.0000,  0.0000,  0.0000)
  32 Li     6.467755    3.234532   15.445675    ( 0.0000,  0.0000,  0.0000)
  33 Li    -0.000239    6.468167   15.445787    ( 0.0000,  0.0000,  0.0000)
  34 Li     3.234074    6.468133   15.445769    ( 0.0000,  0.0000,  0.0000)
  35 Li     6.468385    6.468154   15.445765    ( 0.0000,  0.0000,  0.0000)
  36 O      8.086113    1.623409   19.763869    ( 0.0000,  0.0000,  0.0000)
  37 C      8.085096    1.231054   22.086607    ( 0.0000,  0.0000,  0.0000)
  38 C      8.096210    2.250805   20.974003    ( 0.0000,  0.0000,  0.0000)
  39 C      8.078822    1.890955   23.462431    ( 0.0000,  0.0000,  0.0000)
  40 H      7.208258    0.586527   21.961777    ( 0.0000,  0.0000,  0.0000)
  41 H      8.970580    0.587927   21.986340    ( 0.0000,  0.0000,  0.0000)
  42 H      7.195057    2.860810   20.963679    ( 0.0000,  0.0000,  0.0000)
  43 H      8.964427    2.908140   21.033096    ( 0.0000,  0.0000,  0.0000)
  44 H      7.193248    2.517817   23.593862    ( 0.0000,  0.0000,  0.0000)
  45 H      8.078209    1.146846   24.258250    ( 0.0000,  0.0000,  0.0000)
  46 H      8.957183    2.527069   23.601801    ( 0.0000,  0.0000,  0.0000)
  47 H      8.854220    1.040538   19.604945    ( 0.0000,  0.0000,  0.0000)
  48 N      8.074808    1.643134   17.116152    ( 0.0000,  0.0000,  0.0000)
  49 N      8.096865    1.569906   18.200042    ( 0.0000,  0.0000,  0.0000)

Unit cell:
           periodic     x           y           z      points  spacing
  1. axis:    yes    9.702222    0.000000    0.000000    60     0.1617
  2. axis:    yes    0.000000    9.702222    0.000000    60     0.1617
  3. axis:    no     0.000000    0.000000   26.601111   168     0.1583

  Lengths:   9.702222   9.702222  26.601111
  Angles:   90.000000  90.000000  90.000000

Effective grid spacing dv^(1/3) = 0.1606

     iter     time        total  log10-change:
                         energy  eigst   dens
iter:   1 19:00:08  -328.264222  -0.67
iter:   2 19:00:16  -328.249943  -1.24  -1.84
iter:   3 19:00:23  -328.242275c -1.72  -2.00
iter:   4 19:00:31  -328.226943c -1.17  -2.24
Writing to output.gpw (mode='')

iter:   5 19:00:39  -328.225680c -2.04  -2.29
iter:   6 19:00:46  -328.226218c -1.83  -2.39
iter:   7 19:00:54  -328.223992c -2.06  -2.47
iter:   8 19:01:01  -328.223433c -2.77  -2.76
iter:   9 19:01:09  -328.223603c -2.64  -2.86
Writing to output.gpw (mode='')

iter:  10 19:01:17  -328.223273c -2.96  -2.73
iter:  11 19:01:24  -328.223222c -3.60  -2.90
iter:  12 19:01:32  -328.223246c -3.36  -3.00
iter:  13 19:01:39  -328.223596c -3.25  -3.21
iter:  14 19:01:47  -328.223183c -3.43  -3.00
Writing to output.gpw (mode='')

iter:  15 19:01:54  -328.223213c -4.15  -3.22
iter:  16 19:02:02  -328.223227c -3.33  -3.21
iter:  17 19:02:09  -328.223150c -4.08  -3.31
iter:  18 19:02:17  -328.223147c -4.25  -3.47
iter:  19 19:02:25  -328.223153c -4.46  -3.51
Writing to output.gpw (mode='')

iter:  20 19:02:32  -328.223170c -4.40  -3.63
iter:  21 19:02:40  -328.223176c -4.51  -3.73
iter:  22 19:02:47  -328.223161c -4.93  -3.81
iter:  23 19:02:55  -328.223161c -4.86  -3.96
iter:  24 19:03:02  -328.223165c -5.45  -4.01c
Writing to output.gpw (mode='')

iter:  25 19:03:10  -328.223160c -5.54  -4.09c
iter:  26 19:03:17  -328.223159c -5.52  -4.24c
iter:  27 19:03:25  -328.223159c -5.92  -4.36c
iter:  28 19:03:32  -328.223159c -6.01  -4.41c
iter:  29 19:03:40  -328.223158c -6.24  -4.49c
Writing to output.gpw (mode='')

iter:  30 19:03:47  -328.223159c -6.03  -4.62c
iter:  31 19:03:55  -328.223159c -6.28  -4.74c
iter:  32 19:04:02  -328.223158c -6.24  -4.82c
iter:  33 19:04:10  -328.223158c -6.69  -5.04c
iter:  34 19:04:17  -328.223159c -6.68  -5.10c
Writing to output.gpw (mode='')

iter:  35 19:04:25  -328.223159c -6.78  -5.14c
iter:  36 19:04:32  -328.223159c -6.90  -5.18c
iter:  37 19:04:48  -328.223159c -7.17  -5.26c
iter:  38 19:04:55  -328.223159c -7.18  -5.34c
iter:  39 19:05:03  -328.223159c -7.16  -5.41c
Writing to output.gpw (mode='')

iter:  40 19:05:10  -328.223159c -7.06  -5.60c
iter:  41 19:05:18  -328.223159c -7.39  -5.71c
iter:  42 19:05:25  -328.223159c -7.50c -5.74c

Converged after 42 iterations.

Dipole moment: (0.481319, -5.671756, 0.512176) |e|*Ang

Energy contributions relative to reference atoms: (reference = -15487.462483)

Kinetic:       +203.029550
Potential:     -189.018323
External:        +0.000000
XC:            -342.902493
Entropy (-ST):   -0.146755
Local:           +0.741484
--------------------------
Free energy:   -328.296537
Extrapolated:  -328.223159

Dipole-layer corrected work functions: 3.376635, 2.392057 eV

Showing only first 2 kpts
 Kpt  Band  Eigenvalues  Occupancy
  0    34     -3.13448    1.98665
  0    35     -3.02767    1.89232
  0    36     -2.71278    0.06267
  0    37     -2.64276    0.01582

  1    34     -2.92698    1.40226
  1    35     -2.88855    1.04202
  1    36     -2.87476    0.90441
  1    37     -2.77798    0.21294


Fermi level: -2.88435

No gap
Writing to output.gpw (mode='')


Forces in eV/Ang:
  0 Li    0.02748   -0.00016   -0.27030
  1 Li   -0.02733    0.00032   -0.27121
  2 Li    0.00050   -0.00119   -0.27632
  3 Li   -0.00280   -0.00237   -0.27443
  4 Li    0.00294   -0.00216   -0.27458
  5 Li   -0.00069    0.02773   -0.27232
  6 Li   -0.00307    0.00349   -0.27585
  7 Li    0.00278    0.00286   -0.27505
  8 Li   -0.00023   -0.02801   -0.27017
  9 Li    0.00220   -0.00158    0.28570
 10 Li   -0.00212    0.01004    0.24959
 11 Li   -0.00104   -0.00016    0.28845
 12 Li   -0.00287   -0.00102    0.29320
 13 Li   -0.00142   -0.00619    0.24537
 14 Li    0.00343   -0.00193    0.29471
 15 Li   -0.00776    0.00466    0.24804
 16 Li    0.00189   -0.00498    0.27348
 17 Li    0.00658    0.00399    0.24497
 18 Li   -0.00963    0.00236    0.05257
 19 Li    0.00475    0.00190    0.04459
 20 Li    0.00242   -0.00765   -0.17564
 21 Li   -0.01425   -0.01248    0.04734
 22 Li    0.01563   -0.01437    0.04979
 23 Li   -0.00077    0.00226    0.03948
 24 Li   -0.00734    0.00858    0.04326
 25 Li    0.00936    0.01113    0.04442
 26 Li   -0.00119    0.01102    0.05193
 27 Li    0.08867   -0.08754   -0.07285
 28 Li   -0.00370    0.02808   -0.01555
 29 Li   -0.07495   -0.07536   -0.05322
 30 Li    0.05499    0.05787   -0.04341
 31 Li   -0.00221   -0.02716   -0.01709
 32 Li   -0.03934    0.04416   -0.02691
 33 Li   -0.02573    0.00031   -0.01713
 34 Li   -0.00089    0.00003   -0.01764
 35 Li    0.02616   -0.00119   -0.01916
 36 O    -0.08780    0.69545   10.62868
 37 C    -0.02227    0.19839    0.83767
 38 C     0.12345    0.70752    3.15484
 39 C    -0.00973   -0.12402    0.25576
 40 H     0.02771    0.01776    0.01343
 41 H    -0.03881    0.04239    0.00346
 42 H    -0.14975    0.18043    0.27374
 43 H     0.16868    0.26367    0.27968
 44 H    -0.00655   -0.00768   -0.01307
 45 H     0.00533   -0.01165    0.06839
 46 H    -0.00067   -0.02640   -0.02012
 47 H    -0.25217    0.21169    0.83706
 48 N    -0.96888    2.46898   -5.83902
 49 N     1.20369   -4.56655  -10.35315

System changes: positions 

Initializing position-dependent things.

Density initialized from wave functions
       .-----------------------.  
      /|                       |  
     / |                       |  
    /  |                       |  
   /   |                       |  
  /    |                       |  
 *     |                       |  
 |     |                       |  
 |     |            H H  H     |  
 |     |              C        |  
 |     |                       |  
 |     |           H HC HH     |  
 |     |              C        |  
 |     |              O        |  
 |     Li              LH      |  
 |     |                       |  
 |     |     Li      LN      Li|  
 |     |  Li      Li  N   Li   |  
 | Li  |   Li      Li          |  
 |     |Li      Li      Li     |  
 |     | Li                    |  
 |   LLi     LLi     LLi       |  
 |     |  Li      Li      Li   |  
 | Li  |   Li      Li          |  
 |     |Li      Li      Li     |  
 Li    | Li      Li            |  
 |    Li      Li      Li       |  
 |     |                       |  
 |     |                       |  
 |     |                       |  
 |     |                       |  
 |     |                       |  
 |     |                       |  
 |     .-----------------------.  
 |    /                       /   
 |   /                       /    
 |  /                       /     
 | /                       /      
 |/                       /       
 *-----------------------*        

Positions:
   0 Li     1.617037    1.617037   10.000000    ( 0.0000,  0.0000,  0.0000)
   1 Li     4.851111    1.617037   10.000000    ( 0.0000,  0.0000,  0.0000)
   2 Li     8.085185    1.617037   10.000000    ( 0.0000,  0.0000,  0.0000)
   3 Li     1.617037    4.851111   10.000000    ( 0.0000,  0.0000,  0.0000)
   4 Li     4.851111    4.851111   10.000000    ( 0.0000,  0.0000,  0.0000)
   5 Li     8.085185    4.851111   10.000000    ( 0.0000,  0.0000,  0.0000)
   6 Li     1.617037    8.085185   10.000000    ( 0.0000,  0.0000,  0.0000)
   7 Li     4.851111    8.085185   10.000000    ( 0.0000,  0.0000,  0.0000)
   8 Li     8.085185    8.085185   10.000000    ( 0.0000,  0.0000,  0.0000)
   9 Li     0.000000    0.000000   11.617037    ( 0.0000,  0.0000,  0.0000)
  10 Li     3.234074    0.000000   11.617037    ( 0.0000,  0.0000,  0.0000)
  11 Li     6.468148    0.000000   11.617037    ( 0.0000,  0.0000,  0.0000)
  12 Li     0.000000    3.234074   11.617037    ( 0.0000,  0.0000,  0.0000)
  13 Li     3.234074    3.234074   11.617037    ( 0.0000,  0.0000,  0.0000)
  14 Li     6.468148    3.234074   11.617037    ( 0.0000,  0.0000,  0.0000)
  15 Li     0.000000    6.468148   11.617037    ( 0.0000,  0.0000,  0.0000)
  16 Li     3.234074    6.468148   11.617037    ( 0.0000,  0.0000,  0.0000)
  17 Li     6.468148    6.468148   11.617037    ( 0.0000,  0.0000,  0.0000)
  18 Li     1.616878    1.617068   13.470558    ( 0.0000,  0.0000,  0.0000)
  19 Li     4.851199    1.617066   13.470439    ( 0.0000,  0.0000,  0.0000)
  20 Li     8.085222    1.616917   13.466925    ( 0.0000,  0.0000,  0.0000)
  21 Li     1.616827    4.850913   13.470459    ( 0.0000,  0.0000,  0.0000)
  22 Li     4.851347    4.850889   13.470505    ( 0.0000,  0.0000,  0.0000)
  23 Li     8.085170    4.851126   13.470375    ( 0.0000,  0.0000,  0.0000)
  24 Li     1.616910    8.085325   13.470419    ( 0.0000,  0.0000,  0.0000)
  25 Li     4.851268    8.085353   13.470422    ( 0.0000,  0.0000,  0.0000)
  26 Li     8.085168    8.085364   13.470538    ( 0.0000,  0.0000,  0.0000)
  27 Li     0.001444   -0.001426   15.444670    ( 0.0000,  0.0000,  0.0000)
  28 Li     3.234015    0.000446   15.445703    ( 0.0000,  0.0000,  0.0000)
  29 Li     6.466899   -0.001262   15.444979    ( 0.0000,  0.0000,  0.0000)
  30 Li     0.000983    3.235075   15.445100    ( 0.0000,  0.0000,  0.0000)
  31 Li     3.234046    3.233637   15.445686    ( 0.0000,  0.0000,  0.0000)
  32 Li     6.467418    3.234858   15.445357    ( 0.0000,  0.0000,  0.0000)
  33 Li    -0.000414    6.468140   15.445683    ( 0.0000,  0.0000,  0.0000)
  34 Li     3.234059    6.468156   15.445668    ( 0.0000,  0.0000,  0.0000)
  35 Li     6.468569    6.468109   15.445651    ( 0.0000,  0.0000,  0.0000)
  36 O      8.085890    1.623803   19.792321    ( 0.0000,  0.0000,  0.0000)
  37 C      8.084947    1.231561   22.095249    ( 0.0000,  0.0000,  0.0000)
  38 C      8.099111    2.248243   20.980516    ( 0.0000,  0.0000,  0.0000)
  39 C      8.078841    1.890072   23.464488    ( 0.0000,  0.0000,  0.0000)
  40 H      7.208579    0.587103   21.961659    ( 0.0000,  0.0000,  0.0000)
  41 H      8.970283    0.588564   21.986177    ( 0.0000,  0.0000,  0.0000)
  42 H      7.193744    2.862756   20.966818    ( 0.0000,  0.0000,  0.0000)
  43 H      8.966445    2.911407   21.037064    ( 0.0000,  0.0000,  0.0000)
  44 H      7.193212    2.517762   23.593936    ( 0.0000,  0.0000,  0.0000)
  45 H      8.078224    1.146925   24.258852    ( 0.0000,  0.0000,  0.0000)
  46 H      8.957165    2.526918   23.601839    ( 0.0000,  0.0000,  0.0000)
  47 H      8.849101    1.046346   19.611495    ( 0.0000,  0.0000,  0.0000)
  48 N      8.070701    1.652902   17.092666    ( 0.0000,  0.0000,  0.0000)
  49 N      8.102754    1.551178   18.165191    ( 0.0000,  0.0000,  0.0000)

Unit cell:
           periodic     x           y           z      points  spacing
  1. axis:    yes    9.702222    0.000000    0.000000    60     0.1617
  2. axis:    yes    0.000000    9.702222    0.000000    60     0.1617
  3. axis:    no     0.000000    0.000000   26.601111   168     0.1583

  Lengths:   9.702222   9.702222  26.601111
  Angles:   90.000000  90.000000  90.000000

Effective grid spacing dv^(1/3) = 0.1606

     iter     time        total  log10-change:
                         energy  eigst   dens
iter:   1 19:05:34  -329.292136  -0.76
iter:   2 19:05:42  -329.158500  -0.86  -1.52
iter:   3 19:05:49  -329.119691  -1.64  -1.72
iter:   4 19:05:57  -329.102330  -0.87  -2.09
Writing to output.gpw (mode='')

iter:   5 19:06:04  -329.093039c -1.88  -2.02
iter:   6 19:06:12  -329.094247c -1.63  -2.27
iter:   7 19:06:19  -329.092364c -1.79  -2.42
iter:   8 19:06:27  -329.090794c -2.48  -2.57
iter:   9 19:06:34  -329.090655c -2.53  -2.73
Writing to output.gpw (mode='')

iter:  10 19:06:42  -329.090536c -3.04  -2.79
iter:  11 19:06:50  -329.090637c -3.01  -2.94
iter:  12 19:06:57  -329.090678c -3.30  -2.94
iter:  13 19:07:04  -329.090586c -3.42  -3.10
iter:  14 19:07:12  -329.090643c -3.53  -3.24
Writing to output.gpw (mode='')

iter:  15 19:07:20  -329.090637c -4.22  -3.31
iter:  16 19:07:27  -329.090678c -3.90  -3.39
iter:  17 19:07:35  -329.090650c -3.97  -3.41
iter:  18 19:07:42  -329.090653c -4.50  -3.64
iter:  19 19:07:50  -329.090662c -4.17  -3.69
Writing to output.gpw (mode='')

iter:  20 19:07:57  -329.090664c -4.40  -3.77
iter:  21 19:08:08  -329.090666c -4.85  -3.91
iter:  22 19:08:15  -329.090669c -4.98  -3.99
iter:  23 19:08:23  -329.090670c -5.10  -4.16c
iter:  24 19:08:30  -329.090671c -5.04  -4.32c
Writing to output.gpw (mode='')

iter:  25 19:08:38  -329.090672c -5.36  -4.42c
iter:  26 19:08:45  -329.090672c -5.56  -4.47c
iter:  27 19:08:53  -329.090673c -5.74  -4.51c
iter:  28 19:09:00  -329.090673c -5.94  -4.60c
iter:  29 19:09:08  -329.090673c -6.04  -4.62c
Writing to output.gpw (mode='')

iter:  30 19:09:15  -329.090674c -6.02  -4.68c
iter:  31 19:09:23  -329.090674c -6.20  -4.69c
iter:  32 19:09:30  -329.090675c -6.16  -4.72c
iter:  33 19:09:44  -329.090675c -6.71  -4.78c
iter:  34 19:09:53  -329.090675c -6.76  -4.90c
Writing to output.gpw (mode='')

iter:  35 19:10:00  -329.090675c -6.83  -5.12c
iter:  36 19:10:08  -329.090675c -6.45  -5.26c
iter:  37 19:10:15  -329.090675c -6.70  -5.56c
iter:  38 19:10:23  -329.090675c -7.05  -5.62c
iter:  39 19:10:30  -329.090675c -7.12  -5.59c
Writing to output.gpw (mode='')

iter:  40 19:10:38  -329.090675c -7.02  -5.55c
iter:  41 19:10:45  -329.090675c -7.11  -5.48c
iter:  42 19:10:53  -329.090675c -7.12  -5.45c
iter:  43 19:11:00  -329.090675c -7.11  -5.44c
iter:  44 19:11:08  -329.090675c -7.21  -5.37c
Writing to output.gpw (mode='')

iter:  45 19:11:15  -329.090675c -7.37  -5.39c
iter:  46 19:11:23  -329.090675c -7.42c -5.36c

Converged after 46 iterations.

Dipole moment: (0.451373, -5.639987, 0.484227) |e|*Ang

Energy contributions relative to reference atoms: (reference = -15487.462483)

Kinetic:       +202.364084
Potential:     -188.910294
External:        +0.000000
XC:            -343.219208
Entropy (-ST):   -0.146507
Local:           +0.747997
--------------------------
Free energy:   -329.163929
Extrapolated:  -329.090675

Dipole-layer corrected work functions: 3.376747, 2.445897 eV

Showing only first 2 kpts
 Kpt  Band  Eigenvalues  Occupancy
  0    34     -3.16163    1.98670
  0    35     -3.05529    1.89364
  0    36     -2.73902    0.06177
  0    37     -2.66961    0.01578

  1    34     -2.95393    1.40203
  1    35     -2.91651    1.05188
  1    36     -2.90140    0.90106
  1    37     -2.80370    0.20821


Fermi level: -2.91132

No gap
Writing to output.gpw (mode='')


Forces in eV/Ang:
  0 Li    0.02752   -0.00023   -0.27018
  1 Li   -0.02725    0.00011   -0.27137
  2 Li    0.00047   -0.00107   -0.27631
  3 Li   -0.00322   -0.00208   -0.27450
  4 Li    0.00309   -0.00206   -0.27431
  5 Li   -0.00054    0.02756   -0.27265
  6 Li   -0.00302    0.00372   -0.27585
  7 Li    0.00246    0.00329   -0.27517
  8 Li   -0.00022   -0.02815   -0.26991
  9 Li    0.00234   -0.00162    0.28519
 10 Li   -0.00216    0.01006    0.24956
 11 Li   -0.00123   -0.00006    0.28823
 12 Li   -0.00308   -0.00087    0.29322
 13 Li   -0.00172   -0.00639    0.24550
 14 Li    0.00362   -0.00191    0.29516
 15 Li   -0.00768    0.00483    0.24801
 16 Li    0.00209   -0.00541    0.27391
 17 Li    0.00660    0.00440    0.24500
 18 Li   -0.01055    0.00226    0.05304
 19 Li    0.00513    0.00211    0.04485
 20 Li    0.00295   -0.00895   -0.17635
 21 Li   -0.01349   -0.01267    0.04652
 22 Li    0.01538   -0.01449    0.04940
 23 Li   -0.00094    0.00243    0.03941
 24 Li   -0.00740    0.00832    0.04343
 25 Li    0.00956    0.01041    0.04381
 26 Li   -0.00109    0.01202    0.05218
 27 Li    0.09579   -0.09432   -0.08495
 28 Li   -0.00339    0.02855   -0.01491
 29 Li   -0.08274   -0.08300   -0.06495
 30 Li    0.06246    0.06443   -0.05423
 31 Li   -0.00173   -0.02802   -0.01622
 32 Li   -0.04369    0.04777   -0.03482
 33 Li   -0.02642   -0.00066   -0.01631
 34 Li   -0.00121    0.00082   -0.01748
 35 Li    0.02697   -0.00232   -0.01829
 36 O    -0.24616    0.24467    7.83772
 37 C     0.00492    0.12788    0.70826
 38 C     0.04904    0.99851    3.15817
 39 C    -0.01280   -0.05409    0.31481
 40 H     0.03655    0.03299    0.04101
 41 H    -0.04641    0.04326    0.04312
 42 H    -0.01236    0.11202    0.33387
 43 H     0.13935    0.24622    0.34806
 44 H    -0.00088   -0.01218    0.00027
 45 H     0.00468   -0.02838    0.11926
 46 H    -0.00343   -0.02861   -0.00584
 47 H    -0.16832    0.20156    0.84547
 48 N    -0.94952    2.38799   -6.67386
 49 N     1.19281   -4.27570   -6.96442

System changes: positions 

Initializing position-dependent things.

Density initialized from wave functions
       .-----------------------.  
      /|                       |  
     / |                       |  
    /  |                       |  
   /   |                       |  
  /    |                       |  
 *     |                       |  
 |     |                       |  
 |     |            H H  H     |  
 |     |              C        |  
 |     |                       |  
 |     |           H HC HH     |  
 |     |              C        |  
 |     |              O        |  
 |     Li              LH      |  
 |     |                       |  
 |     |     Li      LN      Li|  
 |     |  Li      Li  N   Li   |  
 | Li  |   Li      Li          |  
 |     |Li      Li      Li     |  
 |     | Li                    |  
 |   LLi     LLi     LLi       |  
 |     |  Li      Li      Li   |  
 | Li  |   Li      Li          |  
 |     |Li      Li      Li     |  
 Li    | Li      Li            |  
 |    Li      Li      Li       |  
 |     |                       |  
 |     |                       |  
 |     |                       |  
 |     |                       |  
 |     |                       |  
 |     |                       |  
 |     .-----------------------.  
 |    /                       /   
 |   /                       /    
 |  /                       /     
 | /                       /      
 |/                       /       
 *-----------------------*        

Positions:
   0 Li     1.617037    1.617037   10.000000    ( 0.0000,  0.0000,  0.0000)
   1 Li     4.851111    1.617037   10.000000    ( 0.0000,  0.0000,  0.0000)
   2 Li     8.085185    1.617037   10.000000    ( 0.0000,  0.0000,  0.0000)
   3 Li     1.617037    4.851111   10.000000    ( 0.0000,  0.0000,  0.0000)
   4 Li     4.851111    4.851111   10.000000    ( 0.0000,  0.0000,  0.0000)
   5 Li     8.085185    4.851111   10.000000    ( 0.0000,  0.0000,  0.0000)
   6 Li     1.617037    8.085185   10.000000    ( 0.0000,  0.0000,  0.0000)
   7 Li     4.851111    8.085185   10.000000    ( 0.0000,  0.0000,  0.0000)
   8 Li     8.085185    8.085185   10.000000    ( 0.0000,  0.0000,  0.0000)
   9 Li     0.000000    0.000000   11.617037    ( 0.0000,  0.0000,  0.0000)
  10 Li     3.234074    0.000000   11.617037    ( 0.0000,  0.0000,  0.0000)
  11 Li     6.468148    0.000000   11.617037    ( 0.0000,  0.0000,  0.0000)
  12 Li     0.000000    3.234074   11.617037    ( 0.0000,  0.0000,  0.0000)
  13 Li     3.234074    3.234074   11.617037    ( 0.0000,  0.0000,  0.0000)
  14 Li     6.468148    3.234074   11.617037    ( 0.0000,  0.0000,  0.0000)
  15 Li     0.000000    6.468148   11.617037    ( 0.0000,  0.0000,  0.0000)
  16 Li     3.234074    6.468148   11.617037    ( 0.0000,  0.0000,  0.0000)
  17 Li     6.468148    6.468148   11.617037    ( 0.0000,  0.0000,  0.0000)
  18 Li     1.616778    1.617078   13.470978    ( 0.0000,  0.0000,  0.0000)
  19 Li     4.851249    1.617083   13.470790    ( 0.0000,  0.0000,  0.0000)
  20 Li     8.085256    1.616826   13.465511    ( 0.0000,  0.0000,  0.0000)
  21 Li     1.616737    4.850803   13.470804    ( 0.0000,  0.0000,  0.0000)
  22 Li     4.851465    4.850770   13.470887    ( 0.0000,  0.0000,  0.0000)
  23 Li     8.085160    4.851140   13.470694    ( 0.0000,  0.0000,  0.0000)
  24 Li     1.616836    8.085398   13.470777    ( 0.0000,  0.0000,  0.0000)
  25 Li     4.851358    8.085423   13.470752    ( 0.0000,  0.0000,  0.0000)
  26 Li     8.085164    8.085473   13.470935    ( 0.0000,  0.0000,  0.0000)
  27 Li     0.002254   -0.002214   15.443860    ( 0.0000,  0.0000,  0.0000)
  28 Li     3.233992    0.000673   15.445584    ( 0.0000,  0.0000,  0.0000)
  29 Li     6.466170   -0.001993   15.444347    ( 0.0000,  0.0000,  0.0000)
  30 Li     0.001584    3.235647   15.444530    ( 0.0000,  0.0000,  0.0000)
  31 Li     3.234043    3.233402   15.445569    ( 0.0000,  0.0000,  0.0000)
  32 Li     6.467013    3.235259   15.444971    ( 0.0000,  0.0000,  0.0000)
  33 Li    -0.000632    6.468107   15.445558    ( 0.0000,  0.0000,  0.0000)
  34 Li     3.234040    6.468185   15.445539    ( 0.0000,  0.0000,  0.0000)
  35 Li     6.468797    6.468057   15.445514    ( 0.0000,  0.0000,  0.0000)
  36 O      8.083454    1.620983   19.811165    ( 0.0000,  0.0000,  0.0000)
  37 C      8.085061    1.231804   22.103305    ( 0.0000,  0.0000,  0.0000)
  38 C      8.101056    2.250984   20.994074    ( 0.0000,  0.0000,  0.0000)
  39 C      8.078800    1.889723   23.467569    ( 0.0000,  0.0000,  0.0000)
  40 H      7.209006    0.587800   21.961889    ( 0.0000,  0.0000,  0.0000)
  41 H      8.969863    0.589216   21.986482    ( 0.0000,  0.0000,  0.0000)
  42 H      7.193662    2.864202   20.970848    ( 0.0000,  0.0000,  0.0000)
  43 H      8.968347    2.914752   21.041920    ( 0.0000,  0.0000,  0.0000)
  44 H      7.193219    2.517654   23.594110    ( 0.0000,  0.0000,  0.0000)
  45 H      8.078242    1.146788   24.260097    ( 0.0000,  0.0000,  0.0000)
  46 H      8.957123    2.526705   23.601974    ( 0.0000,  0.0000,  0.0000)
  47 H      8.845338    1.051466   19.619247    ( 0.0000,  0.0000,  0.0000)
  48 N      8.065105    1.666286   17.055390    ( 0.0000,  0.0000,  0.0000)
  49 N      8.110550    1.527261   18.141335    ( 0.0000,  0.0000,  0.0000)

Unit cell:
           periodic     x           y           z      points  spacing
  1. axis:    yes    9.702222    0.000000    0.000000    60     0.1617
  2. axis:    yes    0.000000    9.702222    0.000000    60     0.1617
  3. axis:    no     0.000000    0.000000   26.601111   168     0.1583

  Lengths:   9.702222   9.702222  26.601111
  Angles:   90.000000  90.000000  90.000000

Effective grid spacing dv^(1/3) = 0.1606

     iter     time        total  log10-change:
                         energy  eigst   dens
iter:   1 19:11:32  -329.821231  -0.84
iter:   2 19:11:39  -329.819186  -1.56  -2.20
iter:   3 19:11:47  -329.801691c -1.36  -2.30
iter:   4 19:11:55  -329.802562c -1.48  -2.23
Writing to output.gpw (mode='')

iter:   5 19:12:02  -329.799858c -2.53  -2.35
iter:   6 19:12:10  -329.797930c -2.48  -2.49
iter:   7 19:12:17  -329.798901c -2.43  -2.71
iter:   8 19:12:25  -329.798350c -3.09  -2.73
iter:   9 19:12:32  -329.797592c -2.67  -2.79
Writing to output.gpw (mode='')

iter:  10 19:12:40  -329.797740c -3.13  -2.98
iter:  11 19:12:47  -329.797836c -3.17  -3.00
iter:  12 19:12:55  -329.797502c -3.39  -3.07
iter:  13 19:13:02  -329.797503c -3.29  -3.16
iter:  14 19:13:10  -329.797492c -3.87  -3.28
Writing to output.gpw (mode='')

iter:  15 19:13:18  -329.797505c -4.23  -3.48
iter:  16 19:13:30  -329.797549c -3.93  -3.54
iter:  17 19:13:44  -329.797530c -4.53  -3.66
iter:  18 19:13:51  -329.797523c -4.31  -3.77
iter:  19 19:13:59  -329.797524c -5.08  -3.95
Writing to output.gpw (mode='')

iter:  20 19:14:06  -329.797523c -4.81  -4.00c
iter:  21 19:14:13  -329.797518c -5.21  -4.05c
iter:  22 19:14:21  -329.797518c -5.29  -4.29c
iter:  23 19:14:28  -329.797519c -5.36  -4.37c
iter:  24 19:14:37  -329.797520c -5.39  -4.46c
Writing to output.gpw (mode='')

iter:  25 19:14:50  -329.797521c -5.59  -4.54c
iter:  26 19:14:57  -329.797522c -5.44  -4.70c
iter:  27 19:15:05  -329.797523c -5.35  -4.72c
iter:  28 19:15:12  -329.797523c -5.78  -4.74c
iter:  29 19:15:20  -329.797524c -5.51  -4.86c
Writing to output.gpw (mode='')

iter:  30 19:15:27  -329.797524c -5.98  -4.97c
iter:  31 19:15:35  -329.797524c -6.04  -5.00c
iter:  32 19:15:42  -329.797524c -5.95  -5.08c
iter:  33 19:15:49  -329.797524c -6.16  -5.11c
iter:  34 19:15:57  -329.797524c -6.46  -5.14c
Writing to output.gpw (mode='')

iter:  35 19:16:04  -329.797524c -6.51  -5.34c
iter:  36 19:16:12  -329.797525c -6.58  -5.47c
iter:  37 19:16:19  -329.797525c -6.41  -5.66c
iter:  38 19:16:27  -329.797525c -6.50  -5.72c
iter:  39 19:16:34  -329.797525c -6.47  -5.78c
Writing to output.gpw (mode='')

iter:  40 19:16:42  -329.797525c -6.28  -5.77c
iter:  41 19:16:49  -329.797525c -6.76  -5.71c
iter:  42 19:16:57  -329.797525c -6.84  -5.71c
iter:  43 19:17:04  -329.797525c -6.85  -5.65c
iter:  44 19:17:12  -329.797525c -6.93  -5.69c
Writing to output.gpw (mode='')

iter:  45 19:17:19  -329.797525c -7.08  -5.66c
iter:  46 19:17:27  -329.797525c -6.91  -5.63c
iter:  47 19:17:34  -329.797525c -7.19  -5.61c
iter:  48 19:17:42  -329.797525c -7.07  -5.60c
iter:  49 19:17:49  -329.797525c -7.03  -5.60c
Writing to output.gpw (mode='')

iter:  50 19:17:57  -329.797525c -7.11  -5.59c
iter:  51 19:18:04  -329.797525c -7.53c -5.58c

Converged after 51 iterations.

Dipole moment: (0.385080, -5.567378, 0.473487) |e|*Ang

Energy contributions relative to reference atoms: (reference = -15487.462483)

Kinetic:       +197.324439
Potential:     -185.205788
External:        +0.000000
XC:            -342.597306
Entropy (-ST):   -0.146610
Local:           +0.754436
--------------------------
Free energy:   -329.870830
Extrapolated:  -329.797525

Dipole-layer corrected work functions: 3.377631, 2.467427 eV

Showing only first 2 kpts
 Kpt  Band  Eigenvalues  Occupancy
  0    34     -3.17256    1.98662
  0    35     -3.06501    1.89060
  0    36     -2.74964    0.06108
  0    37     -2.68344    0.01662

  1    34     -2.96698    1.41739
  1    35     -2.93093    1.08376
  1    36     -2.91110    0.88616
  1    37     -2.81115    0.19462


Fermi level: -2.92253

No gap
Writing to output.gpw (mode='')


Forces in eV/Ang:
  0 Li    0.02788   -0.00021   -0.26991
  1 Li   -0.02742   -0.00012   -0.27167
  2 Li    0.00052   -0.00115   -0.27654
  3 Li   -0.00351   -0.00130   -0.27486
  4 Li    0.00285   -0.00158   -0.27424
  5 Li   -0.00033    0.02775   -0.27346
  6 Li   -0.00278    0.00375   -0.27628
  7 Li    0.00169    0.00360   -0.27563
  8 Li   -0.00026   -0.02880   -0.26956
  9 Li    0.00290   -0.00206    0.28473
 10 Li   -0.00255    0.01066    0.24995
 11 Li   -0.00165    0.00016    0.28871
 12 Li   -0.00388   -0.00071    0.29449
 13 Li   -0.00243   -0.00661    0.24525
 14 Li    0.00443   -0.00229    0.29754
 15 Li   -0.00759    0.00579    0.24787
 16 Li    0.00282   -0.00683    0.27303
 17 Li    0.00643    0.00568    0.24465
 18 Li   -0.01103    0.00247    0.05182
 19 Li    0.00395    0.00273    0.04269
 20 Li    0.00411   -0.01142   -0.17149
 21 Li   -0.01307   -0.01328    0.04594
 22 Li    0.01600   -0.01533    0.04956
 23 Li   -0.00133    0.00588    0.03516
 24 Li   -0.00691    0.00774    0.04337
 25 Li    0.00963    0.00958    0.04296
 26 Li   -0.00106    0.01232    0.05060
 27 Li    0.09129   -0.08865   -0.07735
 28 Li   -0.00272    0.02736   -0.01579
 29 Li   -0.07838   -0.07729   -0.05668
 30 Li    0.05384    0.05581   -0.04296
 31 Li   -0.00093   -0.02705   -0.01718
 32 Li   -0.02785    0.03186   -0.01672
 33 Li   -0.02527   -0.00174   -0.01738
 34 Li   -0.00171    0.00176   -0.01767
 35 Li    0.02589   -0.00353   -0.01942
 36 O    -0.38957    0.17206    6.00628
 37 C     0.01609    0.10118    0.62920
 38 C    -0.00184    0.97699    2.77084
 39 C    -0.01057   -0.02998    0.36443
 40 H     0.04447    0.05009    0.06518
 41 H    -0.04469    0.04367    0.07699
 42 H     0.02229    0.12319    0.40371
 43 H     0.14426    0.25211    0.39869
 44 H    -0.00500   -0.00920    0.01634
 45 H     0.00403   -0.03996    0.17159
 46 H     0.00131   -0.02401    0.01273
 47 H    -0.06409    0.14319    0.80163
 48 N    -0.83860    2.08295   -3.88611
 49 N     1.14287   -3.83404   -7.75432

System changes: positions 

Initializing position-dependent things.

Density initialized from wave functions
       .-----------------------.  
      /|                       |  
     / |                       |  
    /  |                       |  
   /   |                       |  
  /    |                       |  
 *     |                       |  
 |     |                       |  
 |     |            H H  H     |  
 |     |              C        |  
 |     |                       |  
 |     |           H HC HH     |  
 |     |              C        |  
 |     |              O        |  
 |     Li              LH      |  
 |     |                       |  
 |     |     Li      LN      Li|  
 |     |  Li      Li  N   Li   |  
 | Li  |   Li      Li          |  
 |     |Li      Li      Li     |  
 |     | Li                    |  
 |   LLi     LLi     LLi       |  
 |     |  Li      Li      Li   |  
 | Li  |   Li      Li          |  
 |     |Li      Li      Li     |  
 Li    | Li      Li            |  
 |    Li      Li      Li       |  
 |     |                       |  
 |     |                       |  
 |     |                       |  
 |     |                       |  
 |     |                       |  
 |     |                       |  
 |     .-----------------------.  
 |    /                       /   
 |   /                       /    
 |  /                       /     
 | /                       /      
[...]
External:        +0.000000
XC:            -341.932927
Entropy (-ST):   -0.162167
Local:           +0.815749
--------------------------
Free energy:   -335.339506
Extrapolated:  -335.258423

Dipole-layer corrected work functions: 3.398089, 2.879189 eV

Showing only first 2 kpts
 Kpt  Band  Eigenvalues  Occupancy
  0    34     -3.33149    1.95861
  0    35     -3.15273    1.13996
  0    36     -3.12496    0.86403
  0    37     -3.03303    0.21585

  1    34     -3.45492    1.99643
  1    35     -3.09709    0.60691
  1    36     -3.03037    0.20581
  1    37     -3.02442    0.18487


Fermi level: -3.13864

No gap
Writing to output.gpw (mode='')


Forces in eV/Ang:
  0 Li   -0.00710   -0.01118   -0.29377
  1 Li    0.00784    0.01076   -0.29396
  2 Li    0.00022   -0.00070   -0.24860
  3 Li    0.01463    0.01461   -0.28564
  4 Li   -0.00767    0.00779   -0.29213
  5 Li   -0.01112   -0.00814   -0.29396
  6 Li    0.00733   -0.00743   -0.29167
  7 Li   -0.01433   -0.01464   -0.28457
  8 Li    0.01120    0.00695   -0.29367
  9 Li   -0.03010    0.03154    0.31897
 10 Li    0.00253    0.01404    0.28676
 11 Li    0.03041    0.03050    0.26463
 12 Li   -0.02917   -0.03030    0.27219
 13 Li   -0.01656   -0.01779    0.29868
 14 Li    0.02606   -0.02652    0.32820
 15 Li   -0.01552   -0.00534    0.29054
 16 Li   -0.00336    0.00218    0.29128
 17 Li    0.01825    0.01640    0.29293
 18 Li    0.00220    0.00138    0.00102
 19 Li    0.01395    0.00867    0.00289
 20 Li    0.01497   -0.00382   -0.00846
 21 Li   -0.00165   -0.00635   -0.00454
 22 Li   -0.00500    0.00463   -0.00761
 23 Li   -0.00243   -0.01570    0.00317
 24 Li    0.00467   -0.00054   -0.00304
 25 Li    0.00432    0.00382    0.00388
 26 Li    0.00385   -0.00663    0.00284
 27 Li    0.00727   -0.00133   -0.02219
 28 Li    0.00323    0.00325   -0.00928
 29 Li    0.02203    0.01501    0.01134
 30 Li    0.00181    0.00144   -0.00028
 31 Li   -0.02025    0.00459    0.00817
 32 Li   -0.02227    0.03105    0.00685
 33 Li   -0.00176   -0.00541   -0.00756
 34 Li    0.00741   -0.01410   -0.01080
 35 Li   -0.00480    0.01072    0.00822
 36 O    -0.01622    0.01491   -0.04524
 37 C     0.01948    0.00732   -0.00683
 38 C    -0.00382    0.00607   -0.05821
 39 C    -0.00738    0.00330    0.00037
 40 H     0.00942    0.01575    0.00916
 41 H     0.01147   -0.01106    0.03566
 42 H    -0.02102    0.00482   -0.01294
 43 H    -0.00755   -0.01622    0.01505
 44 H     0.02426   -0.01170    0.00096
 45 H    -0.00746   -0.02477   -0.02475
 46 H     0.00967    0.01171    0.02701
 47 H    -0.01203    0.00518   -0.02043
 48 N     0.00714   -0.02427    0.02532
 49 N     0.01689    0.01886    0.02704

System changes: positions 

Initializing position-dependent things.

Density initialized from wave functions
       .-----------------------.  
      /|                       |  
     / |                       |  
    /  |                       |  
   /   |                       |  
  /    |                       |  
 *     |                       |  
 |     |                       |  
 |     |            H H  H     |  
 |     |              C        |  
 |     |                       |  
 |     |           H HCH H     |  
 |     |              C        |  
 |     |                       |  
 |     Li      Li     OH       |  
 |     |                       |  
 |   Li|     Li      Li        |  
 |     |  Li      Li      Li   |  
 |     |   Li      LiN    Li   |  
 |     |Li      LiLi   NLi     |  
 |     |                       |  
 |   LLi     LLi     LLi       |  
 |     |  Li      Li      Li   |  
 | Li  |   Li      Li          |  
 |     |Li      Li      Li     |  
 Li    | Li      Li            |  
 |    Li      Li      Li       |  
 |     |                       |  
 |     |                       |  
 |     |                       |  
 |     |                       |  
 |     |                       |  
 |     |                       |  
 |     .-----------------------.  
 |    /                       /   
 |   /                       /    
 |  /                       /     
 | /                       /      
 |/                       /       
 *-----------------------*        

Positions:
   0 Li     1.617037    1.617037   10.000000    ( 0.0000,  0.0000,  0.0000)
   1 Li     4.851111    1.617037   10.000000    ( 0.0000,  0.0000,  0.0000)
   2 Li     8.085185    1.617037   10.000000    ( 0.0000,  0.0000,  0.0000)
   3 Li     1.617037    4.851111   10.000000    ( 0.0000,  0.0000,  0.0000)
   4 Li     4.851111    4.851111   10.000000    ( 0.0000,  0.0000,  0.0000)
   5 Li     8.085185    4.851111   10.000000    ( 0.0000,  0.0000,  0.0000)
   6 Li     1.617037    8.085185   10.000000    ( 0.0000,  0.0000,  0.0000)
   7 Li     4.851111    8.085185   10.000000    ( 0.0000,  0.0000,  0.0000)
   8 Li     8.085185    8.085185   10.000000    ( 0.0000,  0.0000,  0.0000)
   9 Li     0.000000    0.000000   11.617037    ( 0.0000,  0.0000,  0.0000)
  10 Li     3.234074    0.000000   11.617037    ( 0.0000,  0.0000,  0.0000)
  11 Li     6.468148    0.000000   11.617037    ( 0.0000,  0.0000,  0.0000)
  12 Li     0.000000    3.234074   11.617037    ( 0.0000,  0.0000,  0.0000)
  13 Li     3.234074    3.234074   11.617037    ( 0.0000,  0.0000,  0.0000)
  14 Li     6.468148    3.234074   11.617037    ( 0.0000,  0.0000,  0.0000)
  15 Li     0.000000    6.468148   11.617037    ( 0.0000,  0.0000,  0.0000)
  16 Li     3.234074    6.468148   11.617037    ( 0.0000,  0.0000,  0.0000)
  17 Li     6.468148    6.468148   11.617037    ( 0.0000,  0.0000,  0.0000)
  18 Li     1.594621    1.571049   13.515554    ( 0.0000,  0.0000,  0.0000)
  19 Li     4.854311    1.647036   13.505406    ( 0.0000,  0.0000,  0.0000)
  20 Li     8.075820    1.619307   13.573271    ( 0.0000,  0.0000,  0.0000)
  21 Li     1.554974    4.793921   13.506139    ( 0.0000,  0.0000,  0.0000)
  22 Li     4.815883    4.890042   13.494514    ( 0.0000,  0.0000,  0.0000)
  23 Li     8.049205    4.849190   13.508557    ( 0.0000,  0.0000,  0.0000)
  24 Li     1.649494    8.049476   13.495414    ( 0.0000,  0.0000,  0.0000)
  25 Li     4.907950    8.148703   13.498220    ( 0.0000,  0.0000,  0.0000)
  26 Li     8.124532    8.111387   13.509879    ( 0.0000,  0.0000,  0.0000)
  27 Li     0.120772   -0.127207   15.512445    ( 0.0000,  0.0000,  0.0000)
  28 Li     3.364295   -0.049959   15.455188    ( 0.0000,  0.0000,  0.0000)
  29 Li     6.708609    0.252947   15.614903    ( 0.0000,  0.0000,  0.0000)
  30 Li    -0.242493    2.993554   15.611825    ( 0.0000,  0.0000,  0.0000)
  31 Li     3.113472    3.280044   15.425676    ( 0.0000,  0.0000,  0.0000)
  32 Li     6.347799    3.353141   15.505263    ( 0.0000,  0.0000,  0.0000)
  33 Li     0.047806    6.341632   15.452641    ( 0.0000,  0.0000,  0.0000)
  34 Li     3.224910    6.483266   15.462919    ( 0.0000,  0.0000,  0.0000)
  35 Li     6.422243    6.606298   15.426784    ( 0.0000,  0.0000,  0.0000)
  36 O      7.886304    1.787031   19.658468    ( 0.0000,  0.0000,  0.0000)
  37 C      8.042430    1.254712   22.069133    ( 0.0000,  0.0000,  0.0000)
  38 C      8.013296    2.325423   20.981584    ( 0.0000,  0.0000,  0.0000)
  39 C      8.115649    1.867122   23.468496    ( 0.0000,  0.0000,  0.0000)
  40 H      7.151559    0.626508   21.970923    ( 0.0000,  0.0000,  0.0000)
  41 H      8.908110    0.602720   21.900811    ( 0.0000,  0.0000,  0.0000)
  42 H      7.142624    2.972732   21.112461    ( 0.0000,  0.0000,  0.0000)
  43 H      8.907287    2.961560   21.050090    ( 0.0000,  0.0000,  0.0000)
  44 H      7.241128    2.492146   23.668492    ( 0.0000,  0.0000,  0.0000)
  45 H      8.157737    1.099868   24.241482    ( 0.0000,  0.0000,  0.0000)
  46 H      9.003250    2.495701   23.573484    ( 0.0000,  0.0000,  0.0000)
  47 H      8.671670    1.255498   19.474151    ( 0.0000,  0.0000,  0.0000)
  48 N      7.648528    2.067145   15.586372    ( 0.0000,  0.0000,  0.0000)
  49 N      8.535302    1.177164   15.599103    ( 0.0000,  0.0000,  0.0000)

Unit cell:
           periodic     x           y           z      points  spacing
  1. axis:    yes    9.702222    0.000000    0.000000    60     0.1617
  2. axis:    yes    0.000000    9.702222    0.000000    60     0.1617
  3. axis:    no     0.000000    0.000000   26.601111   168     0.1583

  Lengths:   9.702222   9.702222  26.601111
  Angles:   90.000000  90.000000  90.000000

Effective grid spacing dv^(1/3) = 0.1606

     iter     time        total  log10-change:
                         energy  eigst   dens
iter:   1 03:51:49  -335.259029  -2.44
iter:   2 03:51:57  -335.259139  -3.19  -2.88
iter:   3 03:52:04  -335.259079c -3.71  -2.98
iter:   4 03:52:12  -335.259017c -4.10  -3.07
Writing to output.gpw (mode='')

iter:   5 03:52:19  -335.258971c -4.09  -3.21
iter:   6 03:52:27  -335.258961c -4.00  -3.41
iter:   7 03:52:34  -335.258972c -4.40  -3.60
iter:   8 03:52:42  -335.258969c -4.95  -3.75
iter:   9 03:52:49  -335.258964c -5.21  -3.84
Writing to output.gpw (mode='')

iter:  10 03:52:57  -335.258968c -5.42  -4.02c
iter:  11 03:53:04  -335.258967c -5.72  -4.04c
iter:  12 03:53:12  -335.258969c -5.88  -4.07c
iter:  13 03:53:19  -335.258968c -5.86  -4.20c
iter:  14 03:53:27  -335.258968c -6.27  -4.21c
Writing to output.gpw (mode='')

iter:  15 03:53:34  -335.258968c -6.29  -4.39c
iter:  16 03:53:42  -335.258969c -6.34  -4.49c
iter:  17 03:53:49  -335.258968c -6.86  -4.73c
iter:  18 03:53:57  -335.258968c -6.79  -4.81c
iter:  19 03:54:04  -335.258968c -6.92  -4.92c
Writing to output.gpw (mode='')

iter:  20 03:54:12  -335.258968c -7.12  -4.99c
iter:  21 03:54:19  -335.258968c -7.33  -5.04c
iter:  22 03:54:27  -335.258968c -7.52c -5.27c

Converged after 22 iterations.

Dipole moment: (0.204734, -4.466735, 0.269740) |e|*Ang

Energy contributions relative to reference atoms: (reference = -15487.462483)

Kinetic:       +164.181241
Potential:     -158.251591
External:        +0.000000
XC:            -341.923215
Entropy (-ST):   -0.162125
Local:           +0.815660
--------------------------
Free energy:   -335.340031
Extrapolated:  -335.258968

Dipole-layer corrected work functions: 3.398098, 2.879564 eV

Showing only first 2 kpts
 Kpt  Band  Eigenvalues  Occupancy
  0    34     -3.33166    1.95859
  0    35     -3.15324    1.14309
  0    36     -3.12521    0.86463
  0    37     -3.03294    0.21476

  1    34     -3.45520    1.99643
  1    35     -3.09688    0.60346
  1    36     -3.02997    0.20362
  1    37     -3.02446    0.18433


Fermi level: -3.13883

No gap
Writing to output.gpw (mode='')


Forces in eV/Ang:
  0 Li   -0.00698   -0.01099   -0.29415
  1 Li    0.00776    0.01088   -0.29408
  2 Li    0.00023   -0.00062   -0.24876
  3 Li    0.01463    0.01465   -0.28562
  4 Li   -0.00769    0.00778   -0.29228
  5 Li   -0.01125   -0.00805   -0.29405
  6 Li    0.00728   -0.00737   -0.29159
  7 Li   -0.01432   -0.01460   -0.28448
  8 Li    0.01106    0.00686   -0.29410
  9 Li   -0.03129    0.03230    0.32109
 10 Li    0.00298    0.01544    0.28799
 11 Li    0.03095    0.03182    0.26547
 12 Li   -0.03053   -0.03090    0.27266
 13 Li   -0.01615   -0.01889    0.29893
 14 Li    0.02635   -0.02710    0.32703
 15 Li   -0.01704   -0.00668    0.29180
 16 Li   -0.00224    0.00102    0.29108
 17 Li    0.01919    0.01535    0.29334
 18 Li    0.00511    0.00155   -0.00092
 19 Li    0.01285    0.00734    0.00136
 20 Li    0.01783   -0.00676   -0.00920
 21 Li   -0.00215   -0.00587   -0.00386
 22 Li   -0.00474    0.00446   -0.00739
 23 Li   -0.00094   -0.01371    0.00113
 24 Li    0.00389    0.00061   -0.00249
 25 Li    0.00430    0.00423    0.00456
 26 Li    0.00402   -0.00832    0.00148
 27 Li    0.01153   -0.00577   -0.01498
 28 Li    0.00282    0.00297   -0.00857
 29 Li    0.02812    0.02419    0.01104
 30 Li    0.00112    0.00208   -0.00048
 31 Li   -0.02090    0.00447    0.00866
 32 Li   -0.01849    0.02854    0.00486
 33 Li   -0.00153   -0.00465   -0.00696
 34 Li    0.00709   -0.01384   -0.01071
 35 Li   -0.00480    0.01128    0.00886
 36 O    -0.01004    0.00319   -0.04612
 37 C     0.00800    0.00510   -0.00163
 38 C     0.00221    0.00499   -0.04426
 39 C     0.00222    0.00776    0.00841
 40 H     0.00305    0.01242   -0.00042
 41 H     0.01282   -0.00293    0.02467
 42 H    -0.02097   -0.00934   -0.01762
 43 H     0.00115   -0.01231    0.02230
 44 H     0.01262    0.00030    0.00028
 45 H     0.00168   -0.02307   -0.03033
 46 H     0.00811    0.00751    0.03440
 47 H    -0.02797    0.01372   -0.02149
 48 N     0.00706   -0.01710    0.03456
 49 N     0.01238    0.02318    0.02759

Timing:                                      incl.     excl.
-------------------------------------------------------------------
Density initialized from wave functions:     6.119     6.117   0.0% |
 Symmetrize density:                         0.002     0.002   0.0% |
Forces:                                     54.373    54.373   0.2% |
Hamiltonian:                               754.890     0.017   0.0% |
 Atomic:                                     0.029     0.028   0.0% |
  XC Correction:                             0.000     0.000   0.0% |
 Calculate atomic Hamiltonians:              0.051     0.051   0.0% |
 Communicate:                               12.713    12.713   0.0% |
 Hartree integrate/restrict:                 3.047     3.047   0.0% |
 Initialize Hamiltonian:                     0.000     0.000   0.0% |
 Poisson:                                   34.875    12.748   0.0% |
  Communicate from 1D:                       3.574     3.574   0.0% |
  Communicate from 2D:                       3.506     3.506   0.0% |
  Communicate to 1D:                         1.974     1.974   0.0% |
  Communicate to 2D:                         4.313     4.313   0.0% |
  FFT 1D:                                    4.510     4.510   0.0% |
  FFT 2D:                                    4.251     4.251   0.0% |
 XC 3D grid:                               703.518   107.389   0.3% |
  VdW-DF integral:                         596.129     4.924   0.0% |
   Convolution:                             53.341    53.341   0.2% |
   FFT:                                     23.260    23.260   0.1% |
   gather:                                 203.316   203.316   0.6% |
   hmm1:                                    19.654    19.654   0.1% |
   hmm2:                                    25.832    25.832   0.1% |
   iFFT:                                    24.001    24.001   0.1% |
   potential:                              238.201     6.489   0.0% |
    collect:                                35.487    35.487   0.1% |
    p1:                                    105.855   105.855   0.3% |
    p2:                                     39.054    39.054   0.1% |
    sum:                                    51.315    51.315   0.2% |
   splines:                                  3.601     3.601   0.0% |
 vbar:                                       0.639     0.639   0.0% |
LCAO initialization:                         1.092     0.183   0.0% |
 LCAO eigensolver:                           0.175     0.000   0.0% |
  Calculate projections:                     0.000     0.000   0.0% |
  DenseAtomicCorrection:                     0.000     0.000   0.0% |
  Distribute overlap matrix:                 0.160     0.160   0.0% |
  Orbital Layouts:                           0.013     0.013   0.0% |
  Potential matrix:                          0.001     0.001   0.0% |
  Sum over cells:                            0.001     0.001   0.0% |
 LCAO to grid:                               0.646     0.646   0.0% |
 Set positions (LCAO WFS):                   0.087     0.046   0.0% |
  Basic WFS set positions:                   0.001     0.001   0.0% |
  Basis functions set positions:             0.000     0.000   0.0% |
  P tci:                                     0.000     0.000   0.0% |
  ST tci:                                    0.011     0.011   0.0% |
  mktci:                                     0.028     0.028   0.0% |
Redistribute:                                0.081     0.081   0.0% |
SCF-cycle:                               32820.518   643.628   1.9% ||
 Davidson:                                8809.705  2644.159   7.8% |--|
  Apply hamiltonian:                       554.816   554.816   1.6% ||
  Subspace diag:                          1657.165     0.509   0.0% |
   calc_h_matrix:                          823.542   253.311   0.7% |
    Apply hamiltonian:                     570.230   570.230   1.7% ||
   diagonalize:                             84.958    84.958   0.3% |
   rotate_psi:                             748.156   748.156   2.2% ||
  calc. matrices:                         2739.247  1423.702   4.2% |-|
   Apply hamiltonian:                     1315.545  1315.545   3.9% |-|
  diagonalize:                              25.952    25.952   0.1% |
  rotate_psi:                             1188.367  1188.367   3.5% ||
 Density:                                  164.972     0.123   0.0% |
  Atomic density matrices:                  18.324    18.324   0.1% |
  Mix:                                      72.199    72.199   0.2% |
  Multipole moments:                         8.461     8.461   0.0% |
  Pseudo density:                           65.865    65.758   0.2% |
   Symmetrize density:                       0.107     0.107   0.0% |
 Hamiltonian:                            23176.697     0.526   0.0% |
  Atomic:                                    1.032     1.022   0.0% |
   XC Correction:                            0.010     0.010   0.0% |
  Calculate atomic Hamiltonians:             1.618     1.618   0.0% |
  Communicate:                             333.954   333.954   1.0% |
  Hartree integrate/restrict:               91.128    91.128   0.3% |
  Poisson:                                1104.772   405.726   1.2% |
   Communicate from 1D:                    113.010   113.010   0.3% |
   Communicate from 2D:                    111.510   111.510   0.3% |
   Communicate to 1D:                       63.351    63.351   0.2% |
   Communicate to 2D:                      135.437   135.437   0.4% |
   FFT 1D:                                 141.265   141.265   0.4% |
   FFT 2D:                                 134.473   134.473   0.4% |
  XC 3D grid:                            21624.146  3345.435   9.9% |---|
   VdW-DF integral:                      18278.711   152.414   0.5% |
    Convolution:                          1652.423  1652.423   4.9% |-|
    FFT:                                   720.780   720.780   2.1% ||
    gather:                               6331.347  6331.347  18.7% |------|
    hmm1:                                  611.675   611.675   1.8% ||
    hmm2:                                  798.353   798.353   2.4% ||
    iFFT:                                  743.322   743.322   2.2% ||
    potential:                            7268.356   203.444   0.6% |
     collect:                             1111.120  1111.120   3.3% ||
     p1:                                  3276.449  3276.449   9.7% |---|
     p2:                                  1208.650  1208.650   3.6% ||
     sum:                                 1468.694  1468.694   4.3% |-|
    splines:                                 0.041     0.041   0.0% |
  vbar:                                     19.521    19.521   0.1% |
 Orthonormalize:                            25.515     0.019   0.0% |
  calc_s_matrix:                             3.764     3.764   0.0% |
  inverse-cholesky:                          7.275     7.275   0.0% |
  projections:                               0.003     0.003   0.0% |
  rotate_psi_s:                             14.455    14.455   0.0% |
Set symmetry:                                0.002     0.002   0.0% |
Other:                                     142.935   142.935   0.4% |
-------------------------------------------------------------------
Total:                                             33780.010 100.0%

Memory usage: 1.14 GiB
Date: Sat Mar 11 03:54:27 2023
