
  ___ ___ ___ _ _ _  
 |   |   |_  | | | | 
 | | | | | . | | | | 
 |__ |  _|___|_____|  22.8.0
 |___|_|             

User:   vazumah@c08.hercules
Date:   Thu Mar  2 03:24:29 2023
Arch:   x86_64
Pid:    21772
CWD:    /home/vazumah/Python_projects/LiNRR/Li_adsorb_studies/proton_donors/N2_with_proton_donor/Li_BCC_100/adsorbates/HBr/ontop/9.702_9.702/N2_x
Python: 3.10.8
gpaw:   /home/vazumah/.conda/envs/GPAW/lib/python3.10/site-packages/gpaw
_gpaw:  /home/vazumah/.conda/envs/GPAW/lib/python3.10/site-packages/
        _gpaw.cpython-310-x86_64-linux-gnu.so
ase:    /home/vazumah/.conda/envs/GPAW/lib/python3.10/site-packages/ase (version 3.22.1)
numpy:  /home/vazumah/.conda/envs/GPAW/lib/python3.10/site-packages/numpy (version 1.24.1)
scipy:  /home/vazumah/.conda/envs/GPAW/lib/python3.10/site-packages/scipy (version 1.10.0)
libxc:  5.2.3
units:  Angstrom and eV
cores: 24
OpenMP: True
OMP_NUM_THREADS: 1

Input parameters:
  h: 0.16
  kpts: {size: [4, 4, 1]}
  occupations: {name: fermi-dirac,
                width: 0.05}
  poissonsolver: {dipolelayer: xy}
  xc: BEEF-vdW

System changes: positions, numbers, cell, pbc, initial_charges, initial_magmoms 

Initialize ...

species:
  Li:
    name: Lithium
    id: 830b4218f175192f93f959cfc0aad614
    Z: 3.0
    valence: 1
    core: 2
    charge: 0.0
    file: /home/vazumah/.conda/envs/GPAW/share/gpaw/Li.PBE.gz
    compensation charges: {type: gauss,
                           rc: 0.33,
                           lmax: 2}
    cutoffs: {filter: 1.91,
              core: 2.55}
    valence states:
      #              energy  rcut
      - 2s(1.00)    -2.874   1.058
      - 2p(0.00)    -1.090   1.058
      -  s          24.337   1.058
  
    # Using partial waves for Li as LCAO basis

  Br:
    name: Bromine
    id: 39dc90fcf3bf77f2d83386b416c2c495
    Z: 35.0
    valence: 7
    core: 28
    charge: 0.0
    file: /home/vazumah/.conda/envs/GPAW/share/gpaw/Br.PBE.gz
    compensation charges: {type: gauss,
                           rc: 0.35,
                           lmax: 2}
    cutoffs: {filter: 1.98,
              core: 2.38}
    valence states:
      #              energy  rcut
      - 4s(2.00)   -20.121   1.111
      - 4p(5.00)    -7.861   1.111
      -  s           7.091   1.111
      -  p          19.351   1.111
      -  d           0.000   1.111
  
    # Using partial waves for Br as LCAO basis

  H:
    name: Hydrogen
    id: d65de229564ff8ea4db303e23b6d1ecf
    Z: 1.0
    valence: 1
    core: 0
    charge: 0.0
    file: /home/vazumah/.conda/envs/GPAW/share/gpaw/H.PBE.gz
    compensation charges: {type: gauss,
                           rc: 0.15,
                           lmax: 2}
    cutoffs: {filter: 0.85,
              core: 0.53}
    valence states:
      #              energy  rcut
      - 1s(1.00)    -6.494   0.476
      -  s          20.717   0.476
      -  p           0.000   0.476
  
    # Using partial waves for H as LCAO basis

  N:
    name: Nitrogen
    id: f7500608b86eaa90eef8b1d9a670dc53
    Z: 7.0
    valence: 5
    core: 2
    charge: 0.0
    file: /home/vazumah/.conda/envs/GPAW/share/gpaw/N.PBE.gz
    compensation charges: {type: gauss,
                           rc: 0.18,
                           lmax: 2}
    cutoffs: {filter: 1.11,
              core: 0.96}
    valence states:
      #              energy  rcut
      - 2s(2.00)   -18.583   0.603
      - 2p(3.00)    -7.089   0.529
      -  s           8.629   0.603
      -  p          20.123   0.529
      -  d           0.000   0.577
  
    # Using partial waves for N as LCAO basis

Reference energy: -81178.542429  # eV

Spin-paired calculation

Convergence criteria:
 Maximum [total energy] change in last 3 cyles: 0.0005 eV / electron
 Maximum integral of absolute [dens]ity change: 0.0001 electrons / valence electron
 Maximum integral of absolute [eigenst]ate change: 4e-08 eV^2 / valence electron
 Maximum number of scf [iter]ations: 333
 (Square brackets indicate name in SCF output, whereas a 'c' in
 the SCF output indicates the quantity has converged.)

Symmetries present (total): 1

  ( 1  0  0)
  ( 0  1  0)
  ( 0  0  1)

16 k-points: 4 x 4 x 1 Monkhorst-Pack grid
8 k-points in the irreducible part of the Brillouin zone
       k-points in crystal coordinates                weights
   0:     0.12500000   -0.37500000    0.00000000          2/16
   1:     0.12500000   -0.12500000    0.00000000          2/16
   2:     0.12500000    0.12500000    0.00000000          2/16
   3:     0.12500000    0.37500000    0.00000000          2/16
   4:     0.37500000   -0.37500000    0.00000000          2/16
   5:     0.37500000   -0.12500000    0.00000000          2/16
   6:     0.37500000    0.12500000    0.00000000          2/16
   7:     0.37500000    0.37500000    0.00000000          2/16

Wave functions: Uniform real-space grid
  Kinetic energy operator: 6*3+1=19 point O(h^6) finite-difference Laplacian
  ScaLapack parameters: grid=1x1, blocksize=None
  Wavefunction extrapolation:
    Improved wavefunction reuse through dual PAW basis 

Occupation numbers: Fermi-Dirac:
  width: 0.0500  # eV
 

Eigensolver
   Davidson(niter=2) 

Densities:
  Coarse grid: 60*60*168 grid
  Fine grid: 120*120*336 grid
  Total Charge: 0.000000 

Density mixing:
  Method: separate
  Backend: pulay
  Linear mixing parameter: 0.05
  old densities: 5
  Damping of long wavelength oscillations: 50 

Hamiltonian:
  XC and Coulomb potentials evaluated on a 120*120*336 grid
  Using the BEEF-vdW Exchange-Correlation functional
  Interpolation: tri-quintic (5. degree polynomial)
  Poisson solver: FastPoissonSolver using
    Stencil: 6*3+1=19 point O(h^6) finite-difference Laplacian
    FFT axes: [0, 1]
    FST axes: [2]

Dipole correction along z-axis 

XC parameters: BEEF-vdW with 2 nearest neighbor stencil

Memory estimate:
  Process memory now: 229.09 MiB
  Calculator: 395.41 MiB
    Density: 121.75 MiB
      Arrays: 39.61 MiB
      Localized functions: 67.04 MiB
      Mixer: 15.11 MiB
    Hamiltonian: 31.20 MiB
      Arrays: 25.90 MiB
      XC: 0.00 MiB
      Poisson: 0.00 MiB
      vbar: 5.30 MiB
    Wavefunctions: 242.46 MiB
      Arrays psit_nG: 111.79 MiB
      Eigensolver: 127.10 MiB
      Projections: 0.04 MiB
      Projectors: 3.53 MiB

Total number of cores used: 24
Parallelization over k-points: 8
Domain decomposition: 1 x 1 x 3

Number of atoms: 40
Number of atomic orbitals: 157
Number of bands in calculation: 37
Number of valence electrons: 54
Bands to converge: occupied

... initialized

Initializing position-dependent things.

Density initialized from atomic densities
Creating initial wave functions:
  37 bands from LCAO basis set

       .-----------------------.  
      /|                       |  
     / |                       |  
    /  |                       |  
   /   |                       |  
  /    |                       |  
 *     |                       |  
 |     |                       |  
 |     |                       |  
 |     |                       |  
 |     |                       |  
 |     |                       |  
 |     |                    N  N  
 |     |                       |  
 |     |                       |  
 Br    |             H         |  
 |   Li|     Li      Li        |  
 |     |  Li      Li      Li   |  
 | Li  |   Li      Li          |  
 |     |Li      Li      Li     |  
 Li    | Li      Li            |  
 |   LLi     LLi     LLi       |  
 |     |  Li      Li      Li   |  
 | Li  |   Li      Li          |  
 |     |Li      Li      Li     |  
 Li    | Li      Li            |  
 |    Li      Li      Li       |  
 |     |                       |  
 |     |                       |  
 |     |                       |  
 |     |                       |  
 |     |                       |  
 |     |                       |  
 |     .-----------------------.  
 |    /                       /   
 |   /                       /    
 |  /                       /     
 | /                       /      
 |/                       /       
 *-----------------------*        

Positions:
   0 Li     1.617037    1.617037   10.000000    ( 0.0000,  0.0000,  0.0000)
   1 Li     4.851111    1.617037   10.000000    ( 0.0000,  0.0000,  0.0000)
   2 Li     8.085185    1.617037   10.000000    ( 0.0000,  0.0000,  0.0000)
   3 Li     1.617037    4.851111   10.000000    ( 0.0000,  0.0000,  0.0000)
   4 Li     4.851111    4.851111   10.000000    ( 0.0000,  0.0000,  0.0000)
   5 Li     8.085185    4.851111   10.000000    ( 0.0000,  0.0000,  0.0000)
   6 Li     1.617037    8.085185   10.000000    ( 0.0000,  0.0000,  0.0000)
   7 Li     4.851111    8.085185   10.000000    ( 0.0000,  0.0000,  0.0000)
   8 Li     8.085185    8.085185   10.000000    ( 0.0000,  0.0000,  0.0000)
   9 Li     0.000000    0.000000   11.617037    ( 0.0000,  0.0000,  0.0000)
  10 Li     3.234074    0.000000   11.617037    ( 0.0000,  0.0000,  0.0000)
  11 Li     6.468148    0.000000   11.617037    ( 0.0000,  0.0000,  0.0000)
  12 Li     0.000000    3.234074   11.617037    ( 0.0000,  0.0000,  0.0000)
  13 Li     3.234074    3.234074   11.617037    ( 0.0000,  0.0000,  0.0000)
  14 Li     6.468148    3.234074   11.617037    ( 0.0000,  0.0000,  0.0000)
  15 Li     0.000000    6.468148   11.617037    ( 0.0000,  0.0000,  0.0000)
  16 Li     3.234074    6.468148   11.617037    ( 0.0000,  0.0000,  0.0000)
  17 Li     6.468148    6.468148   11.617037    ( 0.0000,  0.0000,  0.0000)
  18 Li     1.617038    1.617038   13.469728    ( 0.0000,  0.0000,  0.0000)
  19 Li     4.851111    1.617038   13.469729    ( 0.0000,  0.0000,  0.0000)
  20 Li     8.085184    1.617038   13.469728    ( 0.0000,  0.0000,  0.0000)
  21 Li     1.617038    4.851111   13.469729    ( 0.0000,  0.0000,  0.0000)
  22 Li     4.851111    4.851111   13.469730    ( 0.0000,  0.0000,  0.0000)
  23 Li     8.085184    4.851111   13.469729    ( 0.0000,  0.0000,  0.0000)
  24 Li     1.617038    8.085184   13.469728    ( 0.0000,  0.0000,  0.0000)
  25 Li     4.851111    8.085184   13.469729    ( 0.0000,  0.0000,  0.0000)
  26 Li     8.085184    8.085184   13.469728    ( 0.0000,  0.0000,  0.0000)
  27 Li    -0.000000   -0.000000   15.445939    ( 0.0000,  0.0000,  0.0000)
  28 Li     3.234074    0.000000   15.445939    ( 0.0000,  0.0000,  0.0000)
  29 Li     6.468148    0.000000   15.445939    ( 0.0000,  0.0000,  0.0000)
  30 Li     0.000000    3.234074   15.445939    ( 0.0000,  0.0000,  0.0000)
  31 Li     3.234076    3.234076   15.445938    ( 0.0000,  0.0000,  0.0000)
  32 Li     6.468146    3.234076   15.445938    ( 0.0000,  0.0000,  0.0000)
  33 Li     0.000000    6.468148   15.445939    ( 0.0000,  0.0000,  0.0000)
  34 Li     3.234076    6.468146   15.445938    ( 0.0000,  0.0000,  0.0000)
  35 Li     6.468146    6.468146   15.445938    ( 0.0000,  0.0000,  0.0000)
  36 Br     9.702222    9.702222   19.445939    ( 0.0000,  0.0000,  0.0000)
  37 H      8.280365    9.702222   19.445939    ( 0.0000,  0.0000,  0.0000)
  38 N      9.702000    9.702000   17.445939    ( 0.0000,  0.0000,  0.0000)
  39 N      8.605378    9.702000   17.445939    ( 0.0000,  0.0000,  0.0000)

Unit cell:
           periodic     x           y           z      points  spacing
  1. axis:    yes    9.702222    0.000000    0.000000    60     0.1617
  2. axis:    yes    0.000000    9.702222    0.000000    60     0.1617
  3. axis:    no     0.000000    0.000000   26.851111   168     0.1598

  Lengths:   9.702222   9.702222  26.851111
  Angles:   90.000000  90.000000  90.000000

Effective grid spacing dv^(1/3) = 0.1611

     iter     time        total  log10-change:
                         energy  eigst   dens
iter:   1 03:25:51  -480.317080
iter:   2 03:26:42  -253.300246  +2.34  -0.07
iter:   3 03:27:33  -200.543066  +3.24  -0.23
iter:   4 03:28:24  -281.597664  +3.18  -0.19
Writing to output.gpw (mode='')

iter:   5 03:29:16  -271.500570  +2.56  -0.20
iter:   6 03:30:07  -289.504722  +2.42  -0.46
iter:   7 03:30:58  -299.227585  +2.15  -0.63
iter:   8 03:31:49  -327.680727  +2.37  -0.72
iter:   9 03:32:40  -339.621302  +2.20  -0.55
Writing to output.gpw (mode='')

iter:  10 03:33:32  -341.632683  +1.98  -0.61
iter:  11 03:34:24  -354.120313  +1.91  -0.58
iter:  12 03:35:15  -386.331536  +2.11  -0.48
iter:  13 03:36:06  -382.688810  +1.69  -0.46
iter:  14 03:36:57  -361.426684  +1.09  -0.46
Writing to output.gpw (mode='')

iter:  15 03:37:50  -346.132416  +1.04  -0.50
iter:  16 03:38:41  -340.442672  +1.39  -0.54
iter:  17 03:39:32  -331.106745  +1.03  -0.62
iter:  18 03:40:23  -330.090555  +0.49  -0.79
iter:  19 03:41:14  -335.778272  +1.09  -0.81
Writing to output.gpw (mode='')

iter:  20 03:42:06  -327.757009  +0.63  -0.76
iter:  21 03:42:57  -327.656689  +0.18  -1.01
iter:  22 03:43:48  -327.585928  -0.05  -1.02
iter:  23 03:44:39  -327.484175  -0.23  -1.02
iter:  24 03:45:30  -327.367208  -0.09  -1.03
Writing to output.gpw (mode='')

iter:  25 03:46:22  -326.875093  +0.24  -1.02
iter:  26 03:47:13  -326.851859  -0.34  -1.25
iter:  27 03:48:04  -326.821624  -0.33  -1.30
iter:  28 03:48:55  -326.833298  -0.24  -1.33
iter:  29 03:49:46  -326.693943  -0.21  -1.36
Writing to output.gpw (mode='')

iter:  30 03:50:39  -326.659249  -0.61  -1.49
iter:  31 03:51:30  -326.629873  -0.54  -1.56
iter:  32 03:52:21  -326.623061  -0.95  -1.77
iter:  33 03:53:12  -326.618195c -1.23  -1.88
iter:  34 03:54:03  -326.621090c -1.28  -1.94
Writing to output.gpw (mode='')

iter:  35 03:54:56  -326.625369c -1.32  -1.96
iter:  36 03:55:47  -326.628560c -1.50  -2.03
iter:  37 03:56:38  -326.636102c -1.44  -2.18
iter:  38 03:57:29  -326.632162c -1.80  -2.22
iter:  39 03:58:20  -326.634771c -1.49  -2.35
Writing to output.gpw (mode='')

iter:  40 03:59:13  -326.636679c -1.83  -2.37
iter:  41 04:00:04  -326.638274c -2.05  -2.56
iter:  42 04:00:54  -326.638951c -1.94  -2.60
iter:  43 04:01:45  -326.640064c -1.97  -2.76
iter:  44 04:02:36  -326.641043c -2.23  -2.77
Writing to output.gpw (mode='')

iter:  45 04:03:30  -326.641621c -2.40  -2.87
iter:  46 04:04:21  -326.642316c -2.27  -3.02
iter:  47 04:05:12  -326.642855c -2.43  -3.13
iter:  48 04:06:03  -326.643253c -2.63  -3.19
iter:  49 04:06:54  -326.643545c -2.88  -3.24
Writing to output.gpw (mode='')

iter:  50 04:07:47  -326.643870c -2.69  -3.27
iter:  51 04:08:38  -326.644134c -2.79  -3.36
iter:  52 04:09:29  -326.644305c -3.04  -3.41
iter:  53 04:10:20  -326.644460c -3.03  -3.55
iter:  54 04:11:11  -326.644570c -3.18  -3.60
Writing to output.gpw (mode='')

iter:  55 04:12:03  -326.644674c -3.22  -3.60
iter:  56 04:12:54  -326.644776c -3.32  -3.63
iter:  57 04:13:45  -326.644842c -3.40  -3.74
iter:  58 04:14:36  -326.644907c -3.48  -3.71
iter:  59 04:15:27  -326.644969c -3.42  -3.78
Writing to output.gpw (mode='')

iter:  60 04:16:19  -326.645027c -3.65  -3.86
iter:  61 04:17:10  -326.645068c -3.73  -3.92
iter:  62 04:18:02  -326.645097c -3.85  -4.21c
iter:  63 04:18:52  -326.645127c -3.80  -4.29c
iter:  64 04:19:43  -326.645146c -3.96  -4.37c
Writing to output.gpw (mode='')

iter:  65 04:20:36  -326.645165c -4.04  -4.32c
iter:  66 04:21:27  -326.645183c -3.84  -4.25c
iter:  67 04:22:18  -326.645196c -4.13  -4.12c
iter:  68 04:23:09  -326.645207c -4.18  -4.07c
iter:  69 04:24:00  -326.645219c -4.22  -4.02c
Writing to output.gpw (mode='')

iter:  70 04:24:53  -326.645230c -3.89  -4.01c
iter:  71 04:25:44  -326.645238c -4.25  -3.97
iter:  72 04:26:35  -326.645246c -4.21  -3.94
iter:  73 04:27:26  -326.645253c -4.24  -3.91
iter:  74 04:28:17  -326.645258c -4.31  -3.88
Writing to output.gpw (mode='')

iter:  75 04:29:10  -326.645264c -4.51  -3.86
iter:  76 04:30:01  -326.645270c -4.45  -3.86
iter:  77 04:30:52  -326.645270c -4.61  -3.83
iter:  78 04:31:43  -326.645272c -4.82  -3.81
iter:  79 04:32:34  -326.645286c -4.88  -3.75
Writing to output.gpw (mode='')

iter:  80 04:33:26  -326.645287c -4.96  -3.91
iter:  81 04:34:18  -326.645290c -4.81  -3.89
iter:  82 04:35:09  -326.645293c -5.04  -3.87
iter:  83 04:35:59  -326.645297c -4.98  -3.96
iter:  84 04:36:51  -326.645301c -4.77  -3.99
Writing to output.gpw (mode='')

iter:  85 04:37:44  -326.645307c -4.95  -4.08c
iter:  86 04:38:35  -326.645303c -5.32  -4.15c
iter:  87 04:39:26  -326.645303c -5.48  -4.27c
iter:  88 04:40:17  -326.645304c -5.42  -4.33c
iter:  89 04:41:08  -326.645308c -5.42  -4.40c
Writing to output.gpw (mode='')

iter:  90 04:42:00  -326.645306c -5.73  -4.60c
iter:  91 04:42:51  -326.645307c -5.67  -4.68c
iter:  92 04:43:42  -326.645306c -5.36  -4.75c
iter:  93 04:44:33  -326.645308c -5.82  -4.86c
iter:  94 04:45:24  -326.645308c -5.68  -4.93c
Writing to output.gpw (mode='')

iter:  95 04:46:17  -326.645307c -5.84  -4.99c
iter:  96 04:47:08  -326.645308c -5.96  -5.16c
iter:  97 04:47:59  -326.645308c -5.94  -5.27c
iter:  98 04:48:50  -326.645308c -6.11  -5.32c
iter:  99 04:49:41  -326.645308c -6.07  -5.42c
Writing to output.gpw (mode='')

iter: 100 04:50:34  -326.645308c -6.16  -5.55c
iter: 101 04:51:24  -326.645308c -6.18  -5.55c
iter: 102 04:52:15  -326.645308c -6.26  -5.50c
iter: 103 04:53:06  -326.645308c -6.16  -5.42c
iter: 104 04:53:57  -326.645308c -6.42  -5.39c
Writing to output.gpw (mode='')

iter: 105 04:54:49  -326.645308c -6.57  -5.35c
iter: 106 04:55:40  -326.645308c -6.38  -5.33c
iter: 107 04:56:31  -326.645308c -6.25  -5.30c
iter: 108 04:57:22  -326.645308c -6.46  -5.25c
iter: 109 04:58:13  -326.645308c -6.26  -5.25c
Writing to output.gpw (mode='')

iter: 110 04:59:05  -326.645308c -6.72  -5.24c
iter: 111 04:59:56  -326.645308c -6.72  -5.20c
iter: 112 05:00:47  -326.645308c -6.79  -5.19c
iter: 113 05:01:38  -326.645308c -6.66  -5.22c
iter: 114 05:02:29  -326.645308c -6.74  -5.19c
Writing to output.gpw (mode='')

iter: 115 05:03:22  -326.645308c -6.73  -5.19c
iter: 116 05:04:13  -326.645308c -6.75  -5.25c
iter: 117 05:05:04  -326.645308c -6.83  -5.38c
iter: 118 05:05:55  -326.645308c -7.02  -5.47c
iter: 119 05:06:45  -326.645308c -7.03  -5.61c
Writing to output.gpw (mode='')

iter: 120 05:07:38  -326.645308c -6.98  -5.71c
iter: 121 05:08:29  -326.645308c -6.97  -5.83c
iter: 122 05:09:20  -326.645308c -7.19  -5.89c
iter: 123 05:10:11  -326.645308c -7.29  -5.93c
iter: 124 05:11:02  -326.645308c -7.29  -6.08c
Writing to output.gpw (mode='')

iter: 125 05:11:55  -326.645308c -7.36  -6.11c
iter: 126 05:12:46  -326.645308c -7.24  -6.18c
iter: 127 05:13:37  -326.645308c -7.54c -6.28c

Converged after 127 iterations.

Dipole moment: (-8.191602, -15.131436, 0.040011) |e|*Ang

Energy contributions relative to reference atoms: (reference = -81178.542429)

Kinetic:       +138.416205
Potential:     -121.064559
External:        +0.000000
XC:            -344.133482
Entropy (-ST):   -0.155036
Local:           +0.214045
--------------------------
Free energy:   -326.722826
Extrapolated:  -326.645308

Dipole-layer corrected work functions: 3.398585, 3.321670 eV

Showing only first 2 kpts
 Kpt  Band  Eigenvalues  Occupancy
  0    25     -3.61065    1.98675
  0    26     -3.51567    1.91467
  0    27     -3.21643    0.10692
  0    28     -3.11172    0.01382

  1    25     -3.38684    1.26097
  1    26     -3.36057    1.00444
  1    27     -3.32680    0.67857
  1    28     -3.29206    0.40801


Fermi level: -3.36013

No gap
Writing to output.gpw (mode='')


Forces in eV/Ang:
  0 Li    0.01309    0.00231   -0.27168
  1 Li   -0.00540   -0.00325   -0.27031
  2 Li   -0.00716    0.01281   -0.27062
  3 Li   -0.00280   -0.00000   -0.27063
  4 Li    0.00482    0.00000   -0.28754
  5 Li   -0.00092   -0.00000   -0.27129
  6 Li    0.01310   -0.00231   -0.27168
  7 Li   -0.00541    0.00325   -0.27031
  8 Li   -0.00717   -0.01281   -0.27062
  9 Li   -0.00345   -0.00000    0.31587
 10 Li    0.01428   -0.00000    0.24239
 11 Li   -0.00984    0.00000    0.25985
 12 Li    0.00062    0.01303    0.25325
 13 Li   -0.00064   -0.00299    0.25706
 14 Li    0.00054    0.01044    0.25228
 15 Li    0.00062   -0.01302    0.25326
 16 Li   -0.00064    0.00299    0.25706
 17 Li    0.00054   -0.01044    0.25228
 18 Li   -0.00487   -0.00272    0.02374
 19 Li    0.00939   -0.00499    0.05589
 20 Li   -0.00523    0.00949   -0.02168
 21 Li    0.00136    0.00001    0.04835
 22 Li   -0.00891   -0.00000    0.01946
 23 Li    0.00520    0.00001    0.06343
 24 Li   -0.00486    0.00272    0.02372
 25 Li    0.00939    0.00499    0.05589
 26 Li   -0.00524   -0.00950   -0.02172
 27 Li   -0.00229    0.00006   -0.46758
 28 Li    0.00923    0.00000   -0.02960
 29 Li    0.04880   -0.00000    0.05936
 30 Li    0.01612    0.07890   -0.06463
 31 Li    0.00260   -0.00761   -0.02296
 32 Li   -0.02262    0.02885   -0.04069
 33 Li    0.01613   -0.07893   -0.06465
 34 Li    0.00261    0.00760   -0.02297
 35 Li   -0.02265   -0.02888   -0.04070
 36 Br    3.47654    0.00123   10.89455
 37 H    -0.20049   -0.00003   -0.11422
 38 N     3.62591    0.00042   -4.29698
 39 N    -6.98696   -0.00012   -5.90515

System changes: positions 

Initializing position-dependent things.

Density initialized from wave functions
       .-----------------------.  
      /|                       |  
     / |                       |  
    /  |                       |  
   /   |                       |  
  /    |                       |  
 *     |                       |  
 |     |                       |  
 |     |                       |  
 |     |                   H   |  
 |     |                       |  
 |     |                       |  
 |     N                    N  |  
 |     |                       |  
 |     |               Li      |  
 Br    |                       |  
 |   Li|     Li      Li        |  
 |     |  Li      Li      Li   |  
 | Li  |   Li      Li          |  
 |     |Li      Li      Li     |  
 |     | Li              Li    |  
 |   LLi     LLi     LLi       |  
 |     |  Li      Li      Li   |  
 | Li  |   Li      Li          |  
 |     |Li      Li      Li     |  
 Li    | Li      Li            |  
 |    Li      Li      Li       |  
 |     |                       |  
 |     |                       |  
 |     |                       |  
 |     |                       |  
 |     |                       |  
 |     |                       |  
 |     .-----------------------.  
 |    /                       /   
 |   /                       /    
 |  /                       /     
 | /                       /      
 |/                       /       
 *-----------------------*        

Positions:
   0 Li     1.617037    1.617037   10.000000    ( 0.0000,  0.0000,  0.0000)
   1 Li     4.851111    1.617037   10.000000    ( 0.0000,  0.0000,  0.0000)
   2 Li     8.085185    1.617037   10.000000    ( 0.0000,  0.0000,  0.0000)
   3 Li     1.617037    4.851111   10.000000    ( 0.0000,  0.0000,  0.0000)
   4 Li     4.851111    4.851111   10.000000    ( 0.0000,  0.0000,  0.0000)
   5 Li     8.085185    4.851111   10.000000    ( 0.0000,  0.0000,  0.0000)
   6 Li     1.617037    8.085185   10.000000    ( 0.0000,  0.0000,  0.0000)
   7 Li     4.851111    8.085185   10.000000    ( 0.0000,  0.0000,  0.0000)
   8 Li     8.085185    8.085185   10.000000    ( 0.0000,  0.0000,  0.0000)
   9 Li     0.000000    0.000000   11.617037    ( 0.0000,  0.0000,  0.0000)
  10 Li     3.234074    0.000000   11.617037    ( 0.0000,  0.0000,  0.0000)
  11 Li     6.468148    0.000000   11.617037    ( 0.0000,  0.0000,  0.0000)
  12 Li     0.000000    3.234074   11.617037    ( 0.0000,  0.0000,  0.0000)
  13 Li     3.234074    3.234074   11.617037    ( 0.0000,  0.0000,  0.0000)
  14 Li     6.468148    3.234074   11.617037    ( 0.0000,  0.0000,  0.0000)
  15 Li     0.000000    6.468148   11.617037    ( 0.0000,  0.0000,  0.0000)
  16 Li     3.234074    6.468148   11.617037    ( 0.0000,  0.0000,  0.0000)
  17 Li     6.468148    6.468148   11.617037    ( 0.0000,  0.0000,  0.0000)
  18 Li     1.617021    1.617029   13.469811    ( 0.0000,  0.0000,  0.0000)
  19 Li     4.851144    1.617021   13.469925    ( 0.0000,  0.0000,  0.0000)
  20 Li     8.085166    1.617071   13.469652    ( 0.0000,  0.0000,  0.0000)
  21 Li     1.617043    4.851111   13.469899    ( 0.0000,  0.0000,  0.0000)
  22 Li     4.851080    4.851111   13.469798    ( 0.0000,  0.0000,  0.0000)
  23 Li     8.085202    4.851111   13.469951    ( 0.0000,  0.0000,  0.0000)
  24 Li     1.617021    8.085193   13.469811    ( 0.0000,  0.0000,  0.0000)
  25 Li     4.851144    8.085201   13.469925    ( 0.0000,  0.0000,  0.0000)
  26 Li     8.085166    8.085151   13.469652    ( 0.0000,  0.0000,  0.0000)
  27 Li    -0.000008    0.000000   15.444304    ( 0.0000,  0.0000,  0.0000)
  28 Li     3.234106    0.000000   15.445835    ( 0.0000,  0.0000,  0.0000)
  29 Li     6.468319   -0.000000   15.446146    ( 0.0000,  0.0000,  0.0000)
  30 Li     0.000056    3.234350   15.445713    ( 0.0000,  0.0000,  0.0000)
  31 Li     3.234086    3.234050   15.445858    ( 0.0000,  0.0000,  0.0000)
  32 Li     6.468066    3.234177   15.445796    ( 0.0000,  0.0000,  0.0000)
  33 Li     0.000056    6.467872   15.445713    ( 0.0000,  0.0000,  0.0000)
  34 Li     3.234086    6.468172   15.445858    ( 0.0000,  0.0000,  0.0000)
  35 Li     6.468066    6.468045   15.445796    ( 0.0000,  0.0000,  0.0000)
  36 Br     9.714382    9.702226   19.484046    ( 0.0000,  0.0000,  0.0000)
  37 H      8.279664    9.702222   19.445540    ( 0.0000,  0.0000,  0.0000)
  38 N      9.714683    9.702001   17.430909    ( 0.0000,  0.0000,  0.0000)
  39 N      8.580939    9.702000   17.425284    ( 0.0000,  0.0000,  0.0000)

Unit cell:
           periodic     x           y           z      points  spacing
  1. axis:    yes    9.702222    0.000000    0.000000    60     0.1617
  2. axis:    yes    0.000000    9.702222    0.000000    60     0.1617
  3. axis:    no     0.000000    0.000000   26.851111   168     0.1598

  Lengths:   9.702222   9.702222  26.851111
  Angles:   90.000000  90.000000  90.000000

Effective grid spacing dv^(1/3) = 0.1611

     iter     time        total  log10-change:
                         energy  eigst   dens
iter:   1 05:14:51  -328.722131  +0.03
iter:   2 05:15:42  -328.682565  +0.33  -0.97
iter:   3 05:16:33  -327.355549  -0.31  -1.01
iter:   4 05:17:24  -327.354302  -0.75  -1.73
Writing to output.gpw (mode='')

iter:   5 05:18:16  -327.350558c -0.60  -1.82
iter:   6 05:19:08  -327.358447c -1.23  -2.15
iter:   7 05:19:58  -327.365214c -1.54  -2.07
iter:   8 05:20:49  -327.359521c -1.37  -2.12
iter:   9 05:21:40  -327.359338c -1.49  -2.38
Writing to output.gpw (mode='')

iter:  10 05:22:33  -327.360632c -1.88  -2.44
iter:  11 05:23:24  -327.360554c -2.62  -2.58
iter:  12 05:24:15  -327.360486c -2.69  -2.64
iter:  13 05:25:06  -327.360759c -2.87  -2.70
iter:  14 05:25:57  -327.360912c -2.84  -2.79
Writing to output.gpw (mode='')

iter:  15 05:26:49  -327.360841c -3.25  -2.70
iter:  16 05:27:40  -327.360831c -3.26  -2.97
iter:  17 05:28:31  -327.360824c -3.59  -3.05
iter:  18 05:29:22  -327.360942c -3.50  -3.16
iter:  19 05:30:13  -327.360941c -4.06  -3.36
Writing to output.gpw (mode='')

iter:  20 05:31:06  -327.360950c -3.79  -3.41
iter:  21 05:31:56  -327.360968c -4.19  -3.45
iter:  22 05:32:48  -327.360989c -4.06  -3.48
iter:  23 05:33:39  -327.360983c -4.37  -3.47
iter:  24 05:34:30  -327.360997c -4.53  -3.48
Writing to output.gpw (mode='')

iter:  25 05:35:22  -327.360973c -4.38  -3.54
iter:  26 05:36:13  -327.360997c -4.60  -3.68
iter:  27 05:37:04  -327.361002c -4.53  -3.75
iter:  28 05:37:55  -327.361010c -4.84  -3.84
iter:  29 05:38:46  -327.361009c -4.61  -3.90
Writing to output.gpw (mode='')

iter:  30 05:39:39  -327.361007c -5.12  -4.02c
iter:  31 05:40:30  -327.361007c -5.16  -4.15c
iter:  32 05:41:21  -327.361008c -5.15  -4.19c
iter:  33 05:42:12  -327.361011c -5.19  -4.21c
iter:  34 05:43:03  -327.361012c -5.54  -4.21c
Writing to output.gpw (mode='')

iter:  35 05:43:55  -327.361008c -5.51  -4.21c
iter:  36 05:44:46  -327.361009c -5.49  -4.17c
iter:  37 05:45:37  -327.361009c -5.84  -4.13c
iter:  38 05:46:28  -327.361009c -5.90  -4.16c
iter:  39 05:47:19  -327.361014c -5.43  -4.18c
Writing to output.gpw (mode='')

iter:  40 05:48:12  -327.361015c -5.89  -4.26c
iter:  41 05:49:03  -327.361013c -6.20  -4.26c
iter:  42 05:49:54  -327.361012c -5.99  -4.45c
iter:  43 05:50:45  -327.361014c -5.80  -4.57c
iter:  44 05:51:36  -327.361014c -6.39  -4.60c
Writing to output.gpw (mode='')

iter:  45 05:52:29  -327.361015c -6.39  -4.62c
iter:  46 05:53:20  -327.361016c -6.62  -4.67c
iter:  47 05:54:11  -327.361014c -6.65  -4.92c
iter:  48 05:55:01  -327.361015c -6.48  -5.02c
iter:  49 05:55:52  -327.361015c -6.80  -5.12c
Writing to output.gpw (mode='')

iter:  50 05:56:45  -327.361015c -6.77  -5.13c
iter:  51 05:57:36  -327.361014c -6.81  -5.15c
iter:  52 05:58:27  -327.361014c -6.93  -5.20c
iter:  53 05:59:18  -327.361015c -6.95  -5.27c
iter:  54 06:00:09  -327.361015c -7.20  -5.52c
Writing to output.gpw (mode='')

iter:  55 06:01:04  -327.361015c -7.17  -5.53c
iter:  56 06:01:55  -327.361015c -7.05  -5.59c
iter:  57 06:02:46  -327.361015c -7.16  -5.78c
iter:  58 06:03:37  -327.361015c -7.26  -5.81c
iter:  59 06:04:28  -327.361015c -7.23  -5.79c
Writing to output.gpw (mode='')

iter:  60 06:05:22  -327.361015c -7.39  -5.74c
iter:  61 06:06:13  -327.361015c -7.44c -5.69c

Converged after 61 iterations.

Dipole moment: (-10.388151, -15.151004, -0.004192) |e|*Ang

Energy contributions relative to reference atoms: (reference = -81178.542429)

Kinetic:       +128.964370
Potential:     -113.786490
External:        +0.000000
XC:            -342.685834
Entropy (-ST):   -0.156422
Local:           +0.225150
--------------------------
Free energy:   -327.439226
Extrapolated:  -327.361015

Dipole-layer corrected work functions: 3.401872, 3.409929 eV

Showing only first 2 kpts
 Kpt  Band  Eigenvalues  Occupancy
  0    25     -3.65559    1.98653
  0    26     -3.55668    1.90654
  0    27     -3.26985    0.12350
  0    28     -3.16001    0.01452

  1    25     -3.43316    1.26605
  1    26     -3.40743    1.01526
  1    27     -3.37482    0.69887
  1    28     -3.32861    0.35141


Fermi level: -3.40590

No gap
Writing to output.gpw (mode='')


Forces in eV/Ang:
  0 Li    0.01429    0.00234   -0.27257
  1 Li   -0.00567   -0.00351   -0.27033
  2 Li   -0.00790    0.01316   -0.27145
  3 Li   -0.00248   -0.00000   -0.27028
  4 Li    0.00515    0.00000   -0.28851
  5 Li   -0.00133   -0.00000   -0.27136
  6 Li    0.01429   -0.00234   -0.27257
  7 Li   -0.00567    0.00351   -0.27033
  8 Li   -0.00790   -0.01316   -0.27145
  9 Li   -0.00294   -0.00000    0.32030
 10 Li    0.01507   -0.00000    0.24201
 11 Li   -0.01105    0.00000    0.25965
 12 Li    0.00029    0.01222    0.25478
 13 Li   -0.00096   -0.00143    0.25617
 14 Li    0.00108    0.01085    0.25229
 15 Li    0.00030   -0.01222    0.25479
 16 Li   -0.00096    0.00143    0.25617
 17 Li    0.00108   -0.01085    0.25229
 18 Li   -0.00262   -0.00155    0.01624
 19 Li    0.00890   -0.00529    0.05586
 20 Li   -0.00726    0.00908   -0.02987
 21 Li   -0.00040    0.00001    0.05032
 22 Li   -0.00877   -0.00000    0.01968
 23 Li    0.00641    0.00001    0.06524
 24 Li   -0.00261    0.00155    0.01622
 25 Li    0.00890    0.00529    0.05586
 26 Li   -0.00727   -0.00908   -0.02991
 27 Li   -0.03266    0.00007   -0.43843
 28 Li    0.00381    0.00000   -0.02395
 29 Li    0.07299   -0.00001    0.08897
 30 Li    0.01617    0.07447   -0.05524
 31 Li    0.00445   -0.00590   -0.02386
 32 Li   -0.02519    0.03059   -0.03983
 33 Li    0.01618   -0.07449   -0.05525
 34 Li    0.00445    0.00590   -0.02386
 35 Li   -0.02521   -0.03061   -0.03984
 36 Br    2.68325    0.00104    9.15919
 37 H     0.08861   -0.00003   -0.13585
 38 N    -0.59188   -0.00112   -3.54917
 39 N    -2.13614   -0.00106   -4.99837

System changes: positions 

Initializing position-dependent things.

Density initialized from wave functions
       .-----------------------.  
      /|                       |  
     / |                       |  
    /  |                       |  
   /   |                       |  
  /    |                       |  
 *     |                       |  
 |     |                       |  
 |     |                       |  
 |     |                   H   |  
 |     |                       |  
 |     |                       |  
 |     N                    N  |  
 |     |                       |  
 |     |               Li      |  
 Br    |                       |  
 |   Li|     Li      Li        |  
 |     |  Li      Li      Li   |  
 | Li  |   Li      Li          |  
 |     |Li      Li      Li     |  
 |     | Li              Li    |  
 |   LLi     LLi     LLi       |  
 |     |  Li      Li      Li   |  
 | Li  |   Li      Li          |  
 |     |Li      Li      Li     |  
 Li    | Li      Li            |  
 |    Li      Li      Li       |  
 |     |                       |  
 |     |                       |  
 |     |                       |  
 |     |                       |  
 |     |                       |  
 |     |                       |  
 |     .-----------------------.  
 |    /                       /   
 |   /                       /    
 |  /                       /     
 | /                       /      
 |/                       /       
 *-----------------------*        

Positions:
   0 Li     1.617037    1.617037   10.000000    ( 0.0000,  0.0000,  0.0000)
   1 Li     4.851111    1.617037   10.000000    ( 0.0000,  0.0000,  0.0000)
   2 Li     8.085185    1.617037   10.000000    ( 0.0000,  0.0000,  0.0000)
   3 Li     1.617037    4.851111   10.000000    ( 0.0000,  0.0000,  0.0000)
   4 Li     4.851111    4.851111   10.000000    ( 0.0000,  0.0000,  0.0000)
   5 Li     8.085185    4.851111   10.000000    ( 0.0000,  0.0000,  0.0000)
   6 Li     1.617037    8.085185   10.000000    ( 0.0000,  0.0000,  0.0000)
   7 Li     4.851111    8.085185   10.000000    ( 0.0000,  0.0000,  0.0000)
   8 Li     8.085185    8.085185   10.000000    ( 0.0000,  0.0000,  0.0000)
   9 Li     0.000000    0.000000   11.617037    ( 0.0000,  0.0000,  0.0000)
  10 Li     3.234074    0.000000   11.617037    ( 0.0000,  0.0000,  0.0000)
  11 Li     6.468148    0.000000   11.617037    ( 0.0000,  0.0000,  0.0000)
  12 Li     0.000000    3.234074   11.617037    ( 0.0000,  0.0000,  0.0000)
  13 Li     3.234074    3.234074   11.617037    ( 0.0000,  0.0000,  0.0000)
  14 Li     6.468148    3.234074   11.617037    ( 0.0000,  0.0000,  0.0000)
  15 Li     0.000000    6.468148   11.617037    ( 0.0000,  0.0000,  0.0000)
  16 Li     3.234074    6.468148   11.617037    ( 0.0000,  0.0000,  0.0000)
  17 Li     6.468148    6.468148   11.617037    ( 0.0000,  0.0000,  0.0000)
  18 Li     1.617013    1.617023   13.469873    ( 0.0000,  0.0000,  0.0000)
  19 Li     4.851183    1.616997   13.470176    ( 0.0000,  0.0000,  0.0000)
  20 Li     8.085130    1.617111   13.469506    ( 0.0000,  0.0000,  0.0000)
  21 Li     1.617039    4.851111   13.470127    ( 0.0000,  0.0000,  0.0000)
  22 Li     4.851041    4.851111   13.469887    ( 0.0000,  0.0000,  0.0000)
  23 Li     8.085232    4.851111   13.470247    ( 0.0000,  0.0000,  0.0000)
  24 Li     1.617013    8.085199   13.469872    ( 0.0000,  0.0000,  0.0000)
  25 Li     4.851183    8.085225   13.470176    ( 0.0000,  0.0000,  0.0000)
  26 Li     8.085130    8.085111   13.469505    ( 0.0000,  0.0000,  0.0000)
  27 Li    -0.000200    0.000001   15.442380    ( 0.0000,  0.0000,  0.0000)
  28 Li     3.234115    0.000000   15.445736    ( 0.0000,  0.0000,  0.0000)
  29 Li     6.468683   -0.000000   15.446590    ( 0.0000,  0.0000,  0.0000)
  30 Li     0.000129    3.234677   15.445479    ( 0.0000,  0.0000,  0.0000)
  31 Li     3.234108    3.234026   15.445749    ( 0.0000,  0.0000,  0.0000)
  32 Li     6.467950    3.234317   15.445618    ( 0.0000,  0.0000,  0.0000)
  33 Li     0.000129    6.467545   15.445479    ( 0.0000,  0.0000,  0.0000)
  34 Li     3.234108    6.468196   15.445749    ( 0.0000,  0.0000,  0.0000)
  35 Li     6.467949    6.467905   15.445618    ( 0.0000,  0.0000,  0.0000)
  36 Br     9.725235    9.702231   19.522546    ( 0.0000,  0.0000,  0.0000)
  37 H      8.280494    9.702222   19.444898    ( 0.0000,  0.0000,  0.0000)
  38 N      9.705719    9.701994   17.416104    ( 0.0000,  0.0000,  0.0000)
  39 N      8.578610    9.701993   17.404214    ( 0.0000,  0.0000,  0.0000)

Unit cell:
           periodic     x           y           z      points  spacing
  1. axis:    yes    9.702222    0.000000    0.000000    60     0.1617
  2. axis:    yes    0.000000    9.702222    0.000000    60     0.1617
  3. axis:    no     0.000000    0.000000   26.851111   168     0.1598

  Lengths:   9.702222   9.702222  26.851111
  Angles:   90.000000  90.000000  90.000000

Effective grid spacing dv^(1/3) = 0.1611

     iter     time        total  log10-change:
                         energy  eigst   dens
iter:   1 06:07:27  -327.945691  -1.19
iter:   2 06:08:18  -327.902756  -1.09  -1.67
iter:   3 06:09:09  -327.885899  -2.20  -1.81
iter:   4 06:10:00  -327.880000c -1.43  -2.24
Writing to output.gpw (mode='')

iter:   5 06:10:54  -327.875493c -2.42  -2.05
iter:   6 06:11:44  -327.877180c -1.92  -2.21
iter:   7 06:12:35  -327.873369c -2.25  -2.32
iter:   8 06:13:26  -327.873048c -2.96  -2.56
iter:   9 06:14:17  -327.872580c -3.39  -2.64
Writing to output.gpw (mode='')

iter:  10 06:15:10  -327.872164c -2.74  -2.71
iter:  11 06:16:01  -327.872060c -3.33  -2.90
iter:  12 06:16:52  -327.872059c -3.86  -3.14
iter:  13 06:17:43  -327.872203c -3.56  -3.17
iter:  14 06:18:34  -327.872098c -4.04  -3.23
Writing to output.gpw (mode='')

iter:  15 06:19:27  -327.872025c -3.90  -3.40
iter:  16 06:20:18  -327.872026c -4.52  -3.50
iter:  17 06:21:09  -327.872031c -4.27  -3.56
iter:  18 06:22:00  -327.872007c -4.51  -3.59
iter:  19 06:22:51  -327.872031c -4.90  -3.73
Writing to output.gpw (mode='')

iter:  20 06:23:43  -327.872045c -4.96  -3.83
iter:  21 06:24:34  -327.872044c -4.98  -3.92
iter:  22 06:25:25  -327.872040c -5.20  -4.06c
iter:  23 06:26:16  -327.872039c -5.34  -4.11c
iter:  24 06:27:07  -327.872043c -5.27  -4.28c
Writing to output.gpw (mode='')

iter:  25 06:27:59  -327.872042c -5.63  -4.30c
iter:  26 06:28:50  -327.872046c -5.60  -4.50c
iter:  27 06:29:41  -327.872044c -5.68  -4.56c
iter:  28 06:30:32  -327.872042c -5.81  -4.66c
iter:  29 06:31:23  -327.872043c -6.03  -4.78c
Writing to output.gpw (mode='')

iter:  30 06:32:16  -327.872044c -6.25  -4.80c
iter:  31 06:33:07  -327.872043c -6.41  -4.89c
iter:  32 06:33:58  -327.872044c -6.50  -4.94c
iter:  33 06:34:49  -327.872044c -6.47  -4.97c
iter:  34 06:35:40  -327.872044c -6.57  -5.12c
Writing to output.gpw (mode='')

iter:  35 06:36:32  -327.872045c -6.67  -5.19c
iter:  36 06:37:23  -327.872045c -6.61  -5.21c
iter:  37 06:38:14  -327.872045c -6.72  -5.22c
iter:  38 06:39:05  -327.872045c -6.96  -5.25c
iter:  39 06:39:56  -327.872045c -6.92  -5.35c
Writing to output.gpw (mode='')

iter:  40 06:40:50  -327.872045c -7.13  -5.40c
iter:  41 06:41:41  -327.872045c -7.16  -5.56c
iter:  42 06:42:32  -327.872045c -7.13  -5.68c
iter:  43 06:43:23  -327.872045c -7.38  -5.74c
iter:  44 06:44:14  -327.872046c -7.60c -5.96c

Converged after 44 iterations.

Dipole moment: (-10.271804, -15.143419, -0.025106) |e|*Ang

Energy contributions relative to reference atoms: (reference = -81178.542429)

Kinetic:       +126.913721
Potential:     -112.470008
External:        +0.000000
XC:            -342.472440
Entropy (-ST):   -0.155110
Local:           +0.234236
--------------------------
Free energy:   -327.949600
Extrapolated:  -327.872046

Dipole-layer corrected work functions: 3.403085, 3.451347 eV

Showing only first 2 kpts
 Kpt  Band  Eigenvalues  Occupancy
  0    25     -3.67702    1.98656
  0    26     -3.57795    1.90647
  0    27     -3.29033    0.12156
  0    28     -3.18159    0.01460

  1    25     -3.45675    1.28708
  1    26     -3.42650    0.99282
  1    27     -3.39595    0.69711
  1    28     -3.34761    0.33820


Fermi level: -3.42722

No gap
Writing to output.gpw (mode='')


Forces in eV/Ang:
  0 Li    0.01442    0.00235   -0.27271
  1 Li   -0.00563   -0.00351   -0.27046
  2 Li   -0.00805    0.01282   -0.27103
  3 Li   -0.00227   -0.00000   -0.27060
  4 Li    0.00499    0.00000   -0.28864
  5 Li   -0.00151   -0.00000   -0.27161
  6 Li    0.01442   -0.00235   -0.27271
  7 Li   -0.00564    0.00351   -0.27046
  8 Li   -0.00805   -0.01282   -0.27103
  9 Li   -0.00244   -0.00000    0.31978
 10 Li    0.01516   -0.00000    0.24227
 11 Li   -0.01190    0.00000    0.25878
 12 Li   -0.00009    0.01212    0.25541
 13 Li   -0.00089   -0.00050    0.25587
 14 Li    0.00129    0.01060    0.25219
 15 Li   -0.00009   -0.01212    0.25542
 16 Li   -0.00089    0.00050    0.25587
 17 Li    0.00129   -0.01059    0.25219
 18 Li   -0.00192   -0.00084    0.01403
 19 Li    0.00836   -0.00478    0.05520
 20 Li   -0.00760    0.00715   -0.02776
 21 Li   -0.00031    0.00001    0.04998
 22 Li   -0.00826   -0.00000    0.02038
 23 Li    0.00616    0.00001    0.06414
 24 Li   -0.00191    0.00084    0.01401
 25 Li    0.00836    0.00478    0.05520
 26 Li   -0.00760   -0.00715   -0.02780
 27 Li   -0.01801    0.00007   -0.50637
 28 Li    0.00479    0.00000   -0.02251
 29 Li    0.06801   -0.00001    0.08269
 30 Li    0.01607    0.07594   -0.05599
 31 Li    0.00514   -0.00564   -0.02383
 32 Li   -0.02507    0.03029   -0.04067
 33 Li    0.01608   -0.07596   -0.05600
 34 Li    0.00515    0.00563   -0.02384
 35 Li   -0.02509   -0.03031   -0.04068
 36 Br    2.03432    0.00093    7.96039
 37 H     0.30705   -0.00003   -0.10207
 38 N    -0.05914   -0.00210   -3.08926
 39 N    -2.29199   -0.00046   -4.25137

System changes: positions 

Initializing position-dependent things.

Density initialized from wave functions
       .-----------------------.  
      /|                       |  
     / |                       |  
    /  |                       |  
   /   |                       |  
  /    |                       |  
 *     |                       |  
 |     |                       |  
 |     |                       |  
 |     |                   H   |  
 |     |                       |  
 |     |                       |  
 |     |                    N  N  
 |     |                       |  
 |     |               Li      |  
 Br    |                       |  
 |   Li|     Li      Li        |  
 |     |  Li      Li      Li   |  
 | Li  |   Li      Li          |  
 |     |Li      Li      Li     |  
 |     | Li              Li    |  
 |   LLi     LLi     LLi       |  
 |     |  Li      Li      Li   |  
 | Li  |   Li      Li          |  
 |     |Li      Li      Li     |  
 Li    | Li      Li            |  
 |    Li      Li      Li       |  
 |     |                       |  
 |     |                       |  
 |     |                       |  
 |     |                       |  
 |     |                       |  
 |     |                       |  
 |     .-----------------------.  
 |    /                       /   
 |   /                       /    
 |  /                       /     
 | /                       /      
 |/                       /       
 *-----------------------*        

Positions:
   0 Li     1.617037    1.617037   10.000000    ( 0.0000,  0.0000,  0.0000)
   1 Li     4.851111    1.617037   10.000000    ( 0.0000,  0.0000,  0.0000)
   2 Li     8.085185    1.617037   10.000000    ( 0.0000,  0.0000,  0.0000)
   3 Li     1.617037    4.851111   10.000000    ( 0.0000,  0.0000,  0.0000)
   4 Li     4.851111    4.851111   10.000000    ( 0.0000,  0.0000,  0.0000)
   5 Li     8.085185    4.851111   10.000000    ( 0.0000,  0.0000,  0.0000)
   6 Li     1.617037    8.085185   10.000000    ( 0.0000,  0.0000,  0.0000)
   7 Li     4.851111    8.085185   10.000000    ( 0.0000,  0.0000,  0.0000)
   8 Li     8.085185    8.085185   10.000000    ( 0.0000,  0.0000,  0.0000)
   9 Li     0.000000    0.000000   11.617037    ( 0.0000,  0.0000,  0.0000)
  10 Li     3.234074    0.000000   11.617037    ( 0.0000,  0.0000,  0.0000)
  11 Li     6.468148    0.000000   11.617037    ( 0.0000,  0.0000,  0.0000)
  12 Li     0.000000    3.234074   11.617037    ( 0.0000,  0.0000,  0.0000)
  13 Li     3.234074    3.234074   11.617037    ( 0.0000,  0.0000,  0.0000)
  14 Li     6.468148    3.234074   11.617037    ( 0.0000,  0.0000,  0.0000)
  15 Li     0.000000    6.468148   11.617037    ( 0.0000,  0.0000,  0.0000)
  16 Li     3.234074    6.468148   11.617037    ( 0.0000,  0.0000,  0.0000)
  17 Li     6.468148    6.468148   11.617037    ( 0.0000,  0.0000,  0.0000)
  18 Li     1.617011    1.617027   13.469930    ( 0.0000,  0.0000,  0.0000)
  19 Li     4.851234    1.616968   13.470547    ( 0.0000,  0.0000,  0.0000)
  20 Li     8.085070    1.617142   13.469314    ( 0.0000,  0.0000,  0.0000)
  21 Li     1.617033    4.851111   13.470471    ( 0.0000,  0.0000,  0.0000)
  22 Li     4.850989    4.851111   13.470033    ( 0.0000,  0.0000,  0.0000)
  23 Li     8.085275    4.851111   13.470680    ( 0.0000,  0.0000,  0.0000)
  24 Li     1.617011    8.085195   13.469930    ( 0.0000,  0.0000,  0.0000)
  25 Li     4.851234    8.085254   13.470547    ( 0.0000,  0.0000,  0.0000)
  26 Li     8.085070    8.085080   13.469314    ( 0.0000,  0.0000,  0.0000)
  27 Li    -0.000270    0.000001   15.438396    ( 0.0000,  0.0000,  0.0000)
  28 Li     3.234143    0.000000   15.445609    ( 0.0000,  0.0000,  0.0000)
  29 Li     6.469164   -0.000000   15.447173    ( 0.0000,  0.0000,  0.0000)
  30 Li     0.000238    3.235198   15.445113    ( 0.0000,  0.0000,  0.0000)
  31 Li     3.234154    3.233994   15.445585    ( 0.0000,  0.0000,  0.0000)
  32 Li     6.467773    3.234526   15.445335    ( 0.0000,  0.0000,  0.0000)
  33 Li     0.000238    6.467024   15.445113    ( 0.0000,  0.0000,  0.0000)
  34 Li     3.234154    6.468228   15.445584    ( 0.0000,  0.0000,  0.0000)
  35 Li     6.467773    6.467696   15.445335    ( 0.0000,  0.0000,  0.0000)
  36 Br     9.731448    9.702236   19.562060    ( 0.0000,  0.0000,  0.0000)
  37 H      8.285233    9.702222   19.444444    ( 0.0000,  0.0000,  0.0000)
  38 N      9.699509    9.701967   17.400907    ( 0.0000,  0.0000,  0.0000)
  39 N      8.573649    9.701993   17.384001    ( 0.0000,  0.0000,  0.0000)

Unit cell:
           periodic     x           y           z      points  spacing
  1. axis:    yes    9.702222    0.000000    0.000000    60     0.1617
  2. axis:    yes    0.000000    9.702222    0.000000    60     0.1617
  3. axis:    no     0.000000    0.000000   26.851111   168     0.1598

  Lengths:   9.702222   9.702222  26.851111
  Angles:   90.000000  90.000000  90.000000

Effective grid spacing dv^(1/3) = 0.1611

     iter     time        total  log10-change:
                         energy  eigst   dens
iter:   1 06:45:28  -328.345885  -1.28
iter:   2 06:46:18  -328.327334  -1.43  -1.81
iter:   3 06:47:09  -328.318626  -2.52  -1.95
iter:   4 06:48:00  -328.315770c -1.85  -2.41
Writing to output.gpw (mode='')

iter:   5 06:48:52  -328.314438c -2.82  -2.26
iter:   6 06:49:43  -328.315579c -2.32  -2.46
iter:   7 06:50:34  -328.313981c -2.66  -2.49
iter:   8 06:51:25  -328.313616c -3.29  -2.87
iter:   9 06:52:16  -328.313698c -3.19  -3.10
Writing to output.gpw (mode='')

iter:  10 06:53:09  -328.313669c -3.95  -3.24
iter:  11 06:54:00  -328.313776c -4.01  -3.23
iter:  12 06:54:50  -328.313741c -3.90  -3.31
iter:  13 06:55:41  -328.313703c -4.31  -3.46
iter:  14 06:56:32  -328.313647c -4.23  -3.52
Writing to output.gpw (mode='')

iter:  15 06:57:27  -328.313672c -4.73  -3.64
iter:  16 06:58:18  -328.313685c -4.91  -3.78
iter:  17 06:59:09  -328.313682c -5.01  -3.82
iter:  18 07:00:00  -328.313692c -5.20  -3.85
iter:  19 07:00:51  -328.313684c -5.33  -3.88
Writing to output.gpw (mode='')

iter:  20 07:01:43  -328.313687c -5.61  -4.18c
iter:  21 07:02:34  -328.313690c -5.70  -4.26c
iter:  22 07:03:25  -328.313691c -5.66  -4.32c
iter:  23 07:04:16  -328.313689c -5.79  -4.38c
iter:  24 07:05:07  -328.313689c -5.97  -4.51c
Writing to output.gpw (mode='')

iter:  25 07:06:00  -328.313691c -6.09  -4.56c
iter:  26 07:06:51  -328.313690c -6.29  -4.56c
iter:  27 07:07:42  -328.313690c -6.16  -4.61c
iter:  28 07:08:33  -328.313691c -6.64  -4.71c
iter:  29 07:09:24  -328.313691c -6.53  -4.90c
Writing to output.gpw (mode='')

iter:  30 07:10:16  -328.313691c -6.57  -5.03c
iter:  31 07:11:07  -328.313692c -6.57  -5.29c
iter:  32 07:11:58  -328.313691c -6.86  -5.39c
iter:  33 07:12:48  -328.313691c -6.86  -5.43c
iter:  34 07:13:39  -328.313691c -7.01  -5.42c
Writing to output.gpw (mode='')

iter:  35 07:14:32  -328.313691c -7.30  -5.45c
iter:  36 07:15:23  -328.313691c -7.39  -5.65c
iter:  37 07:16:14  -328.313691c -7.27  -5.74c
iter:  38 07:17:05  -328.313692c -7.48c -5.74c

Converged after 38 iterations.

Dipole moment: (-10.086157, -15.137761, -0.047441) |e|*Ang

Energy contributions relative to reference atoms: (reference = -81178.542429)

Kinetic:       +124.687729
Potential:     -110.952736
External:        +0.000000
XC:            -342.213414
Entropy (-ST):   -0.154231
Local:           +0.241845
--------------------------
Free energy:   -328.390807
Extrapolated:  -328.313692

Dipole-layer corrected work functions: 3.404396, 3.495595 eV

Showing only first 2 kpts
 Kpt  Band  Eigenvalues  Occupancy
  0    25     -3.69979    1.98656
  0    26     -3.60012    1.90538
  0    27     -3.31324    0.12186
  0    28     -3.20479    0.01472

  1    25     -3.48122    1.30249
  1    26     -3.44796    0.97969
  1    27     -3.41863    0.69626
  1    28     -3.36732    0.32129


Fermi level: -3.45000

No gap
Writing to output.gpw (mode='')


Forces in eV/Ang:
  0 Li    0.01465    0.00236   -0.27297
  1 Li   -0.00566   -0.00358   -0.27051
  2 Li   -0.00822    0.01260   -0.27094
  3 Li   -0.00212   -0.00000   -0.27080
  4 Li    0.00490    0.00000   -0.28890
  5 Li   -0.00162   -0.00001   -0.27178
  6 Li    0.01466   -0.00236   -0.27297
  7 Li   -0.00566    0.00358   -0.27051
  8 Li   -0.00822   -0.01260   -0.27094
  9 Li   -0.00198   -0.00000    0.32014
 10 Li    0.01533   -0.00000    0.24249
 11 Li   -0.01271    0.00000    0.25816
 12 Li   -0.00039    0.01202    0.25615
 13 Li   -0.00079    0.00037    0.25555
 14 Li    0.00138    0.01052    0.25225
 15 Li   -0.00039   -0.01201    0.25616
 16 Li   -0.00078   -0.00037    0.25555
 17 Li    0.00138   -0.01052    0.25225
 18 Li   -0.00078    0.00009    0.01103
 19 Li    0.00788   -0.00454    0.05453
 20 Li   -0.00836    0.00594   -0.02762
 21 Li   -0.00037    0.00001    0.04959
 22 Li   -0.00787   -0.00000    0.02066
 23 Li    0.00600    0.00001    0.06308
 24 Li   -0.00076   -0.00009    0.01101
 25 Li    0.00788    0.00455    0.05453
 26 Li   -0.00837   -0.00595   -0.02766
 27 Li   -0.00992    0.00009   -0.55783
 28 Li    0.00446    0.00000   -0.02061
 29 Li    0.06760   -0.00000    0.08199
 30 Li    0.01602    0.07602   -0.05504
 31 Li    0.00578   -0.00522   -0.02380
 32 Li   -0.02522    0.03023   -0.04089
 33 Li    0.01603   -0.07604   -0.05505
 34 Li    0.00579    0.00521   -0.02381
 35 Li   -0.02525   -0.03025   -0.04090
 36 Br    1.57920    0.00084    6.84307
 37 H     0.37018   -0.00003   -0.06841
 38 N     0.01237    0.00016   -2.65057
 39 N    -2.04998    0.00201   -3.56575

System changes: positions 

Initializing position-dependent things.

Density initialized from wave functions
       .-----------------------.  
      /|                       |  
     / |                       |  
    /  |                       |  
   /   |                       |  
  /    |                       |  
 *     |                       |  
 |     |                       |  
 |     |                       |  
 |     |                    H  |  
 |     |                       |  
 |     |                       |  
 |     |                    N  N  
 |     |                       |  
 |     |               Li      |  
 Br    |                       |  
 |   Li|     Li      Li        |  
 |     |  Li      Li      Li   |  
 | Li  |   Li      Li          |  
 |     |Li      Li      Li     |  
 |     | Li              Li    |  
 |   LLi     LLi     LLi       |  
 |     |  Li      Li      Li   |  
 | Li  |   Li      Li          |  
 |     |Li      Li      Li     |  
 Li    | Li      Li            |  
 |    Li      Li      Li       |  
 |     |                       |  
 |     |                       |  
 |     |                       |  
 |     |                       |  
 |     |                       |  
 |     |                       |  
 |     .-----------------------.  
 |    /                       /   
 |   /                       /    
 |  /                       /     
 | /                       /      
 |/                       /       
 *-----------------------*        

Positions:
   0 Li     1.617037    1.617037   10.000000    ( 0.0000,  0.0000,  0.0000)
   1 Li     4.851111    1.617037   10.000000    ( 0.0000,  0.0000,  0.0000)
   2 Li     8.085185    1.617037   10.000000    ( 0.0000,  0.0000,  0.0000)
   3 Li     1.617037    4.851111   10.000000    ( 0.0000,  0.0000,  0.0000)
   4 Li     4.851111    4.851111   10.000000    ( 0.0000,  0.0000,  0.0000)
   5 Li     8.085185    4.851111   10.000000    ( 0.0000,  0.0000,  0.0000)
   6 Li     1.617037    8.085185   10.000000    ( 0.0000,  0.0000,  0.0000)
   7 Li     4.851111    8.085185   10.000000    ( 0.0000,  0.0000,  0.0000)
   8 Li     8.085185    8.085185   10.000000    ( 0.0000,  0.0000,  0.0000)
   9 Li     0.000000    0.000000   11.617037    ( 0.0000,  0.0000,  0.0000)
  10 Li     3.234074    0.000000   11.617037    ( 0.0000,  0.0000,  0.0000)
  11 Li     6.468148    0.000000   11.617037    ( 0.0000,  0.0000,  0.0000)
  12 Li     0.000000    3.234074   11.617037    ( 0.0000,  0.0000,  0.0000)
  13 Li     3.234074    3.234074   11.617037    ( 0.0000,  0.0000,  0.0000)
  14 Li     6.468148    3.234074   11.617037    ( 0.0000,  0.0000,  0.0000)
  15 Li     0.000000    6.468148   11.617037    ( 0.0000,  0.0000,  0.0000)
  16 Li     3.234074    6.468148   11.617037    ( 0.0000,  0.0000,  0.0000)
  17 Li     6.468148    6.468148   11.617037    ( 0.0000,  0.0000,  0.0000)
  18 Li     1.617024    1.617043   13.469971    ( 0.0000,  0.0000,  0.0000)
  19 Li     4.851297    1.616932   13.471033    ( 0.0000,  0.0000,  0.0000)
  20 Li     8.084980    1.617171   13.469060    ( 0.0000,  0.0000,  0.0000)
  21 Li     1.617026    4.851111   13.470922    ( 0.0000,  0.0000,  0.0000)
  22 Li     4.850925    4.851111   13.470229    ( 0.0000,  0.0000,  0.0000)
  23 Li     8.085330    4.851111   13.471242    ( 0.0000,  0.0000,  0.0000)
  24 Li     1.617024    8.085179   13.469971    ( 0.0000,  0.0000,  0.0000)
  25 Li     4.851297    8.085290   13.471033    ( 0.0000,  0.0000,  0.0000)
  26 Li     8.084980    8.085051   13.469059    ( 0.0000,  0.0000,  0.0000)
  27 Li    -0.000259    0.000002   15.432456    ( 0.0000,  0.0000,  0.0000)
  28 Li     3.234175    0.000000   15.445462    ( 0.0000,  0.0000,  0.0000)
  29 Li     6.469798   -0.000000   15.447940    ( 0.0000,  0.0000,  0.0000)
  30 Li     0.000383    3.235892   15.444637    ( 0.0000,  0.0000,  0.0000)
  31 Li     3.234222    3.233956   15.445366    ( 0.0000,  0.0000,  0.0000)
  32 Li     6.467536    3.234803   15.444956    ( 0.0000,  0.0000,  0.0000)
  33 Li     0.000383    6.466330   15.444637    ( 0.0000,  0.0000,  0.0000)
  34 Li     3.234222    6.468266   15.445366    ( 0.0000,  0.0000,  0.0000)
  35 Li     6.467536    6.467419   15.444956    ( 0.0000,  0.0000,  0.0000)
  36 Br     9.735106    9.702241   19.601893    ( 0.0000,  0.0000,  0.0000)
  37 H      8.291627    9.702221   19.444287    ( 0.0000,  0.0000,  0.0000)
  38 N      9.693617    9.701973   17.385680    ( 0.0000,  0.0000,  0.0000)
  39 N      8.568011    9.702032   17.365012    ( 0.0000,  0.0000,  0.0000)

Unit cell:
           periodic     x           y           z      points  spacing
  1. axis:    yes    9.702222    0.000000    0.000000    60     0.1617
  2. axis:    yes    0.000000    9.702222    0.000000    60     0.1617
  3. axis:    no     0.000000    0.000000   26.851111   168     0.1598

  Lengths:   9.702222   9.702222  26.851111
  Angles:   90.000000  90.000000  90.000000

Effective grid spacing dv^(1/3) = 0.1611

     iter     time        total  log10-change:
                         energy  eigst   dens
iter:   1 07:18:19  -328.712923  -1.31
iter:   2 07:19:10  -328.698094  -1.54  -1.85
iter:   3 07:20:01  -328.690890c -2.62  -2.00
iter:   4 07:20:52  -328.689018c -2.03  -2.48
Writing to output.gpw (mode='')

iter:   5 07:21:46  -328.688335c -2.91  -2.35
iter:   6 07:22:37  -328.689347c -2.48  -2.53
iter:   7 07:23:28  -328.687960c -2.86  -2.54
iter:   8 07:24:19  -328.687798c -3.42  -3.02
iter:   9 07:25:10  -328.687873c -3.39  -3.22
Writing to output.gpw (mode='')

iter:  10 07:26:02  -328.687848c -3.96  -3.33
iter:  11 07:26:53  -328.687931c -4.03  -3.35
iter:  12 07:27:44  -328.687892c -3.98  -3.38
iter:  13 07:28:35  -328.687865c -4.53  -3.52
iter:  14 07:29:26  -328.687839c -4.43  -3.59
Writing to output.gpw (mode='')

iter:  15 07:30:19  -328.687858c -4.72  -3.75
iter:  16 07:31:10  -328.687868c -5.02  -3.82
iter:  17 07:32:01  -328.687865c -5.12  -3.91
iter:  18 07:32:52  -328.687865c -5.16  -3.96
iter:  19 07:33:43  -328.687863c -5.38  -4.05c
Writing to output.gpw (mode='')

iter:  20 07:34:40  -328.687866c -5.69  -4.14c
iter:  21 07:35:31  -328.687869c -5.83  -4.21c
iter:  22 07:36:22  -328.687866c -5.83  -4.34c
iter:  23 07:37:13  -328.687869c -5.87  -4.47c
iter:  24 07:38:04  -328.687869c -6.32  -4.57c
Writing to output.gpw (mode='')

iter:  25 07:38:57  -328.687869c -6.13  -4.64c
iter:  26 07:39:48  -328.687868c -6.47  -4.74c
iter:  27 07:40:39  -328.687869c -6.48  -4.86c
iter:  28 07:41:29  -328.687869c -6.46  -4.99c
iter:  29 07:42:21  -328.687869c -6.47  -5.02c
Writing to output.gpw (mode='')

iter:  30 07:44:50  -328.687869c -6.72  -4.99c
iter:  31 07:47:25  -328.687869c -6.82  -4.97c
iter:  32 07:50:00  -328.687869c -6.97  -4.93c
iter:  33 07:52:29  -328.687869c -7.07  -4.90c
iter:  34 07:55:05  -328.687869c -7.03  -4.90c
Writing to output.gpw (mode='')

iter:  35 07:57:37  -328.687869c -7.19  -4.85c
iter:  36 08:00:05  -328.687869c -7.39  -4.92c
iter:  37 08:02:35  -328.687868c -7.35  -4.88c
iter:  38 08:05:03  -328.687869c -7.71c -4.88c

Converged after 38 iterations.

Dipole moment: (-9.743960, -15.140272, -0.067265) |e|*Ang

Energy contributions relative to reference atoms: (reference = -81178.542429)

Kinetic:       +122.723147
Potential:     -109.599057
External:        +0.000000
XC:            -341.982397
Entropy (-ST):   -0.153494
Local:           +0.247184
--------------------------
Free energy:   -328.764615
Extrapolated:  -328.687869

Dipole-layer corrected work functions: 3.405630, 3.534936 eV

Showing only first 2 kpts
 Kpt  Band  Eigenvalues  Occupancy
  0    25     -3.72008    1.98656
  0    26     -3.61979    1.90425
  0    27     -3.33355    0.12191
  0    28     -3.22548    0.01484

  1    25     -3.50284    1.31455
  1    26     -3.46736    0.97081
  1    27     -3.43883    0.69546
  1    28     -3.38465    0.30563


Fermi level: -3.47028

No gap
Writing to output.gpw (mode='')


Forces in eV/Ang:
  0 Li    0.01489    0.00238   -0.27332
  1 Li   -0.00571   -0.00367   -0.27055
  2 Li   -0.00836    0.01246   -0.27103
  3 Li   -0.00205   -0.00000   -0.27098
  4 Li    0.00485    0.00000   -0.28921
  5 Li   -0.00166   -0.00000   -0.27195
  6 Li    0.01489   -0.00238   -0.27332
  7 Li   -0.00571    0.00367   -0.27055
  8 Li   -0.00836   -0.01245   -0.27103
  9 Li   -0.00157   -0.00000    0.32088
 10 Li    0.01551   -0.00000    0.24277
 11 Li   -0.01346    0.00000    0.25770
 12 Li   -0.00063    0.01198    0.25693
 13 Li   -0.00061    0.00117    0.25531
 14 Li    0.00137    0.01055    0.25241
 15 Li   -0.00063   -0.01197    0.25694
 16 Li   -0.00060   -0.00117    0.25531
 17 Li    0.00136   -0.01055    0.25241
 18 Li    0.00061    0.00122    0.00777
 19 Li    0.00749   -0.00445    0.05380
 20 Li   -0.00938    0.00525   -0.02823
 21 Li   -0.00036    0.00000    0.04895
 22 Li   -0.00757   -0.00000    0.02057
 23 Li    0.00579    0.00001    0.06179
 24 Li    0.00061   -0.00123    0.00776
 25 Li    0.00749    0.00445    0.05380
 26 Li   -0.00938   -0.00526   -0.02827
 27 Li   -0.00408    0.00009   -0.59922
 28 Li    0.00376    0.00000   -0.01882
 29 Li    0.06821    0.00000    0.08257
 30 Li    0.01600    0.07550   -0.05374
 31 Li    0.00625   -0.00480   -0.02375
 32 Li   -0.02536    0.03020   -0.04087
 33 Li    0.01602   -0.07552   -0.05376
 34 Li    0.00626    0.00480   -0.02376
 35 Li   -0.02539   -0.03022   -0.04088
 36 Br    1.25401    0.00067    5.89343
 37 H     0.37421   -0.00003   -0.03597
 38 N     0.08152    0.00087   -2.17561
 39 N    -1.70845    0.00078   -3.01128

System changes: positions 

Initializing position-dependent things.

Density initialized from wave functions
       .-----------------------.  
      /|                       |  
     / |                       |  
    /  |                       |  
   /   |                       |  
  /    |                       |  
 *     |                       |  
 |     |                       |  
 |     |                       |  
 |     |                    H  |  
 |     |                       |  
 |     |                       |  
 |     |                    N  N  
 |     |                       |  
 |     |               Li      |  
 Br    |                       |  
 |   Li|     Li      Li        |  
 |     |  Li      Li      Li   |  
 | Li  |   Li      Li          |  
 |     |Li      Li      Li     |  
 |     | Li              Li    |  
 |   LLi     LLi     LLi       |  
 |     |  Li      Li      Li   |  
 | Li  |   Li      Li          |  
 |     |Li      Li      Li     |  
 Li    | Li      Li            |  
 |    Li      Li      Li       |  
 |     |                       |  
 |     |                       |  
 |     |                       |  
 |     |                       |  
 |     |                       |  
 |     |                       |  
 |     .-----------------------.  
 |    /                       /   
 |   /                       /    
 |  /                       /     
 | /                       /      
 |/                       /       
 *-----------------------*        

Positions:
   0 Li     1.617037    1.617037   10.000000    ( 0.0000,  0.0000,  0.0000)
   1 Li     4.851111    1.617037   10.000000    ( 0.0000,  0.0000,  0.0000)
   2 Li     8.085185    1.617037   10.000000    ( 0.0000,  0.0000,  0.0000)
   3 Li     1.617037    4.851111   10.000000    ( 0.0000,  0.0000,  0.0000)
   4 Li     4.851111    4.851111   10.000000    ( 0.0000,  0.0000,  0.0000)
   5 Li     8.085185    4.851111   10.000000    ( 0.0000,  0.0000,  0.0000)
   6 Li     1.617037    8.085185   10.000000    ( 0.0000,  0.0000,  0.0000)
   7 Li     4.851111    8.085185   10.000000    ( 0.0000,  0.0000,  0.0000)
   8 Li     8.085185    8.085185   10.000000    ( 0.0000,  0.0000,  0.0000)
   9 Li     0.000000    0.000000   11.617037    ( 0.0000,  0.0000,  0.0000)
  10 Li     3.234074    0.000000   11.617037    ( 0.0000,  0.0000,  0.0000)
  11 Li     6.468148    0.000000   11.617037    ( 0.0000,  0.0000,  0.0000)
  12 Li     0.000000    3.234074   11.617037    ( 0.0000,  0.0000,  0.0000)
  13 Li     3.234074    3.234074   11.617037    ( 0.0000,  0.0000,  0.0000)
  14 Li     6.468148    3.234074   11.617037    ( 0.0000,  0.0000,  0.0000)
  15 Li     0.000000    6.468148   11.617037    ( 0.0000,  0.0000,  0.0000)
  16 Li     3.234074    6.468148   11.617037    ( 0.0000,  0.0000,  0.0000)
  17 Li     6.468148    6.468148   11.617037    ( 0.0000,  0.0000,  0.0000)
  18 Li     1.617057    1.617077   13.469985    ( 0.0000,  0.0000,  0.0000)
  19 Li     4.851370    1.616887   13.471623    ( 0.0000,  0.0000,  0.0000)
  20 Li     8.084857    1.617202   13.468737    ( 0.0000,  0.0000,  0.0000)
  21 Li     1.617017    4.851111   13.471468    ( 0.0000,  0.0000,  0.0000)
  22 Li     4.850848    4.851111   13.470468    ( 0.0000,  0.0000,  0.0000)
  23 Li     8.085394    4.851111   13.471918    ( 0.0000,  0.0000,  0.0000)
  24 Li     1.617057    8.085144   13.469985    ( 0.0000,  0.0000,  0.0000)
  25 Li     4.851370    8.085335   13.471624    ( 0.0000,  0.0000,  0.0000)
  26 Li     8.084857    8.085020   13.468736    ( 0.0000,  0.0000,  0.0000)
  27 Li    -0.000182    0.000003   15.424709    ( 0.0000,  0.0000,  0.0000)
  28 Li     3.234206    0.000000   15.445298    ( 0.0000,  0.0000,  0.0000)
  29 Li     6.470586   -0.000000   15.448890    ( 0.0000,  0.0000,  0.0000)
  30 Li     0.000561    3.236738   15.444064    ( 0.0000,  0.0000,  0.0000)
  31 Li     3.234309    3.233913   15.445098    ( 0.0000,  0.0000,  0.0000)
  32 Li     6.467244    3.235143   15.444492    ( 0.0000,  0.0000,  0.0000)
  33 Li     0.000562    6.465483   15.444064    ( 0.0000,  0.0000,  0.0000)
  34 Li     3.234309    6.468308   15.445097    ( 0.0000,  0.0000,  0.0000)
  35 Li     6.467244    6.467078   15.444491    ( 0.0000,  0.0000,  0.0000)
  36 Br     9.737315    9.702246   19.641832    ( 0.0000,  0.0000,  0.0000)
  37 H      8.298744    9.702221   19.444486    ( 0.0000,  0.0000,  0.0000)
  38 N      9.688875    9.701990   17.372136    ( 0.0000,  0.0000,  0.0000)
  39 N      8.563245    9.702054   17.346847    ( 0.0000,  0.0000,  0.0000)

Unit cell:
           periodic     x           y           z      points  spacing
  1. axis:    yes    9.702222    0.000000    0.000000    60     0.1617
  2. axis:    yes    0.000000    9.702222    0.000000    60     0.1617
  3. axis:    no     0.000000    0.000000   26.851111   168     0.1598

  Lengths:   9.702222   9.702222  26.851111
  Angles:   90.000000  90.000000  90.000000

Effective grid spacing dv^(1/3) = 0.1611

     iter     time        total  log10-change:
                         energy  eigst   dens
iter:   1 08:08:08  -329.021008  -1.35
iter:   2 08:10:42  -329.009480  -1.67  -1.89
iter:   3 08:13:13  -329.003741c -2.68  -2.05
iter:   4 08:15:42  -329.002265c -2.20  -2.55
Writing to output.gpw (mode='')

iter:   5 08:18:18  -329.001943c -2.99  -2.45
iter:   6 08:20:43  -329.002721c -2.68  -2.61
iter:   7 08:23:16  -329.001679c -3.00  -2.61
iter:   8 08:26:00  -329.001594c -3.51  -3.11
iter:   9 08:28:31  -329.001654c -3.56  -3.32
Writing to output.gpw (mode='')

iter:  10 08:31:10  -329.001643c -3.97  -3.38
iter:  11 08:33:40  -329.001697c -3.95  -3.43
iter:  12 08:36:15  -329.001666c -4.49  -3.47
iter:  13 08:38:41  -329.001643c -4.61  -3.55
iter:  14 08:41:08  -329.001627c -4.46  -3.65
Writing to output.gpw (mode='')

iter:  15 08:43:32  -329.001646c -4.97  -3.78
iter:  16 08:46:01  -329.001648c -5.22  -3.86
iter:  17 08:48:39  -329.001641c -5.14  -3.95
iter:  18 08:51:10  -329.001644c -5.21  -4.13c
iter:  19 08:53:46  -329.001645c -5.54  -4.16c
Writing to output.gpw (mode='')

iter:  20 08:56:30  -329.001649c -5.91  -4.20c
iter:  21 08:59:06  -329.001648c -5.94  -4.33c
iter:  22 09:01:42  -329.001649c -6.10  -4.66c
iter:  23 09:04:15  -329.001650c -6.09  -4.67c
iter:  24 09:06:42  -329.001649c -6.29  -4.69c
Writing to output.gpw (mode='')

iter:  25 09:09:25  -329.001649c -6.34  -4.91c
iter:  26 09:12:05  -329.001649c -6.37  -4.97c
iter:  27 09:14:37  -329.001649c -6.52  -5.00c
iter:  28 09:16:59  -329.001649c -6.78  -5.07c
iter:  29 09:19:24  -329.001649c -6.81  -5.16c
Writing to output.gpw (mode='')

iter:  30 09:21:57  -329.001649c -6.92  -5.24c
iter:  31 09:24:24  -329.001649c -6.92  -5.33c
iter:  32 09:26:56  -329.001649c -7.04  -5.41c
iter:  33 09:29:21  -329.001649c -7.24  -5.52c
iter:  34 09:31:48  -329.001649c -7.34  -5.51c
Writing to output.gpw (mode='')

iter:  35 09:34:18  -329.001649c -7.46c -5.65c

Converged after 35 iterations.

Dipole moment: (-9.416609, -15.142870, -0.083904) |e|*Ang

Energy contributions relative to reference atoms: (reference = -81178.542429)

Kinetic:       +121.013969
Potential:     -108.411206
External:        +0.000000
XC:            -341.778940
Entropy (-ST):   -0.152835
Local:           +0.250945
--------------------------
Free energy:   -329.078067
Extrapolated:  -329.001649

Dipole-layer corrected work functions: 3.406493, 3.567785 eV

Showing only first 2 kpts
 Kpt  Band  Eigenvalues  Occupancy
  0    25     -3.73697    1.98657
  0    26     -3.63612    1.90329
  0    27     -3.35017    0.12137
  0    28     -3.24269    0.01495

  1    25     -3.52074    1.32390
  1    26     -3.48358    0.96443
  1    27     -3.45562    0.69482
  1    28     -3.39878    0.29178


Fermi level: -3.48714

No gap

Forces in eV/Ang:
  0 Li    0.01510    0.00241   -0.27363
  1 Li   -0.00575   -0.00380   -0.27040
  2 Li   -0.00849    0.01237   -0.27115
  3 Li   -0.00205   -0.00000   -0.27102
  4 Li    0.00479    0.00000   -0.28956
  5 Li   -0.00161   -0.00000   -0.27198
  6 Li    0.01510   -0.00241   -0.27363
  7 Li   -0.00576    0.00380   -0.27040
  8 Li   -0.00849   -0.01237   -0.27115
  9 Li   -0.00125   -0.00000    0.32185
 10 Li    0.01575   -0.00000    0.24299
 11 Li   -0.01415    0.00000    0.25740
 12 Li   -0.00082    0.01203    0.25769
 13 Li   -0.00038    0.00181    0.25517
 14 Li    0.00125    0.01076    0.25260
 15 Li   -0.00082   -0.01203    0.25770
 16 Li   -0.00038   -0.00181    0.25517
 17 Li    0.00124   -0.01075    0.25260
 18 Li    0.00220    0.00253    0.00446
 19 Li    0.00725   -0.00450    0.05307
 20 Li   -0.01064    0.00517   -0.02936
 21 Li   -0.00027    0.00000    0.04813
 22 Li   -0.00733   -0.00000    0.02024
 23 Li    0.00554    0.00001    0.06034
 24 Li    0.00220   -0.00253    0.00444
 25 Li    0.00725    0.00450    0.05308
 26 Li   -0.01065   -0.00517   -0.02940
 27 Li   -0.00003    0.00009   -0.62411
 28 Li    0.00297    0.00000   -0.01692
 29 Li    0.06969    0.00000    0.08396
 30 Li    0.01588    0.07464   -0.05221
 31 Li    0.00668   -0.00433   -0.02345
 32 Li   -0.02542    0.03018   -0.04054
 33 Li    0.01589   -0.07466   -0.05222
 34 Li    0.00669    0.00433   -0.02346
 35 Li   -0.02544   -0.03020   -0.04055
 36 Br    1.00167    0.00055    5.05241
 37 H     0.36078   -0.00002   -0.00404
 38 N     0.05771   -0.00038   -1.80138
 39 N    -1.49344   -0.00076   -2.58777

System changes: positions 

Initializing position-dependent things.

Density initialized from wave functions
       .-----------------------.  
      /|                       |  
     / |                       |  
    /  |                       |  
   /   |                       |  
  /    |                       |  
 *     |                       |  
 |     |                       |  
 |     |                       |  
 |     |                    H  |  
 |     |                       |  
 |     |                       |  
 |     |                    N  N  
 |     |                       |  
 |     |               Li      |  
 Br    |                       |  
 |   Li|     Li      Li        |  
 |     |  Li      Li      Li   |  
 | Li  |   Li      Li          |  
 |     |Li      Li      Li     |  
 |     | Li              Li    |  
 |   LLi     LLi     LLi       |  
 |     |  Li      Li      Li   |  
 | Li  |   Li      Li          |  
 |     |Li      Li      Li     |  
 Li    | Li      Li            |  
 |    Li      Li      Li       |  
 |     |                       |  
 |     |                       |  
 |     |                       |  
 |     |                       |  
 |     |                       |  
 |     |                       |  
 |     .-----------------------.  
 |    /                       /   
 |   /                       /    
 |  /                       /     
 | /                       /      
 |/                       /       
 *-----------------------*        

Positions:
   0 Li     1.617037    1.617037   10.000000    ( 0.0000,  0.0000,  0.0000)
   1 Li     4.851111    1.617037   10.000000    ( 0.0000,  0.0000,  0.0000)
   2 Li     8.085185    1.617037   10.000000    ( 0.0000,  0.0000,  0.0000)
   3 Li     1.617037    4.851111   10.000000    ( 0.0000,  0.0000,  0.0000)
   4 Li     4.851111    4.851111   10.000000    ( 0.0000,  0.0000,  0.0000)
   5 Li     8.085185    4.851111   10.000000    ( 0.0000,  0.0000,  0.0000)
   6 Li     1.617037    8.085185   10.000000    ( 0.0000,  0.0000,  0.0000)
   7 Li     4.851111    8.085185   10.000000    ( 0.0000,  0.0000,  0.0000)
   8 Li     8.085185    8.085185   10.000000    ( 0.0000,  0.0000,  0.0000)
   9 Li     0.000000    0.000000   11.617037    ( 0.0000,  0.0000,  0.0000)
  10 Li     3.234074    0.000000   11.617037    ( 0.0000,  0.0000,  0.0000)
  11 Li     6.468148    0.000000   11.617037    ( 0.0000,  0.0000,  0.0000)
  12 Li     0.000000    3.234074   11.617037    ( 0.0000,  0.0000,  0.0000)
  13 Li     3.234074    3.234074   11.617037    ( 0.0000,  0.0000,  0.0000)
  14 Li     6.468148    3.234074   11.617037    ( 0.0000,  0.0000,  0.0000)
  15 Li     0.000000    6.468148   11.617037    ( 0.0000,  0.0000,  0.0000)
  16 Li     3.234074    6.468148   11.617037    ( 0.0000,  0.0000,  0.0000)
  17 Li     6.468148    6.468148   11.617037    ( 0.0000,  0.0000,  0.0000)
  18 Li     1.617117    1.617136   13.469964    ( 0.0000,  0.0000,  0.0000)
  19 Li     4.851457    1.616831   13.472325    ( 0.0000,  0.0000,  0.0000)
  20 Li     8.084692    1.617244   13.468331    ( 0.0000,  0.0000,  0.0000)
  21 Li     1.617010    4.851111   13.472112    ( 0.0000,  0.0000,  0.0000)
  22 Li     4.850758    4.851111   13.470748    ( 0.0000,  0.0000,  0.0000)
  23 Li     8.085467    4.851111   13.472711    ( 0.0000,  0.0000,  0.0000)
  24 Li     1.617117    8.085086   13.469963    ( 0.0000,  0.0000,  0.0000)
  25 Li     4.851457    8.085391   13.472325    ( 0.0000,  0.0000,  0.0000)
  26 Li     8.084691    8.084978   13.468329    ( 0.0000,  0.0000,  0.0000)
  27 Li    -0.000051    0.000005   15.415211    ( 0.0000,  0.0000,  0.0000)
  28 Li     3.234232    0.000000   15.445122    ( 0.0000,  0.0000,  0.0000)
  29 Li     6.471554   -0.000000   15.450052    ( 0.0000,  0.0000,  0.0000)
  30 Li     0.000774    3.237741   15.443395    ( 0.0000,  0.0000,  0.0000)
  31 Li     3.234417    3.233868   15.444780    ( 0.0000,  0.0000,  0.0000)
  32 Li     6.466894    3.235552   15.443940    ( 0.0000,  0.0000,  0.0000)
  33 Li     0.000775    6.464480   15.443394    ( 0.0000,  0.0000,  0.0000)
  34 Li     3.234418    6.468354   15.444780    ( 0.0000,  0.0000,  0.0000)
  35 Li     6.466893    6.466669   15.443939    ( 0.0000,  0.0000,  0.0000)
  36 Br     9.738442    9.702250   19.681816    ( 0.0000,  0.0000,  0.0000)
  37 H      8.306439    9.702221   19.445115    ( 0.0000,  0.0000,  0.0000)
  38 N      9.683860    9.701988   17.359603    ( 0.0000,  0.0000,  0.0000)
  39 N      8.558038    9.702052   17.328511    ( 0.0000,  0.0000,  0.0000)

Unit cell:
           periodic     x           y           z      points  spacing
  1. axis:    yes    9.702222    0.000000    0.000000    60     0.1617
  2. axis:    yes    0.000000    9.702222    0.000000    60     0.1617
  3. axis:    no     0.000000    0.000000   26.851111   168     0.1598

  Lengths:   9.702222   9.702222  26.851111
  Angles:   90.000000  90.000000  90.000000

Effective grid spacing dv^(1/3) = 0.1611

     iter     time        total  log10-change:
                         energy  eigst   dens
iter:   1 09:37:30  -329.285066  -1.37
iter:   2 09:40:02  -329.276643  -1.80  -1.95
iter:   3 09:42:35  -329.272402c -2.70  -2.11
iter:   4 09:45:09  -329.271125c -2.40  -2.60
Writing to output.gpw (mode='')

iter:   5 09:47:46  -329.271079c -2.95  -2.57
iter:   6 09:50:14  -329.271418c -2.95  -2.67
iter:   7 09:52:38  -329.270836c -3.16  -2.75
iter:   8 09:55:03  -329.270806c -3.62  -3.19
iter:   9 09:57:42  -329.270840c -3.82  -3.34
Writing to output.gpw (mode='')

iter:  10 10:00:12  -329.270841c -4.01  -3.37
iter:  11 10:02:50  -329.270823c -4.07  -3.46
iter:  12 10:05:14  -329.270820c -4.72  -3.53
iter:  13 10:07:46  -329.270809c -4.76  -3.61
iter:  14 10:10:11  -329.270815c -4.78  -3.79
Writing to output.gpw (mode='')

iter:  15 10:12:47  -329.270826c -5.21  -3.90
iter:  16 10:15:19  -329.270830c -5.17  -3.95
iter:  17 10:17:47  -329.270828c -5.64  -3.97
iter:  18 10:20:10  -329.270828c -5.69  -4.08c
iter:  19 10:22:35  -329.270823c -5.72  -4.16c
Writing to output.gpw (mode='')

iter:  20 10:25:01  -329.270825c -5.90  -4.28c
iter:  21 10:27:32  -329.270829c -6.11  -4.30c
iter:  22 10:29:59  -329.270828c -6.27  -4.38c
iter:  23 10:32:32  -329.270828c -6.40  -4.61c
iter:  24 10:35:00  -329.270828c -6.60  -4.72c
Writing to output.gpw (mode='')

iter:  25 10:37:37  -329.270828c -6.72  -4.77c
iter:  26 10:40:10  -329.270828c -6.68  -4.88c
iter:  27 10:42:32  -329.270828c -6.94  -4.92c
iter:  28 10:45:03  -329.270828c -6.87  -5.04c
iter:  29 10:47:27  -329.270828c -7.25  -5.22c
Writing to output.gpw (mode='')

iter:  30 10:50:03  -329.270828c -7.34  -5.27c
iter:  31 10:52:30  -329.270828c -7.27  -5.27c
iter:  32 10:55:00  -329.270828c -7.47c -5.34c

Converged after 32 iterations.

Dipole moment: (-8.982354, -15.141802, -0.097610) |e|*Ang

Energy contributions relative to reference atoms: (reference = -81178.542429)

Kinetic:       +119.484931
Potential:     -107.340839
External:        +0.000000
XC:            -341.594402
Entropy (-ST):   -0.152244
Local:           +0.255604
--------------------------
Free energy:   -329.346950
Extrapolated:  -329.270828

Dipole-layer corrected work functions: 3.407304, 3.594944 eV

Showing only first 2 kpts
 Kpt  Band  Eigenvalues  Occupancy
  0    25     -3.75098    1.98658
  0    26     -3.64966    1.90246
  0    27     -3.36370    0.12035
  0    28     -3.25703    0.01505

  1    25     -3.53557    1.33149
  1    26     -3.49711    0.95989
  1    27     -3.46956    0.69448
  1    28     -3.41018    0.27913


Fermi level: -3.50112

No gap
Writing to output.gpw (mode='')


Forces in eV/Ang:
  0 Li    0.01533    0.00243   -0.27406
  1 Li   -0.00585   -0.00394   -0.27030
  2 Li   -0.00858    0.01235   -0.27138
  3 Li   -0.00210   -0.00000   -0.27110
  4 Li    0.00475    0.00000   -0.28997
  5 Li   -0.00153   -0.00000   -0.27205
  6 Li    0.01533   -0.00242   -0.27406
  7 Li   -0.00586    0.00394   -0.27030
  8 Li   -0.00858   -0.01234   -0.27138
  9 Li   -0.00098   -0.00000    0.32312
 10 Li    0.01598   -0.00000    0.24320
 11 Li   -0.01480    0.00000    0.25733
 12 Li   -0.00095    0.01218    0.25849
 13 Li   -0.00009    0.00234    0.25513
 14 Li    0.00103    0.01110    0.25284
 15 Li   -0.00095   -0.01217    0.25850
 16 Li   -0.00008   -0.00234    0.25513
 17 Li    0.00103   -0.01110    0.25284
 18 Li    0.00397    0.00397    0.00094
 19 Li    0.00714   -0.00468    0.05226
 20 Li   -0.01213    0.00557   -0.03106
 21 Li   -0.00003    0.00000    0.04698
 22 Li   -0.00722   -0.00000    0.01959
 23 Li    0.00526    0.00001    0.05863
 24 Li    0.00398   -0.00397    0.00093
 25 Li    0.00714    0.00468    0.05226
 26 Li   -0.01214   -0.00557   -0.03109
 27 Li    0.00309    0.00009   -0.63450
 28 Li    0.00205    0.00000   -0.01510
 29 Li    0.07195    0.00000    0.08598
 30 Li    0.01577    0.07344   -0.05065
 31 Li    0.00696   -0.00391   -0.02309
 32 Li   -0.02542    0.03018   -0.04012
 33 Li    0.01579   -0.07346   -0.05066
 34 Li    0.00697    0.00391   -0.02310
 35 Li   -0.02544   -0.03019   -0.04013
 36 Br    0.79510    0.00047    4.35808
 37 H     0.33542   -0.00002    0.02783
 38 N     0.05300   -0.00150   -1.47241
 39 N    -1.25899   -0.00024   -2.15206

System changes: positions 

Initializing position-dependent things.

Density initialized from wave functions
       .-----------------------.  
      /|                       |  
     / |                       |  
    /  |                       |  
   /   |                       |  
  /    |                       |  
 *     |                       |  
 |     |                       |  
 |     |                       |  
 |     |                    H  |  
 |     |                       |  
 |     |                       |  
 |     |                    N  N  
 |     |                       |  
 |     |                       |  
 Br    |                       |  
 |   Li|     Li      Li        |  
[...]
  38 N      9.003308    9.705534   17.548171    ( 0.0000,  0.0000,  0.0000)
  39 N      8.113710    9.701972   16.836565    ( 0.0000,  0.0000,  0.0000)

Unit cell:
           periodic     x           y           z      points  spacing
  1. axis:    yes    9.702222    0.000000    0.000000    60     0.1617
  2. axis:    yes    0.000000    9.702222    0.000000    60     0.1617
  3. axis:    no     0.000000    0.000000   26.851111   168     0.1598

  Lengths:   9.702222   9.702222  26.851111
  Angles:   90.000000  90.000000  90.000000

Effective grid spacing dv^(1/3) = 0.1611

     iter     time        total  log10-change:
                         energy  eigst   dens
iter:   1 19:45:37  -331.142897  -1.11
iter:   2 19:48:02  -331.138741  -1.93  -2.03
iter:   3 19:50:29  -331.137197c -2.44  -2.26
iter:   4 19:53:04  -331.134206c -2.49  -2.29
Writing to output.gpw (mode='')

iter:   5 19:55:41  -331.133868c -2.70  -2.52
iter:   6 19:58:12  -331.133703c -2.41  -2.65
iter:   7 20:00:46  -331.133291c -3.37  -2.67
iter:   8 20:03:09  -331.133329c -3.19  -2.95
iter:   9 20:05:35  -331.133327c -3.59  -3.00
Writing to output.gpw (mode='')

iter:  10 20:08:06  -331.133258c -4.16  -3.07
iter:  11 20:10:45  -331.133230c -3.79  -3.16
iter:  12 20:13:21  -331.133239c -4.56  -3.44
iter:  13 20:15:52  -331.133243c -4.84  -3.53
iter:  14 20:18:31  -331.133261c -4.25  -3.58
Writing to output.gpw (mode='')

iter:  15 20:20:51  -331.133253c -4.94  -3.52
iter:  16 20:23:30  -331.133251c -4.89  -3.72
iter:  17 20:25:59  -331.133250c -5.05  -3.85
iter:  18 20:28:30  -331.133252c -5.33  -3.90
iter:  19 20:31:02  -331.133253c -5.14  -4.13c
Writing to output.gpw (mode='')

iter:  20 20:33:32  -331.133254c -5.87  -4.13c
iter:  21 20:36:02  -331.133253c -5.91  -4.33c
iter:  22 20:38:38  -331.133253c -6.05  -4.39c
iter:  23 20:41:08  -331.133253c -6.10  -4.45c
iter:  24 20:43:35  -331.133253c -6.24  -4.61c
Writing to output.gpw (mode='')

iter:  25 20:46:08  -331.133254c -6.36  -4.71c
iter:  26 20:48:36  -331.133254c -6.61  -4.78c
iter:  27 20:51:08  -331.133255c -6.73  -4.82c
iter:  28 20:53:34  -331.133255c -6.83  -4.87c
iter:  29 20:56:05  -331.133255c -6.97  -4.89c
Writing to output.gpw (mode='')

iter:  30 20:58:35  -331.133255c -6.95  -4.96c
iter:  31 21:01:06  -331.133255c -7.01  -5.01c
iter:  32 21:03:42  -331.133255c -7.08  -5.09c
iter:  33 21:06:10  -331.133255c -7.23  -5.22c
iter:  34 21:08:36  -331.133255c -7.34  -5.27c
Writing to output.gpw (mode='')

iter:  35 21:11:05  -331.133255c -7.53c -5.45c

Converged after 35 iterations.

Dipole moment: (15.856907, -15.754623, -0.339119) |e|*Ang

Energy contributions relative to reference atoms: (reference = -81178.542429)

Kinetic:       +108.168850
Potential:      -99.171749
External:        +0.000000
XC:            -340.342569
Entropy (-ST):   -0.148017
Local:           +0.286221
--------------------------
Free energy:   -331.207264
Extrapolated:  -331.133255

Dipole-layer corrected work functions: 3.412263, 4.064166 eV

Showing only first 2 kpts
 Kpt  Band  Eigenvalues  Occupancy
  0    25     -3.97059    1.98101
  0    26     -3.90020    1.92460
  0    27     -3.58173    0.08379
  0    28     -3.51860    0.02444

  1    25     -3.79887    1.54168
  1    26     -3.72141    0.83351
  1    27     -3.68134    0.48558
  1    28     -3.62111    0.17541


Fermi level: -3.73821

No gap

Forces in eV/Ang:
  0 Li    0.01615   -0.00096   -0.27731
  1 Li   -0.01967   -0.00113   -0.27353
  2 Li   -0.00727    0.01887   -0.27039
  3 Li   -0.00461    0.00001   -0.28248
  4 Li   -0.00200    0.00003   -0.28936
  5 Li   -0.00686    0.00005   -0.27437
  6 Li    0.01615    0.00097   -0.27728
  7 Li   -0.01963    0.00108   -0.27362
  8 Li   -0.00725   -0.01892   -0.27041
  9 Li    0.04016    0.00002    0.30915
 10 Li    0.05341    0.00002    0.20833
 11 Li   -0.01800   -0.00003    0.28119
 12 Li    0.02593    0.02331    0.26956
 13 Li    0.03075   -0.02833    0.25005
 14 Li   -0.00929    0.01598    0.26911
 15 Li    0.02596   -0.02338    0.26934
 16 Li    0.03055    0.02831    0.25005
 17 Li   -0.00923   -0.01590    0.26918
 18 Li   -0.02740   -0.02671    0.02295
 19 Li    0.00367   -0.00760   -0.01805
 20 Li   -0.02397    0.01942   -0.00887
 21 Li    0.02027    0.00006   -0.01682
 22 Li   -0.00529   -0.00001   -0.01477
 23 Li   -0.01070   -0.00001   -0.02107
 24 Li   -0.02745    0.02669    0.02296
 25 Li    0.00342    0.00760   -0.01821
 26 Li   -0.02373   -0.01933   -0.00870
 27 Li    0.02713    0.00017   -0.00682
 28 Li   -0.01421    0.00005   -0.00404
 29 Li    0.05115   -0.00121    0.07533
 30 Li   -0.00292    0.00962    0.03715
 31 Li    0.00058    0.00128    0.00919
 32 Li    0.01308   -0.02725    0.00033
 33 Li   -0.00304   -0.00957    0.03699
 34 Li    0.00066   -0.00133    0.00914
 35 Li    0.01315    0.02704    0.00042
 36 Br   -0.01810    0.00108   -0.02616
 37 H     0.03893    0.00083    0.04864
 38 N     0.15978   -0.00604    0.08381
 39 N    -0.35106    0.00353   -0.07320

System changes: positions 

Initializing position-dependent things.

Density initialized from wave functions
       .-----------------------.  
      /|                       |  
     / |                       |  
    /  |                       |  
   /   |                       |  
  /    |                       |  
 *     |                       |  
 |     |                       |  
 |     |                       |  
 |     |                       |  
 |     |                       |  
 |     |                       |  
 |     |                   N   |  
 |     |                Br     |  
 |     |               Li      |  
 |     |               H       |  
 |   Li|     Li      Li        |  
 |     |  Li      Li   N  Li   |  
 | Li  |   Li      Li          |  
 |     |Li      Li      Li     |  
 Li    | Li                    |  
 |   LLi     LLi     Li        |  
 |     |  Li      Li  Li  Li   |  
 | Li  |   Li      Li          |  
 |     |Li      Li      Li     |  
 Li    | Li      Li            |  
 |    Li      Li      Li       |  
 |     |                       |  
 |     |                       |  
 |     |                       |  
 |     |                       |  
 |     |                       |  
 |     |                       |  
 |     .-----------------------.  
 |    /                       /   
 |   /                       /    
 |  /                       /     
 | /                       /      
 |/                       /       
 *-----------------------*        

Positions:
   0 Li     1.617037    1.617037   10.000000    ( 0.0000,  0.0000,  0.0000)
   1 Li     4.851111    1.617037   10.000000    ( 0.0000,  0.0000,  0.0000)
   2 Li     8.085185    1.617037   10.000000    ( 0.0000,  0.0000,  0.0000)
   3 Li     1.617037    4.851111   10.000000    ( 0.0000,  0.0000,  0.0000)
   4 Li     4.851111    4.851111   10.000000    ( 0.0000,  0.0000,  0.0000)
   5 Li     8.085185    4.851111   10.000000    ( 0.0000,  0.0000,  0.0000)
   6 Li     1.617037    8.085185   10.000000    ( 0.0000,  0.0000,  0.0000)
   7 Li     4.851111    8.085185   10.000000    ( 0.0000,  0.0000,  0.0000)
   8 Li     8.085185    8.085185   10.000000    ( 0.0000,  0.0000,  0.0000)
   9 Li     0.000000    0.000000   11.617037    ( 0.0000,  0.0000,  0.0000)
  10 Li     3.234074    0.000000   11.617037    ( 0.0000,  0.0000,  0.0000)
  11 Li     6.468148    0.000000   11.617037    ( 0.0000,  0.0000,  0.0000)
  12 Li     0.000000    3.234074   11.617037    ( 0.0000,  0.0000,  0.0000)
  13 Li     3.234074    3.234074   11.617037    ( 0.0000,  0.0000,  0.0000)
  14 Li     6.468148    3.234074   11.617037    ( 0.0000,  0.0000,  0.0000)
  15 Li     0.000000    6.468148   11.617037    ( 0.0000,  0.0000,  0.0000)
  16 Li     3.234074    6.468148   11.617037    ( 0.0000,  0.0000,  0.0000)
  17 Li     6.468148    6.468148   11.617037    ( 0.0000,  0.0000,  0.0000)
  18 Li     1.680742    1.604287   13.463936    ( 0.0000,  0.0000,  0.0000)
  19 Li     4.894358    1.595132   13.517876    ( 0.0000,  0.0000,  0.0000)
  20 Li     8.123983    1.599732   13.429645    ( 0.0000,  0.0000,  0.0000)
  21 Li     1.642879    4.851100   13.447741    ( 0.0000,  0.0000,  0.0000)
  22 Li     4.818077    4.851117   13.463204    ( 0.0000,  0.0000,  0.0000)
  23 Li     8.068314    4.851115   13.457778    ( 0.0000,  0.0000,  0.0000)
  24 Li     1.680679    8.097945   13.463977    ( 0.0000,  0.0000,  0.0000)
  25 Li     4.894337    8.107097   13.517865    ( 0.0000,  0.0000,  0.0000)
  26 Li     8.124055    8.102508   13.429755    ( 0.0000,  0.0000,  0.0000)
  27 Li     0.133862    0.000070   15.501608    ( 0.0000,  0.0000,  0.0000)
  28 Li     3.347150    0.000013   15.499961    ( 0.0000,  0.0000,  0.0000)
  29 Li     6.651816   -0.000148   15.477086    ( 0.0000,  0.0000,  0.0000)
  30 Li     0.020502    3.280631   15.299438    ( 0.0000,  0.0000,  0.0000)
  31 Li     3.220447    3.234690   15.429006    ( 0.0000,  0.0000,  0.0000)
  32 Li     6.433111    3.293910   15.395446    ( 0.0000,  0.0000,  0.0000)
  33 Li     0.020396    6.421703   15.299419    ( 0.0000,  0.0000,  0.0000)
  34 Li     3.220484    6.467518   15.428969    ( 0.0000,  0.0000,  0.0000)
  35 Li     6.433233    6.408443   15.395482    ( 0.0000,  0.0000,  0.0000)
  36 Br     9.328737    9.706194   21.210212    ( 0.0000,  0.0000,  0.0000)
  37 H      9.093065    9.702592   19.786624    ( 0.0000,  0.0000,  0.0000)
  38 N      8.973673    9.705754   17.570772    ( 0.0000,  0.0000,  0.0000)
  39 N      8.093273    9.701981   16.848943    ( 0.0000,  0.0000,  0.0000)

Unit cell:
           periodic     x           y           z      points  spacing
  1. axis:    yes    9.702222    0.000000    0.000000    60     0.1617
  2. axis:    yes    0.000000    9.702222    0.000000    60     0.1617
  3. axis:    no     0.000000    0.000000   26.851111   168     0.1598

  Lengths:   9.702222   9.702222  26.851111
  Angles:   90.000000  90.000000  90.000000

Effective grid spacing dv^(1/3) = 0.1611

     iter     time        total  log10-change:
                         energy  eigst   dens
iter:   1 21:14:03  -331.140450  -1.05
iter:   2 21:16:34  -331.138709  -1.86  -2.11
iter:   3 21:19:08  -331.136919c -2.34  -2.30
iter:   4 21:21:30  -331.135781c -2.60  -2.34
Writing to output.gpw (mode='')

iter:   5 21:24:03  -331.135073c -2.44  -2.53
iter:   6 21:26:30  -331.135254c -2.33  -2.67
iter:   7 21:28:59  -331.134610c -3.18  -2.61
iter:   8 21:31:29  -331.134641c -3.45  -2.96
iter:   9 21:33:50  -331.134606c -3.72  -2.96
Writing to output.gpw (mode='')

iter:  10 21:36:20  -331.134644c -4.12  -3.15
iter:  11 21:38:50  -331.134589c -3.79  -3.19
iter:  12 21:41:14  -331.134584c -4.70  -3.40
iter:  13 21:43:44  -331.134582c -4.36  -3.47
iter:  14 21:46:22  -331.134592c -4.32  -3.52
Writing to output.gpw (mode='')

iter:  15 21:48:54  -331.134588c -5.15  -3.53
iter:  16 21:51:35  -331.134585c -4.88  -3.59
iter:  17 21:54:06  -331.134586c -5.13  -3.99
iter:  18 21:56:39  -331.134587c -5.56  -3.95
iter:  19 21:59:14  -331.134586c -5.57  -3.97
Writing to output.gpw (mode='')

iter:  20 22:01:53  -331.134586c -5.65  -4.17c
iter:  21 22:04:26  -331.134585c -5.80  -4.28c
iter:  22 22:06:51  -331.134584c -6.05  -4.28c
iter:  23 22:09:25  -331.134584c -6.18  -4.35c
iter:  24 22:11:56  -331.134584c -6.45  -4.62c
Writing to output.gpw (mode='')

iter:  25 22:14:32  -331.134585c -6.67  -4.77c
iter:  26 22:16:58  -331.134585c -6.88  -4.82c
iter:  27 22:19:18  -331.134586c -6.71  -4.86c
iter:  28 22:21:46  -331.134586c -7.10  -5.07c
iter:  29 22:24:08  -331.134586c -6.98  -5.10c
Writing to output.gpw (mode='')

iter:  30 22:25:16  -331.134586c -7.13  -5.16c
iter:  31 22:27:50  -331.134586c -7.28  -5.24c
iter:  32 22:30:17  -331.134586c -7.38  -5.26c
iter:  33 22:32:50  -331.134586c -7.54c -5.33c

Converged after 33 iterations.

Dipole moment: (15.581454, -15.797693, -0.343265) |e|*Ang

Energy contributions relative to reference atoms: (reference = -81178.542429)

Kinetic:       +108.114686
Potential:      -99.140594
External:        +0.000000
XC:            -340.319521
Entropy (-ST):   -0.148177
Local:           +0.284933
--------------------------
Free energy:   -331.208675
Extrapolated:  -331.134586

Dipole-layer corrected work functions: 3.412658, 4.072531 eV

Showing only first 2 kpts
 Kpt  Band  Eigenvalues  Occupancy
  0    25     -3.97721    1.98184
  0    26     -3.90451    1.92450
  0    27     -3.58661    0.08461
  0    28     -3.52357    0.02473

  1    25     -3.80315    1.54098
  1    26     -3.72487    0.82456
  1    27     -3.68523    0.48195
  1    28     -3.62814    0.18405


Fermi level: -3.74259

No gap
Writing to output.gpw (mode='')


Forces in eV/Ang:
  0 Li    0.01579   -0.00114   -0.27621
  1 Li   -0.01989   -0.00093   -0.27415
  2 Li   -0.00710    0.01883   -0.26932
  3 Li   -0.00431    0.00002   -0.28339
  4 Li   -0.00220    0.00003   -0.28786
  5 Li   -0.00718    0.00005   -0.27474
  6 Li    0.01579    0.00116   -0.27618
  7 Li   -0.01984    0.00087   -0.27425
  8 Li   -0.00708   -0.01889   -0.26934
  9 Li    0.04182    0.00002    0.30267
 10 Li    0.05410    0.00002    0.20606
 11 Li   -0.01546   -0.00004    0.28047
 12 Li    0.02741    0.02172    0.26822
 13 Li    0.03051   -0.03199    0.24876
 14 Li   -0.00877    0.01346    0.26818
 15 Li    0.02744   -0.02179    0.26799
 16 Li    0.03029    0.03197    0.24876
 17 Li   -0.00870   -0.01336    0.26826
 18 Li   -0.03216   -0.02968    0.03032
 19 Li    0.00071   -0.00468   -0.01694
 20 Li   -0.02129    0.01604   -0.00364
 21 Li    0.01580    0.00006   -0.00976
 22 Li   -0.00283   -0.00001   -0.00981
 23 Li   -0.00868   -0.00001   -0.01345
 24 Li   -0.03222    0.02966    0.03033
 25 Li    0.00045    0.00468   -0.01710
 26 Li   -0.02104   -0.01595   -0.00348
 27 Li    0.01783    0.00017   -0.02906
 28 Li   -0.01388    0.00005   -0.00621
 29 Li    0.03847   -0.00124    0.07140
 30 Li   -0.00249    0.01392    0.03585
 31 Li    0.00161   -0.00026    0.00737
 32 Li    0.01273   -0.02748   -0.00165
 33 Li   -0.00261   -0.01385    0.03570
 34 Li    0.00170    0.00021    0.00732
 35 Li    0.01281    0.02725   -0.00156
 36 Br   -0.01381    0.00032   -0.06106
 37 H     0.02910    0.00147    0.08767
 38 N     0.24135    0.00448    0.10147
 39 N    -0.37048    0.00311   -0.08318

System changes: positions 

Initializing position-dependent things.

Density initialized from wave functions
       .-----------------------.  
      /|                       |  
     / |                       |  
    /  |                       |  
   /   |                       |  
  /    |                       |  
 *     |                       |  
 |     |                       |  
 |     |                       |  
 |     |                       |  
 |     |                       |  
 |     |                       |  
 |     |                   N   |  
 |     |                Br     |  
 |     |               Li      |  
 |     |                H      |  
 |   Li|     Li      Li        |  
 |     |  Li      Li   N  Li   |  
 | Li  |   Li      Li          |  
 |     |Li      Li      Li     |  
 Li    | Li                    |  
 |   LLi     LLi     Li        |  
 |     |  Li      Li  Li  Li   |  
 | Li  |   Li      Li          |  
 |     |Li      Li      Li     |  
 Li    | Li      Li            |  
 |    Li      Li      Li       |  
 |     |                       |  
 |     |                       |  
 |     |                       |  
 |     |                       |  
 |     |                       |  
 |     |                       |  
 |     .-----------------------.  
 |    /                       /   
 |   /                       /    
 |  /                       /     
 | /                       /      
 |/                       /       
 *-----------------------*        

Positions:
   0 Li     1.617037    1.617037   10.000000    ( 0.0000,  0.0000,  0.0000)
   1 Li     4.851111    1.617037   10.000000    ( 0.0000,  0.0000,  0.0000)
   2 Li     8.085185    1.617037   10.000000    ( 0.0000,  0.0000,  0.0000)
   3 Li     1.617037    4.851111   10.000000    ( 0.0000,  0.0000,  0.0000)
   4 Li     4.851111    4.851111   10.000000    ( 0.0000,  0.0000,  0.0000)
   5 Li     8.085185    4.851111   10.000000    ( 0.0000,  0.0000,  0.0000)
   6 Li     1.617037    8.085185   10.000000    ( 0.0000,  0.0000,  0.0000)
   7 Li     4.851111    8.085185   10.000000    ( 0.0000,  0.0000,  0.0000)
   8 Li     8.085185    8.085185   10.000000    ( 0.0000,  0.0000,  0.0000)
   9 Li     0.000000    0.000000   11.617037    ( 0.0000,  0.0000,  0.0000)
  10 Li     3.234074    0.000000   11.617037    ( 0.0000,  0.0000,  0.0000)
  11 Li     6.468148    0.000000   11.617037    ( 0.0000,  0.0000,  0.0000)
  12 Li     0.000000    3.234074   11.617037    ( 0.0000,  0.0000,  0.0000)
  13 Li     3.234074    3.234074   11.617037    ( 0.0000,  0.0000,  0.0000)
  14 Li     6.468148    3.234074   11.617037    ( 0.0000,  0.0000,  0.0000)
  15 Li     0.000000    6.468148   11.617037    ( 0.0000,  0.0000,  0.0000)
  16 Li     3.234074    6.468148   11.617037    ( 0.0000,  0.0000,  0.0000)
  17 Li     6.468148    6.468148   11.617037    ( 0.0000,  0.0000,  0.0000)
  18 Li     1.680996    1.603280   13.464595    ( 0.0000,  0.0000,  0.0000)
  19 Li     4.895723    1.593737   13.517802    ( 0.0000,  0.0000,  0.0000)
  20 Li     8.123691    1.600023   13.429716    ( 0.0000,  0.0000,  0.0000)
  21 Li     1.644091    4.851103   13.445649    ( 0.0000,  0.0000,  0.0000)
  22 Li     4.817420    4.851117   13.461484    ( 0.0000,  0.0000,  0.0000)
  23 Li     8.067716    4.851116   13.455263    ( 0.0000,  0.0000,  0.0000)
  24 Li     1.680932    8.098952   13.464636    ( 0.0000,  0.0000,  0.0000)
  25 Li     4.895689    8.108494   13.517783    ( 0.0000,  0.0000,  0.0000)
  26 Li     8.123774    8.102223   13.429838    ( 0.0000,  0.0000,  0.0000)
  27 Li     0.141365    0.000074   15.508015    ( 0.0000,  0.0000,  0.0000)
  28 Li     3.346752    0.000014   15.500813    ( 0.0000,  0.0000,  0.0000)
  29 Li     6.655517   -0.000199   15.476896    ( 0.0000,  0.0000,  0.0000)
  30 Li     0.020320    3.279550   15.298869    ( 0.0000,  0.0000,  0.0000)
  31 Li     3.220172    3.235367   15.429654    ( 0.0000,  0.0000,  0.0000)
  32 Li     6.433292    3.293978   15.395706    ( 0.0000,  0.0000,  0.0000)
  33 Li     0.020210    6.422787   15.298844    ( 0.0000,  0.0000,  0.0000)
  34 Li     3.220212    6.466838   15.429613    ( 0.0000,  0.0000,  0.0000)
  35 Li     6.433418    6.408371   15.395746    ( 0.0000,  0.0000,  0.0000)
  36 Br     9.325004    9.706246   21.213757    ( 0.0000,  0.0000,  0.0000)
  37 H      9.100857    9.702634   19.791329    ( 0.0000,  0.0000,  0.0000)
  38 N      8.964269    9.705817   17.575935    ( 0.0000,  0.0000,  0.0000)
  39 N      8.084240    9.702078   16.853446    ( 0.0000,  0.0000,  0.0000)

Unit cell:
           periodic     x           y           z      points  spacing
  1. axis:    yes    9.702222    0.000000    0.000000    60     0.1617
  2. axis:    yes    0.000000    9.702222    0.000000    60     0.1617
  3. axis:    no     0.000000    0.000000   26.851111   168     0.1598

  Lengths:   9.702222   9.702222  26.851111
  Angles:   90.000000  90.000000  90.000000

Effective grid spacing dv^(1/3) = 0.1611

     iter     time        total  log10-change:
                         energy  eigst   dens
iter:   1 22:36:04  -331.137148  -2.03
iter:   2 22:38:37  -331.136889  -2.85  -2.61
iter:   3 22:41:07  -331.136479c -3.27  -2.78
iter:   4 22:43:46  -331.136378c -3.63  -2.82
Writing to output.gpw (mode='')

iter:   5 22:46:20  -331.136207c -3.31  -2.99
iter:   6 22:48:53  -331.136170c -3.25  -3.16
iter:   7 22:51:26  -331.136116c -4.19  -3.13
iter:   8 22:54:00  -331.136122c -4.29  -3.44
iter:   9 22:56:29  -331.136110c -4.74  -3.44
Writing to output.gpw (mode='')

iter:  10 22:59:13  -331.136133c -4.89  -3.56
iter:  11 23:01:46  -331.136125c -4.76  -3.63
iter:  12 23:04:17  -331.136120c -5.52  -3.75
