
  ___ ___ ___ _ _ _  
 |   |   |_  | | | | 
 | | | | | . | | | | 
 |__ |  _|___|_____|  22.8.0
 |___|_|             

User:   vazumah@c08.hercules
Date:   Thu Mar  2 03:24:29 2023
Arch:   x86_64
Pid:    21772
CWD:    /home/vazumah/Python_projects/LiNRR/Li_adsorb_studies/proton_donors/N2_with_proton_donor/Li_BCC_100/adsorbates/HBr/ontop/9.702_9.702/N2_x
Python: 3.10.8
gpaw:   /home/vazumah/.conda/envs/GPAW/lib/python3.10/site-packages/gpaw
_gpaw:  /home/vazumah/.conda/envs/GPAW/lib/python3.10/site-packages/
        _gpaw.cpython-310-x86_64-linux-gnu.so
ase:    /home/vazumah/.conda/envs/GPAW/lib/python3.10/site-packages/ase (version 3.22.1)
numpy:  /home/vazumah/.conda/envs/GPAW/lib/python3.10/site-packages/numpy (version 1.24.1)
scipy:  /home/vazumah/.conda/envs/GPAW/lib/python3.10/site-packages/scipy (version 1.10.0)
libxc:  5.2.3
units:  Angstrom and eV
cores: 24
OpenMP: True
OMP_NUM_THREADS: 1

Input parameters:
  h: 0.16
  kpts: {size: [4, 4, 1]}
  occupations: {name: fermi-dirac,
                width: 0.05}
  poissonsolver: {dipolelayer: xy}
  xc: BEEF-vdW

System changes: positions, numbers, cell, pbc, initial_charges, initial_magmoms 

Initialize ...

species:
  Li:
    name: Lithium
    id: 830b4218f175192f93f959cfc0aad614
    Z: 3.0
    valence: 1
    core: 2
    charge: 0.0
    file: /home/vazumah/.conda/envs/GPAW/share/gpaw/Li.PBE.gz
    compensation charges: {type: gauss,
                           rc: 0.33,
                           lmax: 2}
    cutoffs: {filter: 1.91,
              core: 2.55}
    valence states:
      #              energy  rcut
      - 2s(1.00)    -2.874   1.058
      - 2p(0.00)    -1.090   1.058
      -  s          24.337   1.058
  
    # Using partial waves for Li as LCAO basis

  Br:
    name: Bromine
    id: 39dc90fcf3bf77f2d83386b416c2c495
    Z: 35.0
    valence: 7
    core: 28
    charge: 0.0
    file: /home/vazumah/.conda/envs/GPAW/share/gpaw/Br.PBE.gz
    compensation charges: {type: gauss,
                           rc: 0.35,
                           lmax: 2}
    cutoffs: {filter: 1.98,
              core: 2.38}
    valence states:
      #              energy  rcut
      - 4s(2.00)   -20.121   1.111
      - 4p(5.00)    -7.861   1.111
      -  s           7.091   1.111
      -  p          19.351   1.111
      -  d           0.000   1.111
  
    # Using partial waves for Br as LCAO basis

  H:
    name: Hydrogen
    id: d65de229564ff8ea4db303e23b6d1ecf
    Z: 1.0
    valence: 1
    core: 0
    charge: 0.0
    file: /home/vazumah/.conda/envs/GPAW/share/gpaw/H.PBE.gz
    compensation charges: {type: gauss,
                           rc: 0.15,
                           lmax: 2}
    cutoffs: {filter: 0.85,
              core: 0.53}
    valence states:
      #              energy  rcut
      - 1s(1.00)    -6.494   0.476
      -  s          20.717   0.476
      -  p           0.000   0.476
  
    # Using partial waves for H as LCAO basis

  N:
    name: Nitrogen
    id: f7500608b86eaa90eef8b1d9a670dc53
    Z: 7.0
    valence: 5
    core: 2
    charge: 0.0
    file: /home/vazumah/.conda/envs/GPAW/share/gpaw/N.PBE.gz
    compensation charges: {type: gauss,
                           rc: 0.18,
                           lmax: 2}
    cutoffs: {filter: 1.11,
              core: 0.96}
    valence states:
      #              energy  rcut
      - 2s(2.00)   -18.583   0.603
      - 2p(3.00)    -7.089   0.529
      -  s           8.629   0.603
      -  p          20.123   0.529
      -  d           0.000   0.577
  
    # Using partial waves for N as LCAO basis

Reference energy: -81178.542429  # eV

Spin-paired calculation

Convergence criteria:
 Maximum [total energy] change in last 3 cyles: 0.0005 eV / electron
 Maximum integral of absolute [dens]ity change: 0.0001 electrons / valence electron
 Maximum integral of absolute [eigenst]ate change: 4e-08 eV^2 / valence electron
 Maximum number of scf [iter]ations: 333
 (Square brackets indicate name in SCF output, whereas a 'c' in
 the SCF output indicates the quantity has converged.)

Symmetries present (total): 1

  ( 1  0  0)
  ( 0  1  0)
  ( 0  0  1)

16 k-points: 4 x 4 x 1 Monkhorst-Pack grid
8 k-points in the irreducible part of the Brillouin zone
       k-points in crystal coordinates                weights
   0:     0.12500000   -0.37500000    0.00000000          2/16
   1:     0.12500000   -0.12500000    0.00000000          2/16
   2:     0.12500000    0.12500000    0.00000000          2/16
   3:     0.12500000    0.37500000    0.00000000          2/16
   4:     0.37500000   -0.37500000    0.00000000          2/16
   5:     0.37500000   -0.12500000    0.00000000          2/16
   6:     0.37500000    0.12500000    0.00000000          2/16
   7:     0.37500000    0.37500000    0.00000000          2/16

Wave functions: Uniform real-space grid
  Kinetic energy operator: 6*3+1=19 point O(h^6) finite-difference Laplacian
  ScaLapack parameters: grid=1x1, blocksize=None
  Wavefunction extrapolation:
    Improved wavefunction reuse through dual PAW basis 

Occupation numbers: Fermi-Dirac:
  width: 0.0500  # eV
 

Eigensolver
   Davidson(niter=2) 

Densities:
  Coarse grid: 60*60*168 grid
  Fine grid: 120*120*336 grid
  Total Charge: 0.000000 

Density mixing:
  Method: separate
  Backend: pulay
  Linear mixing parameter: 0.05
  old densities: 5
  Damping of long wavelength oscillations: 50 

Hamiltonian:
  XC and Coulomb potentials evaluated on a 120*120*336 grid
  Using the BEEF-vdW Exchange-Correlation functional
  Interpolation: tri-quintic (5. degree polynomial)
  Poisson solver: FastPoissonSolver using
    Stencil: 6*3+1=19 point O(h^6) finite-difference Laplacian
    FFT axes: [0, 1]
    FST axes: [2]

Dipole correction along z-axis 

XC parameters: BEEF-vdW with 2 nearest neighbor stencil

Memory estimate:
  Process memory now: 229.09 MiB
  Calculator: 395.41 MiB
    Density: 121.75 MiB
      Arrays: 39.61 MiB
      Localized functions: 67.04 MiB
      Mixer: 15.11 MiB
    Hamiltonian: 31.20 MiB
      Arrays: 25.90 MiB
      XC: 0.00 MiB
      Poisson: 0.00 MiB
      vbar: 5.30 MiB
    Wavefunctions: 242.46 MiB
      Arrays psit_nG: 111.79 MiB
      Eigensolver: 127.10 MiB
      Projections: 0.04 MiB
      Projectors: 3.53 MiB

Total number of cores used: 24
Parallelization over k-points: 8
Domain decomposition: 1 x 1 x 3

Number of atoms: 40
Number of atomic orbitals: 157
Number of bands in calculation: 37
Number of valence electrons: 54
Bands to converge: occupied

... initialized

Initializing position-dependent things.

Density initialized from atomic densities
Creating initial wave functions:
  37 bands from LCAO basis set

       .-----------------------.  
      /|                       |  
     / |                       |  
    /  |                       |  
   /   |                       |  
  /    |                       |  
 *     |                       |  
 |     |                       |  
 |     |                       |  
 |     |                       |  
 |     |                       |  
 |     |                       |  
 |     |                    N  N  
 |     |                       |  
 |     |                       |  
 Br    |             H         |  
 |   Li|     Li      Li        |  
 |     |  Li      Li      Li   |  
 | Li  |   Li      Li          |  
 |     |Li      Li      Li     |  
 Li    | Li      Li            |  
 |   LLi     LLi     LLi       |  
 |     |  Li      Li      Li   |  
 | Li  |   Li      Li          |  
 |     |Li      Li      Li     |  
 Li    | Li      Li            |  
 |    Li      Li      Li       |  
 |     |                       |  
 |     |                       |  
 |     |                       |  
 |     |                       |  
 |     |                       |  
 |     |                       |  
 |     .-----------------------.  
 |    /                       /   
 |   /                       /    
 |  /                       /     
 | /                       /      
 |/                       /       
 *-----------------------*        

Positions:
   0 Li     1.617037    1.617037   10.000000    ( 0.0000,  0.0000,  0.0000)
   1 Li     4.851111    1.617037   10.000000    ( 0.0000,  0.0000,  0.0000)
   2 Li     8.085185    1.617037   10.000000    ( 0.0000,  0.0000,  0.0000)
   3 Li     1.617037    4.851111   10.000000    ( 0.0000,  0.0000,  0.0000)
   4 Li     4.851111    4.851111   10.000000    ( 0.0000,  0.0000,  0.0000)
   5 Li     8.085185    4.851111   10.000000    ( 0.0000,  0.0000,  0.0000)
   6 Li     1.617037    8.085185   10.000000    ( 0.0000,  0.0000,  0.0000)
   7 Li     4.851111    8.085185   10.000000    ( 0.0000,  0.0000,  0.0000)
   8 Li     8.085185    8.085185   10.000000    ( 0.0000,  0.0000,  0.0000)
   9 Li     0.000000    0.000000   11.617037    ( 0.0000,  0.0000,  0.0000)
  10 Li     3.234074    0.000000   11.617037    ( 0.0000,  0.0000,  0.0000)
  11 Li     6.468148    0.000000   11.617037    ( 0.0000,  0.0000,  0.0000)
  12 Li     0.000000    3.234074   11.617037    ( 0.0000,  0.0000,  0.0000)
  13 Li     3.234074    3.234074   11.617037    ( 0.0000,  0.0000,  0.0000)
  14 Li     6.468148    3.234074   11.617037    ( 0.0000,  0.0000,  0.0000)
  15 Li     0.000000    6.468148   11.617037    ( 0.0000,  0.0000,  0.0000)
  16 Li     3.234074    6.468148   11.617037    ( 0.0000,  0.0000,  0.0000)
  17 Li     6.468148    6.468148   11.617037    ( 0.0000,  0.0000,  0.0000)
  18 Li     1.617038    1.617038   13.469728    ( 0.0000,  0.0000,  0.0000)
  19 Li     4.851111    1.617038   13.469729    ( 0.0000,  0.0000,  0.0000)
  20 Li     8.085184    1.617038   13.469728    ( 0.0000,  0.0000,  0.0000)
  21 Li     1.617038    4.851111   13.469729    ( 0.0000,  0.0000,  0.0000)
  22 Li     4.851111    4.851111   13.469730    ( 0.0000,  0.0000,  0.0000)
  23 Li     8.085184    4.851111   13.469729    ( 0.0000,  0.0000,  0.0000)
  24 Li     1.617038    8.085184   13.469728    ( 0.0000,  0.0000,  0.0000)
  25 Li     4.851111    8.085184   13.469729    ( 0.0000,  0.0000,  0.0000)
  26 Li     8.085184    8.085184   13.469728    ( 0.0000,  0.0000,  0.0000)
  27 Li    -0.000000   -0.000000   15.445939    ( 0.0000,  0.0000,  0.0000)
  28 Li     3.234074    0.000000   15.445939    ( 0.0000,  0.0000,  0.0000)
  29 Li     6.468148    0.000000   15.445939    ( 0.0000,  0.0000,  0.0000)
  30 Li     0.000000    3.234074   15.445939    ( 0.0000,  0.0000,  0.0000)
  31 Li     3.234076    3.234076   15.445938    ( 0.0000,  0.0000,  0.0000)
  32 Li     6.468146    3.234076   15.445938    ( 0.0000,  0.0000,  0.0000)
  33 Li     0.000000    6.468148   15.445939    ( 0.0000,  0.0000,  0.0000)
  34 Li     3.234076    6.468146   15.445938    ( 0.0000,  0.0000,  0.0000)
  35 Li     6.468146    6.468146   15.445938    ( 0.0000,  0.0000,  0.0000)
  36 Br     9.702222    9.702222   19.445939    ( 0.0000,  0.0000,  0.0000)
  37 H      8.280365    9.702222   19.445939    ( 0.0000,  0.0000,  0.0000)
  38 N      9.702000    9.702000   17.445939    ( 0.0000,  0.0000,  0.0000)
  39 N      8.605378    9.702000   17.445939    ( 0.0000,  0.0000,  0.0000)

Unit cell:
           periodic     x           y           z      points  spacing
  1. axis:    yes    9.702222    0.000000    0.000000    60     0.1617
  2. axis:    yes    0.000000    9.702222    0.000000    60     0.1617
  3. axis:    no     0.000000    0.000000   26.851111   168     0.1598

  Lengths:   9.702222   9.702222  26.851111
  Angles:   90.000000  90.000000  90.000000

Effective grid spacing dv^(1/3) = 0.1611

     iter     time        total  log10-change:
                         energy  eigst   dens
iter:   1 03:25:51  -480.317080
iter:   2 03:26:42  -253.300246  +2.34  -0.07
iter:   3 03:27:33  -200.543066  +3.24  -0.23
iter:   4 03:28:24  -281.597664  +3.18  -0.19
Writing to output.gpw (mode='')

iter:   5 03:29:16  -271.500570  +2.56  -0.20
iter:   6 03:30:07  -289.504722  +2.42  -0.46
iter:   7 03:30:58  -299.227585  +2.15  -0.63
iter:   8 03:31:49  -327.680727  +2.37  -0.72
iter:   9 03:32:40  -339.621302  +2.20  -0.55
Writing to output.gpw (mode='')

iter:  10 03:33:32  -341.632683  +1.98  -0.61
iter:  11 03:34:24  -354.120313  +1.91  -0.58
iter:  12 03:35:15  -386.331536  +2.11  -0.48
iter:  13 03:36:06  -382.688810  +1.69  -0.46
iter:  14 03:36:57  -361.426684  +1.09  -0.46
Writing to output.gpw (mode='')

iter:  15 03:37:50  -346.132416  +1.04  -0.50
iter:  16 03:38:41  -340.442672  +1.39  -0.54
iter:  17 03:39:32  -331.106745  +1.03  -0.62
iter:  18 03:40:23  -330.090555  +0.49  -0.79
iter:  19 03:41:14  -335.778272  +1.09  -0.81
Writing to output.gpw (mode='')

iter:  20 03:42:06  -327.757009  +0.63  -0.76
iter:  21 03:42:57  -327.656689  +0.18  -1.01
iter:  22 03:43:48  -327.585928  -0.05  -1.02
iter:  23 03:44:39  -327.484175  -0.23  -1.02
iter:  24 03:45:30  -327.367208  -0.09  -1.03
Writing to output.gpw (mode='')

iter:  25 03:46:22  -326.875093  +0.24  -1.02
iter:  26 03:47:13  -326.851859  -0.34  -1.25
iter:  27 03:48:04  -326.821624  -0.33  -1.30
iter:  28 03:48:55  -326.833298  -0.24  -1.33
iter:  29 03:49:46  -326.693943  -0.21  -1.36
Writing to output.gpw (mode='')

iter:  30 03:50:39  -326.659249  -0.61  -1.49
iter:  31 03:51:30  -326.629873  -0.54  -1.56
iter:  32 03:52:21  -326.623061  -0.95  -1.77
iter:  33 03:53:12  -326.618195c -1.23  -1.88
iter:  34 03:54:03  -326.621090c -1.28  -1.94
Writing to output.gpw (mode='')

iter:  35 03:54:56  -326.625369c -1.32  -1.96
iter:  36 03:55:47  -326.628560c -1.50  -2.03
iter:  37 03:56:38  -326.636102c -1.44  -2.18
iter:  38 03:57:29  -326.632162c -1.80  -2.22
iter:  39 03:58:20  -326.634771c -1.49  -2.35
Writing to output.gpw (mode='')

iter:  40 03:59:13  -326.636679c -1.83  -2.37
iter:  41 04:00:04  -326.638274c -2.05  -2.56
iter:  42 04:00:54  -326.638951c -1.94  -2.60
iter:  43 04:01:45  -326.640064c -1.97  -2.76
iter:  44 04:02:36  -326.641043c -2.23  -2.77
Writing to output.gpw (mode='')

iter:  45 04:03:30  -326.641621c -2.40  -2.87
iter:  46 04:04:21  -326.642316c -2.27  -3.02
iter:  47 04:05:12  -326.642855c -2.43  -3.13
iter:  48 04:06:03  -326.643253c -2.63  -3.19
iter:  49 04:06:54  -326.643545c -2.88  -3.24
Writing to output.gpw (mode='')

iter:  50 04:07:47  -326.643870c -2.69  -3.27
iter:  51 04:08:38  -326.644134c -2.79  -3.36
iter:  52 04:09:29  -326.644305c -3.04  -3.41
iter:  53 04:10:20  -326.644460c -3.03  -3.55
iter:  54 04:11:11  -326.644570c -3.18  -3.60
Writing to output.gpw (mode='')

iter:  55 04:12:03  -326.644674c -3.22  -3.60
iter:  56 04:12:54  -326.644776c -3.32  -3.63
iter:  57 04:13:45  -326.644842c -3.40  -3.74
iter:  58 04:14:36  -326.644907c -3.48  -3.71
iter:  59 04:15:27  -326.644969c -3.42  -3.78
Writing to output.gpw (mode='')

iter:  60 04:16:19  -326.645027c -3.65  -3.86
iter:  61 04:17:10  -326.645068c -3.73  -3.92
iter:  62 04:18:02  -326.645097c -3.85  -4.21c
iter:  63 04:18:52  -326.645127c -3.80  -4.29c
iter:  64 04:19:43  -326.645146c -3.96  -4.37c
Writing to output.gpw (mode='')

iter:  65 04:20:36  -326.645165c -4.04  -4.32c
iter:  66 04:21:27  -326.645183c -3.84  -4.25c
iter:  67 04:22:18  -326.645196c -4.13  -4.12c
iter:  68 04:23:09  -326.645207c -4.18  -4.07c
iter:  69 04:24:00  -326.645219c -4.22  -4.02c
Writing to output.gpw (mode='')

iter:  70 04:24:53  -326.645230c -3.89  -4.01c
iter:  71 04:25:44  -326.645238c -4.25  -3.97
iter:  72 04:26:35  -326.645246c -4.21  -3.94
iter:  73 04:27:26  -326.645253c -4.24  -3.91
iter:  74 04:28:17  -326.645258c -4.31  -3.88
Writing to output.gpw (mode='')

iter:  75 04:29:10  -326.645264c -4.51  -3.86
iter:  76 04:30:01  -326.645270c -4.45  -3.86
iter:  77 04:30:52  -326.645270c -4.61  -3.83
iter:  78 04:31:43  -326.645272c -4.82  -3.81
iter:  79 04:32:34  -326.645286c -4.88  -3.75
Writing to output.gpw (mode='')

iter:  80 04:33:26  -326.645287c -4.96  -3.91
iter:  81 04:34:18  -326.645290c -4.81  -3.89
iter:  82 04:35:09  -326.645293c -5.04  -3.87
iter:  83 04:35:59  -326.645297c -4.98  -3.96
iter:  84 04:36:51  -326.645301c -4.77  -3.99
Writing to output.gpw (mode='')

iter:  85 04:37:44  -326.645307c -4.95  -4.08c
iter:  86 04:38:35  -326.645303c -5.32  -4.15c
iter:  87 04:39:26  -326.645303c -5.48  -4.27c
iter:  88 04:40:17  -326.645304c -5.42  -4.33c
iter:  89 04:41:08  -326.645308c -5.42  -4.40c
Writing to output.gpw (mode='')

iter:  90 04:42:00  -326.645306c -5.73  -4.60c
iter:  91 04:42:51  -326.645307c -5.67  -4.68c
iter:  92 04:43:42  -326.645306c -5.36  -4.75c
iter:  93 04:44:33  -326.645308c -5.82  -4.86c
iter:  94 04:45:24  -326.645308c -5.68  -4.93c
Writing to output.gpw (mode='')

iter:  95 04:46:17  -326.645307c -5.84  -4.99c
iter:  96 04:47:08  -326.645308c -5.96  -5.16c
iter:  97 04:47:59  -326.645308c -5.94  -5.27c
iter:  98 04:48:50  -326.645308c -6.11  -5.32c
iter:  99 04:49:41  -326.645308c -6.07  -5.42c
Writing to output.gpw (mode='')

iter: 100 04:50:34  -326.645308c -6.16  -5.55c
iter: 101 04:51:24  -326.645308c -6.18  -5.55c
iter: 102 04:52:15  -326.645308c -6.26  -5.50c
iter: 103 04:53:06  -326.645308c -6.16  -5.42c
iter: 104 04:53:57  -326.645308c -6.42  -5.39c
Writing to output.gpw (mode='')

iter: 105 04:54:49  -326.645308c -6.57  -5.35c
iter: 106 04:55:40  -326.645308c -6.38  -5.33c
iter: 107 04:56:31  -326.645308c -6.25  -5.30c
iter: 108 04:57:22  -326.645308c -6.46  -5.25c
iter: 109 04:58:13  -326.645308c -6.26  -5.25c
Writing to output.gpw (mode='')

iter: 110 04:59:05  -326.645308c -6.72  -5.24c
iter: 111 04:59:56  -326.645308c -6.72  -5.20c
iter: 112 05:00:47  -326.645308c -6.79  -5.19c
iter: 113 05:01:38  -326.645308c -6.66  -5.22c
iter: 114 05:02:29  -326.645308c -6.74  -5.19c
Writing to output.gpw (mode='')

iter: 115 05:03:22  -326.645308c -6.73  -5.19c
iter: 116 05:04:13  -326.645308c -6.75  -5.25c
iter: 117 05:05:04  -326.645308c -6.83  -5.38c
iter: 118 05:05:55  -326.645308c -7.02  -5.47c
iter: 119 05:06:45  -326.645308c -7.03  -5.61c
Writing to output.gpw (mode='')

iter: 120 05:07:38  -326.645308c -6.98  -5.71c
iter: 121 05:08:29  -326.645308c -6.97  -5.83c
iter: 122 05:09:20  -326.645308c -7.19  -5.89c
iter: 123 05:10:11  -326.645308c -7.29  -5.93c
iter: 124 05:11:02  -326.645308c -7.29  -6.08c
Writing to output.gpw (mode='')

iter: 125 05:11:55  -326.645308c -7.36  -6.11c
iter: 126 05:12:46  -326.645308c -7.24  -6.18c
iter: 127 05:13:37  -326.645308c -7.54c -6.28c

Converged after 127 iterations.

Dipole moment: (-8.191602, -15.131436, 0.040011) |e|*Ang

Energy contributions relative to reference atoms: (reference = -81178.542429)

Kinetic:       +138.416205
Potential:     -121.064559
External:        +0.000000
XC:            -344.133482
Entropy (-ST):   -0.155036
Local:           +0.214045
--------------------------
Free energy:   -326.722826
Extrapolated:  -326.645308

Dipole-layer corrected work functions: 3.398585, 3.321670 eV

Showing only first 2 kpts
 Kpt  Band  Eigenvalues  Occupancy
  0    25     -3.61065    1.98675
  0    26     -3.51567    1.91467
  0    27     -3.21643    0.10692
  0    28     -3.11172    0.01382

  1    25     -3.38684    1.26097
  1    26     -3.36057    1.00444
  1    27     -3.32680    0.67857
  1    28     -3.29206    0.40801


Fermi level: -3.36013

No gap
Writing to output.gpw (mode='')


Forces in eV/Ang:
  0 Li    0.01309    0.00231   -0.27168
  1 Li   -0.00540   -0.00325   -0.27031
  2 Li   -0.00716    0.01281   -0.27062
  3 Li   -0.00280   -0.00000   -0.27063
  4 Li    0.00482    0.00000   -0.28754
  5 Li   -0.00092   -0.00000   -0.27129
  6 Li    0.01310   -0.00231   -0.27168
  7 Li   -0.00541    0.00325   -0.27031
  8 Li   -0.00717   -0.01281   -0.27062
  9 Li   -0.00345   -0.00000    0.31587
 10 Li    0.01428   -0.00000    0.24239
 11 Li   -0.00984    0.00000    0.25985
 12 Li    0.00062    0.01303    0.25325
 13 Li   -0.00064   -0.00299    0.25706
 14 Li    0.00054    0.01044    0.25228
 15 Li    0.00062   -0.01302    0.25326
 16 Li   -0.00064    0.00299    0.25706
 17 Li    0.00054   -0.01044    0.25228
 18 Li   -0.00487   -0.00272    0.02374
 19 Li    0.00939   -0.00499    0.05589
 20 Li   -0.00523    0.00949   -0.02168
 21 Li    0.00136    0.00001    0.04835
 22 Li   -0.00891   -0.00000    0.01946
 23 Li    0.00520    0.00001    0.06343
 24 Li   -0.00486    0.00272    0.02372
 25 Li    0.00939    0.00499    0.05589
 26 Li   -0.00524   -0.00950   -0.02172
 27 Li   -0.00229    0.00006   -0.46758
 28 Li    0.00923    0.00000   -0.02960
 29 Li    0.04880   -0.00000    0.05936
 30 Li    0.01612    0.07890   -0.06463
 31 Li    0.00260   -0.00761   -0.02296
 32 Li   -0.02262    0.02885   -0.04069
 33 Li    0.01613   -0.07893   -0.06465
 34 Li    0.00261    0.00760   -0.02297
 35 Li   -0.02265   -0.02888   -0.04070
 36 Br    3.47654    0.00123   10.89455
 37 H    -0.20049   -0.00003   -0.11422
 38 N     3.62591    0.00042   -4.29698
 39 N    -6.98696   -0.00012   -5.90515

System changes: positions 

Initializing position-dependent things.

Density initialized from wave functions
       .-----------------------.  
      /|                       |  
     / |                       |  
    /  |                       |  
   /   |                       |  
  /    |                       |  
 *     |                       |  
 |     |                       |  
 |     |                       |  
 |     |                   H   |  
 |     |                       |  
 |     |                       |  
 |     N                    N  |  
 |     |                       |  
 |     |               Li      |  
 Br    |                       |  
 |   Li|     Li      Li        |  
 |     |  Li      Li      Li   |  
 | Li  |   Li      Li          |  
 |     |Li      Li      Li     |  
 |     | Li              Li    |  
 |   LLi     LLi     LLi       |  
 |     |  Li      Li      Li   |  
 | Li  |   Li      Li          |  
 |     |Li      Li      Li     |  
 Li    | Li      Li            |  
 |    Li      Li      Li       |  
 |     |                       |  
 |     |                       |  
 |     |                       |  
 |     |                       |  
 |     |                       |  
 |     |                       |  
 |     .-----------------------.  
 |    /                       /   
 |   /                       /    
 |  /                       /     
 | /                       /      
 |/                       /       
 *-----------------------*        

Positions:
   0 Li     1.617037    1.617037   10.000000    ( 0.0000,  0.0000,  0.0000)
   1 Li     4.851111    1.617037   10.000000    ( 0.0000,  0.0000,  0.0000)
   2 Li     8.085185    1.617037   10.000000    ( 0.0000,  0.0000,  0.0000)
   3 Li     1.617037    4.851111   10.000000    ( 0.0000,  0.0000,  0.0000)
   4 Li     4.851111    4.851111   10.000000    ( 0.0000,  0.0000,  0.0000)
   5 Li     8.085185    4.851111   10.000000    ( 0.0000,  0.0000,  0.0000)
   6 Li     1.617037    8.085185   10.000000    ( 0.0000,  0.0000,  0.0000)
   7 Li     4.851111    8.085185   10.000000    ( 0.0000,  0.0000,  0.0000)
   8 Li     8.085185    8.085185   10.000000    ( 0.0000,  0.0000,  0.0000)
   9 Li     0.000000    0.000000   11.617037    ( 0.0000,  0.0000,  0.0000)
  10 Li     3.234074    0.000000   11.617037    ( 0.0000,  0.0000,  0.0000)
  11 Li     6.468148    0.000000   11.617037    ( 0.0000,  0.0000,  0.0000)
  12 Li     0.000000    3.234074   11.617037    ( 0.0000,  0.0000,  0.0000)
  13 Li     3.234074    3.234074   11.617037    ( 0.0000,  0.0000,  0.0000)
  14 Li     6.468148    3.234074   11.617037    ( 0.0000,  0.0000,  0.0000)
  15 Li     0.000000    6.468148   11.617037    ( 0.0000,  0.0000,  0.0000)
  16 Li     3.234074    6.468148   11.617037    ( 0.0000,  0.0000,  0.0000)
  17 Li     6.468148    6.468148   11.617037    ( 0.0000,  0.0000,  0.0000)
  18 Li     1.617021    1.617029   13.469811    ( 0.0000,  0.0000,  0.0000)
  19 Li     4.851144    1.617021   13.469925    ( 0.0000,  0.0000,  0.0000)
  20 Li     8.085166    1.617071   13.469652    ( 0.0000,  0.0000,  0.0000)
  21 Li     1.617043    4.851111   13.469899    ( 0.0000,  0.0000,  0.0000)
  22 Li     4.851080    4.851111   13.469798    ( 0.0000,  0.0000,  0.0000)
  23 Li     8.085202    4.851111   13.469951    ( 0.0000,  0.0000,  0.0000)
  24 Li     1.617021    8.085193   13.469811    ( 0.0000,  0.0000,  0.0000)
  25 Li     4.851144    8.085201   13.469925    ( 0.0000,  0.0000,  0.0000)
  26 Li     8.085166    8.085151   13.469652    ( 0.0000,  0.0000,  0.0000)
  27 Li    -0.000008    0.000000   15.444304    ( 0.0000,  0.0000,  0.0000)
  28 Li     3.234106    0.000000   15.445835    ( 0.0000,  0.0000,  0.0000)
  29 Li     6.468319   -0.000000   15.446146    ( 0.0000,  0.0000,  0.0000)
  30 Li     0.000056    3.234350   15.445713    ( 0.0000,  0.0000,  0.0000)
  31 Li     3.234086    3.234050   15.445858    ( 0.0000,  0.0000,  0.0000)
  32 Li     6.468066    3.234177   15.445796    ( 0.0000,  0.0000,  0.0000)
  33 Li     0.000056    6.467872   15.445713    ( 0.0000,  0.0000,  0.0000)
  34 Li     3.234086    6.468172   15.445858    ( 0.0000,  0.0000,  0.0000)
  35 Li     6.468066    6.468045   15.445796    ( 0.0000,  0.0000,  0.0000)
  36 Br     9.714382    9.702226   19.484046    ( 0.0000,  0.0000,  0.0000)
  37 H      8.279664    9.702222   19.445540    ( 0.0000,  0.0000,  0.0000)
  38 N      9.714683    9.702001   17.430909    ( 0.0000,  0.0000,  0.0000)
  39 N      8.580939    9.702000   17.425284    ( 0.0000,  0.0000,  0.0000)

Unit cell:
           periodic     x           y           z      points  spacing
  1. axis:    yes    9.702222    0.000000    0.000000    60     0.1617
  2. axis:    yes    0.000000    9.702222    0.000000    60     0.1617
  3. axis:    no     0.000000    0.000000   26.851111   168     0.1598

  Lengths:   9.702222   9.702222  26.851111
  Angles:   90.000000  90.000000  90.000000

Effective grid spacing dv^(1/3) = 0.1611

     iter     time        total  log10-change:
                         energy  eigst   dens
iter:   1 05:14:51  -328.722131  +0.03
iter:   2 05:15:42  -328.682565  +0.33  -0.97
iter:   3 05:16:33  -327.355549  -0.31  -1.01
iter:   4 05:17:24  -327.354302  -0.75  -1.73
Writing to output.gpw (mode='')

iter:   5 05:18:16  -327.350558c -0.60  -1.82
iter:   6 05:19:08  -327.358447c -1.23  -2.15
iter:   7 05:19:58  -327.365214c -1.54  -2.07
iter:   8 05:20:49  -327.359521c -1.37  -2.12
iter:   9 05:21:40  -327.359338c -1.49  -2.38
Writing to output.gpw (mode='')

iter:  10 05:22:33  -327.360632c -1.88  -2.44
iter:  11 05:23:24  -327.360554c -2.62  -2.58
iter:  12 05:24:15  -327.360486c -2.69  -2.64
iter:  13 05:25:06  -327.360759c -2.87  -2.70
iter:  14 05:25:57  -327.360912c -2.84  -2.79
Writing to output.gpw (mode='')

iter:  15 05:26:49  -327.360841c -3.25  -2.70
iter:  16 05:27:40  -327.360831c -3.26  -2.97
iter:  17 05:28:31  -327.360824c -3.59  -3.05
iter:  18 05:29:22  -327.360942c -3.50  -3.16
iter:  19 05:30:13  -327.360941c -4.06  -3.36
Writing to output.gpw (mode='')

iter:  20 05:31:06  -327.360950c -3.79  -3.41
iter:  21 05:31:56  -327.360968c -4.19  -3.45
iter:  22 05:32:48  -327.360989c -4.06  -3.48
iter:  23 05:33:39  -327.360983c -4.37  -3.47
iter:  24 05:34:30  -327.360997c -4.53  -3.48
Writing to output.gpw (mode='')

iter:  25 05:35:22  -327.360973c -4.38  -3.54
iter:  26 05:36:13  -327.360997c -4.60  -3.68
iter:  27 05:37:04  -327.361002c -4.53  -3.75
iter:  28 05:37:55  -327.361010c -4.84  -3.84
iter:  29 05:38:46  -327.361009c -4.61  -3.90
Writing to output.gpw (mode='')

iter:  30 05:39:39  -327.361007c -5.12  -4.02c
iter:  31 05:40:30  -327.361007c -5.16  -4.15c
iter:  32 05:41:21  -327.361008c -5.15  -4.19c
iter:  33 05:42:12  -327.361011c -5.19  -4.21c
iter:  34 05:43:03  -327.361012c -5.54  -4.21c
Writing to output.gpw (mode='')

iter:  35 05:43:55  -327.361008c -5.51  -4.21c
iter:  36 05:44:46  -327.361009c -5.49  -4.17c
iter:  37 05:45:37  -327.361009c -5.84  -4.13c
iter:  38 05:46:28  -327.361009c -5.90  -4.16c
iter:  39 05:47:19  -327.361014c -5.43  -4.18c
Writing to output.gpw (mode='')

iter:  40 05:48:12  -327.361015c -5.89  -4.26c
iter:  41 05:49:03  -327.361013c -6.20  -4.26c
iter:  42 05:49:54  -327.361012c -5.99  -4.45c
iter:  43 05:50:45  -327.361014c -5.80  -4.57c
iter:  44 05:51:36  -327.361014c -6.39  -4.60c
Writing to output.gpw (mode='')

iter:  45 05:52:29  -327.361015c -6.39  -4.62c
iter:  46 05:53:20  -327.361016c -6.62  -4.67c
iter:  47 05:54:11  -327.361014c -6.65  -4.92c
iter:  48 05:55:01  -327.361015c -6.48  -5.02c
iter:  49 05:55:52  -327.361015c -6.80  -5.12c
Writing to output.gpw (mode='')

iter:  50 05:56:45  -327.361015c -6.77  -5.13c
iter:  51 05:57:36  -327.361014c -6.81  -5.15c
iter:  52 05:58:27  -327.361014c -6.93  -5.20c
iter:  53 05:59:18  -327.361015c -6.95  -5.27c
iter:  54 06:00:09  -327.361015c -7.20  -5.52c
Writing to output.gpw (mode='')

iter:  55 06:01:04  -327.361015c -7.17  -5.53c
iter:  56 06:01:55  -327.361015c -7.05  -5.59c
iter:  57 06:02:46  -327.361015c -7.16  -5.78c
iter:  58 06:03:37  -327.361015c -7.26  -5.81c
iter:  59 06:04:28  -327.361015c -7.23  -5.79c
Writing to output.gpw (mode='')

iter:  60 06:05:22  -327.361015c -7.39  -5.74c
iter:  61 06:06:13  -327.361015c -7.44c -5.69c

Converged after 61 iterations.

Dipole moment: (-10.388151, -15.151004, -0.004192) |e|*Ang

Energy contributions relative to reference atoms: (reference = -81178.542429)

Kinetic:       +128.964370
Potential:     -113.786490
External:        +0.000000
XC:            -342.685834
Entropy (-ST):   -0.156422
Local:           +0.225150
--------------------------
Free energy:   -327.439226
Extrapolated:  -327.361015

Dipole-layer corrected work functions: 3.401872, 3.409929 eV

Showing only first 2 kpts
 Kpt  Band  Eigenvalues  Occupancy
  0    25     -3.65559    1.98653
  0    26     -3.55668    1.90654
  0    27     -3.26985    0.12350
  0    28     -3.16001    0.01452

  1    25     -3.43316    1.26605
  1    26     -3.40743    1.01526
  1    27     -3.37482    0.69887
  1    28     -3.32861    0.35141


Fermi level: -3.40590

No gap
Writing to output.gpw (mode='')


Forces in eV/Ang:
  0 Li    0.01429    0.00234   -0.27257
  1 Li   -0.00567   -0.00351   -0.27033
  2 Li   -0.00790    0.01316   -0.27145
  3 Li   -0.00248   -0.00000   -0.27028
  4 Li    0.00515    0.00000   -0.28851
  5 Li   -0.00133   -0.00000   -0.27136
  6 Li    0.01429   -0.00234   -0.27257
  7 Li   -0.00567    0.00351   -0.27033
  8 Li   -0.00790   -0.01316   -0.27145
  9 Li   -0.00294   -0.00000    0.32030
 10 Li    0.01507   -0.00000    0.24201
 11 Li   -0.01105    0.00000    0.25965
 12 Li    0.00029    0.01222    0.25478
 13 Li   -0.00096   -0.00143    0.25617
 14 Li    0.00108    0.01085    0.25229
 15 Li    0.00030   -0.01222    0.25479
 16 Li   -0.00096    0.00143    0.25617
 17 Li    0.00108   -0.01085    0.25229
 18 Li   -0.00262   -0.00155    0.01624
 19 Li    0.00890   -0.00529    0.05586
 20 Li   -0.00726    0.00908   -0.02987
 21 Li   -0.00040    0.00001    0.05032
 22 Li   -0.00877   -0.00000    0.01968
 23 Li    0.00641    0.00001    0.06524
 24 Li   -0.00261    0.00155    0.01622
 25 Li    0.00890    0.00529    0.05586
 26 Li   -0.00727   -0.00908   -0.02991
 27 Li   -0.03266    0.00007   -0.43843
 28 Li    0.00381    0.00000   -0.02395
 29 Li    0.07299   -0.00001    0.08897
 30 Li    0.01617    0.07447   -0.05524
 31 Li    0.00445   -0.00590   -0.02386
 32 Li   -0.02519    0.03059   -0.03983
 33 Li    0.01618   -0.07449   -0.05525
 34 Li    0.00445    0.00590   -0.02386
 35 Li   -0.02521   -0.03061   -0.03984
 36 Br    2.68325    0.00104    9.15919
 37 H     0.08861   -0.00003   -0.13585
 38 N    -0.59188   -0.00112   -3.54917
 39 N    -2.13614   -0.00106   -4.99837

System changes: positions 

Initializing position-dependent things.

Density initialized from wave functions
       .-----------------------.  
      /|                       |  
     / |                       |  
    /  |                       |  
   /   |                       |  
  /    |                       |  
 *     |                       |  
 |     |                       |  
 |     |                       |  
 |     |                   H   |  
 |     |                       |  
 |     |                       |  
 |     N                    N  |  
 |     |                       |  
 |     |               Li      |  
 Br    |                       |  
 |   Li|     Li      Li        |  
 |     |  Li      Li      Li   |  
 | Li  |   Li      Li          |  
 |     |Li      Li      Li     |  
 |     | Li              Li    |  
 |   LLi     LLi     LLi       |  
 |     |  Li      Li      Li   |  
 | Li  |   Li      Li          |  
 |     |Li      Li      Li     |  
 Li    | Li      Li            |  
 |    Li      Li      Li       |  
 |     |                       |  
 |     |                       |  
 |     |                       |  
 |     |                       |  
 |     |                       |  
 |     |                       |  
 |     .-----------------------.  
 |    /                       /   
 |   /                       /    
 |  /                       /     
 | /                       /      
 |/                       /       
 *-----------------------*        

Positions:
   0 Li     1.617037    1.617037   10.000000    ( 0.0000,  0.0000,  0.0000)
   1 Li     4.851111    1.617037   10.000000    ( 0.0000,  0.0000,  0.0000)
   2 Li     8.085185    1.617037   10.000000    ( 0.0000,  0.0000,  0.0000)
   3 Li     1.617037    4.851111   10.000000    ( 0.0000,  0.0000,  0.0000)
   4 Li     4.851111    4.851111   10.000000    ( 0.0000,  0.0000,  0.0000)
   5 Li     8.085185    4.851111   10.000000    ( 0.0000,  0.0000,  0.0000)
   6 Li     1.617037    8.085185   10.000000    ( 0.0000,  0.0000,  0.0000)
   7 Li     4.851111    8.085185   10.000000    ( 0.0000,  0.0000,  0.0000)
   8 Li     8.085185    8.085185   10.000000    ( 0.0000,  0.0000,  0.0000)
   9 Li     0.000000    0.000000   11.617037    ( 0.0000,  0.0000,  0.0000)
  10 Li     3.234074    0.000000   11.617037    ( 0.0000,  0.0000,  0.0000)
  11 Li     6.468148    0.000000   11.617037    ( 0.0000,  0.0000,  0.0000)
  12 Li     0.000000    3.234074   11.617037    ( 0.0000,  0.0000,  0.0000)
  13 Li     3.234074    3.234074   11.617037    ( 0.0000,  0.0000,  0.0000)
  14 Li     6.468148    3.234074   11.617037    ( 0.0000,  0.0000,  0.0000)
  15 Li     0.000000    6.468148   11.617037    ( 0.0000,  0.0000,  0.0000)
  16 Li     3.234074    6.468148   11.617037    ( 0.0000,  0.0000,  0.0000)
  17 Li     6.468148    6.468148   11.617037    ( 0.0000,  0.0000,  0.0000)
  18 Li     1.617013    1.617023   13.469873    ( 0.0000,  0.0000,  0.0000)
  19 Li     4.851183    1.616997   13.470176    ( 0.0000,  0.0000,  0.0000)
  20 Li     8.085130    1.617111   13.469506    ( 0.0000,  0.0000,  0.0000)
  21 Li     1.617039    4.851111   13.470127    ( 0.0000,  0.0000,  0.0000)
  22 Li     4.851041    4.851111   13.469887    ( 0.0000,  0.0000,  0.0000)
  23 Li     8.085232    4.851111   13.470247    ( 0.0000,  0.0000,  0.0000)
  24 Li     1.617013    8.085199   13.469872    ( 0.0000,  0.0000,  0.0000)
  25 Li     4.851183    8.085225   13.470176    ( 0.0000,  0.0000,  0.0000)
  26 Li     8.085130    8.085111   13.469505    ( 0.0000,  0.0000,  0.0000)
  27 Li    -0.000200    0.000001   15.442380    ( 0.0000,  0.0000,  0.0000)
  28 Li     3.234115    0.000000   15.445736    ( 0.0000,  0.0000,  0.0000)
  29 Li     6.468683   -0.000000   15.446590    ( 0.0000,  0.0000,  0.0000)
  30 Li     0.000129    3.234677   15.445479    ( 0.0000,  0.0000,  0.0000)
  31 Li     3.234108    3.234026   15.445749    ( 0.0000,  0.0000,  0.0000)
  32 Li     6.467950    3.234317   15.445618    ( 0.0000,  0.0000,  0.0000)
  33 Li     0.000129    6.467545   15.445479    ( 0.0000,  0.0000,  0.0000)
  34 Li     3.234108    6.468196   15.445749    ( 0.0000,  0.0000,  0.0000)
  35 Li     6.467949    6.467905   15.445618    ( 0.0000,  0.0000,  0.0000)
  36 Br     9.725235    9.702231   19.522546    ( 0.0000,  0.0000,  0.0000)
  37 H      8.280494    9.702222   19.444898    ( 0.0000,  0.0000,  0.0000)
  38 N      9.705719    9.701994   17.416104    ( 0.0000,  0.0000,  0.0000)
  39 N      8.578610    9.701993   17.404214    ( 0.0000,  0.0000,  0.0000)

Unit cell:
           periodic     x           y           z      points  spacing
  1. axis:    yes    9.702222    0.000000    0.000000    60     0.1617
  2. axis:    yes    0.000000    9.702222    0.000000    60     0.1617
  3. axis:    no     0.000000    0.000000   26.851111   168     0.1598

  Lengths:   9.702222   9.702222  26.851111
  Angles:   90.000000  90.000000  90.000000

Effective grid spacing dv^(1/3) = 0.1611

     iter     time        total  log10-change:
                         energy  eigst   dens
iter:   1 06:07:27  -327.945691  -1.19
iter:   2 06:08:18  -327.902756  -1.09  -1.67
iter:   3 06:09:09  -327.885899  -2.20  -1.81
iter:   4 06:10:00  -327.880000c -1.43  -2.24
Writing to output.gpw (mode='')

iter:   5 06:10:54  -327.875493c -2.42  -2.05
iter:   6 06:11:44  -327.877180c -1.92  -2.21
iter:   7 06:12:35  -327.873369c -2.25  -2.32
iter:   8 06:13:26  -327.873048c -2.96  -2.56
iter:   9 06:14:17  -327.872580c -3.39  -2.64
Writing to output.gpw (mode='')

iter:  10 06:15:10  -327.872164c -2.74  -2.71
iter:  11 06:16:01  -327.872060c -3.33  -2.90
iter:  12 06:16:52  -327.872059c -3.86  -3.14
iter:  13 06:17:43  -327.872203c -3.56  -3.17
iter:  14 06:18:34  -327.872098c -4.04  -3.23
Writing to output.gpw (mode='')

iter:  15 06:19:27  -327.872025c -3.90  -3.40
iter:  16 06:20:18  -327.872026c -4.52  -3.50
iter:  17 06:21:09  -327.872031c -4.27  -3.56
iter:  18 06:22:00  -327.872007c -4.51  -3.59
iter:  19 06:22:51  -327.872031c -4.90  -3.73
Writing to output.gpw (mode='')

iter:  20 06:23:43  -327.872045c -4.96  -3.83
iter:  21 06:24:34  -327.872044c -4.98  -3.92
iter:  22 06:25:25  -327.872040c -5.20  -4.06c
iter:  23 06:26:16  -327.872039c -5.34  -4.11c
iter:  24 06:27:07  -327.872043c -5.27  -4.28c
Writing to output.gpw (mode='')

iter:  25 06:27:59  -327.872042c -5.63  -4.30c
iter:  26 06:28:50  -327.872046c -5.60  -4.50c
iter:  27 06:29:41  -327.872044c -5.68  -4.56c
iter:  28 06:30:32  -327.872042c -5.81  -4.66c
iter:  29 06:31:23  -327.872043c -6.03  -4.78c
Writing to output.gpw (mode='')

iter:  30 06:32:16  -327.872044c -6.25  -4.80c
iter:  31 06:33:07  -327.872043c -6.41  -4.89c
iter:  32 06:33:58  -327.872044c -6.50  -4.94c
iter:  33 06:34:49  -327.872044c -6.47  -4.97c
iter:  34 06:35:40  -327.872044c -6.57  -5.12c
Writing to output.gpw (mode='')

iter:  35 06:36:32  -327.872045c -6.67  -5.19c
iter:  36 06:37:23  -327.872045c -6.61  -5.21c
iter:  37 06:38:14  -327.872045c -6.72  -5.22c
iter:  38 06:39:05  -327.872045c -6.96  -5.25c
iter:  39 06:39:56  -327.872045c -6.92  -5.35c
Writing to output.gpw (mode='')

iter:  40 06:40:50  -327.872045c -7.13  -5.40c
iter:  41 06:41:41  -327.872045c -7.16  -5.56c
iter:  42 06:42:32  -327.872045c -7.13  -5.68c
iter:  43 06:43:23  -327.872045c -7.38  -5.74c
iter:  44 06:44:14  -327.872046c -7.60c -5.96c

Converged after 44 iterations.

Dipole moment: (-10.271804, -15.143419, -0.025106) |e|*Ang

Energy contributions relative to reference atoms: (reference = -81178.542429)

Kinetic:       +126.913721
Potential:     -112.470008
External:        +0.000000
XC:            -342.472440
Entropy (-ST):   -0.155110
Local:           +0.234236
--------------------------
Free energy:   -327.949600
Extrapolated:  -327.872046

Dipole-layer corrected work functions: 3.403085, 3.451347 eV

Showing only first 2 kpts
 Kpt  Band  Eigenvalues  Occupancy
  0    25     -3.67702    1.98656
  0    26     -3.57795    1.90647
  0    27     -3.29033    0.12156
  0    28     -3.18159    0.01460

  1    25     -3.45675    1.28708
  1    26     -3.42650    0.99282
  1    27     -3.39595    0.69711
  1    28     -3.34761    0.33820


Fermi level: -3.42722

No gap
Writing to output.gpw (mode='')


Forces in eV/Ang:
  0 Li    0.01442    0.00235   -0.27271
  1 Li   -0.00563   -0.00351   -0.27046
  2 Li   -0.00805    0.01282   -0.27103
  3 Li   -0.00227   -0.00000   -0.27060
  4 Li    0.00499    0.00000   -0.28864
  5 Li   -0.00151   -0.00000   -0.27161
  6 Li    0.01442   -0.00235   -0.27271
  7 Li   -0.00564    0.00351   -0.27046
  8 Li   -0.00805   -0.01282   -0.27103
  9 Li   -0.00244   -0.00000    0.31978
 10 Li    0.01516   -0.00000    0.24227
 11 Li   -0.01190    0.00000    0.25878
 12 Li   -0.00009    0.01212    0.25541
 13 Li   -0.00089   -0.00050    0.25587
 14 Li    0.00129    0.01060    0.25219
 15 Li   -0.00009   -0.01212    0.25542
 16 Li   -0.00089    0.00050    0.25587
 17 Li    0.00129   -0.01059    0.25219
 18 Li   -0.00192   -0.00084    0.01403
 19 Li    0.00836   -0.00478    0.05520
 20 Li   -0.00760    0.00715   -0.02776
 21 Li   -0.00031    0.00001    0.04998
 22 Li   -0.00826   -0.00000    0.02038
 23 Li    0.00616    0.00001    0.06414
 24 Li   -0.00191    0.00084    0.01401
 25 Li    0.00836    0.00478    0.05520
 26 Li   -0.00760   -0.00715   -0.02780
 27 Li   -0.01801    0.00007   -0.50637
 28 Li    0.00479    0.00000   -0.02251
 29 Li    0.06801   -0.00001    0.08269
 30 Li    0.01607    0.07594   -0.05599
 31 Li    0.00514   -0.00564   -0.02383
 32 Li   -0.02507    0.03029   -0.04067
 33 Li    0.01608   -0.07596   -0.05600
 34 Li    0.00515    0.00563   -0.02384
 35 Li   -0.02509   -0.03031   -0.04068
 36 Br    2.03432    0.00093    7.96039
 37 H     0.30705   -0.00003   -0.10207
 38 N    -0.05914   -0.00210   -3.08926
 39 N    -2.29199   -0.00046   -4.25137

System changes: positions 

Initializing position-dependent things.

Density initialized from wave functions
       .-----------------------.  
      /|                       |  
     / |                       |  
    /  |                       |  
   /   |                       |  
  /    |                       |  
 *     |                       |  
 |     |                       |  
 |     |                       |  
 |     |                   H   |  
 |     |                       |  
 |     |                       |  
 |     |                    N  N  
 |     |                       |  
 |     |               Li      |  
 Br    |                       |  
 |   Li|     Li      Li        |  
 |     |  Li      Li      Li   |  
 | Li  |   Li      Li          |  
 |     |Li      Li      Li     |  
 |     | Li              Li    |  
 |   LLi     LLi     LLi       |  
 |     |  Li      Li      Li   |  
 | Li  |   Li      Li          |  
 |     |Li      Li      Li     |  
 Li    | Li      Li            |  
 |    Li      Li      Li       |  
 |     |                       |  
 |     |                       |  
 |     |                       |  
 |     |                       |  
 |     |                       |  
 |     |                       |  
 |     .-----------------------.  
 |    /                       /   
 |   /                       /    
 |  /                       /     
 | /                       /      
 |/                       /       
 *-----------------------*        

Positions:
   0 Li     1.617037    1.617037   10.000000    ( 0.0000,  0.0000,  0.0000)
   1 Li     4.851111    1.617037   10.000000    ( 0.0000,  0.0000,  0.0000)
   2 Li     8.085185    1.617037   10.000000    ( 0.0000,  0.0000,  0.0000)
   3 Li     1.617037    4.851111   10.000000    ( 0.0000,  0.0000,  0.0000)
   4 Li     4.851111    4.851111   10.000000    ( 0.0000,  0.0000,  0.0000)
   5 Li     8.085185    4.851111   10.000000    ( 0.0000,  0.0000,  0.0000)
   6 Li     1.617037    8.085185   10.000000    ( 0.0000,  0.0000,  0.0000)
   7 Li     4.851111    8.085185   10.000000    ( 0.0000,  0.0000,  0.0000)
   8 Li     8.085185    8.085185   10.000000    ( 0.0000,  0.0000,  0.0000)
   9 Li     0.000000    0.000000   11.617037    ( 0.0000,  0.0000,  0.0000)
  10 Li     3.234074    0.000000   11.617037    ( 0.0000,  0.0000,  0.0000)
  11 Li     6.468148    0.000000   11.617037    ( 0.0000,  0.0000,  0.0000)
  12 Li     0.000000    3.234074   11.617037    ( 0.0000,  0.0000,  0.0000)
  13 Li     3.234074    3.234074   11.617037    ( 0.0000,  0.0000,  0.0000)
  14 Li     6.468148    3.234074   11.617037    ( 0.0000,  0.0000,  0.0000)
  15 Li     0.000000    6.468148   11.617037    ( 0.0000,  0.0000,  0.0000)
  16 Li     3.234074    6.468148   11.617037    ( 0.0000,  0.0000,  0.0000)
  17 Li     6.468148    6.468148   11.617037    ( 0.0000,  0.0000,  0.0000)
  18 Li     1.617011    1.617027   13.469930    ( 0.0000,  0.0000,  0.0000)
  19 Li     4.851234    1.616968   13.470547    ( 0.0000,  0.0000,  0.0000)
  20 Li     8.085070    1.617142   13.469314    ( 0.0000,  0.0000,  0.0000)
  21 Li     1.617033    4.851111   13.470471    ( 0.0000,  0.0000,  0.0000)
  22 Li     4.850989    4.851111   13.470033    ( 0.0000,  0.0000,  0.0000)
  23 Li     8.085275    4.851111   13.470680    ( 0.0000,  0.0000,  0.0000)
  24 Li     1.617011    8.085195   13.469930    ( 0.0000,  0.0000,  0.0000)
  25 Li     4.851234    8.085254   13.470547    ( 0.0000,  0.0000,  0.0000)
  26 Li     8.085070    8.085080   13.469314    ( 0.0000,  0.0000,  0.0000)
  27 Li    -0.000270    0.000001   15.438396    ( 0.0000,  0.0000,  0.0000)
  28 Li     3.234143    0.000000   15.445609    ( 0.0000,  0.0000,  0.0000)
  29 Li     6.469164   -0.000000   15.447173    ( 0.0000,  0.0000,  0.0000)
  30 Li     0.000238    3.235198   15.445113    ( 0.0000,  0.0000,  0.0000)
  31 Li     3.234154    3.233994   15.445585    ( 0.0000,  0.0000,  0.0000)
  32 Li     6.467773    3.234526   15.445335    ( 0.0000,  0.0000,  0.0000)
  33 Li     0.000238    6.467024   15.445113    ( 0.0000,  0.0000,  0.0000)
  34 Li     3.234154    6.468228   15.445584    ( 0.0000,  0.0000,  0.0000)
  35 Li     6.467773    6.467696   15.445335    ( 0.0000,  0.0000,  0.0000)
  36 Br     9.731448    9.702236   19.562060    ( 0.0000,  0.0000,  0.0000)
  37 H      8.285233    9.702222   19.444444    ( 0.0000,  0.0000,  0.0000)
  38 N      9.699509    9.701967   17.400907    ( 0.0000,  0.0000,  0.0000)
  39 N      8.573649    9.701993   17.384001    ( 0.0000,  0.0000,  0.0000)

Unit cell:
           periodic     x           y           z      points  spacing
  1. axis:    yes    9.702222    0.000000    0.000000    60     0.1617
  2. axis:    yes    0.000000    9.702222    0.000000    60     0.1617
  3. axis:    no     0.000000    0.000000   26.851111   168     0.1598

  Lengths:   9.702222   9.702222  26.851111
  Angles:   90.000000  90.000000  90.000000

Effective grid spacing dv^(1/3) = 0.1611

     iter     time        total  log10-change:
                         energy  eigst   dens
iter:   1 06:45:28  -328.345885  -1.28
iter:   2 06:46:18  -328.327334  -1.43  -1.81
iter:   3 06:47:09  -328.318626  -2.52  -1.95
iter:   4 06:48:00  -328.315770c -1.85  -2.41
Writing to output.gpw (mode='')

iter:   5 06:48:52  -328.314438c -2.82  -2.26
iter:   6 06:49:43  -328.315579c -2.32  -2.46
iter:   7 06:50:34  -328.313981c -2.66  -2.49
iter:   8 06:51:25  -328.313616c -3.29  -2.87
iter:   9 06:52:16  -328.313698c -3.19  -3.10
Writing to output.gpw (mode='')

iter:  10 06:53:09  -328.313669c -3.95  -3.24
iter:  11 06:54:00  -328.313776c -4.01  -3.23
iter:  12 06:54:50  -328.313741c -3.90  -3.31
iter:  13 06:55:41  -328.313703c -4.31  -3.46
iter:  14 06:56:32  -328.313647c -4.23  -3.52
Writing to output.gpw (mode='')

iter:  15 06:57:27  -328.313672c -4.73  -3.64
iter:  16 06:58:18  -328.313685c -4.91  -3.78
iter:  17 06:59:09  -328.313682c -5.01  -3.82
iter:  18 07:00:00  -328.313692c -5.20  -3.85
iter:  19 07:00:51  -328.313684c -5.33  -3.88
Writing to output.gpw (mode='')

iter:  20 07:01:43  -328.313687c -5.61  -4.18c
iter:  21 07:02:34  -328.313690c -5.70  -4.26c
iter:  22 07:03:25  -328.313691c -5.66  -4.32c
iter:  23 07:04:16  -328.313689c -5.79  -4.38c
iter:  24 07:05:07  -328.313689c -5.97  -4.51c
Writing to output.gpw (mode='')

iter:  25 07:06:00  -328.313691c -6.09  -4.56c
iter:  26 07:06:51  -328.313690c -6.29  -4.56c
iter:  27 07:07:42  -328.313690c -6.16  -4.61c
iter:  28 07:08:33  -328.313691c -6.64  -4.71c
iter:  29 07:09:24  -328.313691c -6.53  -4.90c
Writing to output.gpw (mode='')

iter:  30 07:10:16  -328.313691c -6.57  -5.03c
iter:  31 07:11:07  -328.313692c -6.57  -5.29c
iter:  32 07:11:58  -328.313691c -6.86  -5.39c
iter:  33 07:12:48  -328.313691c -6.86  -5.43c
iter:  34 07:13:39  -328.313691c -7.01  -5.42c
Writing to output.gpw (mode='')

iter:  35 07:14:32  -328.313691c -7.30  -5.45c
iter:  36 07:15:23  -328.313691c -7.39  -5.65c
iter:  37 07:16:14  -328.313691c -7.27  -5.74c
iter:  38 07:17:05  -328.313692c -7.48c -5.74c

Converged after 38 iterations.

Dipole moment: (-10.086157, -15.137761, -0.047441) |e|*Ang

Energy contributions relative to reference atoms: (reference = -81178.542429)

Kinetic:       +124.687729
Potential:     -110.952736
External:        +0.000000
XC:            -342.213414
Entropy (-ST):   -0.154231
Local:           +0.241845
--------------------------
Free energy:   -328.390807
Extrapolated:  -328.313692

Dipole-layer corrected work functions: 3.404396, 3.495595 eV

Showing only first 2 kpts
 Kpt  Band  Eigenvalues  Occupancy
  0    25     -3.69979    1.98656
  0    26     -3.60012    1.90538
  0    27     -3.31324    0.12186
  0    28     -3.20479    0.01472

  1    25     -3.48122    1.30249
  1    26     -3.44796    0.97969
  1    27     -3.41863    0.69626
  1    28     -3.36732    0.32129


Fermi level: -3.45000

No gap
Writing to output.gpw (mode='')


Forces in eV/Ang:
  0 Li    0.01465    0.00236   -0.27297
  1 Li   -0.00566   -0.00358   -0.27051
  2 Li   -0.00822    0.01260   -0.27094
  3 Li   -0.00212   -0.00000   -0.27080
  4 Li    0.00490    0.00000   -0.28890
  5 Li   -0.00162   -0.00001   -0.27178
  6 Li    0.01466   -0.00236   -0.27297
  7 Li   -0.00566    0.00358   -0.27051
  8 Li   -0.00822   -0.01260   -0.27094
  9 Li   -0.00198   -0.00000    0.32014
 10 Li    0.01533   -0.00000    0.24249
 11 Li   -0.01271    0.00000    0.25816
 12 Li   -0.00039    0.01202    0.25615
 13 Li   -0.00079    0.00037    0.25555
 14 Li    0.00138    0.01052    0.25225
 15 Li   -0.00039   -0.01201    0.25616
 16 Li   -0.00078   -0.00037    0.25555
 17 Li    0.00138   -0.01052    0.25225
 18 Li   -0.00078    0.00009    0.01103
 19 Li    0.00788   -0.00454    0.05453
 20 Li   -0.00836    0.00594   -0.02762
 21 Li   -0.00037    0.00001    0.04959
 22 Li   -0.00787   -0.00000    0.02066
 23 Li    0.00600    0.00001    0.06308
 24 Li   -0.00076   -0.00009    0.01101
 25 Li    0.00788    0.00455    0.05453
 26 Li   -0.00837   -0.00595   -0.02766
 27 Li   -0.00992    0.00009   -0.55783
 28 Li    0.00446    0.00000   -0.02061
 29 Li    0.06760   -0.00000    0.08199
 30 Li    0.01602    0.07602   -0.05504
 31 Li    0.00578   -0.00522   -0.02380
 32 Li   -0.02522    0.03023   -0.04089
 33 Li    0.01603   -0.07604   -0.05505
 34 Li    0.00579    0.00521   -0.02381
 35 Li   -0.02525   -0.03025   -0.04090
 36 Br    1.57920    0.00084    6.84307
 37 H     0.37018   -0.00003   -0.06841
 38 N     0.01237    0.00016   -2.65057
 39 N    -2.04998    0.00201   -3.56575

System changes: positions 

Initializing position-dependent things.

Density initialized from wave functions
       .-----------------------.  
      /|                       |  
     / |                       |  
    /  |                       |  
   /   |                       |  
  /    |                       |  
 *     |                       |  
 |     |                       |  
 |     |                       |  
 |     |                    H  |  
 |     |                       |  
 |     |                       |  
 |     |                    N  N  
 |     |                       |  
 |     |               Li      |  
 Br    |                       |  
 |   Li|     Li      Li        |  
 |     |  Li      Li      Li   |  
 | Li  |   Li      Li          |  
 |     |Li      Li      Li     |  
 |     | Li              Li    |  
 |   LLi     LLi     LLi       |  
 |     |  Li      Li      Li   |  
 | Li  |   Li      Li          |  
 |     |Li      Li      Li     |  
 Li    | Li      Li            |  
 |    Li      Li      Li       |  
 |     |                       |  
 |     |                       |  
 |     |                       |  
 |     |                       |  
 |     |                       |  
 |     |                       |  
 |     .-----------------------.  
 |    /                       /   
 |   /                       /    
 |  /                       /     
 | /                       /      
 |/                       /       
 *-----------------------*        

Positions:
   0 Li     1.617037    1.617037   10.000000    ( 0.0000,  0.0000,  0.0000)
   1 Li     4.851111    1.617037   10.000000    ( 0.0000,  0.0000,  0.0000)
   2 Li     8.085185    1.617037   10.000000    ( 0.0000,  0.0000,  0.0000)
   3 Li     1.617037    4.851111   10.000000    ( 0.0000,  0.0000,  0.0000)
   4 Li     4.851111    4.851111   10.000000    ( 0.0000,  0.0000,  0.0000)
   5 Li     8.085185    4.851111   10.000000    ( 0.0000,  0.0000,  0.0000)
   6 Li     1.617037    8.085185   10.000000    ( 0.0000,  0.0000,  0.0000)
   7 Li     4.851111    8.085185   10.000000    ( 0.0000,  0.0000,  0.0000)
   8 Li     8.085185    8.085185   10.000000    ( 0.0000,  0.0000,  0.0000)
   9 Li     0.000000    0.000000   11.617037    ( 0.0000,  0.0000,  0.0000)
  10 Li     3.234074    0.000000   11.617037    ( 0.0000,  0.0000,  0.0000)
  11 Li     6.468148    0.000000   11.617037    ( 0.0000,  0.0000,  0.0000)
  12 Li     0.000000    3.234074   11.617037    ( 0.0000,  0.0000,  0.0000)
  13 Li     3.234074    3.234074   11.617037    ( 0.0000,  0.0000,  0.0000)
  14 Li     6.468148    3.234074   11.617037    ( 0.0000,  0.0000,  0.0000)
  15 Li     0.000000    6.468148   11.617037    ( 0.0000,  0.0000,  0.0000)
  16 Li     3.234074    6.468148   11.617037    ( 0.0000,  0.0000,  0.0000)
  17 Li     6.468148    6.468148   11.617037    ( 0.0000,  0.0000,  0.0000)
  18 Li     1.617024    1.617043   13.469971    ( 0.0000,  0.0000,  0.0000)
  19 Li     4.851297    1.616932   13.471033    ( 0.0000,  0.0000,  0.0000)
  20 Li     8.084980    1.617171   13.469060    ( 0.0000,  0.0000,  0.0000)
  21 Li     1.617026    4.851111   13.470922    ( 0.0000,  0.0000,  0.0000)
  22 Li     4.850925    4.851111   13.470229    ( 0.0000,  0.0000,  0.0000)
  23 Li     8.085330    4.851111   13.471242    ( 0.0000,  0.0000,  0.0000)
  24 Li     1.617024    8.085179   13.469971    ( 0.0000,  0.0000,  0.0000)
  25 Li     4.851297    8.085290   13.471033    ( 0.0000,  0.0000,  0.0000)
  26 Li     8.084980    8.085051   13.469059    ( 0.0000,  0.0000,  0.0000)
  27 Li    -0.000259    0.000002   15.432456    ( 0.0000,  0.0000,  0.0000)
  28 Li     3.234175    0.000000   15.445462    ( 0.0000,  0.0000,  0.0000)
  29 Li     6.469798   -0.000000   15.447940    ( 0.0000,  0.0000,  0.0000)
  30 Li     0.000383    3.235892   15.444637    ( 0.0000,  0.0000,  0.0000)
  31 Li     3.234222    3.233956   15.445366    ( 0.0000,  0.0000,  0.0000)
  32 Li     6.467536    3.234803   15.444956    ( 0.0000,  0.0000,  0.0000)
  33 Li     0.000383    6.466330   15.444637    ( 0.0000,  0.0000,  0.0000)
  34 Li     3.234222    6.468266   15.445366    ( 0.0000,  0.0000,  0.0000)
  35 Li     6.467536    6.467419   15.444956    ( 0.0000,  0.0000,  0.0000)
  36 Br     9.735106    9.702241   19.601893    ( 0.0000,  0.0000,  0.0000)
  37 H      8.291627    9.702221   19.444287    ( 0.0000,  0.0000,  0.0000)
  38 N      9.693617    9.701973   17.385680    ( 0.0000,  0.0000,  0.0000)
  39 N      8.568011    9.702032   17.365012    ( 0.0000,  0.0000,  0.0000)

Unit cell:
           periodic     x           y           z      points  spacing
  1. axis:    yes    9.702222    0.000000    0.000000    60     0.1617
  2. axis:    yes    0.000000    9.702222    0.000000    60     0.1617
  3. axis:    no     0.000000    0.000000   26.851111   168     0.1598

  Lengths:   9.702222   9.702222  26.851111
  Angles:   90.000000  90.000000  90.000000

Effective grid spacing dv^(1/3) = 0.1611

     iter     time        total  log10-change:
                         energy  eigst   dens
iter:   1 07:18:19  -328.712923  -1.31
iter:   2 07:19:10  -328.698094  -1.54  -1.85
iter:   3 07:20:01  -328.690890c -2.62  -2.00
iter:   4 07:20:52  -328.689018c -2.03  -2.48
Writing to output.gpw (mode='')

iter:   5 07:21:46  -328.688335c -2.91  -2.35
iter:   6 07:22:37  -328.689347c -2.48  -2.53
iter:   7 07:23:28  -328.687960c -2.86  -2.54
iter:   8 07:24:19  -328.687798c -3.42  -3.02
iter:   9 07:25:10  -328.687873c -3.39  -3.22
Writing to output.gpw (mode='')

iter:  10 07:26:02  -328.687848c -3.96  -3.33
iter:  11 07:26:53  -328.687931c -4.03  -3.35
iter:  12 07:27:44  -328.687892c -3.98  -3.38
iter:  13 07:28:35  -328.687865c -4.53  -3.52
iter:  14 07:29:26  -328.687839c -4.43  -3.59
Writing to output.gpw (mode='')

iter:  15 07:30:19  -328.687858c -4.72  -3.75
iter:  16 07:31:10  -328.687868c -5.02  -3.82
iter:  17 07:32:01  -328.687865c -5.12  -3.91
iter:  18 07:32:52  -328.687865c -5.16  -3.96
iter:  19 07:33:43  -328.687863c -5.38  -4.05c
Writing to output.gpw (mode='')

iter:  20 07:34:40  -328.687866c -5.69  -4.14c
iter:  21 07:35:31  -328.687869c -5.83  -4.21c
iter:  22 07:36:22  -328.687866c -5.83  -4.34c
iter:  23 07:37:13  -328.687869c -5.87  -4.47c
iter:  24 07:38:04  -328.687869c -6.32  -4.57c
Writing to output.gpw (mode='')

iter:  25 07:38:57  -328.687869c -6.13  -4.64c
iter:  26 07:39:48  -328.687868c -6.47  -4.74c
iter:  27 07:40:39  -328.687869c -6.48  -4.86c
iter:  28 07:41:29  -328.687869c -6.46  -4.99c
iter:  29 07:42:21  -328.687869c -6.47  -5.02c
Writing to output.gpw (mode='')

iter:  30 07:44:50  -328.687869c -6.72  -4.99c
iter:  31 07:47:25  -328.687869c -6.82  -4.97c
iter:  32 07:50:00  -328.687869c -6.97  -4.93c
iter:  33 07:52:29  -328.687869c -7.07  -4.90c
iter:  34 07:55:05  -328.687869c -7.03  -4.90c
Writing to output.gpw (mode='')

iter:  35 07:57:37  -328.687869c -7.19  -4.85c
