
  ___ ___ ___ _ _ _  
 |   |   |_  | | | | 
 | | | | | . | | | | 
 |__ |  _|___|_____|  22.8.0
 |___|_|             

User:   vazumah@c09.hercules
Date:   Tue Mar  7 10:38:54 2023
Arch:   x86_64
Pid:    32593
CWD:    /home/vazumah/Python_projects/LiNRR/Li_adsorb_studies/proton_donors/N2_with_proton_donor/Li_BCC_100/adsorbates/HBr/ontop/9.702_9.702/N2_x
Python: 3.10.8
gpaw:   /home/vazumah/.conda/envs/GPAW/lib/python3.10/site-packages/gpaw
_gpaw:  /home/vazumah/.conda/envs/GPAW/lib/python3.10/site-packages/
        _gpaw.cpython-310-x86_64-linux-gnu.so
ase:    /home/vazumah/.conda/envs/GPAW/lib/python3.10/site-packages/ase (version 3.22.1)
numpy:  /home/vazumah/.conda/envs/GPAW/lib/python3.10/site-packages/numpy (version 1.24.1)
scipy:  /home/vazumah/.conda/envs/GPAW/lib/python3.10/site-packages/scipy (version 1.10.0)
libxc:  5.2.3
units:  Angstrom and eV
cores: 24
OpenMP: True
OMP_NUM_THREADS: 1

Reading from output.gpw
Read dipole, energy, free_energy, magmom, magmoms
Reading input parameters:
  h: 0.16
  kpts: {size: [4, 4, 1]}
  occupations: {name: fermi-dirac,
                width: 0.05}
  poissonsolver: {dipolelayer: xy}
  xc: BEEF-vdW

Initialize ...

species:
  Li:
    name: Lithium
    id: 830b4218f175192f93f959cfc0aad614
    Z: 3.0
    valence: 1
    core: 2
    charge: 0.0
    file: /home/vazumah/.conda/envs/GPAW/share/gpaw/Li.PBE.gz
    compensation charges: {type: gauss,
                           rc: 0.33,
                           lmax: 2}
    cutoffs: {filter: 1.91,
              core: 2.55}
    valence states:
      #              energy  rcut
      - 2s(1.00)    -2.874   1.058
      - 2p(0.00)    -1.090   1.058
      -  s          24.337   1.058
  
    # Using partial waves for Li as LCAO basis

  Br:
    name: Bromine
    id: 39dc90fcf3bf77f2d83386b416c2c495
    Z: 35.0
    valence: 7
    core: 28
    charge: 0.0
    file: /home/vazumah/.conda/envs/GPAW/share/gpaw/Br.PBE.gz
    compensation charges: {type: gauss,
                           rc: 0.35,
                           lmax: 2}
    cutoffs: {filter: 1.98,
              core: 2.38}
    valence states:
      #              energy  rcut
      - 4s(2.00)   -20.121   1.111
      - 4p(5.00)    -7.861   1.111
      -  s           7.091   1.111
      -  p          19.351   1.111
      -  d           0.000   1.111
  
    # Using partial waves for Br as LCAO basis

  H:
    name: Hydrogen
    id: d65de229564ff8ea4db303e23b6d1ecf
    Z: 1.0
    valence: 1
    core: 0
    charge: 0.0
    file: /home/vazumah/.conda/envs/GPAW/share/gpaw/H.PBE.gz
    compensation charges: {type: gauss,
                           rc: 0.15,
                           lmax: 2}
    cutoffs: {filter: 0.85,
              core: 0.53}
    valence states:
      #              energy  rcut
      - 1s(1.00)    -6.494   0.476
      -  s          20.717   0.476
      -  p           0.000   0.476
  
    # Using partial waves for H as LCAO basis

  N:
    name: Nitrogen
    id: f7500608b86eaa90eef8b1d9a670dc53
    Z: 7.0
    valence: 5
    core: 2
    charge: 0.0
    file: /home/vazumah/.conda/envs/GPAW/share/gpaw/N.PBE.gz
    compensation charges: {type: gauss,
                           rc: 0.18,
                           lmax: 2}
    cutoffs: {filter: 1.11,
              core: 0.96}
    valence states:
      #              energy  rcut
      - 2s(2.00)   -18.583   0.603
      - 2p(3.00)    -7.089   0.529
      -  s           8.629   0.603
      -  p          20.123   0.529
      -  d           0.000   0.577
  
    # Using partial waves for N as LCAO basis

Reference energy: -81178.542429  # eV

Spin-paired calculation

Convergence criteria:
 Maximum [total energy] change in last 3 cyles: 0.0005 eV / electron
 Maximum integral of absolute [dens]ity change: 0.0001 electrons / valence electron
 Maximum integral of absolute [eigenst]ate change: 4e-08 eV^2 / valence electron
 Maximum number of scf [iter]ations: 333
 (Square brackets indicate name in SCF output, whereas a 'c' in
 the SCF output indicates the quantity has converged.)

Symmetries present (total): 1

  ( 1  0  0)
  ( 0  1  0)
  ( 0  0  1)

16 k-points: 4 x 4 x 1 Monkhorst-Pack grid
8 k-points in the irreducible part of the Brillouin zone
       k-points in crystal coordinates                weights
   0:     0.12500000   -0.37500000    0.00000000          2/16
   1:     0.12500000   -0.12500000    0.00000000          2/16
   2:     0.12500000    0.12500000    0.00000000          2/16
   3:     0.12500000    0.37500000    0.00000000          2/16
   4:     0.37500000   -0.37500000    0.00000000          2/16
   5:     0.37500000   -0.12500000    0.00000000          2/16
   6:     0.37500000    0.12500000    0.00000000          2/16
   7:     0.37500000    0.37500000    0.00000000          2/16

Wave functions: Uniform real-space grid
  Kinetic energy operator: 6*3+1=19 point O(h^6) finite-difference Laplacian
  ScaLapack parameters: grid=1x1, blocksize=None
  Wavefunction extrapolation:
    Improved wavefunction reuse through dual PAW basis 

Occupation numbers: Fermi-Dirac:
  width: 0.0500  # eV
 

Eigensolver
   Davidson(niter=2) 

Densities:
  Coarse grid: 60*60*168 grid
  Fine grid: 120*120*336 grid
  Total Charge: 0.000000 

Density mixing:
  Method: separate
  Backend: pulay
  Linear mixing parameter: 0.05
  old densities: 5
  Damping of long wavelength oscillations: 50 

Hamiltonian:
  XC and Coulomb potentials evaluated on a 120*120*336 grid
  Using the BEEF-vdW Exchange-Correlation functional
  Interpolation: tri-quintic (5. degree polynomial)
  Poisson solver: FastPoissonSolver using
    Stencil: 6*3+1=19 point O(h^6) finite-difference Laplacian
    FFT axes: [0, 1]
    FST axes: [2]

Dipole correction along z-axis 

XC parameters: BEEF-vdW with 2 nearest neighbor stencil

Memory estimate:
  Process memory now: 226.96 MiB
  Calculator: 395.41 MiB
    Density: 121.75 MiB
      Arrays: 39.61 MiB
      Localized functions: 67.04 MiB
      Mixer: 15.11 MiB
    Hamiltonian: 31.20 MiB
      Arrays: 25.90 MiB
      XC: 0.00 MiB
      Poisson: 0.00 MiB
      vbar: 5.30 MiB
    Wavefunctions: 242.46 MiB
      Arrays psit_nG: 111.79 MiB
      Eigensolver: 127.10 MiB
      Projections: 0.04 MiB
      Projectors: 3.53 MiB

Total number of cores used: 24
Parallelization over k-points: 8
Domain decomposition: 1 x 1 x 3

Number of atoms: 40
Number of atomic orbitals: 157
Number of bands in calculation: 37
Number of valence electrons: 54
Bands to converge: occupied

... initialized

Initializing position-dependent things.

Creating initial wave functions:
  37 bands from LCAO basis set

       .-----------------------.  
      /|                       |  
     / |                       |  
    /  |                       |  
   /   |                       |  
  /    |                       |  
 *     |                       |  
 |     |                       |  
 |     |                       |  
 |     |                       |  
 |     |                       |  
 |     |                     N |  
 |     |                       |  
 |     |                Br     |  
 |     |               Li      |  
 |     |                H      |  
 |   Li|     Li      Li        |  
 |     |  Li      Li      Li   |  
 | Li  |   Li      LiN         |  
 |     |Li      Li      Li     |  
 Li    | Li                    |  
 |   LLi     LLi     LLi       |  
 |     |  Li      Li      Li   |  
 | Li  |   Li      Li          |  
 |     |Li      Li      Li     |  
 Li    | Li      Li            |  
 |    Li      Li      Li       |  
 |     |                       |  
 |     |                       |  
 |     |                       |  
 |     |                       |  
 |     |                       |  
 |     |                       |  
 |     .-----------------------.  
 |    /                       /   
 |   /                       /    
 |  /                       /     
 | /                       /      
 |/                       /       
 *-----------------------*        

Positions:
   0 Li     1.617037    1.617037   10.000000    ( 0.0000,  0.0000,  0.0000)
   1 Li     4.851111    1.617037   10.000000    ( 0.0000,  0.0000,  0.0000)
   2 Li     8.085185    1.617037   10.000000    ( 0.0000,  0.0000,  0.0000)
   3 Li     1.617037    4.851111   10.000000    ( 0.0000,  0.0000,  0.0000)
   4 Li     4.851111    4.851111   10.000000    ( 0.0000,  0.0000,  0.0000)
   5 Li     8.085185    4.851111   10.000000    ( 0.0000,  0.0000,  0.0000)
   6 Li     1.617037    8.085185   10.000000    ( 0.0000,  0.0000,  0.0000)
   7 Li     4.851111    8.085185   10.000000    ( 0.0000,  0.0000,  0.0000)
   8 Li     8.085185    8.085185   10.000000    ( 0.0000,  0.0000,  0.0000)
   9 Li     0.000000    0.000000   11.617037    ( 0.0000,  0.0000,  0.0000)
  10 Li     3.234074    0.000000   11.617037    ( 0.0000,  0.0000,  0.0000)
  11 Li     6.468148    0.000000   11.617037    ( 0.0000,  0.0000,  0.0000)
  12 Li     0.000000    3.234074   11.617037    ( 0.0000,  0.0000,  0.0000)
  13 Li     3.234074    3.234074   11.617037    ( 0.0000,  0.0000,  0.0000)
  14 Li     6.468148    3.234074   11.617037    ( 0.0000,  0.0000,  0.0000)
  15 Li     0.000000    6.468148   11.617037    ( 0.0000,  0.0000,  0.0000)
  16 Li     3.234074    6.468148   11.617037    ( 0.0000,  0.0000,  0.0000)
  17 Li     6.468148    6.468148   11.617037    ( 0.0000,  0.0000,  0.0000)
  18 Li     1.649503    1.574059   13.496083    ( 0.0000,  0.0000,  0.0000)
  19 Li     4.889669    1.597649   13.498737    ( 0.0000,  0.0000,  0.0000)
  20 Li     8.118953    1.603941   13.433176    ( 0.0000,  0.0000,  0.0000)
  21 Li     1.654240    4.851142   13.441831    ( 0.0000,  0.0000,  0.0000)
  22 Li     4.817396    4.851099   13.463017    ( 0.0000,  0.0000,  0.0000)
  23 Li     8.060149    4.851087   13.450108    ( 0.0000,  0.0000,  0.0000)
  24 Li     1.649415    8.128169   13.496136    ( 0.0000,  0.0000,  0.0000)
  25 Li     4.889534    8.104536   13.498655    ( 0.0000,  0.0000,  0.0000)
  26 Li     8.119150    8.098298   13.433274    ( 0.0000,  0.0000,  0.0000)
  27 Li     0.104297    0.000183   15.541641    ( 0.0000,  0.0000,  0.0000)
  28 Li     3.358861    0.000037   15.498253    ( 0.0000,  0.0000,  0.0000)
  29 Li     6.632179   -0.000810   15.503807    ( 0.0000,  0.0000,  0.0000)
  30 Li     0.019189    3.298680   15.327983    ( 0.0000,  0.0000,  0.0000)
  31 Li     3.219715    3.228866   15.432685    ( 0.0000,  0.0000,  0.0000)
  32 Li     6.445045    3.267616   15.390492    ( 0.0000,  0.0000,  0.0000)
  33 Li     0.018999    6.403728   15.327901    ( 0.0000,  0.0000,  0.0000)
  34 Li     3.219817    6.473325   15.432633    ( 0.0000,  0.0000,  0.0000)
  35 Li     6.445198    6.434511   15.390535    ( 0.0000,  0.0000,  0.0000)
  36 Br     9.306837    9.708202   21.234316    ( 0.0000,  0.0000,  0.0000)
  37 H      9.160075    9.703541   19.802361    ( 0.0000,  0.0000,  0.0000)
  38 N      8.939356    9.700832   17.584049    ( 0.0000,  0.0000,  0.0000)
  39 N      8.025583    9.703077   16.900869    ( 0.0000,  0.0000,  0.0000)

Unit cell:
           periodic     x           y           z      points  spacing
  1. axis:    yes    9.702222    0.000000    0.000000    60     0.1617
  2. axis:    yes    0.000000    9.702222    0.000000    60     0.1617
  3. axis:    no     0.000000    0.000000   26.851111   168     0.1598

  Lengths:   9.702222   9.702222  26.851111
  Angles:   90.000000  90.000000  90.000000

Effective grid spacing dv^(1/3) = 0.1611

     iter     time        total  log10-change:
                         energy  eigst   dens
iter:   1 10:42:29  -330.457780  +0.98
iter:   2 10:44:57  -330.923280  +0.35  -1.78
iter:   3 10:47:29  -331.051458  -0.11  -2.04
iter:   4 10:50:04  -331.101598  -0.50  -2.26
Writing to output.gpw (mode='')

iter:   5 10:52:39  -331.123727  -0.85  -2.54
iter:   6 10:55:14  -331.134209  -1.18  -2.78
iter:   7 10:57:45  -331.138890c -1.50  -2.81
iter:   8 11:00:21  -331.141764c -1.74  -3.03
iter:   9 11:02:59  -331.143520c -1.96  -3.08
Writing to output.gpw (mode='')

iter:  10 11:05:33  -331.144642c -2.12  -3.15
iter:  11 11:08:01  -331.145402c -2.31  -3.22
iter:  12 11:10:27  -331.145908c -2.52  -3.34
iter:  13 11:13:05  -331.146287c -2.64  -3.22
iter:  14 11:15:31  -331.146545c -2.78  -3.15
Writing to output.gpw (mode='')

iter:  15 11:18:09  -331.146729c -2.90  -3.14
iter:  16 11:20:38  -331.146872c -3.08  -3.41
iter:  17 11:23:16  -331.146988c -3.18  -3.41
iter:  18 11:25:41  -331.147086c -3.32  -3.44
iter:  19 11:28:23  -331.147152c -3.42  -3.58
Writing to output.gpw (mode='')

iter:  20 11:30:51  -331.147201c -3.54  -3.65
iter:  21 11:33:23  -331.147233c -3.67  -3.62
iter:  22 11:35:59  -331.147284c -3.71  -3.56
iter:  23 11:38:37  -331.147317c -3.79  -3.69
iter:  24 11:41:08  -331.147329c -3.96  -3.74
Writing to output.gpw (mode='')

iter:  25 11:43:36  -331.147358c -4.01  -3.68
iter:  26 11:46:07  -331.147385c -3.95  -3.80
iter:  27 11:48:35  -331.147402c -4.03  -3.86
iter:  28 11:51:10  -331.147419c -4.17  -3.93
iter:  29 11:53:43  -331.147426c -4.38  -4.15c
Writing to output.gpw (mode='')

iter:  30 11:56:07  -331.147439c -4.40  -4.16c
iter:  31 11:58:38  -331.147443c -4.44  -4.28c
iter:  32 12:01:18  -331.147448c -4.62  -4.34c
iter:  33 12:03:48  -331.147452c -4.65  -4.41c
iter:  34 12:06:17  -331.147462c -4.69  -4.43c
Writing to output.gpw (mode='')

iter:  35 12:08:51  -331.147464c -4.86  -4.50c
iter:  36 12:11:16  -331.147465c -4.91  -4.53c
iter:  37 12:13:47  -331.147463c -5.00  -4.58c
iter:  38 12:16:17  -331.147469c -5.07  -4.54c
iter:  39 12:18:59  -331.147470c -5.11  -4.71c
Writing to output.gpw (mode='')

iter:  40 12:21:31  -331.147469c -5.17  -4.70c
iter:  41 12:24:06  -331.147470c -5.22  -4.55c
iter:  42 12:26:38  -331.147471c -5.39  -4.53c
iter:  43 12:29:08  -331.147473c -5.31  -4.50c
iter:  44 12:31:38  -331.147473c -5.43  -4.55c
Writing to output.gpw (mode='')

iter:  45 12:34:08  -331.147473c -5.52  -4.50c
iter:  46 12:36:31  -331.147473c -5.56  -4.42c
iter:  47 12:39:00  -331.147474c -5.68  -4.38c
iter:  48 12:41:32  -331.147475c -5.44  -4.37c
iter:  49 12:44:09  -331.147480c -5.53  -4.43c
Writing to output.gpw (mode='')

iter:  50 12:46:37  -331.147483c -5.60  -4.63c
iter:  51 12:49:01  -331.147484c -5.75  -4.73c
iter:  52 12:51:29  -331.147485c -5.84  -4.87c
iter:  53 12:54:06  -331.147485c -5.98  -4.93c
iter:  54 12:56:41  -331.147485c -6.05  -4.93c
Writing to output.gpw (mode='')

iter:  55 12:59:08  -331.147485c -6.04  -4.92c
iter:  56 13:01:44  -331.147487c -5.99  -4.94c
iter:  57 13:04:23  -331.147485c -6.21  -5.00c
iter:  58 13:07:05  -331.147485c -6.21  -5.14c
iter:  59 13:09:42  -331.147486c -6.20  -5.13c
Writing to output.gpw (mode='')

iter:  60 13:12:19  -331.147487c -6.17  -5.23c
iter:  61 13:15:03  -331.147486c -6.41  -5.35c
iter:  62 13:17:33  -331.147487c -6.45  -5.36c
iter:  63 13:20:13  -331.147487c -6.37  -5.41c
iter:  64 13:22:49  -331.147487c -6.45  -5.50c
Writing to output.gpw (mode='')

iter:  65 13:25:31  -331.147487c -6.47  -5.58c
iter:  66 13:28:18  -331.147487c -6.63  -5.78c
iter:  67 13:30:56  -331.147487c -6.55  -5.80c
iter:  68 13:33:33  -331.147487c -6.71  -5.80c
iter:  69 13:36:08  -331.147487c -6.76  -5.72c
Writing to output.gpw (mode='')

iter:  70 13:38:37  -331.147488c -6.88  -5.83c
iter:  71 13:41:07  -331.147488c -6.90  -5.79c
iter:  72 13:43:49  -331.147488c -6.90  -5.73c
iter:  73 13:46:20  -331.147488c -7.00  -5.69c
iter:  74 13:48:52  -331.147488c -6.94  -5.63c
Writing to output.gpw (mode='')

iter:  75 13:51:27  -331.147488c -7.05  -5.58c
iter:  76 13:53:53  -331.147488c -6.97  -5.55c
iter:  77 13:56:34  -331.147488c -7.05  -5.53c
iter:  78 13:59:08  -331.147488c -7.02  -5.48c
iter:  79 14:01:39  -331.147488c -7.28  -5.45c
Writing to output.gpw (mode='')

iter:  80 14:04:18  -331.147488c -7.30  -5.43c
iter:  81 14:06:46  -331.147488c -7.20  -5.40c
iter:  82 14:09:13  -331.147488c -7.19  -5.40c
iter:  83 14:11:38  -331.147488c -7.36  -5.37c
iter:  84 14:14:06  -331.147488c -7.23  -5.34c
Writing to output.gpw (mode='')

iter:  85 14:16:41  -331.147488c -7.16  -5.34c
iter:  86 14:19:23  -331.147487c -7.25  -5.36c
iter:  87 14:21:48  -331.147488c -7.41c -5.31c

Converged after 87 iterations.

Dipole moment: (15.760676, -15.584896, -0.340562) |e|*Ang

Energy contributions relative to reference atoms: (reference = -81178.542429)

Kinetic:       +107.587216
Potential:      -98.785686
External:        +0.000000
XC:            -340.162331
Entropy (-ST):   -0.149045
Local:           +0.287835
--------------------------
Free energy:   -331.222011
Extrapolated:  -331.147488

Dipole-layer corrected work functions: 3.414334, 4.069011 eV

Showing only first 2 kpts
 Kpt  Band  Eigenvalues  Occupancy
  0    25     -3.98299    1.98409
  0    26     -3.90013    1.91932
  0    27     -3.58875    0.08972
  0    28     -3.52406    0.02543

  1    25     -3.79985    1.52393
  1    26     -3.72325    0.81787
  1    27     -3.68712    0.50282
  1    28     -3.63269    0.20317


Fermi level: -3.74167

No gap
Writing to output.gpw (mode='')


Forces in eV/Ang:
  0 Li    0.01598   -0.00230   -0.27474
  1 Li   -0.01781   -0.00229   -0.27526
  2 Li   -0.00637    0.01947   -0.26690
  3 Li   -0.00338   -0.00000   -0.28663
  4 Li   -0.00229   -0.00000   -0.28321
  5 Li   -0.00527   -0.00001   -0.27526
  6 Li    0.01597    0.00231   -0.27474
  7 Li   -0.01783    0.00231   -0.27524
  8 Li   -0.00638   -0.01945   -0.26689
  9 Li    0.03067    0.00000    0.28713
 10 Li    0.03498   -0.00003    0.21369
 11 Li   -0.00970   -0.00005    0.27250
 12 Li    0.03055    0.01573    0.27366
 13 Li    0.01242   -0.04745    0.25893
 14 Li   -0.00901    0.01335    0.25927
 15 Li    0.03050   -0.01571    0.27371
 16 Li    0.01248    0.04745    0.25896
 17 Li   -0.00896   -0.01331    0.25927
 18 Li   -0.00533    0.01260    0.00171
 19 Li   -0.00281   -0.00817    0.00830
 20 Li   -0.01180   -0.00199    0.01222
 21 Li   -0.00753    0.00000    0.01246
 22 Li    0.01010   -0.00005    0.00094
 23 Li    0.00784   -0.00001    0.00745
 24 Li   -0.00515   -0.01256    0.00163
 25 Li   -0.00247    0.00807    0.00852
 26 Li   -0.01218    0.00181    0.01163
 27 Li   -0.02181   -0.00011   -0.00968
 28 Li   -0.02479   -0.00008   -0.00248
 29 Li   -0.03580    0.00176    0.01523
 30 Li   -0.00218   -0.00132    0.01247
 31 Li    0.00335    0.00001   -0.00017
 32 Li    0.00003    0.00490   -0.00165
 33 Li   -0.00188    0.00123    0.01267
 34 Li    0.00326    0.00009   -0.00005
 35 Li   -0.00028   -0.00512   -0.00192
 36 Br    0.00992    0.00310    0.01210
 37 H    -0.00060    0.00040    0.00241
 38 N    -0.04599    0.01673    0.00909
 39 N     0.01379   -0.00502   -0.01326

Timing:                              incl.     excl.
-----------------------------------------------------------
Forces:                              7.781     7.781   0.1% |
Hamiltonian:                       119.224     0.000   0.0% |
 Atomic:                             0.139     0.001   0.0% |
  XC Correction:                     0.137     0.137   0.0% |
 Calculate atomic Hamiltonians:      0.399     0.399   0.0% |
 Communicate:                        0.526     0.526   0.0% |
 Hartree integrate/restrict:         0.099     0.099   0.0% |
 Poisson:                            4.310     1.965   0.0% |
  Communicate from 1D:               0.194     0.194   0.0% |
  Communicate from 2D:               0.491     0.491   0.0% |
  Communicate to 1D:                 0.150     0.150   0.0% |
  Communicate to 2D:                 0.491     0.491   0.0% |
  FFT 1D:                            0.550     0.550   0.0% |
  FFT 2D:                            0.469     0.469   0.0% |
 XC 3D grid:                       113.694     9.374   0.1% |
  VdW-DF integral:                 104.321     0.173   0.0% |
   Convolution:                      6.212     6.212   0.0% |
   FFT:                              0.761     0.761   0.0% |
   gather:                          71.808    71.808   0.5% |
   hmm1:                             0.886     0.886   0.0% |
   hmm2:                             1.235     1.235   0.0% |
   iFFT:                             0.889     0.889   0.0% |
   potential:                        7.806     0.056   0.0% |
    collect:                         0.732     0.732   0.0% |
    p1:                              3.042     3.042   0.0% |
    p2:                              2.094     2.094   0.0% |
    sum:                             1.882     1.882   0.0% |
   splines:                         14.550    14.550   0.1% |
 vbar:                               0.057     0.057   0.0% |
LCAO initialization:                 9.318     0.456   0.0% |
 LCAO eigensolver:                   3.240     0.001   0.0% |
  Calculate projections:             0.000     0.000   0.0% |
  DenseAtomicCorrection:             0.000     0.000   0.0% |
  Distribute overlap matrix:         2.897     2.897   0.0% |
  Orbital Layouts:                   0.116     0.116   0.0% |
  Potential matrix:                  0.222     0.222   0.0% |
  Sum over cells:                    0.004     0.004   0.0% |
 LCAO to grid:                       4.069     4.069   0.0% |
 Set positions (LCAO WFS):           1.551     1.051   0.0% |
  Basic WFS set positions:           0.003     0.003   0.0% |
  Basis functions set positions:     0.012     0.012   0.0% |
  P tci:                             0.000     0.000   0.0% |
  ST tci:                            0.310     0.310   0.0% |
  mktci:                             0.174     0.174   0.0% |
Redistribute:                        0.009     0.009   0.0% |
SCF-cycle:                       13208.466   181.493   1.4% ||
 Davidson:                        3526.584  1452.235  10.9% |---|
  Apply hamiltonian:               231.746   231.746   1.7% ||
  Subspace diag:                   491.288     0.020   0.0% |
   calc_h_matrix:                  305.276    81.562   0.6% |
    Apply hamiltonian:             223.714   223.714   1.7% ||
   diagonalize:                     22.723    22.723   0.2% |
   rotate_psi:                     163.269   163.269   1.2% |
  calc. matrices:                 1033.851   620.173   4.6% |-|
   Apply hamiltonian:              413.678   413.678   3.1% ||
  diagonalize:                       1.229     1.229   0.0% |
  rotate_psi:                      316.235   316.235   2.4% ||
 Density:                           88.924     0.004   0.0% |
  Atomic density matrices:          25.176    25.176   0.2% |
  Mix:                              29.030    29.030   0.2% |
  Multipole moments:                 0.298     0.298   0.0% |
  Pseudo density:                   34.417    34.414   0.3% |
   Symmetrize density:               0.003     0.003   0.0% |
 Hamiltonian:                     9405.597     0.018   0.0% |
  Atomic:                           13.723     0.219   0.0% |
   XC Correction:                   13.503    13.503   0.1% |
  Calculate atomic Hamiltonians:    45.318    45.318   0.3% |
  Communicate:                      42.443    42.443   0.3% |
  Hartree integrate/restrict:       16.405    16.405   0.1% |
  Poisson:                         368.452   168.540   1.3% ||
   Communicate from 1D:             27.654    27.654   0.2% |
   Communicate from 2D:             44.394    44.394   0.3% |
   Communicate to 1D:               11.329    11.329   0.1% |
   Communicate to 2D:               42.766    42.766   0.3% |
   FFT 1D:                          36.489    36.489   0.3% |
   FFT 2D:                          37.281    37.281   0.3% |
  XC 3D grid:                     8915.220   887.651   6.6% |--|
   VdW-DF integral:               8027.569    18.156   0.1% |
    Convolution:                   492.704   492.704   3.7% ||
    FFT:                            81.218    81.218   0.6% |
    gather:                       6477.103  6477.103  48.4% |------------------|
    hmm1:                           90.963    90.963   0.7% |
    hmm2:                          119.522   119.522   0.9% |
    iFFT:                           87.912    87.912   0.7% |
    potential:                     659.991     7.455   0.1% |
     collect:                       62.052    62.052   0.5% |
     p1:                           266.655   266.655   2.0% ||
     p2:                           175.236   175.236   1.3% ||
     sum:                          148.593   148.593   1.1% |
    splines:                         0.001     0.001   0.0% |
  vbar:                              4.018     4.018   0.0% |
 Orthonormalize:                     5.868     0.000   0.0% |
  calc_s_matrix:                     0.347     0.347   0.0% |
  inverse-cholesky:                  0.226     0.226   0.0% |
  projections:                       4.477     4.477   0.0% |
  rotate_psi_s:                      0.818     0.818   0.0% |
Set symmetry:                        0.016     0.016   0.0% |
Other:                              39.551    39.551   0.3% |
-----------------------------------------------------------
Total:                                     13384.364 100.0%

Memory usage: 1.57 GiB
Date: Tue Mar  7 14:21:58 2023
