
  ___ ___ ___ _ _ _  
 |   |   |_  | | | | 
 | | | | | . | | | | 
 |__ |  _|___|_____|  22.8.0
 |___|_|             

User:   vazumah@c08.hercules
Date:   Wed Jan 18 00:27:52 2023
Arch:   x86_64
Pid:    8258
CWD:    /home/vazumah/Python_projects/LiNRR/Li_adsorb_studies/autocat/close_proximity_proton_donors/adsorbates/BH3/ontop/9.702_9.702
Python: 3.10.8
gpaw:   /home/vazumah/.conda/envs/GPAW/lib/python3.10/site-packages/gpaw
_gpaw:  /home/vazumah/.conda/envs/GPAW/lib/python3.10/site-packages/
        _gpaw.cpython-310-x86_64-linux-gnu.so
ase:    /home/vazumah/.conda/envs/GPAW/lib/python3.10/site-packages/ase (version 3.22.1)
numpy:  /home/vazumah/.conda/envs/GPAW/lib/python3.10/site-packages/numpy (version 1.24.1)
scipy:  /home/vazumah/.conda/envs/GPAW/lib/python3.10/site-packages/scipy (version 1.10.0)
libxc:  5.2.3
units:  Angstrom and eV
cores: 24
OpenMP: True
OMP_NUM_THREADS: 1

Input parameters:
  h: 0.16
  kpts: {size: [4, 4, 1]}
  occupations: {name: fermi-dirac,
                width: 0.05}
  poissonsolver: {dipolelayer: xy}
  xc: BEEF-vdW

System changes: positions, numbers, cell, pbc, initial_charges, initial_magmoms 

Initialize ...

species:
  Li:
    name: Lithium
    id: 830b4218f175192f93f959cfc0aad614
    Z: 3.0
    valence: 1
    core: 2
    charge: 0.0
    file: /home/vazumah/.conda/envs/GPAW/share/gpaw/Li.PBE.gz
    compensation charges: {type: gauss,
                           rc: 0.33,
                           lmax: 2}
    cutoffs: {filter: 1.91,
              core: 2.55}
    valence states:
      #              energy  rcut
      - 2s(1.00)    -2.874   1.058
      - 2p(0.00)    -1.090   1.058
      -  s          24.337   1.058
  
    # Using partial waves for Li as LCAO basis

  B:
    name: Boron
    id: 6e91439235a05fd7549e31636e8f777c
    Z: 5.0
    valence: 3
    core: 2
    charge: 0.0
    file: /home/vazumah/.conda/envs/GPAW/share/gpaw/B.PBE.gz
    compensation charges: {type: gauss,
                           rc: 0.20,
                           lmax: 2}
    cutoffs: {filter: 1.14,
              core: 1.38}
    valence states:
      #              energy  rcut
      - 2s(2.00)    -9.443   0.635
      - 2p(1.00)    -3.606   0.635
      -  s          17.768   0.635
      -  p          23.605   0.635
      -  d           0.000   0.635
  
    # Using partial waves for B as LCAO basis

  H:
    name: Hydrogen
    id: d65de229564ff8ea4db303e23b6d1ecf
    Z: 1.0
    valence: 1
    core: 0
    charge: 0.0
    file: /home/vazumah/.conda/envs/GPAW/share/gpaw/H.PBE.gz
    compensation charges: {type: gauss,
                           rc: 0.15,
                           lmax: 2}
    cutoffs: {filter: 0.85,
              core: 0.53}
    valence states:
      #              energy  rcut
      - 1s(1.00)    -6.494   0.476
      -  s          20.717   0.476
      -  p           0.000   0.476
  
    # Using partial waves for H as LCAO basis

Reference energy: -8007.321583  # eV

Spin-paired calculation

Convergence criteria:
 Maximum [total energy] change in last 3 cyles: 0.0005 eV / electron
 Maximum integral of absolute [dens]ity change: 0.0001 electrons / valence electron
 Maximum integral of absolute [eigenst]ate change: 4e-08 eV^2 / valence electron
 Maximum number of scf [iter]ations: 333
 (Square brackets indicate name in SCF output, whereas a 'c' in
 the SCF output indicates the quantity has converged.)

Symmetries present (total): 1

  ( 1  0  0)
  ( 0  1  0)
  ( 0  0  1)

16 k-points: 4 x 4 x 1 Monkhorst-Pack grid
8 k-points in the irreducible part of the Brillouin zone
       k-points in crystal coordinates                weights
   0:     0.12500000   -0.37500000    0.00000000          2/16
   1:     0.12500000   -0.12500000    0.00000000          2/16
   2:     0.12500000    0.12500000    0.00000000          2/16
   3:     0.12500000    0.37500000    0.00000000          2/16
   4:     0.37500000   -0.37500000    0.00000000          2/16
   5:     0.37500000   -0.12500000    0.00000000          2/16
   6:     0.37500000    0.12500000    0.00000000          2/16
   7:     0.37500000    0.37500000    0.00000000          2/16

Wave functions: Uniform real-space grid
  Kinetic energy operator: 6*3+1=19 point O(h^6) finite-difference Laplacian
  ScaLapack parameters: grid=1x1, blocksize=None
  Wavefunction extrapolation:
    Improved wavefunction reuse through dual PAW basis 

Occupation numbers: Fermi-Dirac:
  width: 0.0500  # eV
 

Eigensolver
   Davidson(niter=2) 

Densities:
  Coarse grid: 60*60*156 grid
  Fine grid: 120*120*312 grid
  Total Charge: 0.000000 

Density mixing:
  Method: separate
  Backend: pulay
  Linear mixing parameter: 0.05
  old densities: 5
  Damping of long wavelength oscillations: 50 

Hamiltonian:
  XC and Coulomb potentials evaluated on a 120*120*312 grid
  Using the BEEF-vdW Exchange-Correlation functional
  Interpolation: tri-quintic (5. degree polynomial)
  Poisson solver: FastPoissonSolver using
    Stencil: 6*3+1=19 point O(h^6) finite-difference Laplacian
    FFT axes: [0, 1]
    FST axes: [2]

Dipole correction along z-axis 

XC parameters: BEEF-vdW with 2 nearest neighbor stencil

Memory estimate:
  Process memory now: 215.36 MiB
  Calculator: 330.73 MiB
    Density: 116.01 MiB
      Arrays: 36.75 MiB
      Localized functions: 65.25 MiB
      Mixer: 14.01 MiB
    Hamiltonian: 29.19 MiB
      Arrays: 24.03 MiB
      XC: 0.00 MiB
      Poisson: 0.00 MiB
      vbar: 5.16 MiB
    Wavefunctions: 185.52 MiB
      Arrays psit_nG: 84.05 MiB
      Eigensolver: 98.19 MiB
      Projections: 0.03 MiB
      Projectors: 3.26 MiB

Total number of cores used: 24
Parallelization over k-points: 8
Domain decomposition: 1 x 1 x 3

Number of atoms: 40
Number of atomic orbitals: 151
Number of bands in calculation: 30
Number of valence electrons: 42
Bands to converge: occupied

... initialized

Initializing position-dependent things.

Density initialized from atomic densities
Creating initial wave functions:
  30 bands from LCAO basis set

       .-----------------------.  
      /|                       |  
     / |                       |  
    /  |                       |  
   /   |                       |  
  /    |                       |  
 *     |                       |  
 |     |                       |  
 |     |                       |  
 |    H|                       |  
 |     |                       |  
 |     |                       |  
 |     |                       |  
 |     |                       |  
 B  HLi|     Li      LiH       |  
 |     |  Li      Li      Li   |  
 | Li  |   Li      Li          |  
 |     |Li      Li      Li     |  
 Li    | Li      Li            |  
 |   LLi     LLi     LLi       |  
 |     |  Li      Li      Li   |  
 | Li  |   Li      Li          |  
 |     |Li      Li      Li     |  
 Li    | Li      Li            |  
 |    Li      Li      Li       |  
 |     |                       |  
 |     |                       |  
 |     |                       |  
 |     |                       |  
 |     |                       |  
 |     |                       |  
 |     .-----------------------.  
 |    /                       /   
 |   /                       /    
 |  /                       /     
 | /                       /      
 |/                       /       
 *-----------------------*        

Positions:
   0 Li     1.617037    1.617037   10.000000    ( 0.0000,  0.0000,  0.0000)
   1 Li     4.851111    1.617037   10.000000    ( 0.0000,  0.0000,  0.0000)
   2 Li     8.085185    1.617037   10.000000    ( 0.0000,  0.0000,  0.0000)
   3 Li     1.617037    4.851111   10.000000    ( 0.0000,  0.0000,  0.0000)
   4 Li     4.851111    4.851111   10.000000    ( 0.0000,  0.0000,  0.0000)
   5 Li     8.085185    4.851111   10.000000    ( 0.0000,  0.0000,  0.0000)
   6 Li     1.617037    8.085185   10.000000    ( 0.0000,  0.0000,  0.0000)
   7 Li     4.851111    8.085185   10.000000    ( 0.0000,  0.0000,  0.0000)
   8 Li     8.085185    8.085185   10.000000    ( 0.0000,  0.0000,  0.0000)
   9 Li     0.000000    0.000000   11.617037    ( 0.0000,  0.0000,  0.0000)
  10 Li     3.234074    0.000000   11.617037    ( 0.0000,  0.0000,  0.0000)
  11 Li     6.468148    0.000000   11.617037    ( 0.0000,  0.0000,  0.0000)
  12 Li     0.000000    3.234074   11.617037    ( 0.0000,  0.0000,  0.0000)
  13 Li     3.234074    3.234074   11.617037    ( 0.0000,  0.0000,  0.0000)
  14 Li     6.468148    3.234074   11.617037    ( 0.0000,  0.0000,  0.0000)
  15 Li     0.000000    6.468148   11.617037    ( 0.0000,  0.0000,  0.0000)
  16 Li     3.234074    6.468148   11.617037    ( 0.0000,  0.0000,  0.0000)
  17 Li     6.468148    6.468148   11.617037    ( 0.0000,  0.0000,  0.0000)
  18 Li     1.617038    1.617038   13.469728    ( 0.0000,  0.0000,  0.0000)
  19 Li     4.851111    1.617038   13.469729    ( 0.0000,  0.0000,  0.0000)
  20 Li     8.085184    1.617038   13.469728    ( 0.0000,  0.0000,  0.0000)
  21 Li     1.617038    4.851111   13.469729    ( 0.0000,  0.0000,  0.0000)
  22 Li     4.851111    4.851111   13.469730    ( 0.0000,  0.0000,  0.0000)
  23 Li     8.085184    4.851111   13.469729    ( 0.0000,  0.0000,  0.0000)
  24 Li     1.617038    8.085184   13.469728    ( 0.0000,  0.0000,  0.0000)
  25 Li     4.851111    8.085184   13.469729    ( 0.0000,  0.0000,  0.0000)
  26 Li     8.085184    8.085184   13.469728    ( 0.0000,  0.0000,  0.0000)
  27 Li    -0.000000   -0.000000   15.445939    ( 0.0000,  0.0000,  0.0000)
  28 Li     3.234074    0.000000   15.445939    ( 0.0000,  0.0000,  0.0000)
  29 Li     6.468148    0.000000   15.445939    ( 0.0000,  0.0000,  0.0000)
  30 Li     0.000000    3.234074   15.445939    ( 0.0000,  0.0000,  0.0000)
  31 Li     3.234076    3.234076   15.445938    ( 0.0000,  0.0000,  0.0000)
  32 Li     6.468146    3.234076   15.445938    ( 0.0000,  0.0000,  0.0000)
  33 Li     0.000000    6.468148   15.445939    ( 0.0000,  0.0000,  0.0000)
  34 Li     3.234076    6.468146   15.445938    ( 0.0000,  0.0000,  0.0000)
  35 Li     6.468146    6.468146   15.445938    ( 0.0000,  0.0000,  0.0000)
  36 B      9.702222    9.702222   18.445939    ( 0.0000,  0.0000,  0.0000)
  37 H     10.734791   10.294508   18.445939    ( 0.0000,  0.0000,  0.0000)
  38 H      8.672313   10.299181   18.445939    ( 0.0000,  0.0000,  0.0000)
  39 H      9.702308    8.513623   18.445939    ( 0.0000,  0.0000,  0.0000)

Unit cell:
           periodic     x           y           z      points  spacing
  1. axis:    yes    9.702222    0.000000    0.000000    60     0.1617
  2. axis:    yes    0.000000    9.702222    0.000000    60     0.1617
  3. axis:    no     0.000000    0.000000   24.851111   156     0.1593

  Lengths:   9.702222   9.702222  24.851111
  Angles:   90.000000  90.000000  90.000000

Effective grid spacing dv^(1/3) = 0.1609

     iter     time        total  log10-change:
                         energy  eigst   dens
iter:   1 00:30:53  -237.046080
iter:   2 00:33:20  -225.105761  +1.18  -0.37
iter:   3 00:35:45  -221.493300  +1.57  -0.47
iter:   4 00:37:59  -218.313957  +1.53  -0.53
Writing to output.gpw (mode='')

iter:   5 00:40:15  -220.237810  +1.93  -0.77
iter:   6 00:42:25  -219.113826  +0.55  -0.74
iter:   7 00:44:38  -221.228301  +1.06  -0.94
iter:   8 00:46:58  -220.385197  +1.61  -0.76
iter:   9 00:49:17  -222.952853  +1.51  -0.99
Writing to output.gpw (mode='')

iter:  10 00:51:27  -222.159192  +1.03  -0.78
iter:  11 00:53:39  -221.461692  +0.66  -0.81
iter:  12 00:55:58  -219.851585  +0.14  -0.83
iter:  13 00:56:49  -219.425143  +0.21  -0.99
iter:  14 00:57:32  -219.065807  +0.69  -1.10
Writing to output.gpw (mode='')

iter:  15 00:58:16  -219.123559  +0.63  -1.28
iter:  16 01:00:40  -219.114022  -0.05  -1.34
iter:  17 01:02:53  -219.112809c -0.72  -1.52
iter:  18 01:05:15  -219.110862c -1.13  -1.59
iter:  19 01:07:34  -219.091276  -1.19  -1.60
Writing to output.gpw (mode='')

iter:  20 01:09:52  -219.088872  -1.08  -1.75
iter:  21 01:12:17  -219.092760c -1.05  -1.93
iter:  22 01:14:42  -219.097225c -1.27  -1.98
iter:  23 01:17:02  -219.098529c -1.35  -1.94
iter:  24 01:19:25  -219.098228c -1.61  -2.13
Writing to output.gpw (mode='')

iter:  25 01:21:42  -219.100024c -1.61  -2.47
iter:  26 01:24:00  -219.101173c -1.83  -2.53
iter:  27 01:26:10  -219.103423c -1.72  -2.48
iter:  28 01:28:22  -219.103111c -2.13  -2.36
iter:  29 01:30:39  -219.103634c -2.11  -2.44
Writing to output.gpw (mode='')

iter:  30 01:33:04  -219.104076c -2.18  -2.43
iter:  31 01:35:29  -219.105116c -2.22  -2.44
iter:  32 01:37:55  -219.105223c -2.35  -2.42
iter:  33 01:40:14  -219.105400c -2.44  -2.44
iter:  34 01:42:34  -219.105428c -2.48  -2.46
Writing to output.gpw (mode='')

iter:  35 01:44:50  -219.105823c -2.28  -2.58
iter:  36 01:47:18  -219.106024c -2.80  -2.80
iter:  37 01:49:36  -219.106280c -2.81  -2.89
iter:  38 01:51:59  -219.106560c -2.80  -2.92
iter:  39 01:54:12  -219.106803c -2.67  -3.00
Writing to output.gpw (mode='')

iter:  40 01:56:33  -219.107056c -2.66  -3.05
iter:  41 01:58:52  -219.107271c -3.08  -3.09
iter:  42 02:01:20  -219.107433c -3.17  -3.22
iter:  43 02:03:36  -219.107601c -2.99  -3.72
iter:  44 02:05:49  -219.107744c -3.07  -3.85
Writing to output.gpw (mode='')

iter:  45 02:08:04  -219.107870c -3.20  -3.88
iter:  46 02:10:10  -219.108008c -2.97  -3.83
iter:  47 02:12:28  -219.108119c -3.26  -3.68
iter:  48 02:14:46  -219.108223c -3.26  -3.64
iter:  49 02:16:59  -219.108322c -3.24  -3.59
Writing to output.gpw (mode='')

iter:  50 02:19:15  -219.108426c -3.31  -3.55
iter:  51 02:21:28  -219.108510c -3.45  -3.47
iter:  52 02:23:48  -219.108586c -3.51  -3.42
iter:  53 02:26:00  -219.108660c -3.42  -3.39
iter:  54 02:28:17  -219.108755c -3.30  -3.38
Writing to output.gpw (mode='')

iter:  55 02:30:42  -219.108828c -3.34  -3.31
iter:  56 02:32:52  -219.108895c -3.55  -3.29
iter:  57 02:35:08  -219.108950c -3.72  -3.23
iter:  58 02:37:30  -219.109001c -3.58  -3.28
iter:  59 02:39:50  -219.109068c -3.56  -3.31
Writing to output.gpw (mode='')

iter:  60 02:42:11  -219.109107c -3.87  -3.20
iter:  61 02:44:21  -219.109146c -3.80  -3.21
iter:  62 02:46:42  -219.109185c -3.83  -3.37
iter:  63 02:48:56  -219.109214c -3.82  -3.20
iter:  64 02:51:14  -219.109263c -3.81  -3.27
Writing to output.gpw (mode='')

iter:  65 02:53:31  -219.109287c -3.89  -3.41
iter:  66 02:55:39  -219.109313c -4.09  -3.42
iter:  67 02:57:53  -219.109334c -3.94  -3.43
iter:  68 03:00:14  -219.109353c -3.88  -3.49
iter:  69 03:02:39  -219.109374c -4.05  -3.54
Writing to output.gpw (mode='')

iter:  70 03:05:00  -219.109403c -3.97  -3.62
iter:  71 03:06:53  -219.109415c -4.35  -3.95
iter:  72 03:07:36  -219.109429c -4.28  -3.91
iter:  73 03:08:19  -219.109444c -4.01  -3.85
iter:  74 03:09:02  -219.109463c -4.24  -3.89
Writing to output.gpw (mode='')

iter:  75 03:09:46  -219.109474c -4.08  -3.94
iter:  76 03:10:35  -219.109486c -4.15  -3.92
iter:  77 03:13:00  -219.109494c -4.48  -3.99
iter:  78 03:15:18  -219.109503c -4.41  -4.04c
iter:  79 03:17:41  -219.109513c -4.25  -4.03c
Writing to output.gpw (mode='')

iter:  80 03:19:55  -219.109521c -4.47  -4.10c
iter:  81 03:22:15  -219.109527c -4.59  -4.14c
iter:  82 03:24:29  -219.109531c -4.47  -4.33c
iter:  83 03:26:46  -219.109538c -4.71  -4.30c
iter:  84 03:29:00  -219.109543c -4.74  -4.48c
Writing to output.gpw (mode='')

iter:  85 03:31:13  -219.109550c -4.61  -4.53c
iter:  86 03:33:24  -219.109554c -4.67  -4.78c
iter:  87 03:35:39  -219.109559c -4.75  -4.77c
iter:  88 03:37:58  -219.109563c -4.76  -4.96c
iter:  89 03:40:12  -219.109567c -4.67  -4.94c
Writing to output.gpw (mode='')

iter:  90 03:42:29  -219.109571c -4.71  -5.06c
iter:  91 03:44:44  -219.109574c -4.76  -5.11c
iter:  92 03:47:01  -219.109577c -4.85  -5.03c
iter:  93 03:49:21  -219.109580c -4.94  -4.85c
iter:  94 03:51:46  -219.109582c -4.90  -4.73c
Writing to output.gpw (mode='')

iter:  95 03:54:11  -219.109584c -4.97  -4.66c
iter:  96 03:56:28  -219.109586c -5.03  -4.57c
iter:  97 03:58:45  -219.109588c -4.97  -4.49c
iter:  98 04:00:36  -219.109590c -4.99  -4.48c
iter:  99 04:03:01  -219.109592c -5.02  -4.45c
Writing to output.gpw (mode='')

iter: 100 04:05:19  -219.109594c -5.12  -4.40c
iter: 101 04:07:38  -219.109595c -5.16  -4.35c
iter: 102 04:09:58  -219.109596c -5.18  -4.32c
iter: 103 04:12:20  -219.109598c -5.26  -4.27c
iter: 104 04:14:37  -219.109599c -5.24  -4.30c
Writing to output.gpw (mode='')

iter: 105 04:16:55  -219.109601c -5.38  -4.27c
iter: 106 04:19:01  -219.109601c -5.36  -4.24c
iter: 107 04:21:16  -219.109603c -5.32  -4.16c
iter: 108 04:23:29  -219.109602c -5.35  -4.39c
iter: 109 04:25:44  -219.109606c -5.36  -4.07c
Writing to output.gpw (mode='')

iter: 110 04:28:01  -219.109607c -5.50  -4.55c
iter: 111 04:29:41  -219.109607c -5.49  -4.57c
iter: 112 04:31:54  -219.109608c -5.53  -4.51c
iter: 113 04:34:10  -219.109609c -5.48  -4.39c
iter: 114 04:36:29  -219.109610c -5.50  -4.69c
Writing to output.gpw (mode='')

iter: 115 04:38:53  -219.109610c -5.55  -4.69c
iter: 116 04:41:12  -219.109611c -5.55  -4.69c
iter: 117 04:43:31  -219.109611c -5.54  -4.63c
iter: 118 04:45:46  -219.109611c -5.63  -4.39c
iter: 119 04:48:03  -219.109613c -5.31  -4.45c
Writing to output.gpw (mode='')

iter: 120 04:50:23  -219.109614c -5.13  -4.72c
iter: 121 04:52:31  -219.109615c -5.17  -4.81c
iter: 122 04:54:39  -219.109614c -5.53  -4.88c
iter: 123 04:56:49  -219.109615c -5.45  -5.01c
iter: 124 04:59:02  -219.109615c -5.60  -5.09c
Writing to output.gpw (mode='')

iter: 125 05:01:17  -219.109615c -5.52  -5.20c
iter: 126 05:03:30  -219.109615c -5.77  -5.31c
iter: 127 05:05:46  -219.109615c -5.75  -5.28c
iter: 128 05:07:53  -219.109616c -5.79  -5.10c
iter: 129 05:10:04  -219.109616c -5.83  -5.11c
Writing to output.gpw (mode='')

iter: 130 05:12:16  -219.109616c -5.93  -4.93c
iter: 131 05:14:30  -219.109616c -5.93  -4.90c
iter: 132 05:16:43  -219.109616c -5.99  -4.95c
iter: 133 05:18:50  -219.109616c -5.90  -4.88c
iter: 134 05:21:05  -219.109617c -5.94  -4.75c
Writing to output.gpw (mode='')

iter: 135 05:23:30  -219.109617c -5.99  -4.97c
iter: 136 05:25:47  -219.109617c -5.95  -5.13c
iter: 137 05:28:09  -219.109618c -6.03  -5.40c
iter: 138 05:30:30  -219.109618c -5.98  -5.38c
iter: 139 05:32:43  -219.109618c -6.08  -5.47c
Writing to output.gpw (mode='')

iter: 140 05:35:04  -219.109618c -6.04  -5.47c
iter: 141 05:37:26  -219.109618c -6.08  -5.48c
iter: 142 05:39:48  -219.109618c -5.90  -5.56c
iter: 143 05:42:04  -219.109618c -6.02  -5.66c
iter: 144 05:44:20  -219.109619c -6.08  -5.71c
Writing to output.gpw (mode='')

iter: 145 05:46:36  -219.109619c -6.21  -5.81c
iter: 146 05:48:54  -219.109619c -6.24  -5.84c
iter: 147 05:51:10  -219.109619c -6.25  -5.88c
iter: 148 05:53:40  -219.109619c -6.27  -5.82c
iter: 149 05:55:54  -219.109619c -6.34  -5.66c
Writing to output.gpw (mode='')

iter: 150 05:58:13  -219.109619c -6.37  -5.50c
iter: 151 06:00:31  -219.109619c -6.40  -5.44c
iter: 152 06:03:00  -219.109619c -6.42  -5.30c
iter: 153 06:05:22  -219.109619c -6.46  -5.22c
iter: 154 06:07:47  -219.109619c -6.46  -5.21c
Writing to output.gpw (mode='')

iter: 155 06:10:12  -219.109619c -6.44  -5.23c
iter: 156 06:12:30  -219.109619c -6.54  -5.41c
iter: 157 06:14:43  -219.109619c -6.53  -5.22c
iter: 158 06:17:04  -219.109619c -6.53  -5.26c
iter: 159 06:19:19  -219.109619c -6.65  -5.33c
Writing to output.gpw (mode='')

iter: 160 06:21:35  -219.109619c -6.47  -5.04c
iter: 161 06:24:00  -219.109619c -6.69  -5.46c
iter: 162 06:26:08  -219.109619c -6.56  -5.14c
iter: 163 06:28:18  -219.109620c -6.58  -5.34c
iter: 164 06:30:34  -219.109620c -6.63  -5.57c
Writing to output.gpw (mode='')

iter: 165 06:32:50  -219.109619c -6.71  -5.59c
iter: 166 06:35:07  -219.109620c -6.70  -5.35c
iter: 167 06:37:28  -219.109620c -6.73  -5.49c
iter: 168 06:39:43  -219.109620c -6.66  -5.54c
iter: 169 06:42:00  -219.109620c -6.74  -5.90c
Writing to output.gpw (mode='')

iter: 170 06:44:15  -219.109620c -6.71  -5.90c
iter: 171 06:46:22  -219.109620c -6.77  -6.06c
iter: 172 06:48:32  -219.109620c -6.78  -6.12c
iter: 173 06:50:49  -219.109620c -6.75  -6.12c
iter: 174 06:53:12  -219.109620c -6.76  -6.20c
Writing to output.gpw (mode='')

iter: 175 06:55:31  -219.109620c -6.78  -6.34c
iter: 176 06:57:50  -219.109620c -6.80  -6.13c
iter: 177 07:00:07  -219.109620c -6.80  -6.15c
iter: 178 07:02:28  -219.109620c -6.79  -6.04c
iter: 179 07:04:50  -219.109619c -6.78  -5.88c
Writing to output.gpw (mode='')

iter: 180 07:07:09  -219.109619c -6.80  -5.75c
iter: 181 07:09:36  -219.109619c -6.77  -5.71c
iter: 182 07:11:57  -219.109619c -6.79  -5.72c
iter: 183 07:14:19  -219.109619c -6.78  -5.68c
iter: 184 07:16:40  -219.109619c -6.77  -5.58c
Writing to output.gpw (mode='')

iter: 185 07:19:02  -219.109619c -6.73  -5.60c
iter: 186 07:21:23  -219.109619c -6.76  -5.63c
iter: 187 07:23:38  -219.109619c -6.73  -5.63c
iter: 188 07:26:00  -219.109619c -6.67  -5.81c
iter: 189 07:28:19  -219.109619c -6.74  -5.94c
Writing to output.gpw (mode='')

iter: 190 07:30:37  -219.109619c -6.72  -5.80c
iter: 191 07:32:58  -219.109619c -6.73  -6.08c
iter: 192 07:35:11  -219.109619c -6.66  -5.98c
iter: 193 07:37:27  -219.109619c -6.65  -6.19c
iter: 194 07:39:45  -219.109619c -6.65  -6.29c
Writing to output.gpw (mode='')

iter: 195 07:42:10  -219.109619c -6.70  -6.36c
iter: 196 07:44:32  -219.109619c -6.63  -6.35c
iter: 197 07:46:49  -219.109619c -6.69  -6.63c
iter: 198 07:49:13  -219.109618c -6.67  -6.53c
iter: 199 07:51:28  -219.109618c -6.63  -6.72c
Writing to output.gpw (mode='')

iter: 200 07:53:45  -219.109618c -6.63  -6.77c
iter: 201 07:56:02  -219.109618c -6.69  -6.81c
iter: 202 07:58:11  -219.109618c -6.69  -6.53c
iter: 203 08:00:29  -219.109618c -6.67  -6.61c
iter: 204 08:02:43  -219.109618c -6.62  -6.63c
Writing to output.gpw (mode='')

iter: 205 08:05:03  -219.109618c -6.69  -6.96c
iter: 206 08:07:20  -219.109618c -6.71  -6.93c
iter: 207 08:09:40  -219.109618c -6.71  -6.62c
iter: 208 08:11:58  -219.109618c -6.74  -6.45c
iter: 209 08:14:20  -219.109618c -6.72  -6.40c
Writing to output.gpw (mode='')

iter: 210 08:16:42  -219.109618c -6.74  -6.50c
iter: 211 08:19:06  -219.109618c -6.74  -6.50c
iter: 212 08:21:28  -219.109617c -6.80  -6.55c
iter: 213 08:23:49  -219.109617c -6.80  -6.43c
iter: 214 08:26:11  -219.109617c -6.78  -6.41c
Writing to output.gpw (mode='')

iter: 215 08:28:35  -219.109617c -6.75  -6.30c
iter: 216 08:30:57  -219.109617c -6.84  -6.52c
iter: 217 08:33:09  -219.109617c -6.85  -6.34c
iter: 218 08:35:27  -219.109617c -6.74  -6.35c
iter: 219 08:37:49  -219.109617c -6.90  -6.61c
Writing to output.gpw (mode='')

iter: 220 08:40:07  -219.109617c -6.83  -6.64c
iter: 221 08:42:36  -219.109617c -6.83  -6.93c
iter: 222 08:44:57  -219.109617c -6.87  -7.11c
iter: 223 08:47:16  -219.109617c -6.86  -7.10c
iter: 224 08:49:36  -219.109617c -6.83  -7.12c
Writing to output.gpw (mode='')

iter: 225 08:51:56  -219.109617c -6.88  -7.22c
iter: 226 08:54:13  -219.109617c -6.96  -7.24c
iter: 227 08:56:32  -219.109617c -6.95  -7.25c
iter: 228 08:58:47  -219.109617c -7.04  -7.10c
iter: 229 09:01:05  -219.109617c -7.02  -7.08c
Writing to output.gpw (mode='')

iter: 230 09:03:35  -219.109617c -6.92  -7.24c
iter: 231 09:06:02  -219.109617c -7.07  -7.36c
iter: 232 09:08:16  -219.109616c -7.10  -7.22c
iter: 233 09:10:38  -219.109616c -7.12  -7.10c
iter: 234 09:13:00  -219.109616c -7.13  -7.04c
Writing to output.gpw (mode='')

iter: 235 09:15:25  -219.109616c -7.18  -7.00c
iter: 236 09:17:55  -219.109616c -7.15  -6.99c
iter: 237 09:20:12  -219.109616c -7.08  -6.95c
iter: 238 09:22:25  -219.109616c -7.25  -6.95c
iter: 239 09:24:47  -219.109616c -7.25  -6.68c
Writing to output.gpw (mode='')

iter: 240 09:27:05  -219.109616c -7.33  -6.99c
iter: 241 09:29:25  -219.109616c -7.34  -6.92c
iter: 242 09:31:50  -219.109616c -7.23  -6.89c
iter: 243 09:34:03  -219.109616c -7.29  -7.00c
iter: 244 09:36:16  -219.109616c -7.41c -7.12c

Converged after 244 iterations.

Dipole moment: (-6.491919, -6.213958, -0.186875) |e|*Ang

Energy contributions relative to reference atoms: (reference = -8007.321583)

Kinetic:        +89.275251
Potential:      -78.938188
External:        +0.000000
XC:            -229.171817
Entropy (-ST):   -0.153032
Local:           -0.198345
--------------------------
Free energy:   -219.186132
Extrapolated:  -219.109616

Dipole-layer corrected work functions: 3.386321, 3.745560 eV

Showing only first 2 kpts
 Kpt  Band  Eigenvalues  Occupancy
  0    19     -3.81870    1.98733
  0    20     -3.72575    1.92138
  0    21     -3.42018    0.10282
  0    22     -3.31231    0.01246

  1    19     -3.62039    1.49639
  1    20     -3.55084    0.85015
  1    21     -3.52348    0.59917
  1    22     -3.50534    0.45872


Fermi level: -3.56594

No gap
Writing to output.gpw (mode='')


Forces in eV/Ang:
  0 Li   -0.00085   -0.00096   -0.27877
  1 Li    0.00000    0.00147   -0.26855
  2 Li    0.00085   -0.00096   -0.27877
  3 Li    0.00145    0.00009   -0.26842
  4 Li    0.00000   -0.00013   -0.27276
  5 Li   -0.00145    0.00009   -0.26842
  6 Li   -0.00100    0.00088   -0.27869
  7 Li   -0.00000   -0.00145   -0.26829
  8 Li    0.00100    0.00088   -0.27869
  9 Li   -0.00000   -0.00025    0.26122
 10 Li   -0.00349    0.00021    0.26506
 11 Li    0.00349    0.00021    0.26505
 12 Li   -0.00000   -0.00349    0.26440
 13 Li    0.00339    0.00383    0.25922
 14 Li   -0.00339    0.00382    0.25921
 15 Li    0.00000    0.00349    0.26570
 16 Li    0.00453   -0.00409    0.25888
 17 Li   -0.00453   -0.00409    0.25889
 18 Li    0.00322    0.00364    0.00901
 19 Li   -0.00000   -0.00392    0.04520
 20 Li   -0.00322    0.00364    0.00904
 21 Li   -0.00427    0.00006    0.04560
 22 Li    0.00000   -0.00049    0.03497
 23 Li    0.00426    0.00006    0.04559
 24 Li    0.00423   -0.00382    0.00996
 25 Li   -0.00000    0.00460    0.04601
 26 Li   -0.00423   -0.00381    0.00995
 27 Li    0.00003   -0.00130   -0.01896
 28 Li   -0.01478    0.00092    0.01542
 29 Li    0.01473    0.00092    0.01531
 30 Li   -0.00001   -0.01106    0.01066
 31 Li    0.00959    0.00981   -0.02125
 32 Li   -0.00959    0.00981   -0.02127
 33 Li   -0.00001    0.01844    0.01984
 34 Li    0.00905   -0.00886   -0.02112
 35 Li   -0.00906   -0.00886   -0.02112
 36 B     0.00889    0.02865   -0.26793
 37 H     0.07611    0.05763    0.04747
 38 H    -0.07421    0.04978    0.04797
 39 H    -0.00843   -0.15165    0.04819

System changes: positions 

Initializing position-dependent things.

Density initialized from wave functions
       .-----------------------.  
      /|                       |  
     / |                       |  
    /  |                       |  
   /   |                       |  
  /    |                       |  
 *     |                       |  
 |     |                       |  
 |     |                       |  
 |     |                      H|  
 |     |                       |  
 |     |                       |  
 |     Li                      |  
 |     |                       |  
 B  H  |     Li      LiH     Li|  
 |     |  Li      Li      Li   |  
 |     |   Li      Li      Li  |  
 |     |Li      Li      Li     |  
 |     | Li      Li            |  
 |   LLi     LLi     LLi       |  
 |     |  Li      Li      Li   |  
 | Li  |   Li      Li          |  
 |     |Li      Li      Li     |  
 Li    | Li      Li            |  
 |    Li      Li      Li       |  
 |     |                       |  
 |     |                       |  
 |     |                       |  
 |     |                       |  
 |     |                       |  
 |     |                       |  
 |     .-----------------------.  
 |    /                       /   
 |   /                       /    
 |  /                       /     
 | /                       /      
 |/                       /       
 *-----------------------*        

Positions:
   0 Li     1.617037    1.617037   10.000000    ( 0.0000,  0.0000,  0.0000)
   1 Li     4.851111    1.617037   10.000000    ( 0.0000,  0.0000,  0.0000)
   2 Li     8.085185    1.617037   10.000000    ( 0.0000,  0.0000,  0.0000)
   3 Li     1.617037    4.851111   10.000000    ( 0.0000,  0.0000,  0.0000)
   4 Li     4.851111    4.851111   10.000000    ( 0.0000,  0.0000,  0.0000)
   5 Li     8.085185    4.851111   10.000000    ( 0.0000,  0.0000,  0.0000)
   6 Li     1.617037    8.085185   10.000000    ( 0.0000,  0.0000,  0.0000)
   7 Li     4.851111    8.085185   10.000000    ( 0.0000,  0.0000,  0.0000)
   8 Li     8.085185    8.085185   10.000000    ( 0.0000,  0.0000,  0.0000)
   9 Li     0.000000    0.000000   11.617037    ( 0.0000,  0.0000,  0.0000)
  10 Li     3.234074    0.000000   11.617037    ( 0.0000,  0.0000,  0.0000)
  11 Li     6.468148    0.000000   11.617037    ( 0.0000,  0.0000,  0.0000)
  12 Li     0.000000    3.234074   11.617037    ( 0.0000,  0.0000,  0.0000)
  13 Li     3.234074    3.234074   11.617037    ( 0.0000,  0.0000,  0.0000)
  14 Li     6.468148    3.234074   11.617037    ( 0.0000,  0.0000,  0.0000)
  15 Li     0.000000    6.468148   11.617037    ( 0.0000,  0.0000,  0.0000)
  16 Li     3.234074    6.468148   11.617037    ( 0.0000,  0.0000,  0.0000)
  17 Li     6.468148    6.468148   11.617037    ( 0.0000,  0.0000,  0.0000)
  18 Li     1.617084    1.617090   13.469857    ( 0.0000,  0.0000,  0.0000)
  19 Li     4.851111    1.616982   13.470375    ( 0.0000,  0.0000,  0.0000)
  20 Li     8.085138    1.617090   13.469857    ( 0.0000,  0.0000,  0.0000)
  21 Li     1.616977    4.851112   13.470381    ( 0.0000,  0.0000,  0.0000)
  22 Li     4.851111    4.851104   13.470230    ( 0.0000,  0.0000,  0.0000)
  23 Li     8.085244    4.851112   13.470381    ( 0.0000,  0.0000,  0.0000)
  24 Li     1.617099    8.085129   13.469870    ( 0.0000,  0.0000,  0.0000)
  25 Li     4.851111    8.085249   13.470387    ( 0.0000,  0.0000,  0.0000)
  26 Li     8.085124    8.085129   13.469870    ( 0.0000,  0.0000,  0.0000)
  27 Li     0.000000   -0.000019   15.445668    ( 0.0000,  0.0000,  0.0000)
  28 Li     3.233863    0.000013   15.446159    ( 0.0000,  0.0000,  0.0000)
  29 Li     6.468359    0.000013   15.446158    ( 0.0000,  0.0000,  0.0000)
  30 Li    -0.000000    3.233916   15.446091    ( 0.0000,  0.0000,  0.0000)
  31 Li     3.234213    3.234217   15.445635    ( 0.0000,  0.0000,  0.0000)
  32 Li     6.468009    3.234217   15.445634    ( 0.0000,  0.0000,  0.0000)
  33 Li    -0.000000    6.468412   15.446222    ( 0.0000,  0.0000,  0.0000)
  34 Li     3.234206    6.468019   15.445636    ( 0.0000,  0.0000,  0.0000)
  35 Li     6.468016    6.468019   15.445636    ( 0.0000,  0.0000,  0.0000)
  36 B      9.702349    9.702631   18.442112    ( 0.0000,  0.0000,  0.0000)
  37 H     10.735878   10.295331   18.446617    ( 0.0000,  0.0000,  0.0000)
  38 H      8.671253   10.299892   18.446625    ( 0.0000,  0.0000,  0.0000)
  39 H      9.702188    8.511456   18.446628    ( 0.0000,  0.0000,  0.0000)

Unit cell:
           periodic     x           y           z      points  spacing
  1. axis:    yes    9.702222    0.000000    0.000000    60     0.1617
  2. axis:    yes    0.000000    9.702222    0.000000    60     0.1617
  3. axis:    no     0.000000    0.000000   24.851111   156     0.1593

  Lengths:   9.702222   9.702222  24.851111
  Angles:   90.000000  90.000000  90.000000

Effective grid spacing dv^(1/3) = 0.1609

     iter     time        total  log10-change:
                         energy  eigst   dens
iter:   1 09:39:06  -219.111687  -2.98
iter:   2 09:41:26  -219.111567  -3.92  -2.87
iter:   3 09:43:57  -219.111375c -3.50  -3.00
iter:   4 09:46:05  -219.111363c -4.73  -3.30
Writing to output.gpw (mode='')

iter:   5 09:48:21  -219.111355c -4.61  -3.42
iter:   6 09:50:31  -219.111347c -4.15  -3.63
iter:   7 09:52:54  -219.111347c -5.05  -3.62
iter:   8 09:55:12  -219.111346c -5.34  -3.88
iter:   9 09:57:30  -219.111347c -5.26  -3.97
Writing to output.gpw (mode='')

iter:  10 09:59:45  -219.111347c -5.63  -3.99
iter:  11 10:01:58  -219.111349c -5.53  -4.16c
iter:  12 10:04:15  -219.111348c -6.18  -4.22c
iter:  13 10:06:40  -219.111347c -6.59  -4.25c
iter:  14 10:08:59  -219.111345c -6.23  -4.34c
Writing to output.gpw (mode='')

iter:  15 10:11:17  -219.111345c -6.66  -4.59c
iter:  16 10:13:28  -219.111345c -6.93  -4.76c
iter:  17 10:15:42  -219.111346c -6.84  -4.78c
iter:  18 10:17:55  -219.111345c -7.19  -5.00c
iter:  19 10:20:15  -219.111345c -6.81  -5.13c
Writing to output.gpw (mode='')

iter:  20 10:22:21  -219.111345c -7.31  -5.06c
iter:  21 10:24:35  -219.111346c -7.22  -5.25c
iter:  22 10:26:49  -219.111345c -7.52c -5.40c

Converged after 22 iterations.

Dipole moment: (-6.497634, -6.237799, -0.189363) |e|*Ang

Energy contributions relative to reference atoms: (reference = -8007.321583)

Kinetic:        +89.134054
Potential:      -78.834408
External:        +0.000000
XC:            -229.136158
Entropy (-ST):   -0.153012
Local:           -0.198328
--------------------------
Free energy:   -219.187851
Extrapolated:  -219.111345

Dipole-layer corrected work functions: 3.386299, 3.750320 eV

Showing only first 2 kpts
 Kpt  Band  Eigenvalues  Occupancy
  0    19     -3.82093    1.98729
  0    20     -3.72803    1.92125
  0    21     -3.42267    0.10305
  0    22     -3.31454    0.01242

  1    19     -3.62316    1.49938
  1    20     -3.55304    0.84852
  1    21     -3.52594    0.59996
  1    22     -3.50764    0.45821


Fermi level: -3.56831

No gap
Writing to output.gpw (mode='')


Forces in eV/Ang:
  0 Li   -0.00087   -0.00098   -0.27883
  1 Li    0.00000    0.00150   -0.26853
  2 Li    0.00086   -0.00097   -0.27883
  3 Li    0.00148    0.00009   -0.26840
  4 Li    0.00000   -0.00013   -0.27287
  5 Li   -0.00149    0.00009   -0.26840
  6 Li   -0.00100    0.00089   -0.27875
  7 Li   -0.00000   -0.00148   -0.26827
  8 Li    0.00101    0.00089   -0.27875
  9 Li   -0.00000   -0.00027    0.26141
 10 Li   -0.00338    0.00021    0.26540
 11 Li    0.00338    0.00022    0.26539
 12 Li   -0.00000   -0.00338    0.26473
 13 Li    0.00348    0.00393    0.25966
 14 Li   -0.00348    0.00394    0.25965
 15 Li    0.00000    0.00340    0.26605
 16 Li    0.00466   -0.00421    0.25930
 17 Li   -0.00466   -0.00421    0.25930
 18 Li    0.00321    0.00361    0.00860
 19 Li    0.00000   -0.00407    0.04421
 20 Li   -0.00321    0.00361    0.00862
 21 Li   -0.00442    0.00011    0.04461
 22 Li   -0.00000   -0.00048    0.03384
 23 Li    0.00442    0.00011    0.04461
 24 Li    0.00422   -0.00381    0.00950
 25 Li    0.00000    0.00475    0.04503
 26 Li   -0.00422   -0.00381    0.00949
 27 Li    0.00001   -0.00132   -0.01955
 28 Li   -0.01498    0.00094    0.01596
 29 Li    0.01491    0.00093    0.01585
 30 Li   -0.00000   -0.01130    0.01124
 31 Li    0.00947    0.00970   -0.02060
 32 Li   -0.00948    0.00970   -0.02063
 33 Li   -0.00000    0.01865    0.02046
 34 Li    0.00896   -0.00876   -0.02048
 35 Li   -0.00897   -0.00876   -0.02048
 36 B     0.00501   -0.00519   -0.22699
 37 H     0.05389    0.04412    0.03571
 38 H    -0.04945    0.03563    0.03612
 39 H    -0.00743   -0.09057    0.03540

System changes: positions 

Initializing position-dependent things.

Density initialized from wave functions
       .-----------------------.  
      /|                       |  
     / |                       |  
    /  |                       |  
   /   |                       |  
  /    |                       |  
 *     |                       |  
 |     |                       |  
 |     |                       |  
 |     |                      H|  
 |     |                       |  
 |     |                       |  
 |     Li                      |  
 |     |                       |  
 B  H  |     Li      LiH     Li|  
 |     |  Li      Li      Li   |  
 |     |   Li      Li      Li  |  
 |     |Li      Li      Li     |  
 |     | Li      Li            |  
 |   LLi     LLi     LLi       |  
 |     |  Li      Li      Li   |  
 | Li  |   Li      Li          |  
 |     |Li      Li      Li     |  
 Li    | Li      Li            |  
 |    Li      Li      Li       |  
 |     |                       |  
 |     |                       |  
 |     |                       |  
 |     |                       |  
 |     |                       |  
 |     |                       |  
 |     .-----------------------.  
 |    /                       /   
 |   /                       /    
 |  /                       /     
 | /                       /      
 |/                       /       
 *-----------------------*        

Positions:
   0 Li     1.617037    1.617037   10.000000    ( 0.0000,  0.0000,  0.0000)
   1 Li     4.851111    1.617037   10.000000    ( 0.0000,  0.0000,  0.0000)
   2 Li     8.085185    1.617037   10.000000    ( 0.0000,  0.0000,  0.0000)
   3 Li     1.617037    4.851111   10.000000    ( 0.0000,  0.0000,  0.0000)
   4 Li     4.851111    4.851111   10.000000    ( 0.0000,  0.0000,  0.0000)
   5 Li     8.085185    4.851111   10.000000    ( 0.0000,  0.0000,  0.0000)
   6 Li     1.617037    8.085185   10.000000    ( 0.0000,  0.0000,  0.0000)
   7 Li     4.851111    8.085185   10.000000    ( 0.0000,  0.0000,  0.0000)
   8 Li     8.085185    8.085185   10.000000    ( 0.0000,  0.0000,  0.0000)
   9 Li     0.000000    0.000000   11.617037    ( 0.0000,  0.0000,  0.0000)
  10 Li     3.234074    0.000000   11.617037    ( 0.0000,  0.0000,  0.0000)
  11 Li     6.468148    0.000000   11.617037    ( 0.0000,  0.0000,  0.0000)
  12 Li     0.000000    3.234074   11.617037    ( 0.0000,  0.0000,  0.0000)
  13 Li     3.234074    3.234074   11.617037    ( 0.0000,  0.0000,  0.0000)
  14 Li     6.468148    3.234074   11.617037    ( 0.0000,  0.0000,  0.0000)
  15 Li     0.000000    6.468148   11.617037    ( 0.0000,  0.0000,  0.0000)
  16 Li     3.234074    6.468148   11.617037    ( 0.0000,  0.0000,  0.0000)
  17 Li     6.468148    6.468148   11.617037    ( 0.0000,  0.0000,  0.0000)
  18 Li     1.617323    1.617359   13.470499    ( 0.0000,  0.0000,  0.0000)
  19 Li     4.851111    1.616681   13.473667    ( 0.0000,  0.0000,  0.0000)
  20 Li     8.084899    1.617359   13.470500    ( 0.0000,  0.0000,  0.0000)
  21 Li     1.616650    4.851120   13.473702    ( 0.0000,  0.0000,  0.0000)
  22 Li     4.851111    4.851068   13.472751    ( 0.0000,  0.0000,  0.0000)
  23 Li     8.085572    4.851120   13.473702    ( 0.0000,  0.0000,  0.0000)
  24 Li     1.617412    8.084846   13.470579    ( 0.0000,  0.0000,  0.0000)
  25 Li     4.851111    8.085602   13.473739    ( 0.0000,  0.0000,  0.0000)
  26 Li     8.084810    8.084846   13.470578    ( 0.0000,  0.0000,  0.0000)
  27 Li     0.000001   -0.000117   15.444220    ( 0.0000,  0.0000,  0.0000)
  28 Li     3.232751    0.000083   15.447342    ( 0.0000,  0.0000,  0.0000)
  29 Li     6.469466    0.000082   15.447332    ( 0.0000,  0.0000,  0.0000)
  30 Li    -0.000000    3.233078   15.446923    ( 0.0000,  0.0000,  0.0000)
  31 Li     3.234918    3.234938   15.444099    ( 0.0000,  0.0000,  0.0000)
  32 Li     6.467304    3.234938   15.444097    ( 0.0000,  0.0000,  0.0000)
  33 Li    -0.000000    6.469797   15.447739    ( 0.0000,  0.0000,  0.0000)
  34 Li     3.234872    6.467367   15.444111    ( 0.0000,  0.0000,  0.0000)
  35 Li     6.467349    6.467367   15.444111    ( 0.0000,  0.0000,  0.0000)
  36 B      9.702746    9.702456   18.424989    ( 0.0000,  0.0000,  0.0000)
  37 H     10.740021   10.298694   18.449345    ( 0.0000,  0.0000,  0.0000)
  38 H      8.667424   10.302628   18.449382    ( 0.0000,  0.0000,  0.0000)
  39 H      9.701629    8.504345   18.449338    ( 0.0000,  0.0000,  0.0000)

Unit cell:
           periodic     x           y           z      points  spacing
  1. axis:    yes    9.702222    0.000000    0.000000    60     0.1617
  2. axis:    yes    0.000000    9.702222    0.000000    60     0.1617
  3. axis:    no     0.000000    0.000000   24.851111   156     0.1593

  Lengths:   9.702222   9.702222  24.851111
  Angles:   90.000000  90.000000  90.000000

Effective grid spacing dv^(1/3) = 0.1609

     iter     time        total  log10-change:
                         energy  eigst   dens
iter:   1 10:29:32  -219.121754  -1.69
iter:   2 10:31:52  -219.118575  -2.52  -2.08
iter:   3 10:34:03  -219.117192c -3.07  -2.44
iter:   4 10:36:16  -219.115328c -2.35  -2.45
Writing to output.gpw (mode='')

iter:   5 10:38:34  -219.115240c -3.65  -2.67
iter:   6 10:40:48  -219.115010c -2.91  -2.86
iter:   7 10:43:13  -219.114990c -3.31  -3.01
iter:   8 10:45:40  -219.114985c -3.67  -3.10
iter:   9 10:47:53  -219.114984c -4.05  -3.30
Writing to output.gpw (mode='')

iter:  10 10:50:09  -219.114981c -4.31  -3.40
iter:  11 10:52:24  -219.114989c -4.31  -3.63
iter:  12 10:54:44  -219.114983c -5.07  -3.61
iter:  13 10:57:05  -219.114979c -5.15  -3.68
iter:  14 10:59:19  -219.114973c -5.07  -3.87
Writing to output.gpw (mode='')

iter:  15 11:01:30  -219.114974c -5.46  -4.04c
iter:  16 11:03:47  -219.114974c -5.43  -4.04c
iter:  17 11:06:11  -219.114975c -6.12  -4.16c
iter:  18 11:08:33  -219.114976c -6.11  -4.28c
iter:  19 11:10:54  -219.114976c -6.17  -4.38c
Writing to output.gpw (mode='')

iter:  20 11:13:11  -219.114977c -6.33  -4.48c
iter:  21 11:15:31  -219.114978c -6.37  -4.61c
iter:  22 11:17:50  -219.114977c -6.59  -4.58c
iter:  23 11:20:13  -219.114977c -6.56  -4.71c
iter:  24 11:22:29  -219.114977c -6.93  -4.78c
Writing to output.gpw (mode='')

iter:  25 11:24:40  -219.114977c -7.02  -5.03c
iter:  26 11:26:59  -219.114977c -7.05  -5.16c
iter:  27 11:29:06  -219.114977c -7.15  -5.27c
iter:  28 11:31:18  -219.114977c -7.19  -5.34c
iter:  29 11:33:25  -219.114977c -7.46c -5.42c

Converged after 29 iterations.

Dipole moment: (-6.510326, -6.215799, -0.200304) |e|*Ang

Energy contributions relative to reference atoms: (reference = -8007.321583)

Kinetic:        +88.619618
Potential:      -78.452287
External:        +0.000000
XC:            -229.007726
Entropy (-ST):   -0.152921
Local:           -0.198122
--------------------------
Free energy:   -219.191438
Extrapolated:  -219.114977

Dipole-layer corrected work functions: 3.386239, 3.771291 eV

Showing only first 2 kpts
 Kpt  Band  Eigenvalues  Occupancy
  0    19     -3.83073    1.98713
  0    20     -3.73811    1.92068
  0    21     -3.43366    0.10410
  0    22     -3.32427    0.01224

  1    19     -3.63542    1.51284
  1    20     -3.56273    0.84103
  1    21     -3.53688    0.60403
  1    22     -3.51780    0.45610


Fermi level: -3.57876

No gap
Writing to output.gpw (mode='')


Forces in eV/Ang:
  0 Li   -0.00091   -0.00104   -0.27921
  1 Li    0.00000    0.00164   -0.26846
  2 Li    0.00091   -0.00104   -0.27921
  3 Li    0.00163    0.00010   -0.26832
  4 Li    0.00001   -0.00016   -0.27346
  5 Li   -0.00163    0.00010   -0.26832
  6 Li   -0.00107    0.00095   -0.27911
  7 Li    0.00000   -0.00162   -0.26819
  8 Li    0.00107    0.00094   -0.27911
  9 Li   -0.00000   -0.00035    0.26246
 10 Li   -0.00278    0.00021    0.26707
 11 Li    0.00279    0.00021    0.26706
 12 Li    0.00000   -0.00277    0.26638
 13 Li    0.00400    0.00451    0.26191
 14 Li   -0.00400    0.00452    0.26190
 15 Li    0.00000    0.00283    0.26776
 16 Li    0.00529   -0.00478    0.26155
 17 Li   -0.00529   -0.00479    0.26154
 18 Li    0.00318    0.00353    0.00653
 19 Li    0.00000   -0.00480    0.03918
 20 Li   -0.00318    0.00354    0.00651
 21 Li   -0.00515    0.00027    0.03956
 22 Li   -0.00000   -0.00040    0.02797
 23 Li    0.00516    0.00027    0.03956
 24 Li    0.00411   -0.00373    0.00739
 25 Li    0.00000    0.00548    0.03995
 26 Li   -0.00412   -0.00374    0.00737
 27 Li   -0.00002   -0.00114   -0.02160
 28 Li   -0.01582    0.00095    0.01865
 29 Li    0.01571    0.00094    0.01853
 30 Li    0.00000   -0.01213    0.01395
 31 Li    0.00891    0.00915   -0.01732
 32 Li   -0.00892    0.00916   -0.01735
 33 Li   -0.00000    0.01949    0.02317
 34 Li    0.00842   -0.00821   -0.01718
 35 Li   -0.00843   -0.00822   -0.01718
 36 B    -0.00107   -0.03941   -0.04695
 37 H    -0.04717   -0.02321   -0.01612
 38 H     0.05377   -0.02873   -0.01700
 39 H    -0.00298    0.07891   -0.02098

System changes: positions 

Initializing position-dependent things.

Density initialized from wave functions
       .-----------------------.  
      /|                       |  
     / |                       |  
    /  |                       |  
   /   |                       |  
  /    |                       |  
 *     |                       |  
 |     |                       |  
 |     B                       |  
 |     |                      H|  
 |     |                       |  
 |     |                       |  
 |     Li                      |  
 |     |                       |  
 |  H  |     Li      LiH     Li|  
 |     |  Li      Li      Li   |  
 |     |   Li      Li      Li  |  
 |     |Li      Li      Li     |  
 |     | Li      Li            |  
 |   LLi     LLi     LLi       |  
 |     |  Li      Li      Li   |  
 | Li  |   Li      Li          |  
 |     |Li      Li      Li     |  
 Li    | Li      Li            |  
 |    Li      Li      Li       |  
 |     |                       |  
 |     |                       |  
 |     |                       |  
 |     |                       |  
 |     |                       |  
 |     |                       |  
 |     .-----------------------.  
 |    /                       /   
 |   /                       /    
 |  /                       /     
 | /                       /      
 |/                       /       
 *-----------------------*        

Positions:
   0 Li     1.617037    1.617037   10.000000    ( 0.0000,  0.0000,  0.0000)
   1 Li     4.851111    1.617037   10.000000    ( 0.0000,  0.0000,  0.0000)
   2 Li     8.085185    1.617037   10.000000    ( 0.0000,  0.0000,  0.0000)
   3 Li     1.617037    4.851111   10.000000    ( 0.0000,  0.0000,  0.0000)
   4 Li     4.851111    4.851111   10.000000    ( 0.0000,  0.0000,  0.0000)
   5 Li     8.085185    4.851111   10.000000    ( 0.0000,  0.0000,  0.0000)
   6 Li     1.617037    8.085185   10.000000    ( 0.0000,  0.0000,  0.0000)
   7 Li     4.851111    8.085185   10.000000    ( 0.0000,  0.0000,  0.0000)
   8 Li     8.085185    8.085185   10.000000    ( 0.0000,  0.0000,  0.0000)
   9 Li     0.000000    0.000000   11.617037    ( 0.0000,  0.0000,  0.0000)
  10 Li     3.234074    0.000000   11.617037    ( 0.0000,  0.0000,  0.0000)
  11 Li     6.468148    0.000000   11.617037    ( 0.0000,  0.0000,  0.0000)
  12 Li     0.000000    3.234074   11.617037    ( 0.0000,  0.0000,  0.0000)
  13 Li     3.234074    3.234074   11.617037    ( 0.0000,  0.0000,  0.0000)
  14 Li     6.468148    3.234074   11.617037    ( 0.0000,  0.0000,  0.0000)
  15 Li     0.000000    6.468148   11.617037    ( 0.0000,  0.0000,  0.0000)
  16 Li     3.234074    6.468148   11.617037    ( 0.0000,  0.0000,  0.0000)
  17 Li     6.468148    6.468148   11.617037    ( 0.0000,  0.0000,  0.0000)
  18 Li     1.617402    1.617447   13.470682    ( 0.0000,  0.0000,  0.0000)
  19 Li     4.851111    1.616569   13.474691    ( 0.0000,  0.0000,  0.0000)
  20 Li     8.084820    1.617447   13.470684    ( 0.0000,  0.0000,  0.0000)
  21 Li     1.616529    4.851125   13.474736    ( 0.0000,  0.0000,  0.0000)
  22 Li     4.851111    4.851058   13.473506    ( 0.0000,  0.0000,  0.0000)
  23 Li     8.085693    4.851125   13.474736    ( 0.0000,  0.0000,  0.0000)
  24 Li     1.617515    8.084753   13.470784    ( 0.0000,  0.0000,  0.0000)
  25 Li     4.851111    8.085730   13.474783    ( 0.0000,  0.0000,  0.0000)
  26 Li     8.084707    8.084753   13.470783    ( 0.0000,  0.0000,  0.0000)
  27 Li     0.000001   -0.000147   15.443705    ( 0.0000,  0.0000,  0.0000)
  28 Li     3.232367    0.000106   15.447777    ( 0.0000,  0.0000,  0.0000)
  29 Li     6.469847    0.000106   15.447765    ( 0.0000,  0.0000,  0.0000)
  30 Li    -0.000000    3.232785   15.447241    ( 0.0000,  0.0000,  0.0000)
  31 Li     3.235145    3.235171   15.443636    ( 0.0000,  0.0000,  0.0000)
  32 Li     6.467076    3.235171   15.443633    ( 0.0000,  0.0000,  0.0000)
  33 Li    -0.000000    6.470272   15.448286    ( 0.0000,  0.0000,  0.0000)
  34 Li     3.235087    6.467158   15.443650    ( 0.0000,  0.0000,  0.0000)
  35 Li     6.467134    6.467158   15.443650    ( 0.0000,  0.0000,  0.0000)
  36 B      9.702794    9.701955   18.421956    ( 0.0000,  0.0000,  0.0000)
  37 H     10.739894   10.298807   18.449482    ( 0.0000,  0.0000,  0.0000)
  38 H      8.667682   10.302580   18.449510    ( 0.0000,  0.0000,  0.0000)
  39 H      9.701509    8.504441   18.449402    ( 0.0000,  0.0000,  0.0000)

Unit cell:
           periodic     x           y           z      points  spacing
  1. axis:    yes    9.702222    0.000000    0.000000    60     0.1617
  2. axis:    yes    0.000000    9.702222    0.000000    60     0.1617
  3. axis:    no     0.000000    0.000000   24.851111   156     0.1593

  Lengths:   9.702222   9.702222  24.851111
  Angles:   90.000000  90.000000  90.000000

Effective grid spacing dv^(1/3) = 0.1609

     iter     time        total  log10-change:
                         energy  eigst   dens
iter:   1 11:36:09  -219.117202  -2.56
iter:   2 11:38:27  -219.115580  -3.13  -2.31
iter:   3 11:40:50  -219.115455c -4.45  -2.78
iter:   4 11:43:13  -219.115421c -4.18  -3.20
Writing to output.gpw (mode='')

iter:   5 11:45:37  -219.115402c -3.82  -3.48
iter:   6 11:47:57  -219.115418c -4.81  -3.50
iter:   7 11:50:09  -219.115411c -4.37  -3.90
iter:   8 11:52:32  -219.115416c -5.24  -3.74
iter:   9 11:54:51  -219.115423c -5.16  -4.13c
Writing to output.gpw (mode='')

iter:  10 11:57:12  -219.115422c -5.92  -4.19c
iter:  11 11:59:24  -219.115421c -5.69  -4.33c
iter:  12 12:01:36  -219.115422c -6.27  -4.36c
iter:  13 12:03:57  -219.115421c -6.30  -4.40c
iter:  14 12:06:18  -219.115421c -6.33  -4.64c
Writing to output.gpw (mode='')

iter:  15 12:08:31  -219.115421c -6.60  -4.74c
iter:  16 12:10:51  -219.115421c -6.78  -4.76c
iter:  17 12:13:06  -219.115422c -6.91  -4.79c
iter:  18 12:15:24  -219.115422c -6.92  -4.83c
iter:  19 12:17:39  -219.115422c -7.24  -5.16c
Writing to output.gpw (mode='')

iter:  20 12:20:00  -219.115422c -7.32  -5.11c
iter:  21 12:22:19  -219.115422c -7.25  -5.36c
iter:  22 12:24:41  -219.115422c -7.08  -5.47c
iter:  23 12:26:58  -219.115422c -7.32  -5.55c
iter:  24 12:29:16  -219.115422c -7.35  -5.56c
Writing to output.gpw (mode='')

iter:  25 12:31:49  -219.115422c -7.50c -5.54c

Converged after 25 iterations.

Dipole moment: (-6.510126, -6.183087, -0.201743) |e|*Ang

Energy contributions relative to reference atoms: (reference = -8007.321583)

Kinetic:        +88.626855
Potential:      -78.456178
External:        +0.000000
XC:            -229.011404
Entropy (-ST):   -0.152917
Local:           -0.198237
--------------------------
Free energy:   -219.191881
Extrapolated:  -219.115422

Dipole-layer corrected work functions: 3.386279, 3.774098 eV

Showing only first 2 kpts
 Kpt  Band  Eigenvalues  Occupancy
  0    19     -3.83193    1.98707
  0    20     -3.73946    1.92057
  0    21     -3.43514    0.10421
  0    22     -3.32545    0.01218

  1    19     -3.63713    1.51490
  1    20     -3.56402    0.83974
  1    21     -3.53847    0.60542
  1    22     -3.51922    0.45610


Fermi level: -3.58019

No gap

Forces in eV/Ang:
  0 Li   -0.00092   -0.00106   -0.27931
  1 Li    0.00000    0.00168   -0.26846
  2 Li    0.00092   -0.00105   -0.27931
  3 Li    0.00166    0.00010   -0.26833
  4 Li    0.00001   -0.00017   -0.27366
  5 Li   -0.00166    0.00010   -0.26833
  6 Li   -0.00109    0.00096   -0.27920
  7 Li    0.00000   -0.00164   -0.26819
  8 Li    0.00109    0.00095   -0.27920
  9 Li   -0.00000   -0.00037    0.26277
 10 Li   -0.00259    0.00020    0.26753
 11 Li    0.00259    0.00020    0.26752
 12 Li    0.00000   -0.00256    0.26684
 13 Li    0.00416    0.00468    0.26258
 14 Li   -0.00416    0.00469    0.26257
 15 Li    0.00000    0.00264    0.26821
 16 Li    0.00545   -0.00493    0.26224
 17 Li   -0.00546   -0.00495    0.26223
 18 Li    0.00315    0.00349    0.00605
 19 Li    0.00000   -0.00502    0.03763
 20 Li   -0.00316    0.00350    0.00603
 21 Li   -0.00537    0.00031    0.03799
 22 Li   -0.00001   -0.00036    0.02618
 23 Li    0.00537    0.00031    0.03800
 24 Li    0.00404   -0.00368    0.00694
 25 Li    0.00000    0.00569    0.03837
 26 Li   -0.00404   -0.00369    0.00692
 27 Li   -0.00003   -0.00101   -0.02195
 28 Li   -0.01594    0.00093    0.01915
 29 Li    0.01583    0.00093    0.01902
 30 Li    0.00000   -0.01222    0.01445
 31 Li    0.00869    0.00893   -0.01642
 32 Li   -0.00870    0.00893   -0.01644
 33 Li    0.00000    0.01957    0.02356
 34 Li    0.00820   -0.00799   -0.01626
 35 Li   -0.00820   -0.00799   -0.01627
 36 B     0.00052   -0.02195   -0.02023
 37 H    -0.04950   -0.02731   -0.02467
 38 H     0.05399   -0.03087   -0.02569
 39 H    -0.00217    0.06728   -0.02896

System changes: positions 

Initializing position-dependent things.

Density initialized from wave functions
       .-----------------------.  
      /|                       |  
     / |                       |  
    /  |                       |  
   /   |                       |  
  /    |                       |  
 *     |                       |  
 |     |                       |  
 |     B                       |  
 |     |                      H|  
 |     |                       |  
 |     |                       |  
 |     |                       Li 
 |     |                       |  
 |  H  |     Li      LiH     Li|  
 |     |  Li      Li      Li   |  
 |     |   Li      Li      Li  |  
 |     |Li      Li      Li     |  
 |     | Li      Li            |  
 |   LLi     LLi     LLi       |  
 |     |  Li      Li      Li   |  
 | Li  |   Li      Li          |  
 |     |Li      Li      Li     |  
 Li    | Li      Li            |  
 |    Li      Li      Li       |  
 |     |                       |  
 |     |                       |  
 |     |                       |  
 |     |                       |  
 |     |                       |  
 |     |                       |  
 |     .-----------------------.  
 |    /                       /   
 |   /                       /    
 |  /                       /     
 | /                       /      
 |/                       /       
 *-----------------------*        

Positions:
   0 Li     1.617037    1.617037   10.000000    ( 0.0000,  0.0000,  0.0000)
   1 Li     4.851111    1.617037   10.000000    ( 0.0000,  0.0000,  0.0000)
   2 Li     8.085185    1.617037   10.000000    ( 0.0000,  0.0000,  0.0000)
   3 Li     1.617037    4.851111   10.000000    ( 0.0000,  0.0000,  0.0000)
   4 Li     4.851111    4.851111   10.000000    ( 0.0000,  0.0000,  0.0000)
   5 Li     8.085185    4.851111   10.000000    ( 0.0000,  0.0000,  0.0000)
   6 Li     1.617037    8.085185   10.000000    ( 0.0000,  0.0000,  0.0000)
   7 Li     4.851111    8.085185   10.000000    ( 0.0000,  0.0000,  0.0000)
   8 Li     8.085185    8.085185   10.000000    ( 0.0000,  0.0000,  0.0000)
   9 Li     0.000000    0.000000   11.617037    ( 0.0000,  0.0000,  0.0000)
  10 Li     3.234074    0.000000   11.617037    ( 0.0000,  0.0000,  0.0000)
  11 Li     6.468148    0.000000   11.617037    ( 0.0000,  0.0000,  0.0000)
  12 Li     0.000000    3.234074   11.617037    ( 0.0000,  0.0000,  0.0000)
  13 Li     3.234074    3.234074   11.617037    ( 0.0000,  0.0000,  0.0000)
  14 Li     6.468148    3.234074   11.617037    ( 0.0000,  0.0000,  0.0000)
  15 Li     0.000000    6.468148   11.617037    ( 0.0000,  0.0000,  0.0000)
  16 Li     3.234074    6.468148   11.617037    ( 0.0000,  0.0000,  0.0000)
  17 Li     6.468148    6.468148   11.617037    ( 0.0000,  0.0000,  0.0000)
  18 Li     1.617825    1.617919   13.471603    ( 0.0000,  0.0000,  0.0000)
  19 Li     4.851111    1.615944   13.480009    ( 0.0000,  0.0000,  0.0000)
  20 Li     8.084396    1.617920   13.471604    ( 0.0000,  0.0000,  0.0000)
  21 Li     1.615858    4.851156   13.480104    ( 0.0000,  0.0000,  0.0000)
  22 Li     4.851110    4.851004   13.477347    ( 0.0000,  0.0000,  0.0000)
  23 Li     8.086364    4.851156   13.480104    ( 0.0000,  0.0000,  0.0000)
  24 Li     1.618062    8.084256   13.471824    ( 0.0000,  0.0000,  0.0000)
  25 Li     4.851111    8.086445   13.480203    ( 0.0000,  0.0000,  0.0000)
  26 Li     8.084159    8.084255   13.471821    ( 0.0000,  0.0000,  0.0000)
  27 Li    -0.000000   -0.000295   15.440890    ( 0.0000,  0.0000,  0.0000)
  28 Li     3.230286    0.000231   15.450188    ( 0.0000,  0.0000,  0.0000)
  29 Li     6.471916    0.000229   15.450159    ( 0.0000,  0.0000,  0.0000)
  30 Li    -0.000001    3.231198   15.449024    ( 0.0000,  0.0000,  0.0000)
  31 Li     3.236340    3.236397   15.441257    ( 0.0000,  0.0000,  0.0000)
  32 Li     6.465880    3.236398   15.441251    ( 0.0000,  0.0000,  0.0000)
  33 Li    -0.000001    6.472839   15.451289    ( 0.0000,  0.0000,  0.0000)
  34 Li     3.236215    6.466057   15.441291    ( 0.0000,  0.0000,  0.0000)
  35 Li     6.466005    6.466056   15.441290    ( 0.0000,  0.0000,  0.0000)
  36 B      9.703073    9.699963   18.410122    ( 0.0000,  0.0000,  0.0000)
  37 H     10.737592   10.298161   18.448879    ( 0.0000,  0.0000,  0.0000)
  38 H      8.670579   10.301243   18.448829    ( 0.0000,  0.0000,  0.0000)
  39 H      9.700985    8.506614   18.448379    ( 0.0000,  0.0000,  0.0000)

Unit cell:
           periodic     x           y           z      points  spacing
  1. axis:    yes    9.702222    0.000000    0.000000    60     0.1617
  2. axis:    yes    0.000000    9.702222    0.000000    60     0.1617
  3. axis:    no     0.000000    0.000000   24.851111   156     0.1593

  Lengths:   9.702222   9.702222  24.851111
  Angles:   90.000000  90.000000  90.000000

Effective grid spacing dv^(1/3) = 0.1609

     iter     time        total  log10-change:
                         energy  eigst   dens
iter:   1 12:34:34  -219.172223  -1.07
iter:   2 12:36:49  -219.122914  -1.62  -1.55
iter:   3 12:38:58  -219.117297  -2.95  -2.00
iter:   4 12:41:12  -219.116800c -2.59  -2.48
Writing to output.gpw (mode='')

iter:   5 12:43:32  -219.116956c -2.18  -2.78
iter:   6 12:45:50  -219.117334c -2.81  -2.78
iter:   7 12:48:10  -219.117058c -2.64  -2.70
iter:   8 12:50:30  -219.116981c -3.61  -2.85
iter:   9 12:52:45  -219.116990c -3.96  -3.11
Writing to output.gpw (mode='')

iter:  10 12:55:06  -219.117022c -3.79  -3.29
iter:  11 12:57:36  -219.117024c -4.25  -3.61
iter:  12 12:59:55  -219.117027c -4.63  -3.63
iter:  13 13:02:10  -219.117029c -4.72  -3.64
iter:  14 13:04:21  -219.117045c -4.27  -3.65
Writing to output.gpw (mode='')

iter:  15 13:06:43  -219.117043c -4.96  -3.64
iter:  16 13:09:07  -219.117035c -4.59  -3.75
iter:  17 13:11:30  -219.117038c -5.12  -4.07c
iter:  18 13:13:51  -219.117043c -5.39  -4.08c
iter:  19 13:16:29  -219.117039c -5.00  -4.15c
Writing to output.gpw (mode='')

iter:  20 13:18:50  -219.117044c -5.63  -4.10c
iter:  21 13:21:08  -219.117043c -5.87  -4.53c
iter:  22 13:23:22  -219.117044c -5.92  -4.46c
iter:  23 13:25:35  -219.117045c -5.85  -4.58c
iter:  24 13:27:54  -219.117045c -6.15  -4.69c
Writing to output.gpw (mode='')

iter:  25 13:30:28  -219.117045c -6.17  -4.69c
iter:  26 13:32:45  -219.117045c -6.51  -4.77c
iter:  27 13:35:02  -219.117045c -6.29  -4.84c
iter:  28 13:37:20  -219.117045c -6.59  -4.90c
iter:  29 13:39:32  -219.117045c -6.70  -5.04c
Writing to output.gpw (mode='')

iter:  30 13:41:57  -219.117045c -6.62  -5.08c
iter:  31 13:44:17  -219.117045c -6.78  -5.12c
iter:  32 13:46:34  -219.117045c -6.95  -5.24c
iter:  33 13:48:50  -219.117046c -7.09  -5.25c
iter:  34 13:51:11  -219.117046c -7.10  -5.36c
Writing to output.gpw (mode='')

iter:  35 13:53:46  -219.117046c -7.15  -5.45c
iter:  36 13:56:00  -219.117046c -7.17  -5.59c
iter:  37 13:58:28  -219.117046c -7.30  -5.65c
iter:  38 14:00:42  -219.117046c -7.63c -5.56c

Converged after 38 iterations.

Dipole moment: (-6.513297, -6.056781, -0.206736) |e|*Ang

Energy contributions relative to reference atoms: (reference = -8007.321583)

Kinetic:        +88.829478
Potential:      -78.599071
External:        +0.000000
XC:            -229.072796
Entropy (-ST):   -0.152931
Local:           -0.198192
--------------------------
Free energy:   -219.193511
Extrapolated:  -219.117046

Dipole-layer corrected work functions: 3.386170, 3.783588 eV

Showing only first 2 kpts
 Kpt  Band  Eigenvalues  Occupancy
  0    19     -3.83552    1.98678
  0    20     -3.74383    1.92008
  0    21     -3.43994    0.10442
  0    22     -3.32893    0.01189

  1    19     -3.64278    1.52196
  1    20     -3.56819    0.83464
  1    21     -3.54403    0.61278
  1    22     -3.52407    0.45720


Fermi level: -3.58488

No gap
Writing to output.gpw (mode='')


Forces in eV/Ang:
  0 Li   -0.00096   -0.00111   -0.27966
  1 Li    0.00000    0.00185   -0.26843
  2 Li    0.00095   -0.00110   -0.27967
  3 Li    0.00181    0.00010   -0.26830
  4 Li    0.00001   -0.00023   -0.27466
  5 Li   -0.00181    0.00010   -0.26830
  6 Li   -0.00117    0.00101   -0.27952
  7 Li    0.00000   -0.00178   -0.26816
  8 Li    0.00116    0.00100   -0.27953
  9 Li   -0.00000   -0.00047    0.26442
 10 Li   -0.00153    0.00017    0.26980
 11 Li    0.00154    0.00017    0.26979
 12 Li    0.00000   -0.00146    0.26912
 13 Li    0.00492    0.00549    0.26611
 14 Li   -0.00493    0.00551    0.26610
 15 Li    0.00001    0.00160    0.27045
 16 Li    0.00627   -0.00570    0.26582
 17 Li   -0.00628   -0.00571    0.26580
 18 Li    0.00299    0.00324    0.00391
 19 Li   -0.00000   -0.00611    0.02974
 20 Li   -0.00300    0.00325    0.00388
 21 Li   -0.00641    0.00054    0.03003
 22 Li   -0.00001   -0.00018    0.01710
 23 Li    0.00641    0.00054    0.03004
 24 Li    0.00363   -0.00338    0.00489
 25 Li   -0.00000    0.00672    0.03033
 26 Li   -0.00363   -0.00340    0.00487
 27 Li   -0.00005   -0.00038   -0.02306
 28 Li   -0.01613    0.00086    0.02136
 29 Li    0.01599    0.00085    0.02121
 30 Li   -0.00000   -0.01242    0.01680
 31 Li    0.00744    0.00769   -0.01155
 32 Li   -0.00745    0.00770   -0.01157
 33 Li    0.00000    0.01952    0.02529
 34 Li    0.00697   -0.00677   -0.01134
 35 Li   -0.00698   -0.00677   -0.01135
 36 B     0.00540    0.03576    0.04565
 37 H    -0.01663   -0.01875   -0.05509
 38 H     0.01380   -0.01459   -0.05630
 39 H     0.00149   -0.02214   -0.05486

System changes: positions 

Initializing position-dependent things.

Density initialized from wave functions
       .-----------------------.  
      /|                       |  
     / |                       |  
    /  |                       |  
   /   |                       |  
  /    |                       |  
 *     |                       |  
 |     |                       |  
 |     B                       |  
 |     |                      H|  
 |     |                       |  
 |     |                       |  
 |     |                       Li 
 |     |                       |  
 |  H  |     Li      LiH     Li|  
 |     |  Li      Li      Li   |  
 |     |   Li      Li      Li  |  
 |     |Li      Li      Li     |  
 |     | Li      Li            |  
 |   LLi     LLi     LLi       |  
 |     |  Li      Li      Li   |  
 | Li  |   Li      Li          |  
 |     |Li      Li      Li     |  
 Li    | Li      Li            |  
 |    Li      Li      Li       |  
 |     |                       |  
 |     |                       |  
 |     |                       |  
 |     |                       |  
 |     |                       |  
 |     |                       |  
 |     .-----------------------.  
 |    /                       /   
 |   /                       /    
 |  /                       /     
 | /                       /      
 |/                       /       
 *-----------------------*        

Positions:
   0 Li     1.617037    1.617037   10.000000    ( 0.0000,  0.0000,  0.0000)
   1 Li     4.851111    1.617037   10.000000    ( 0.0000,  0.0000,  0.0000)
   2 Li     8.085185    1.617037   10.000000    ( 0.0000,  0.0000,  0.0000)
   3 Li     1.617037    4.851111   10.000000    ( 0.0000,  0.0000,  0.0000)
   4 Li     4.851111    4.851111   10.000000    ( 0.0000,  0.0000,  0.0000)
   5 Li     8.085185    4.851111   10.000000    ( 0.0000,  0.0000,  0.0000)
   6 Li     1.617037    8.085185   10.000000    ( 0.0000,  0.0000,  0.0000)
   7 Li     4.851111    8.085185   10.000000    ( 0.0000,  0.0000,  0.0000)
   8 Li     8.085185    8.085185   10.000000    ( 0.0000,  0.0000,  0.0000)
   9 Li     0.000000    0.000000   11.617037    ( 0.0000,  0.0000,  0.0000)
  10 Li     3.234074    0.000000   11.617037    ( 0.0000,  0.0000,  0.0000)
  11 Li     6.468148    0.000000   11.617037    ( 0.0000,  0.0000,  0.0000)
  12 Li     0.000000    3.234074   11.617037    ( 0.0000,  0.0000,  0.0000)
  13 Li     3.234074    3.234074   11.617037    ( 0.0000,  0.0000,  0.0000)
  14 Li     6.468148    3.234074   11.617037    ( 0.0000,  0.0000,  0.0000)
  15 Li     0.000000    6.468148   11.617037    ( 0.0000,  0.0000,  0.0000)
  16 Li     3.234074    6.468148   11.617037    ( 0.0000,  0.0000,  0.0000)
  17 Li     6.468148    6.468148   11.617037    ( 0.0000,  0.0000,  0.0000)
  18 Li     1.618200    1.618334   13.472365    ( 0.0000,  0.0000,  0.0000)
  19 Li     4.851111    1.615356   13.484556    ( 0.0000,  0.0000,  0.0000)
  20 Li     8.084021    1.618336   13.472365    ( 0.0000,  0.0000,  0.0000)
  21 Li     1.615229    4.851190   13.484694    ( 0.0000,  0.0000,  0.0000)
  22 Li     4.851110    4.850961   13.480541    ( 0.0000,  0.0000,  0.0000)
  23 Li     8.086993    4.851191   13.484695    ( 0.0000,  0.0000,  0.0000)
  24 Li     1.618542    8.083818   13.472695    ( 0.0000,  0.0000,  0.0000)
  25 Li     4.851111    8.087113   13.484838    ( 0.0000,  0.0000,  0.0000)
  26 Li     8.083679    8.083817   13.472689    ( 0.0000,  0.0000,  0.0000)
  27 Li    -0.000003   -0.000413   15.438332    ( 0.0000,  0.0000,  0.0000)
  28 Li     3.228414    0.000340   15.452412    ( 0.0000,  0.0000,  0.0000)
  29 Li     6.473776    0.000339   15.452368    ( 0.0000,  0.0000,  0.0000)
  30 Li    -0.000001    3.229768   15.450689    ( 0.0000,  0.0000,  0.0000)
  31 Li     3.237377    3.237463   15.439259    ( 0.0000,  0.0000,  0.0000)
  32 Li     6.464842    3.237464   15.439251    ( 0.0000,  0.0000,  0.0000)
  33 Li    -0.000001    6.475141   15.454032    ( 0.0000,  0.0000,  0.0000)
  34 Li     3.237193    6.465103   15.439313    ( 0.0000,  0.0000,  0.0000)
  35 Li     6.465026    6.465102   15.439311    ( 0.0000,  0.0000,  0.0000)
  36 B      9.703380    9.699128   18.402186    ( 0.0000,  0.0000,  0.0000)
  37 H     10.735614   10.297343   18.447315    ( 0.0000,  0.0000,  0.0000)
  38 H      8.672950   10.299994   18.447183    ( 0.0000,  0.0000,  0.0000)
  39 H      9.700628    8.507768   18.446510    ( 0.0000,  0.0000,  0.0000)

Unit cell:
           periodic     x           y           z      points  spacing
  1. axis:    yes    9.702222    0.000000    0.000000    60     0.1617
  2. axis:    yes    0.000000    9.702222    0.000000    60     0.1617
  3. axis:    no     0.000000    0.000000   24.851111   156     0.1593

  Lengths:   9.702222   9.702222  24.851111
  Angles:   90.000000  90.000000  90.000000

Effective grid spacing dv^(1/3) = 0.1609

     iter     time        total  log10-change:
                         energy  eigst   dens
iter:   1 14:03:43  -219.156851  -1.24
iter:   2 14:06:14  -219.122266  -1.78  -1.63
iter:   3 14:08:40  -219.118030  -3.17  -2.07
iter:   4 14:10:56  -219.117646c -2.72  -2.57
Writing to output.gpw (mode='')

iter:   5 14:13:23  -219.117736c -2.39  -2.91
iter:   6 14:15:44  -219.118036c -3.01  -2.91
iter:   7 14:18:11  -219.117837c -2.76  -2.78
iter:   8 14:20:33  -219.117780c -3.81  -2.89
iter:   9 14:22:53  -219.117791c -4.04  -3.19
Writing to output.gpw (mode='')

iter:  10 14:25:09  -219.117816c -3.90  -3.48
iter:  11 14:27:30  -219.117818c -4.40  -3.70
iter:  12 14:29:49  -219.117818c -4.88  -3.71
iter:  13 14:32:06  -219.117819c -4.92  -3.71
iter:  14 14:34:34  -219.117824c -5.14  -3.73
Writing to output.gpw (mode='')

iter:  15 14:36:45  -219.117824c -5.16  -3.77
iter:  16 14:38:59  -219.117824c -5.05  -3.86
iter:  17 14:41:18  -219.117827c -5.22  -3.94
iter:  18 14:43:31  -219.117829c -5.55  -4.01c
iter:  19 14:45:46  -219.117826c -5.60  -4.07c
Writing to output.gpw (mode='')

iter:  20 14:47:52  -219.117827c -5.92  -4.39c
iter:  21 14:50:01  -219.117827c -5.94  -4.49c
iter:  22 14:52:06  -219.117828c -6.04  -4.54c
iter:  23 14:54:26  -219.117827c -6.01  -4.62c
iter:  24 14:56:38  -219.117828c -6.35  -4.84c
Writing to output.gpw (mode='')

iter:  25 14:58:53  -219.117828c -6.43  -4.88c
iter:  26 15:01:07  -219.117828c -6.50  -4.91c
iter:  27 15:03:28  -219.117828c -6.51  -5.10c
iter:  28 15:05:49  -219.117828c -6.56  -5.20c
iter:  29 15:08:10  -219.117828c -6.83  -5.26c
Writing to output.gpw (mode='')

iter:  30 15:10:37  -219.117828c -6.83  -5.25c
iter:  31 15:12:51  -219.117828c -6.99  -5.06c
iter:  32 15:15:08  -219.117828c -7.03  -5.16c
iter:  33 15:17:43  -219.117828c -7.17  -5.25c
iter:  34 15:20:00  -219.117828c -7.26  -5.23c
Writing to output.gpw (mode='')

iter:  35 15:22:20  -219.117828c -7.28  -5.25c
iter:  36 15:24:45  -219.117828c -7.24  -5.31c
iter:  37 15:27:03  -219.117828c -7.51c -5.23c

Converged after 37 iterations.

Dipole moment: (-6.523085, -6.006277, -0.209587) |e|*Ang

Energy contributions relative to reference atoms: (reference = -8007.321583)

Kinetic:        +88.988788
Potential:      -78.712121
External:        +0.000000
XC:            -229.119813
Entropy (-ST):   -0.152967
Local:           -0.198198
--------------------------
Free energy:   -219.194312
Extrapolated:  -219.117828

Dipole-layer corrected work functions: 3.386078, 3.788976 eV

Showing only first 2 kpts
 Kpt  Band  Eigenvalues  Occupancy
  0    19     -3.83722    1.98653
  0    20     -3.74622    1.91968
  0    21     -3.44264    0.10453
  0    22     -3.33054    0.01165

  1    19     -3.64604    1.52641
  1    20     -3.57047    0.83109
  1    21     -3.54743    0.61920
  1    22     -3.52691    0.45855


Fermi level: -3.58753

No gap
Writing to output.gpw (mode='')


Forces in eV/Ang:
  0 Li   -0.00098   -0.00115   -0.27996
  1 Li    0.00000    0.00197   -0.26843
  2 Li    0.00098   -0.00114   -0.27996
  3 Li    0.00192    0.00011   -0.26829
  4 Li    0.00001   -0.00027   -0.27552
  5 Li   -0.00192    0.00011   -0.26830
  6 Li   -0.00121    0.00104   -0.27978
  7 Li    0.00000   -0.00189   -0.26815
  8 Li    0.00121    0.00103   -0.27979
  9 Li   -0.00001   -0.00057    0.26585
 10 Li   -0.00063    0.00014    0.27167
 11 Li    0.00065    0.00014    0.27167
 12 Li    0.00001   -0.00053    0.27100
 13 Li    0.00554    0.00617    0.26912
 14 Li   -0.00555    0.00619    0.26910
 15 Li    0.00001    0.00073    0.27231
 16 Li    0.00697   -0.00633    0.26884
 17 Li   -0.00698   -0.00636    0.26882
 18 Li    0.00284    0.00301    0.00228
 19 Li   -0.00000   -0.00705    0.02314
 20 Li   -0.00285    0.00302    0.00222
 21 Li   -0.00731    0.00075    0.02337
 22 Li   -0.00001   -0.00003    0.00944
 23 Li    0.00732    0.00075    0.02339
 24 Li    0.00329   -0.00313    0.00323
 25 Li   -0.00000    0.00761    0.02364
 26 Li   -0.00330   -0.00315    0.00321
 27 Li   -0.00008    0.00004   -0.02332
 28 Li   -0.01611    0.00081    0.02287
 29 Li    0.01593    0.00080    0.02271
 30 Li    0.00000   -0.01252    0.01855
 31 Li    0.00632    0.00658   -0.00744
 32 Li   -0.00633    0.00659   -0.00745
 33 Li    0.00001    0.01930    0.02650
 34 Li    0.00592   -0.00570   -0.00719
 35 Li   -0.00592   -0.00571   -0.00722
 36 B     0.00408    0.03872    0.08803
 37 H     0.02262   -0.00178   -0.07124
 38 H    -0.02557    0.00615   -0.07259
 39 H     0.00424   -0.06562   -0.06935

System changes: positions 

Initializing position-dependent things.

Density initialized from wave functions
       .-----------------------.  
      /|                       |  
     / |                       |  
    /  |                       |  
   /   |                       |  
  /    |                       |  
 *     |                       |  
 |     |                       |  
 |     B                       |  
 |     |                      H|  
 |     |                       |  
 |     |                       |  
 |     |                       Li 
 |     |                       |  
 |  H  |     Li      LiH     Li|  
 |     |  Li      Li      Li   |  
 |     |   Li      Li      Li  |  
 |     |Li      Li      Li     |  
 |     | Li      Li            |  
 |   LLi     LLi     LLi       |  
 |     |  Li      Li      Li   |  
 | Li  |   Li      Li          |  
 |     |Li      Li      Li     |  
 Li    | Li      Li            |  
 |    Li      Li      Li       |  
 |     |                       |  
 |     |                       |  
 |     |                       |  
 |     |                       |  
 |     |                       |  
 |     |                       |  
 |     .-----------------------.  
 |    /                       /   
 |   /                       /    
 |  /                       /     
 | /                       /      
 |/                       /       
 *-----------------------*        

Positions:
   0 Li     1.617037    1.617037   10.000000    ( 0.0000,  0.0000,  0.0000)
   1 Li     4.851111    1.617037   10.000000    ( 0.0000,  0.0000,  0.0000)
   2 Li     8.085185    1.617037   10.000000    ( 0.0000,  0.0000,  0.0000)
   3 Li     1.617037    4.851111   10.000000    ( 0.0000,  0.0000,  0.0000)
   4 Li     4.851111    4.851111   10.000000    ( 0.0000,  0.0000,  0.0000)
   5 Li     8.085185    4.851111   10.000000    ( 0.0000,  0.0000,  0.0000)
   6 Li     1.617037    8.085185   10.000000    ( 0.0000,  0.0000,  0.0000)
   7 Li     4.851111    8.085185   10.000000    ( 0.0000,  0.0000,  0.0000)
   8 Li     8.085185    8.085185   10.000000    ( 0.0000,  0.0000,  0.0000)
   9 Li     0.000000    0.000000   11.617037    ( 0.0000,  0.0000,  0.0000)
  10 Li     3.234074    0.000000   11.617037    ( 0.0000,  0.0000,  0.0000)
  11 Li     6.468148    0.000000   11.617037    ( 0.0000,  0.0000,  0.0000)
  12 Li     0.000000    3.234074   11.617037    ( 0.0000,  0.0000,  0.0000)
  13 Li     3.234074    3.234074   11.617037    ( 0.0000,  0.0000,  0.0000)
  14 Li     6.468148    3.234074   11.617037    ( 0.0000,  0.0000,  0.0000)
  15 Li     0.000000    6.468148   11.617037    ( 0.0000,  0.0000,  0.0000)
  16 Li     3.234074    6.468148   11.617037    ( 0.0000,  0.0000,  0.0000)
  17 Li     6.468148    6.468148   11.617037    ( 0.0000,  0.0000,  0.0000)
  18 Li     1.618583    1.618756   13.473073    ( 0.0000,  0.0000,  0.0000)
  19 Li     4.851112    1.614703   13.488974    ( 0.0000,  0.0000,  0.0000)
  20 Li     8.083638    1.618758   13.473070    ( 0.0000,  0.0000,  0.0000)
  21 Li     1.614536    4.851236   13.489154    ( 0.0000,  0.0000,  0.0000)
  22 Li     4.851109    4.850923   13.483508    ( 0.0000,  0.0000,  0.0000)
  23 Li     8.087687    4.851236   13.489155    ( 0.0000,  0.0000,  0.0000)
  24 Li     1.619025    8.083375   13.473515    ( 0.0000,  0.0000,  0.0000)
  25 Li     4.851111    8.087846   13.489342    ( 0.0000,  0.0000,  0.0000)
  26 Li     8.083195    8.083372   13.473507    ( 0.0000,  0.0000,  0.0000)
  27 Li    -0.000006   -0.000516   15.435641    ( 0.0000,  0.0000,  0.0000)
  28 Li     3.226463    0.000452   15.454805    ( 0.0000,  0.0000,  0.0000)
  29 Li     6.475713    0.000450   15.454746    ( 0.0000,  0.0000,  0.0000)
  30 Li    -0.000001    3.228273   15.452511    ( 0.0000,  0.0000,  0.0000)
  31 Li     3.238406    3.238522   15.437374    ( 0.0000,  0.0000,  0.0000)
  32 Li     6.463812    3.238524   15.437364    ( 0.0000,  0.0000,  0.0000)
  33 Li    -0.000001    6.477529   15.456952    ( 0.0000,  0.0000,  0.0000)
  34 Li     3.238163    6.464159   15.437450    ( 0.0000,  0.0000,  0.0000)
  35 Li     6.464056    6.464157   15.437446    ( 0.0000,  0.0000,  0.0000)
  36 B      9.703673    9.698711   18.397287    ( 0.0000,  0.0000,  0.0000)
  37 H     10.734087   10.296458   18.444487    ( 0.0000,  0.0000,  0.0000)
  38 H      8.674809   10.298872   18.444253    ( 0.0000,  0.0000,  0.0000)
  39 H      9.700407    8.508243   18.443426    ( 0.0000,  0.0000,  0.0000)

Unit cell:
           periodic     x           y           z      points  spacing
  1. axis:    yes    9.702222    0.000000    0.000000    60     0.1617
  2. axis:    yes    0.000000    9.702222    0.000000    60     0.1617
  3. axis:    no     0.000000    0.000000   24.851111   156     0.1593

  Lengths:   9.702222   9.702222  24.851111
  Angles:   90.000000  90.000000  90.000000

Effective grid spacing dv^(1/3) = 0.1609

     iter     time        total  log10-change:
                         energy  eigst   dens
iter:   1 15:29:49  -219.153212  -1.32
iter:   2 15:32:05  -219.122759  -1.85  -1.65
iter:   3 15:34:25  -219.118871  -3.28  -2.09
iter:   4 15:36:42  -219.118512c -2.79  -2.60
Writing to output.gpw (mode='')

iter:   5 15:39:04  -219.118568c -2.52  -2.96
iter:   6 15:41:21  -219.118832c -3.14  -3.00
iter:   7 15:43:39  -219.118660c -2.85  -2.84
iter:   8 15:45:56  -219.118621c -3.91  -2.93
iter:   9 15:48:10  -219.118638c -3.97  -3.23
Writing to output.gpw (mode='')

iter:  10 15:50:25  -219.118656c -4.01  -3.61
iter:  11 15:52:46  -219.118659c -4.42  -3.73
iter:  12 15:55:05  -219.118657c -4.96  -3.74
iter:  13 15:57:21  -219.118659c -5.04  -3.74
iter:  14 15:59:37  -219.118662c -5.15  -3.77
Writing to output.gpw (mode='')

iter:  15 16:01:56  -219.118664c -5.10  -3.81
iter:  16 16:04:13  -219.118660c -5.35  -3.86
iter:  17 16:06:28  -219.118663c -5.62  -4.10c
iter:  18 16:08:44  -219.118666c -5.35  -4.28c
iter:  19 16:11:02  -219.118664c -5.92  -4.30c
Writing to output.gpw (mode='')

iter:  20 16:13:23  -219.118664c -5.94  -4.41c
iter:  21 16:15:35  -219.118665c -5.75  -4.50c
iter:  22 16:18:02  -219.118666c -6.27  -4.55c
iter:  23 16:20:30  -219.118666c -6.49  -4.56c
iter:  24 16:22:48  -219.118666c -6.34  -4.73c
Writing to output.gpw (mode='')

iter:  25 16:25:16  -219.118665c -6.30  -4.86c
iter:  26 16:27:35  -219.118666c -6.67  -4.93c
iter:  27 16:30:11  -219.118666c -6.64  -4.95c
iter:  28 16:32:39  -219.118666c -6.78  -5.01c
iter:  29 16:35:06  -219.118666c -6.75  -5.14c
Writing to output.gpw (mode='')

iter:  30 16:37:20  -219.118666c -7.15  -5.13c
iter:  31 16:39:44  -219.118666c -7.21  -5.19c
iter:  32 16:42:09  -219.118666c -7.09  -5.19c
iter:  33 16:44:30  -219.118666c -7.26  -5.20c
iter:  34 16:46:55  -219.118666c -7.33  -5.19c
Writing to output.gpw (mode='')

iter:  35 16:49:19  -219.118666c -7.64c -5.16c

Converged after 35 iterations.

Dipole moment: (-6.535757, -5.983893, -0.210295) |e|*Ang

Energy contributions relative to reference atoms: (reference = -8007.321583)

Kinetic:        +89.113669
Potential:      -78.802246
External:        +0.000000
XC:            -229.155454
Entropy (-ST):   -0.153036
Local:           -0.198117
--------------------------
Free energy:   -219.195184
Extrapolated:  -219.118666

Dipole-layer corrected work functions: 3.386040, 3.790298 eV

Showing only first 2 kpts
 Kpt  Band  Eigenvalues  Occupancy
  0    19     -3.83693    1.98628
  0    20     -3.74664    1.91933
  0    21     -3.44326    0.10448
  0    22     -3.33017    0.01142

  1    19     -3.64698    1.52856
  1    20     -3.57087    0.82875
  1    21     -3.54882    0.62562
  1    22     -3.52781    0.46043


Fermi level: -3.58817

No gap

Forces in eV/Ang:
  0 Li   -0.00101   -0.00119   -0.28020
  1 Li    0.00000    0.00206   -0.26846
  2 Li    0.00101   -0.00118   -0.28021
  3 Li    0.00201    0.00011   -0.26832
  4 Li    0.00002   -0.00030   -0.27644
  5 Li   -0.00201    0.00011   -0.26833
  6 Li   -0.00125    0.00108   -0.28000
  7 Li    0.00001   -0.00197   -0.26819
  8 Li    0.00125    0.00106   -0.28001
  9 Li   -0.00001   -0.00067    0.26724
 10 Li    0.00024    0.00012    0.27336
 11 Li   -0.00023    0.00012    0.27335
[...]
  37 H     10.819597    9.223596   16.933904    ( 0.0000,  0.0000,  0.0000)
  38 H      9.377591    8.550408   15.989669    ( 0.0000,  0.0000,  0.0000)
  39 H     10.642213    7.308905   16.680942    ( 0.0000,  0.0000,  0.0000)

Unit cell:
           periodic     x           y           z      points  spacing
  1. axis:    yes    9.702222    0.000000    0.000000    60     0.1617
  2. axis:    yes    0.000000    9.702222    0.000000    60     0.1617
  3. axis:    no     0.000000    0.000000   24.851111   156     0.1593

  Lengths:   9.702222   9.702222  24.851111
  Angles:   90.000000  90.000000  90.000000

Effective grid spacing dv^(1/3) = 0.1609

     iter     time        total  log10-change:
                         energy  eigst   dens
iter:   1 21:34:11  -220.442507  -0.72
iter:   2 21:36:22  -220.418704  -1.48  -1.67
iter:   3 21:38:45  -220.415835  -2.13  -1.95
iter:   4 21:41:00  -220.407471c -2.40  -2.02
Writing to output.gpw (mode='')

iter:   5 21:43:19  -220.406968c -2.70  -2.30
iter:   6 21:45:38  -220.405344c -2.24  -2.33
iter:   7 21:47:12  -220.404678c -1.98  -2.46
iter:   8 21:49:28  -220.404688c -3.10  -2.76
iter:   9 21:51:53  -220.404594c -2.87  -2.82
Writing to output.gpw (mode='')

iter:  10 21:54:13  -220.404890c -2.52  -2.95
iter:  11 21:56:28  -220.404737c -3.58  -2.89
iter:  12 21:58:33  -220.404687c -3.45  -3.07
iter:  13 22:00:49  -220.404689c -4.33  -3.27
iter:  14 22:02:59  -220.404690c -4.27  -3.34
Writing to output.gpw (mode='')

iter:  15 22:05:21  -220.404697c -4.29  -3.54
iter:  16 22:07:43  -220.404697c -4.90  -3.62
iter:  17 22:09:56  -220.404699c -5.02  -3.72
iter:  18 22:12:21  -220.404697c -5.18  -3.84
iter:  19 22:14:38  -220.404697c -5.23  -3.98
Writing to output.gpw (mode='')

iter:  20 22:16:56  -220.404697c -5.41  -4.12c
iter:  21 22:19:11  -220.404698c -5.62  -4.17c
iter:  22 22:21:22  -220.404697c -5.74  -4.34c
iter:  23 22:22:37  -220.404698c -5.97  -4.42c
iter:  24 22:24:55  -220.404698c -6.01  -4.48c
Writing to output.gpw (mode='')

iter:  25 22:27:24  -220.404699c -6.16  -4.54c
iter:  26 22:29:51  -220.404699c -6.38  -4.70c
iter:  27 22:32:13  -220.404699c -6.24  -4.76c
iter:  28 22:33:33  -220.404699c -6.62  -4.87c
iter:  29 22:35:57  -220.404699c -6.65  -4.99c
Writing to output.gpw (mode='')

iter:  30 22:38:16  -220.404699c -6.82  -5.12c
iter:  31 22:40:31  -220.404699c -6.90  -5.12c
iter:  32 22:42:43  -220.404699c -7.00  -5.16c
iter:  33 22:45:02  -220.404699c -7.17  -5.43c
iter:  34 22:47:22  -220.404699c -7.14  -5.48c
Writing to output.gpw (mode='')

iter:  35 22:49:39  -220.404699c -7.13  -5.53c
iter:  36 22:51:49  -220.404699c -7.18  -5.64c
iter:  37 22:54:01  -220.404699c -7.23  -5.66c
iter:  38 22:56:16  -220.404699c -7.39  -5.70c
iter:  39 22:58:33  -220.404699c -7.53c -5.79c

Converged after 39 iterations.

Dipole moment: (0.272936, -2.477313, -0.024264) |e|*Ang

Energy contributions relative to reference atoms: (reference = -8007.321583)

Kinetic:        +93.055890
Potential:      -80.225430
External:        +0.000000
XC:            -232.957630
Entropy (-ST):   -0.129343
Local:           -0.212857
--------------------------
Free energy:   -220.469370
Extrapolated:  -220.404699

Dipole-layer corrected work functions: 3.428685, 3.475329 eV

Showing only first 2 kpts
 Kpt  Band  Eigenvalues  Occupancy
  0    19     -3.69600    1.98492
  0    20     -3.63729    1.95201
  0    21     -3.36500    0.29858
  0    22     -3.19507    0.01166

  1    19     -3.71831    1.99032
  1    20     -3.42041    0.69417
  1    21     -3.35978    0.27304
  1    22     -3.24220    0.02966


Fermi level: -3.45201

No gap
Writing to output.gpw (mode='')


Forces in eV/Ang:
  0 Li    0.01560   -0.01133   -0.28581
  1 Li    0.01880   -0.00344   -0.27004
  2 Li   -0.01219    0.00748   -0.30481
  3 Li    0.01248   -0.00993   -0.29042
  4 Li    0.01704   -0.00434   -0.27262
  5 Li   -0.00268   -0.03690   -0.27757
  6 Li    0.01431   -0.00681   -0.24520
  7 Li   -0.00947    0.00165   -0.30045
  8 Li    0.00681   -0.01554   -0.26155
  9 Li    0.00655    0.05987    0.20918
 10 Li   -0.02480   -0.08744    0.22711
 11 Li   -0.10755   -0.00496    0.22418
 12 Li   -0.02860    0.06342    0.21852
 13 Li    0.11578    0.00751    0.11970
 14 Li   -0.14913    0.06525    0.19346
 15 Li    0.03131    0.11522    0.28252
 16 Li   -0.00523    0.12069    0.22386
 17 Li   -0.12042    0.07008    0.19111
 18 Li   -0.14324   -0.07397    0.15843
 19 Li   -0.02379    0.08964   -0.07953
 20 Li    0.14412   -0.10625    0.13592
 21 Li   -0.03622   -0.04020    0.04815
 22 Li   -0.02148    0.03253   -0.00504
 23 Li    0.01505   -0.07403    0.07251
 24 Li    0.14355    0.01969   -0.19252
 25 Li    0.01456    0.02225   -0.00984
 26 Li    0.03691   -0.03729    0.11341
 27 Li    0.02992    0.10323   -0.03474
 28 Li   -0.25157   -0.11751   -0.08790
 29 Li    0.10006   -0.00834    0.09038
 30 Li   -0.00379   -0.26500    0.04707
 31 Li    0.07460    0.04952    0.01920
 32 Li   -0.06368    0.02390    0.03140
 33 Li   -0.04931    0.24862    0.08021
 34 Li   -0.16026    0.21192    0.09505
 35 Li   -0.07051    0.04404    0.02804
 36 B    -0.35425    0.03116    0.18644
 37 H     0.49571    0.17562    0.04257
 38 H     0.08384   -0.44032   -0.36077
 39 H     0.25414   -0.22142    0.23885

System changes: positions 

Initializing position-dependent things.

Density initialized from wave functions
       .-----------------------.  
      /|                       |  
     / |                       |  
    /  |                       |  
   /   |                       |  
  /    |                       |  
 *     |                       |  
 |     |                       |  
 |     |                       |  
 |     |                       |  
 |     | H                     |  
 |     |      Li               |  
 |     |HB            Li      H|  
 |     |                       |  
 |     |    Li       Li      Li|  
 |     |  Li      Li      Li   |  
 |     |   Li      Li      Li  |  
 |     |Li      Li      LLi    |  
 |     |                       |  
 |   LLi     LLi     LLi       |  
 |     |  Li      Li      Li   |  
 | Li  |   Li      Li          |  
 |     |Li      Li      Li     |  
 Li    | Li      Li            |  
 |    Li      Li      Li       |  
 |     |                       |  
 |     |                       |  
 |     |                       |  
 |     |                       |  
 |     |                       |  
 |     |                       |  
 |     .-----------------------.  
 |    /                       /   
 |   /                       /    
 |  /                       /     
 | /                       /      
 |/                       /       
 *-----------------------*        

Positions:
   0 Li     1.617037    1.617037   10.000000    ( 0.0000,  0.0000,  0.0000)
   1 Li     4.851111    1.617037   10.000000    ( 0.0000,  0.0000,  0.0000)
   2 Li     8.085185    1.617037   10.000000    ( 0.0000,  0.0000,  0.0000)
   3 Li     1.617037    4.851111   10.000000    ( 0.0000,  0.0000,  0.0000)
   4 Li     4.851111    4.851111   10.000000    ( 0.0000,  0.0000,  0.0000)
   5 Li     8.085185    4.851111   10.000000    ( 0.0000,  0.0000,  0.0000)
   6 Li     1.617037    8.085185   10.000000    ( 0.0000,  0.0000,  0.0000)
   7 Li     4.851111    8.085185   10.000000    ( 0.0000,  0.0000,  0.0000)
   8 Li     8.085185    8.085185   10.000000    ( 0.0000,  0.0000,  0.0000)
   9 Li     0.000000    0.000000   11.617037    ( 0.0000,  0.0000,  0.0000)
  10 Li     3.234074    0.000000   11.617037    ( 0.0000,  0.0000,  0.0000)
  11 Li     6.468148    0.000000   11.617037    ( 0.0000,  0.0000,  0.0000)
  12 Li     0.000000    3.234074   11.617037    ( 0.0000,  0.0000,  0.0000)
  13 Li     3.234074    3.234074   11.617037    ( 0.0000,  0.0000,  0.0000)
  14 Li     6.468148    3.234074   11.617037    ( 0.0000,  0.0000,  0.0000)
  15 Li     0.000000    6.468148   11.617037    ( 0.0000,  0.0000,  0.0000)
  16 Li     3.234074    6.468148   11.617037    ( 0.0000,  0.0000,  0.0000)
  17 Li     6.468148    6.468148   11.617037    ( 0.0000,  0.0000,  0.0000)
  18 Li     1.702350    1.734295   13.308561    ( 0.0000,  0.0000,  0.0000)
  19 Li     4.769204    1.507867   13.537701    ( 0.0000,  0.0000,  0.0000)
  20 Li     7.967505    1.713225   13.307258    ( 0.0000,  0.0000,  0.0000)
  21 Li     1.696032    4.956305   13.279675    ( 0.0000,  0.0000,  0.0000)
  22 Li     4.802402    4.771580   13.474967    ( 0.0000,  0.0000,  0.0000)
  23 Li     8.004809    5.017352   13.312341    ( 0.0000,  0.0000,  0.0000)
  24 Li     1.466066    8.285266   13.727549    ( 0.0000,  0.0000,  0.0000)
  25 Li     4.744323    7.993232   13.479107    ( 0.0000,  0.0000,  0.0000)
  26 Li     7.969113    8.195406   13.387430    ( 0.0000,  0.0000,  0.0000)
  27 Li    -0.059833    0.488659   15.517708    ( 0.0000,  0.0000,  0.0000)
  28 Li     2.967689   -0.048469   15.722340    ( 0.0000,  0.0000,  0.0000)
  29 Li     6.133095   -0.041785   15.321356    ( 0.0000,  0.0000,  0.0000)
  30 Li    -0.011761    3.663391   15.037329    ( 0.0000,  0.0000,  0.0000)
  31 Li     3.137520    3.216814   15.346465    ( 0.0000,  0.0000,  0.0000)
  32 Li     6.627974    3.132132   15.333851    ( 0.0000,  0.0000,  0.0000)
  33 Li    -0.102445    6.539689   15.365194    ( 0.0000,  0.0000,  0.0000)
  34 Li     2.930016    6.506355   15.405033    ( 0.0000,  0.0000,  0.0000)
  35 Li     6.365656    6.291836   15.329747    ( 0.0000,  0.0000,  0.0000)
  36 B     10.647022    8.354480   16.061641    ( 0.0000,  0.0000,  0.0000)
  37 H     10.821716    9.214078   16.919844    ( 0.0000,  0.0000,  0.0000)
  38 H      9.395720    8.522215   15.977686    ( 0.0000,  0.0000,  0.0000)
  39 H     10.665186    7.294496   16.669486    ( 0.0000,  0.0000,  0.0000)

Unit cell:
           periodic     x           y           z      points  spacing
  1. axis:    yes    9.702222    0.000000    0.000000    60     0.1617
  2. axis:    yes    0.000000    9.702222    0.000000    60     0.1617
  3. axis:    no     0.000000    0.000000   24.851111   156     0.1593

  Lengths:   9.702222   9.702222  24.851111
  Angles:   90.000000  90.000000  90.000000

Effective grid spacing dv^(1/3) = 0.1609

     iter     time        total  log10-change:
                         energy  eigst   dens
iter:   1 23:01:20  -220.441481  -0.84
iter:   2 23:03:31  -220.437564  -1.62  -1.90
iter:   3 23:05:39  -220.434241c -2.26  -2.01
iter:   4 23:07:56  -220.427773c -2.12  -2.11
Writing to output.gpw (mode='')

iter:   5 23:10:16  -220.428026c -2.73  -2.39
iter:   6 23:12:39  -220.427238c -2.42  -2.42
iter:   7 23:14:50  -220.426900c -2.25  -2.52
iter:   8 23:16:59  -220.426850c -3.18  -2.71
iter:   9 23:18:52  -220.426866c -3.17  -2.84
Writing to output.gpw (mode='')

iter:  10 23:21:10  -220.426712c -3.08  -2.81
iter:  11 23:23:29  -220.426786c -3.05  -3.07
iter:  12 23:25:46  -220.426755c -3.74  -3.20
iter:  13 23:28:00  -220.426763c -4.04  -3.32
iter:  14 23:30:25  -220.426773c -3.90  -3.43
Writing to output.gpw (mode='')

iter:  15 23:32:45  -220.426769c -4.41  -3.47
iter:  16 23:34:15  -220.426777c -4.47  -3.62
iter:  17 23:35:17  -220.426777c -4.98  -3.76
iter:  18 23:37:30  -220.426772c -4.97  -3.84
iter:  19 23:39:45  -220.426770c -5.21  -3.92
Writing to output.gpw (mode='')

iter:  20 23:42:03  -220.426769c -5.49  -4.19c
iter:  21 23:44:19  -220.426772c -5.44  -4.25c
iter:  22 23:45:39  -220.426774c -5.63  -4.35c
iter:  23 23:47:54  -220.426775c -5.85  -4.45c
iter:  24 23:50:16  -220.426775c -5.93  -4.47c
Writing to output.gpw (mode='')

iter:  25 23:52:34  -220.426776c -5.95  -4.60c
iter:  26 23:54:50  -220.426775c -6.33  -4.71c
iter:  27 23:55:35  -220.426775c -6.36  -4.77c
iter:  28 23:56:18  -220.426775c -6.28  -4.93c
iter:  29 23:57:11  -220.426775c -6.64  -4.97c
Writing to output.gpw (mode='')

iter:  30 23:59:24  -220.426775c -6.72  -4.98c
iter:  31 00:01:43  -220.426775c -6.54  -4.95c
iter:  32 00:04:11  -220.426775c -6.93  -4.96c
iter:  33 00:06:32  -220.426776c -7.05  -4.91c
iter:  34 00:08:43  -220.426775c -7.09  -4.98c
Writing to output.gpw (mode='')

iter:  35 00:10:55  -220.426776c -6.82  -4.96c
iter:  36 00:13:18  -220.426776c -7.09  -5.02c
iter:  37 00:15:37  -220.426776c -7.35  -4.99c
iter:  38 00:17:54  -220.426776c -7.26  -5.13c
iter:  39 00:20:15  -220.426775c -7.41c -5.21c

Converged after 39 iterations.

Dipole moment: (0.696953, -2.630466, -0.020020) |e|*Ang

Energy contributions relative to reference atoms: (reference = -8007.321583)

Kinetic:        +93.128697
Potential:      -80.280307
External:        +0.000000
XC:            -232.997657
Entropy (-ST):   -0.129047
Local:           -0.212985
--------------------------
Free energy:   -220.491299
Extrapolated:  -220.426775

Dipole-layer corrected work functions: 3.429277, 3.467763 eV

Showing only first 2 kpts
 Kpt  Band  Eigenvalues  Occupancy
  0    19     -3.69267    1.98497
  0    20     -3.63354    1.95176
  0    21     -3.36117    0.29685
  0    22     -3.19152    0.01165

  1    19     -3.71462    1.99028
  1    20     -3.41703    0.69512
  1    21     -3.35476    0.26589
  1    22     -3.23552    0.02785


Fermi level: -3.44852

No gap
Writing to output.gpw (mode='')


Forces in eV/Ang:
  0 Li    0.01535   -0.01186   -0.28410
  1 Li    0.01857   -0.00278   -0.27180
  2 Li   -0.01149    0.00735   -0.30355
  3 Li    0.01191   -0.00954   -0.29157
  4 Li    0.01772   -0.00436   -0.27138
  5 Li   -0.00260   -0.03634   -0.27924
  6 Li    0.01496   -0.00635   -0.24399
  7 Li   -0.01006    0.00246   -0.30024
  8 Li    0.00638   -0.01510   -0.26080
  9 Li    0.00757    0.05538    0.20312
 10 Li   -0.02461   -0.08399    0.22188
 11 Li   -0.10728   -0.00392    0.22316
 12 Li   -0.02943    0.06121    0.21720
 13 Li    0.10732    0.00209    0.12231
 14 Li   -0.13899    0.05498    0.20251
 15 Li    0.03004    0.11924    0.28263
 16 Li   -0.00658    0.11785    0.21939
 17 Li   -0.11713    0.07146    0.19146
 18 Li   -0.13921   -0.07100    0.15576
 19 Li   -0.02365    0.09143   -0.08097
 20 Li    0.13446   -0.09905    0.13114
 21 Li   -0.03548   -0.04140    0.04905
 22 Li   -0.02308    0.03647   -0.00078
 23 Li    0.01283   -0.07804    0.07269
 24 Li    0.12674    0.01898   -0.18888
 25 Li    0.01785    0.02263   -0.00747
 26 Li    0.03884   -0.03746    0.11173
 27 Li    0.02858    0.11826   -0.05618
 28 Li   -0.25492   -0.11963   -0.09440
 29 Li    0.11424   -0.00913    0.09313
 30 Li   -0.00483   -0.25484    0.04904
 31 Li    0.07628    0.04880    0.02172
 32 Li   -0.06338    0.02327    0.03222
 33 Li   -0.02563    0.25388    0.08866
 34 Li   -0.16656    0.21545    0.10099
 35 Li   -0.07341    0.04450    0.02900
 36 B    -0.38554   -0.00522    0.16860
 37 H     0.51237    0.18881    0.07580
 38 H     0.08518   -0.44540   -0.38299
 39 H     0.27812   -0.23371    0.23691

System changes: positions 

Initializing position-dependent things.

Density initialized from wave functions
       .-----------------------.  
      /|                       |  
     / |                       |  
    /  |                       |  
   /   |                       |  
  /    |                       |  
 *     |                       |  
 |     |                       |  
 |     |                       |  
 |     |                       |  
 |     | H                     |  
 |     |      Li               |  
 |     |HB            Li      H|  
 |     |                       |  
 |     |    Li       Li      Li|  
 |     |  Li      Li      Li   |  
 |     |   Li      Li      Li  |  
 |     |Li      Li      LLi    |  
 |     |                       |  
 |   LLi     LLi     LLi       |  
 |     |  Li      Li      Li   |  
 | Li  |   Li      Li          |  
 |     |Li      Li      Li     |  
 Li    | Li      Li            |  
 |    Li      Li      Li       |  
 |     |                       |  
 |     |                       |  
 |     |                       |  
 |     |                       |  
 |     |                       |  
 |     |                       |  
 |     .-----------------------.  
 |    /                       /   
 |   /                       /    
 |  /                       /     
 | /                       /      
 |/                       /       
 *-----------------------*        

Positions:
   0 Li     1.617037    1.617037   10.000000    ( 0.0000,  0.0000,  0.0000)
   1 Li     4.851111    1.617037   10.000000    ( 0.0000,  0.0000,  0.0000)
   2 Li     8.085185    1.617037   10.000000    ( 0.0000,  0.0000,  0.0000)
   3 Li     1.617037    4.851111   10.000000    ( 0.0000,  0.0000,  0.0000)
   4 Li     4.851111    4.851111   10.000000    ( 0.0000,  0.0000,  0.0000)
   5 Li     8.085185    4.851111   10.000000    ( 0.0000,  0.0000,  0.0000)
   6 Li     1.617037    8.085185   10.000000    ( 0.0000,  0.0000,  0.0000)
   7 Li     4.851111    8.085185   10.000000    ( 0.0000,  0.0000,  0.0000)
   8 Li     8.085185    8.085185   10.000000    ( 0.0000,  0.0000,  0.0000)
   9 Li     0.000000    0.000000   11.617037    ( 0.0000,  0.0000,  0.0000)
  10 Li     3.234074    0.000000   11.617037    ( 0.0000,  0.0000,  0.0000)
  11 Li     6.468148    0.000000   11.617037    ( 0.0000,  0.0000,  0.0000)
  12 Li     0.000000    3.234074   11.617037    ( 0.0000,  0.0000,  0.0000)
  13 Li     3.234074    3.234074   11.617037    ( 0.0000,  0.0000,  0.0000)
  14 Li     6.468148    3.234074   11.617037    ( 0.0000,  0.0000,  0.0000)
  15 Li     0.000000    6.468148   11.617037    ( 0.0000,  0.0000,  0.0000)
  16 Li     3.234074    6.468148   11.617037    ( 0.0000,  0.0000,  0.0000)
  17 Li     6.468148    6.468148   11.617037    ( 0.0000,  0.0000,  0.0000)
  18 Li     1.696451    1.728920   13.313381    ( 0.0000,  0.0000,  0.0000)
  19 Li     4.766724    1.509065   13.531966    ( 0.0000,  0.0000,  0.0000)
  20 Li     7.977487    1.702481   13.313926    ( 0.0000,  0.0000,  0.0000)
  21 Li     1.694133    4.955576   13.276128    ( 0.0000,  0.0000,  0.0000)
  22 Li     4.801371    4.770200   13.469711    ( 0.0000,  0.0000,  0.0000)
  23 Li     8.005879    5.016813   13.309822    ( 0.0000,  0.0000,  0.0000)
  24 Li     1.477694    8.290061   13.721325    ( 0.0000,  0.0000,  0.0000)
  25 Li     4.740936    7.990920   13.472994    ( 0.0000,  0.0000,  0.0000)
  26 Li     7.967290    8.198498   13.391036    ( 0.0000,  0.0000,  0.0000)
  27 Li    -0.060045    0.477172   15.555227    ( 0.0000,  0.0000,  0.0000)
  28 Li     2.975167   -0.045549   15.721245    ( 0.0000,  0.0000,  0.0000)
  29 Li     6.113002   -0.042102   15.316078    ( 0.0000,  0.0000,  0.0000)
  30 Li    -0.011172    3.651555   15.033217    ( 0.0000,  0.0000,  0.0000)
  31 Li     3.138299    3.217894   15.340886    ( 0.0000,  0.0000,  0.0000)
  32 Li     6.627763    3.130039   15.328740    ( 0.0000,  0.0000,  0.0000)
  33 Li    -0.114569    6.535994   15.356805    ( 0.0000,  0.0000,  0.0000)
  34 Li     2.918080    6.516398   15.401404    ( 0.0000,  0.0000,  0.0000)
  35 Li     6.361130    6.291829   15.324113    ( 0.0000,  0.0000,  0.0000)
  36 B     10.668844    8.337842   16.047278    ( 0.0000,  0.0000,  0.0000)
  37 H     10.824663    9.202959   16.905340    ( 0.0000,  0.0000,  0.0000)
  38 H      9.414919    8.490509   15.962648    ( 0.0000,  0.0000,  0.0000)
  39 H     10.690246    7.277600   16.656243    ( 0.0000,  0.0000,  0.0000)

Unit cell:
           periodic     x           y           z      points  spacing
  1. axis:    yes    9.702222    0.000000    0.000000    60     0.1617
  2. axis:    yes    0.000000    9.702222    0.000000    60     0.1617
  3. axis:    no     0.000000    0.000000   24.851111   156     0.1593

  Lengths:   9.702222   9.702222  24.851111
  Angles:   90.000000  90.000000  90.000000

Effective grid spacing dv^(1/3) = 0.1609

     iter     time        total  log10-change:
                         energy  eigst   dens
iter:   1 00:23:09  -220.470442  -0.76
iter:   2 00:25:01  -220.460038  -1.53  -1.79
iter:   3 00:27:24  -220.457272c -2.15  -1.98
