
  ___ ___ ___ _ _ _  
 |   |   |_  | | | | 
 | | | | | . | | | | 
 |__ |  _|___|_____|  22.8.0
 |___|_|             

User:   vazumah@c15.hercules
Date:   Sat Feb 25 22:25:54 2023
Arch:   x86_64
Pid:    20375
CWD:    /home/vazumah/Python_projects/LiNRR/Li_adsorb_studies/proton_donors/on_pure_surface/Li_BCC100/adsorbates/BH3/ontop/9.702_9.702
Python: 3.10.8
gpaw:   /home/vazumah/.conda/envs/GPAW/lib/python3.10/site-packages/gpaw
_gpaw:  /home/vazumah/.conda/envs/GPAW/lib/python3.10/site-packages/
        _gpaw.cpython-310-x86_64-linux-gnu.so
ase:    /home/vazumah/.conda/envs/GPAW/lib/python3.10/site-packages/ase (version 3.22.1)
numpy:  /home/vazumah/.conda/envs/GPAW/lib/python3.10/site-packages/numpy (version 1.24.1)
scipy:  /home/vazumah/.conda/envs/GPAW/lib/python3.10/site-packages/scipy (version 1.10.0)
libxc:  5.2.3
units:  Angstrom and eV
cores: 24
OpenMP: True
OMP_NUM_THREADS: 1

Reading from output.gpw
Read dipole, energy, free_energy, magmom, magmoms
Reading input parameters:
  h: 0.16
  kpts: {size: [4, 4, 1]}
  occupations: {name: fermi-dirac,
                width: 0.05}
  poissonsolver: {dipolelayer: xy}
  xc: BEEF-vdW

Initialize ...

species:
  Li:
    name: Lithium
    id: 830b4218f175192f93f959cfc0aad614
    Z: 3.0
    valence: 1
    core: 2
    charge: 0.0
    file: /home/vazumah/.conda/envs/GPAW/share/gpaw/Li.PBE.gz
    compensation charges: {type: gauss,
                           rc: 0.33,
                           lmax: 2}
    cutoffs: {filter: 1.91,
              core: 2.55}
    valence states:
      #              energy  rcut
      - 2s(1.00)    -2.874   1.058
      - 2p(0.00)    -1.090   1.058
      -  s          24.337   1.058
  
    # Using partial waves for Li as LCAO basis

  B:
    name: Boron
    id: 6e91439235a05fd7549e31636e8f777c
    Z: 5.0
    valence: 3
    core: 2
    charge: 0.0
    file: /home/vazumah/.conda/envs/GPAW/share/gpaw/B.PBE.gz
    compensation charges: {type: gauss,
                           rc: 0.20,
                           lmax: 2}
    cutoffs: {filter: 1.14,
              core: 1.38}
    valence states:
      #              energy  rcut
      - 2s(2.00)    -9.443   0.635
      - 2p(1.00)    -3.606   0.635
      -  s          17.768   0.635
      -  p          23.605   0.635
      -  d           0.000   0.635
  
    # Using partial waves for B as LCAO basis

  H:
    name: Hydrogen
    id: d65de229564ff8ea4db303e23b6d1ecf
    Z: 1.0
    valence: 1
    core: 0
    charge: 0.0
    file: /home/vazumah/.conda/envs/GPAW/share/gpaw/H.PBE.gz
    compensation charges: {type: gauss,
                           rc: 0.15,
                           lmax: 2}
    cutoffs: {filter: 0.85,
              core: 0.53}
    valence states:
      #              energy  rcut
      - 1s(1.00)    -6.494   0.476
      -  s          20.717   0.476
      -  p           0.000   0.476
  
    # Using partial waves for H as LCAO basis

Reference energy: -8007.321583  # eV

Spin-paired calculation

Convergence criteria:
 Maximum [total energy] change in last 3 cyles: 0.0005 eV / electron
 Maximum integral of absolute [dens]ity change: 0.0001 electrons / valence electron
 Maximum integral of absolute [eigenst]ate change: 4e-08 eV^2 / valence electron
 Maximum number of scf [iter]ations: 333
 (Square brackets indicate name in SCF output, whereas a 'c' in
 the SCF output indicates the quantity has converged.)

Symmetries present (total): 1

  ( 1  0  0)
  ( 0  1  0)
  ( 0  0  1)

16 k-points: 4 x 4 x 1 Monkhorst-Pack grid
8 k-points in the irreducible part of the Brillouin zone
       k-points in crystal coordinates                weights
   0:     0.12500000   -0.37500000    0.00000000          2/16
   1:     0.12500000   -0.12500000    0.00000000          2/16
   2:     0.12500000    0.12500000    0.00000000          2/16
   3:     0.12500000    0.37500000    0.00000000          2/16
   4:     0.37500000   -0.37500000    0.00000000          2/16
   5:     0.37500000   -0.12500000    0.00000000          2/16
   6:     0.37500000    0.12500000    0.00000000          2/16
   7:     0.37500000    0.37500000    0.00000000          2/16

Wave functions: Uniform real-space grid
  Kinetic energy operator: 6*3+1=19 point O(h^6) finite-difference Laplacian
  ScaLapack parameters: grid=1x1, blocksize=None
  Wavefunction extrapolation:
    Improved wavefunction reuse through dual PAW basis 

Occupation numbers: Fermi-Dirac:
  width: 0.0500  # eV
 

Eigensolver
   Davidson(niter=2) 

Densities:
  Coarse grid: 60*60*156 grid
  Fine grid: 120*120*312 grid
  Total Charge: 0.000000 

Density mixing:
  Method: separate
  Backend: pulay
  Linear mixing parameter: 0.05
  old densities: 5
  Damping of long wavelength oscillations: 50 

Hamiltonian:
  XC and Coulomb potentials evaluated on a 120*120*312 grid
  Using the BEEF-vdW Exchange-Correlation functional
  Interpolation: tri-quintic (5. degree polynomial)
  Poisson solver: FastPoissonSolver using
    Stencil: 6*3+1=19 point O(h^6) finite-difference Laplacian
    FFT axes: [0, 1]
    FST axes: [2]

Dipole correction along z-axis 

XC parameters: BEEF-vdW with 2 nearest neighbor stencil

Memory estimate:
  Process memory now: 217.25 MiB
  Calculator: 330.73 MiB
    Density: 116.01 MiB
      Arrays: 36.75 MiB
      Localized functions: 65.25 MiB
      Mixer: 14.01 MiB
    Hamiltonian: 29.19 MiB
      Arrays: 24.03 MiB
      XC: 0.00 MiB
      Poisson: 0.00 MiB
      vbar: 5.16 MiB
    Wavefunctions: 185.52 MiB
      Arrays psit_nG: 84.05 MiB
      Eigensolver: 98.19 MiB
      Projections: 0.03 MiB
      Projectors: 3.26 MiB

Total number of cores used: 24
Parallelization over k-points: 8
Domain decomposition: 1 x 1 x 3

Number of atoms: 40
Number of atomic orbitals: 151
Number of bands in calculation: 30
Number of valence electrons: 42
Bands to converge: occupied

... initialized

Initializing position-dependent things.

Creating initial wave functions:
  30 bands from LCAO basis set

       .-----------------------.  
      /|                       |  
     / |                       |  
    /  |                       |  
   /   |                       |  
  /    |                       |  
 *     |                       |  
 |     |                       |  
 |     |                       |  
 |     |                       |  
 |     | H                     |  
 |     |      Li               |  
 |     |HB            Li      H|  
 |     |                       |  
 |     |    Li       Li      Li|  
 |     |  Li      Li      Li   |  
 |     |   Li      Li      Li  |  
 |     |Li      Li      LLi    |  
 |     |                       |  
 |   LLi     LLi     LLi       |  
 |     |  Li      Li      Li   |  
 | Li  |   Li      Li          |  
 |     |Li      Li      Li     |  
 Li    | Li      Li            |  
 |    Li      Li      Li       |  
 |     |                       |  
 |     |                       |  
 |     |                       |  
 |     |                       |  
 |     |                       |  
 |     |                       |  
 |     .-----------------------.  
 |    /                       /   
 |   /                       /    
 |  /                       /     
 | /                       /      
 |/                       /       
 *-----------------------*        

Positions:
   0 Li     1.617037    1.617037   10.000000    ( 0.0000,  0.0000,  0.0000)
   1 Li     4.851111    1.617037   10.000000    ( 0.0000,  0.0000,  0.0000)
   2 Li     8.085185    1.617037   10.000000    ( 0.0000,  0.0000,  0.0000)
   3 Li     1.617037    4.851111   10.000000    ( 0.0000,  0.0000,  0.0000)
   4 Li     4.851111    4.851111   10.000000    ( 0.0000,  0.0000,  0.0000)
   5 Li     8.085185    4.851111   10.000000    ( 0.0000,  0.0000,  0.0000)
   6 Li     1.617037    8.085185   10.000000    ( 0.0000,  0.0000,  0.0000)
   7 Li     4.851111    8.085185   10.000000    ( 0.0000,  0.0000,  0.0000)
   8 Li     8.085185    8.085185   10.000000    ( 0.0000,  0.0000,  0.0000)
   9 Li     0.000000    0.000000   11.617037    ( 0.0000,  0.0000,  0.0000)
  10 Li     3.234074    0.000000   11.617037    ( 0.0000,  0.0000,  0.0000)
  11 Li     6.468148    0.000000   11.617037    ( 0.0000,  0.0000,  0.0000)
  12 Li     0.000000    3.234074   11.617037    ( 0.0000,  0.0000,  0.0000)
  13 Li     3.234074    3.234074   11.617037    ( 0.0000,  0.0000,  0.0000)
  14 Li     6.468148    3.234074   11.617037    ( 0.0000,  0.0000,  0.0000)
  15 Li     0.000000    6.468148   11.617037    ( 0.0000,  0.0000,  0.0000)
  16 Li     3.234074    6.468148   11.617037    ( 0.0000,  0.0000,  0.0000)
  17 Li     6.468148    6.468148   11.617037    ( 0.0000,  0.0000,  0.0000)
  18 Li     1.702350    1.734295   13.308561    ( 0.0000,  0.0000,  0.0000)
  19 Li     4.769204    1.507867   13.537701    ( 0.0000,  0.0000,  0.0000)
  20 Li     7.967505    1.713225   13.307258    ( 0.0000,  0.0000,  0.0000)
  21 Li     1.696032    4.956305   13.279675    ( 0.0000,  0.0000,  0.0000)
  22 Li     4.802402    4.771580   13.474967    ( 0.0000,  0.0000,  0.0000)
  23 Li     8.004809    5.017352   13.312341    ( 0.0000,  0.0000,  0.0000)
  24 Li     1.466066    8.285266   13.727549    ( 0.0000,  0.0000,  0.0000)
  25 Li     4.744323    7.993232   13.479107    ( 0.0000,  0.0000,  0.0000)
  26 Li     7.969113    8.195406   13.387430    ( 0.0000,  0.0000,  0.0000)
  27 Li    -0.059833    0.488659   15.517708    ( 0.0000,  0.0000,  0.0000)
  28 Li     2.967689   -0.048469   15.722340    ( 0.0000,  0.0000,  0.0000)
  29 Li     6.133095   -0.041785   15.321356    ( 0.0000,  0.0000,  0.0000)
  30 Li    -0.011761    3.663391   15.037329    ( 0.0000,  0.0000,  0.0000)
  31 Li     3.137520    3.216814   15.346465    ( 0.0000,  0.0000,  0.0000)
  32 Li     6.627974    3.132132   15.333851    ( 0.0000,  0.0000,  0.0000)
  33 Li    -0.102445    6.539689   15.365194    ( 0.0000,  0.0000,  0.0000)
  34 Li     2.930016    6.506355   15.405033    ( 0.0000,  0.0000,  0.0000)
  35 Li     6.365656    6.291836   15.329747    ( 0.0000,  0.0000,  0.0000)
  36 B     10.647022    8.354480   16.061641    ( 0.0000,  0.0000,  0.0000)
  37 H     10.821716    9.214078   16.919844    ( 0.0000,  0.0000,  0.0000)
  38 H      9.395720    8.522215   15.977686    ( 0.0000,  0.0000,  0.0000)
  39 H     10.665186    7.294496   16.669486    ( 0.0000,  0.0000,  0.0000)

Unit cell:
           periodic     x           y           z      points  spacing
  1. axis:    yes    9.702222    0.000000    0.000000    60     0.1617
  2. axis:    yes    0.000000    9.702222    0.000000    60     0.1617
  3. axis:    no     0.000000    0.000000   24.851111   156     0.1593

  Lengths:   9.702222   9.702222  24.851111
  Angles:   90.000000  90.000000  90.000000

Effective grid spacing dv^(1/3) = 0.1609

     iter     time        total  log10-change:
                         energy  eigst   dens
iter:   1 22:29:20  -219.818241  +0.96
iter:   2 22:31:32  -220.217422  +0.42  -1.71
iter:   3 22:33:47  -220.335126  -0.04  -1.94
iter:   4 22:36:02  -220.381952  -0.42  -2.17
Writing to output.gpw (mode='')

iter:   5 22:38:23  -220.403242  -0.76  -2.47
iter:   6 22:40:32  -220.413723  -1.06  -2.77
iter:   7 22:42:46  -220.418964c -1.35  -2.69
iter:   8 22:45:03  -220.421378c -1.63  -2.66
iter:   9 22:47:16  -220.423117c -1.85  -3.16
Writing to output.gpw (mode='')

iter:  10 22:49:39  -220.424338c -2.03  -3.23
iter:  11 22:51:55  -220.424998c -2.22  -2.98
iter:  12 22:54:06  -220.425442c -2.40  -3.17
iter:  13 22:56:21  -220.425779c -2.56  -3.50
iter:  14 22:58:41  -220.426029c -2.70  -3.52
Writing to output.gpw (mode='')

iter:  15 23:00:55  -220.426205c -2.83  -3.34
iter:  16 23:03:05  -220.426325c -2.97  -3.36
iter:  17 23:05:14  -220.426436c -3.10  -3.22
iter:  18 23:07:30  -220.426500c -3.23  -3.11
iter:  19 23:09:46  -220.426563c -3.26  -3.13
Writing to output.gpw (mode='')

iter:  20 23:12:04  -220.426587c -3.49  -3.13
iter:  21 23:14:25  -220.426617c -3.58  -3.21
iter:  22 23:16:36  -220.426652c -3.60  -3.11
iter:  23 23:18:57  -220.426675c -3.75  -3.46
iter:  24 23:21:11  -220.426689c -3.87  -3.48
Writing to output.gpw (mode='')

iter:  25 23:23:29  -220.426703c -3.94  -3.50
iter:  26 23:25:46  -220.426719c -4.00  -3.54
iter:  27 23:28:04  -220.426738c -4.10  -3.59
iter:  28 23:30:17  -220.426743c -4.33  -3.80
iter:  29 23:32:41  -220.426749c -4.30  -3.83
Writing to output.gpw (mode='')

iter:  30 23:35:04  -220.426753c -4.40  -3.88
iter:  31 23:37:25  -220.426757c -4.55  -3.97
iter:  32 23:39:45  -220.426761c -4.64  -4.13c
iter:  33 23:42:01  -220.426763c -4.74  -4.27c
iter:  34 23:44:15  -220.426765c -4.93  -4.32c
Writing to output.gpw (mode='')

iter:  35 23:46:40  -220.426766c -5.13  -4.37c
iter:  36 23:49:07  -220.426768c -5.24  -4.50c
iter:  37 23:51:33  -220.426769c -5.34  -4.66c
iter:  38 23:53:49  -220.426769c -5.43  -4.72c
iter:  39 23:56:07  -220.426770c -5.44  -4.72c
Writing to output.gpw (mode='')

iter:  40 23:58:57  -220.426770c -5.57  -4.63c
iter:  41 00:01:19  -220.426771c -5.58  -4.69c
iter:  42 00:03:40  -220.426771c -5.53  -4.69c
iter:  43 00:05:57  -220.426772c -5.63  -4.68c
iter:  44 00:08:18  -220.426772c -5.70  -4.66c
Writing to output.gpw (mode='')

iter:  45 00:11:08  -220.426773c -5.95  -4.65c
iter:  46 00:13:25  -220.426772c -6.01  -4.71c
iter:  47 00:15:40  -220.426773c -6.02  -4.64c
iter:  48 00:18:06  -220.426773c -6.03  -4.64c
iter:  49 00:20:19  -220.426773c -6.30  -4.60c
Writing to output.gpw (mode='')

iter:  50 00:23:10  -220.426774c -6.34  -4.69c
iter:  51 00:25:29  -220.426774c -6.33  -4.71c
iter:  52 00:27:42  -220.426775c -6.35  -4.78c
iter:  53 00:29:57  -220.426775c -6.58  -4.88c
iter:  54 00:32:16  -220.426775c -6.55  -4.94c
Writing to output.gpw (mode='')

iter:  55 00:35:07  -220.426775c -6.54  -5.08c
iter:  56 00:37:29  -220.426775c -6.65  -5.29c
iter:  57 00:39:54  -220.426775c -6.69  -5.29c
iter:  58 00:42:12  -220.426775c -6.82  -5.33c
iter:  59 00:44:27  -220.426775c -6.92  -5.37c
Writing to output.gpw (mode='')

iter:  60 00:47:06  -220.426775c -7.00  -5.39c
iter:  61 00:49:29  -220.426776c -6.91  -5.41c
iter:  62 00:51:58  -220.426775c -7.10  -5.48c
iter:  63 00:54:22  -220.426776c -7.12  -5.55c
iter:  64 00:56:43  -220.426776c -7.04  -5.69c
Writing to output.gpw (mode='')

iter:  65 00:59:27  -220.426776c -7.21  -5.76c
iter:  66 01:01:54  -220.426776c -7.24  -5.84c
iter:  67 01:04:19  -220.426776c -7.41c -6.04c

Converged after 67 iterations.

Dipole moment: (0.696958, -2.630475, -0.020015) |e|*Ang

Energy contributions relative to reference atoms: (reference = -8007.321583)

Kinetic:        +93.128671
Potential:      -80.280309
External:        +0.000000
XC:            -232.997632
Entropy (-ST):   -0.129047
Local:           -0.212982
--------------------------
Free energy:   -220.491299
Extrapolated:  -220.426776

Dipole-layer corrected work functions: 3.429289, 3.467765 eV

Showing only first 2 kpts
 Kpt  Band  Eigenvalues  Occupancy
  0    19     -3.69268    1.98497
  0    20     -3.63355    1.95176
  0    21     -3.36118    0.29685
  0    22     -3.19153    0.01165

  1    19     -3.71463    1.99028
  1    20     -3.41704    0.69512
  1    21     -3.35477    0.26589
  1    22     -3.23552    0.02785


Fermi level: -3.44853

No gap
Writing to output.gpw (mode='')


Forces in eV/Ang:
  0 Li    0.01535   -0.01186   -0.28410
  1 Li    0.01857   -0.00279   -0.27180
  2 Li   -0.01149    0.00734   -0.30357
  3 Li    0.01190   -0.00954   -0.29155
  4 Li    0.01771   -0.00436   -0.27138
  5 Li   -0.00259   -0.03635   -0.27923
  6 Li    0.01495   -0.00634   -0.24398
  7 Li   -0.01006    0.00246   -0.30024
  8 Li    0.00640   -0.01509   -0.26080
  9 Li    0.00757    0.05538    0.20311
 10 Li   -0.02462   -0.08400    0.22187
 11 Li   -0.10727   -0.00393    0.22315
 12 Li   -0.02942    0.06121    0.21719
 13 Li    0.10732    0.00209    0.12230
 14 Li   -0.13899    0.05498    0.20251
 15 Li    0.03005    0.11925    0.28262
 16 Li   -0.00659    0.11785    0.21938
 17 Li   -0.11713    0.07146    0.19145
 18 Li   -0.13922   -0.07099    0.15576
 19 Li   -0.02364    0.09142   -0.08096
 20 Li    0.13448   -0.09904    0.13115
 21 Li   -0.03549   -0.04139    0.04906
 22 Li   -0.02308    0.03647   -0.00077
 23 Li    0.01285   -0.07803    0.07271
 24 Li    0.12673    0.01897   -0.18887
 25 Li    0.01785    0.02263   -0.00746
 26 Li    0.03885   -0.03746    0.11174
 27 Li    0.02856    0.11828   -0.05618
 28 Li   -0.25492   -0.11963   -0.09440
 29 Li    0.11427   -0.00914    0.09315
 30 Li   -0.00483   -0.25485    0.04903
 31 Li    0.07627    0.04879    0.02172
 32 Li   -0.06337    0.02327    0.03221
 33 Li   -0.02566    0.25388    0.08865
 34 Li   -0.16655    0.21547    0.10098
 35 Li   -0.07339    0.04451    0.02901
 36 B    -0.38552   -0.00531    0.16860
 37 H     0.51231    0.18881    0.07580
 38 H     0.08519   -0.44537   -0.38298
 39 H     0.27811   -0.23370    0.23693

System changes: positions 

Initializing position-dependent things.

Density initialized from wave functions
       .-----------------------.  
      /|                       |  
     / |                       |  
    /  |                       |  
   /   |                       |  
  /    |                       |  
 *     |                       |  
 |     |                       |  
 |     |                       |  
 |     |                       |  
 |     | H                     |  
 |     |      Li               |  
 |     |HB            Li      H|  
 |     |                       |  
 |     |    Li       Li      Li|  
 |     |  Li      Li      Li   |  
 |     |   Li      Li      Li  |  
 |     |Li      Li      LLi    |  
 |     |                       |  
 |   LLi     LLi     LLi       |  
 |     |  Li      Li      Li   |  
 | Li  |   Li      Li          |  
 |     |Li      Li      Li     |  
 Li    | Li      Li            |  
 |    Li      Li      Li       |  
 |     |                       |  
 |     |                       |  
 |     |                       |  
 |     |                       |  
 |     |                       |  
 |     |                       |  
 |     .-----------------------.  
 |    /                       /   
 |   /                       /    
 |  /                       /     
 | /                       /      
 |/                       /       
 *-----------------------*        

Positions:
   0 Li     1.617037    1.617037   10.000000    ( 0.0000,  0.0000,  0.0000)
   1 Li     4.851111    1.617037   10.000000    ( 0.0000,  0.0000,  0.0000)
   2 Li     8.085185    1.617037   10.000000    ( 0.0000,  0.0000,  0.0000)
   3 Li     1.617037    4.851111   10.000000    ( 0.0000,  0.0000,  0.0000)
   4 Li     4.851111    4.851111   10.000000    ( 0.0000,  0.0000,  0.0000)
   5 Li     8.085185    4.851111   10.000000    ( 0.0000,  0.0000,  0.0000)
   6 Li     1.617037    8.085185   10.000000    ( 0.0000,  0.0000,  0.0000)
   7 Li     4.851111    8.085185   10.000000    ( 0.0000,  0.0000,  0.0000)
   8 Li     8.085185    8.085185   10.000000    ( 0.0000,  0.0000,  0.0000)
   9 Li     0.000000    0.000000   11.617037    ( 0.0000,  0.0000,  0.0000)
  10 Li     3.234074    0.000000   11.617037    ( 0.0000,  0.0000,  0.0000)
  11 Li     6.468148    0.000000   11.617037    ( 0.0000,  0.0000,  0.0000)
  12 Li     0.000000    3.234074   11.617037    ( 0.0000,  0.0000,  0.0000)
  13 Li     3.234074    3.234074   11.617037    ( 0.0000,  0.0000,  0.0000)
  14 Li     6.468148    3.234074   11.617037    ( 0.0000,  0.0000,  0.0000)
  15 Li     0.000000    6.468148   11.617037    ( 0.0000,  0.0000,  0.0000)
  16 Li     3.234074    6.468148   11.617037    ( 0.0000,  0.0000,  0.0000)
  17 Li     6.468148    6.468148   11.617037    ( 0.0000,  0.0000,  0.0000)
  18 Li     1.696451    1.728920   13.313381    ( 0.0000,  0.0000,  0.0000)
  19 Li     4.766724    1.509065   13.531966    ( 0.0000,  0.0000,  0.0000)
  20 Li     7.977487    1.702481   13.313926    ( 0.0000,  0.0000,  0.0000)
  21 Li     1.694133    4.955576   13.276129    ( 0.0000,  0.0000,  0.0000)
  22 Li     4.801371    4.770200   13.469711    ( 0.0000,  0.0000,  0.0000)
  23 Li     8.005879    5.016813   13.309822    ( 0.0000,  0.0000,  0.0000)
  24 Li     1.477694    8.290061   13.721325    ( 0.0000,  0.0000,  0.0000)
  25 Li     4.740936    7.990920   13.472994    ( 0.0000,  0.0000,  0.0000)
  26 Li     7.967290    8.198498   13.391036    ( 0.0000,  0.0000,  0.0000)
  27 Li    -0.060045    0.477172   15.555227    ( 0.0000,  0.0000,  0.0000)
  28 Li     2.975166   -0.045549   15.721245    ( 0.0000,  0.0000,  0.0000)
  29 Li     6.113002   -0.042102   15.316079    ( 0.0000,  0.0000,  0.0000)
  30 Li    -0.011171    3.651555   15.033217    ( 0.0000,  0.0000,  0.0000)
  31 Li     3.138299    3.217894   15.340886    ( 0.0000,  0.0000,  0.0000)
  32 Li     6.627763    3.130039   15.328740    ( 0.0000,  0.0000,  0.0000)
  33 Li    -0.114569    6.535994   15.356805    ( 0.0000,  0.0000,  0.0000)
  34 Li     2.918080    6.516398   15.401404    ( 0.0000,  0.0000,  0.0000)
  35 Li     6.361130    6.291829   15.324113    ( 0.0000,  0.0000,  0.0000)
  36 B     10.668844    8.337841   16.047278    ( 0.0000,  0.0000,  0.0000)
  37 H     10.824663    9.202960   16.905340    ( 0.0000,  0.0000,  0.0000)
  38 H      9.414920    8.490510   15.962648    ( 0.0000,  0.0000,  0.0000)
  39 H     10.690246    7.277600   16.656243    ( 0.0000,  0.0000,  0.0000)

Unit cell:
           periodic     x           y           z      points  spacing
  1. axis:    yes    9.702222    0.000000    0.000000    60     0.1617
  2. axis:    yes    0.000000    9.702222    0.000000    60     0.1617
  3. axis:    no     0.000000    0.000000   24.851111   156     0.1593

  Lengths:   9.702222   9.702222  24.851111
  Angles:   90.000000  90.000000  90.000000

Effective grid spacing dv^(1/3) = 0.1609

     iter     time        total  log10-change:
                         energy  eigst   dens
iter:   1 01:07:32  -220.469994  -0.76
iter:   2 01:09:42  -220.460023  -1.53  -1.80
iter:   3 01:11:51  -220.457014c -2.16  -1.98
iter:   4 01:14:01  -220.449324c -2.26  -2.06
Writing to output.gpw (mode='')

iter:   5 01:16:44  -220.449001c -2.64  -2.34
iter:   6 01:19:07  -220.447863c -2.28  -2.38
iter:   7 01:21:23  -220.447497c -2.27  -2.50
iter:   8 01:23:32  -220.447374c -2.77  -2.65
iter:   9 01:25:40  -220.447319c -2.75  -2.82
Writing to output.gpw (mode='')

iter:  10 01:28:18  -220.447302c -3.45  -2.98
iter:  11 01:30:43  -220.447307c -3.69  -2.98
iter:  12 01:32:57  -220.447276c -3.35  -2.96
iter:  13 01:35:13  -220.447349c -3.30  -2.97
iter:  14 01:37:23  -220.447349c -3.49  -3.00
Writing to output.gpw (mode='')

iter:  15 01:39:52  -220.447339c -4.31  -3.29
iter:  16 01:42:15  -220.447345c -3.92  -3.40
iter:  17 01:44:34  -220.447338c -4.19  -3.41
iter:  18 01:46:51  -220.447330c -4.80  -3.60
iter:  19 01:49:08  -220.447328c -4.77  -3.75
Writing to output.gpw (mode='')

iter:  20 01:51:43  -220.447328c -5.01  -3.83
iter:  21 01:54:06  -220.447327c -5.37  -3.99
iter:  22 01:56:23  -220.447329c -5.45  -4.06c
iter:  23 01:58:35  -220.447330c -5.50  -4.21c
iter:  24 02:00:45  -220.447328c -5.65  -4.19c
Writing to output.gpw (mode='')

iter:  25 02:03:27  -220.447327c -5.88  -4.34c
iter:  26 02:05:49  -220.447328c -6.30  -4.53c
iter:  27 02:08:10  -220.447328c -6.41  -4.61c
iter:  28 02:10:26  -220.447329c -6.38  -4.66c
iter:  29 02:12:42  -220.447329c -6.46  -4.98c
Writing to output.gpw (mode='')

iter:  30 02:15:17  -220.447329c -6.70  -5.06c
iter:  31 02:17:47  -220.447329c -6.56  -5.04c
iter:  32 02:19:58  -220.447329c -6.84  -4.90c
iter:  33 02:22:18  -220.447329c -6.84  -4.90c
iter:  34 02:24:39  -220.447329c -6.83  -4.96c
Writing to output.gpw (mode='')

iter:  35 02:27:01  -220.447329c -7.17  -4.81c
iter:  36 02:29:13  -220.447329c -7.14  -4.88c
iter:  37 02:31:36  -220.447329c -7.33  -5.07c
iter:  38 02:33:54  -220.447328c -7.23  -5.15c
iter:  39 02:36:11  -220.447329c -7.38  -5.21c
Writing to output.gpw (mode='')

iter:  40 02:38:40  -220.447329c -7.63c -5.23c

Converged after 40 iterations.

Dipole moment: (1.115190, -2.773011, -0.015770) |e|*Ang

Energy contributions relative to reference atoms: (reference = -8007.321583)

Kinetic:        +93.163659
Potential:      -80.304631
External:        +0.000000
XC:            -233.028838
Entropy (-ST):   -0.128819
Local:           -0.213109
--------------------------
Free energy:   -220.511738
Extrapolated:  -220.447329

Dipole-layer corrected work functions: 3.429863, 3.460178 eV

Showing only first 2 kpts
 Kpt  Band  Eigenvalues  Occupancy
  0    19     -3.68952    1.98507
  0    20     -3.62960    1.95135
  0    21     -3.35735    0.29522
  0    22     -3.18808    0.01166

  1    19     -3.71111    1.99028
  1    20     -3.41361    0.69581
  1    21     -3.34955    0.25809
  1    22     -3.22849    0.02598


Fermi level: -3.44502

No gap

Forces in eV/Ang:
  0 Li    0.01512   -0.01240   -0.28250
  1 Li    0.01832   -0.00212   -0.27349
  2 Li   -0.01077    0.00714   -0.30242
  3 Li    0.01133   -0.00917   -0.29278
  4 Li    0.01839   -0.00435   -0.26998
  5 Li   -0.00258   -0.03577   -0.28091
  6 Li    0.01553   -0.00586   -0.24278
  7 Li   -0.01064    0.00331   -0.30005
  8 Li    0.00601   -0.01467   -0.26009
  9 Li    0.00873    0.05112    0.19653
 10 Li   -0.02462   -0.08068    0.21650
 11 Li   -0.10733   -0.00286    0.22188
 12 Li   -0.03033    0.05913    0.21573
 13 Li    0.09942   -0.00315    0.12408
 14 Li   -0.12963    0.04505    0.21053
 15 Li    0.02876    0.12343    0.28262
 16 Li   -0.00763    0.11514    0.21393
 17 Li   -0.11435    0.07320    0.19125
 18 Li   -0.13478   -0.06761    0.15329
 19 Li   -0.02368    0.09393   -0.08256
 20 Li    0.12495   -0.09221    0.12698
 21 Li   -0.03468   -0.04259    0.05047
 22 Li   -0.02427    0.04011    0.00344
 23 Li    0.01035   -0.08258    0.07297
 24 Li    0.11272    0.01724   -0.19184
 25 Li    0.02090    0.02281   -0.00500
 26 Li    0.04046   -0.03814    0.11100
 27 Li    0.02681    0.11248   -0.07154
 28 Li   -0.25897   -0.12223   -0.10039
 29 Li    0.13047   -0.00967    0.09661
 30 Li   -0.00573   -0.24778    0.05175
 31 Li    0.07772    0.04788    0.02415
 32 Li   -0.06324    0.02296    0.03295
 33 Li   -0.00227    0.25736    0.09704
 34 Li   -0.17230    0.21862    0.10677
 35 Li   -0.07571    0.04518    0.03011
 36 B    -0.41638   -0.00790    0.17553
 37 H     0.51761    0.17777    0.09294
 38 H     0.07560   -0.42612   -0.41359
 39 H     0.29179   -0.22747    0.23998

System changes: positions 

Initializing position-dependent things.

Density initialized from wave functions
       .-----------------------.  
      /|                       |  
     / |                       |  
    /  |                       |  
   /   |                       |  
  /    |                       |  
 *     |                       |  
 |     |                       |  
 |     |                       |  
 |     |                       |  
 |     | H                     |  
 |     |      Li               |  
 |     |HB            Li      H|  
 |     |                       |  
 |     |    Li       Li      Li|  
 |     |  Li      Li      Li   |  
 |     |   Li      Li      Li  |  
 |     |Li      Li      LLi    |  
 |     |                       |  
 |   LLi     LLi     LLi       |  
 |     |  Li      Li      Li   |  
 | Li  |   Li      Li          |  
 |     |Li      Li      Li     |  
 Li    | Li      Li            |  
 |    Li      Li      Li       |  
 |     |                       |  
 |     |                       |  
 |     |                       |  
 |     |                       |  
 |     |                       |  
 |     |                       |  
 |     .-----------------------.  
 |    /                       /   
 |   /                       /    
 |  /                       /     
 | /                       /      
 |/                       /       
 *-----------------------*        

Positions:
   0 Li     1.617037    1.617037   10.000000    ( 0.0000,  0.0000,  0.0000)
   1 Li     4.851111    1.617037   10.000000    ( 0.0000,  0.0000,  0.0000)
   2 Li     8.085185    1.617037   10.000000    ( 0.0000,  0.0000,  0.0000)
   3 Li     1.617037    4.851111   10.000000    ( 0.0000,  0.0000,  0.0000)
   4 Li     4.851111    4.851111   10.000000    ( 0.0000,  0.0000,  0.0000)
   5 Li     8.085185    4.851111   10.000000    ( 0.0000,  0.0000,  0.0000)
   6 Li     1.617037    8.085185   10.000000    ( 0.0000,  0.0000,  0.0000)
   7 Li     4.851111    8.085185   10.000000    ( 0.0000,  0.0000,  0.0000)
   8 Li     8.085185    8.085185   10.000000    ( 0.0000,  0.0000,  0.0000)
   9 Li     0.000000    0.000000   11.617037    ( 0.0000,  0.0000,  0.0000)
  10 Li     3.234074    0.000000   11.617037    ( 0.0000,  0.0000,  0.0000)
  11 Li     6.468148    0.000000   11.617037    ( 0.0000,  0.0000,  0.0000)
  12 Li     0.000000    3.234074   11.617037    ( 0.0000,  0.0000,  0.0000)
  13 Li     3.234074    3.234074   11.617037    ( 0.0000,  0.0000,  0.0000)
  14 Li     6.468148    3.234074   11.617037    ( 0.0000,  0.0000,  0.0000)
  15 Li     0.000000    6.468148   11.617037    ( 0.0000,  0.0000,  0.0000)
  16 Li     3.234074    6.468148   11.617037    ( 0.0000,  0.0000,  0.0000)
  17 Li     6.468148    6.468148   11.617037    ( 0.0000,  0.0000,  0.0000)
  18 Li     1.690037    1.723372   13.319424    ( 0.0000,  0.0000,  0.0000)
  19 Li     4.764396    1.510442   13.526966    ( 0.0000,  0.0000,  0.0000)
  20 Li     7.988396    1.691205   13.321962    ( 0.0000,  0.0000,  0.0000)
  21 Li     1.691330    4.954666   13.274272    ( 0.0000,  0.0000,  0.0000)
  22 Li     4.800433    4.769190   13.464284    ( 0.0000,  0.0000,  0.0000)
  23 Li     8.007717    5.015752   13.309047    ( 0.0000,  0.0000,  0.0000)
  24 Li     1.491215    8.294098   13.713802    ( 0.0000,  0.0000,  0.0000)
  25 Li     4.738010    7.989815   13.467970    ( 0.0000,  0.0000,  0.0000)
  26 Li     7.965966    8.200601   13.395699    ( 0.0000,  0.0000,  0.0000)
  27 Li    -0.060997    0.464347   15.593103    ( 0.0000,  0.0000,  0.0000)
  28 Li     2.978568   -0.043319   15.720254    ( 0.0000,  0.0000,  0.0000)
  29 Li     6.096653   -0.042232   15.312995    ( 0.0000,  0.0000,  0.0000)
  30 Li    -0.010524    3.637276   15.031471    ( 0.0000,  0.0000,  0.0000)
  31 Li     3.140214    3.219643   15.336096    ( 0.0000,  0.0000,  0.0000)
  32 Li     6.626257    3.128738   15.324558    ( 0.0000,  0.0000,  0.0000)
  33 Li    -0.127129    6.533591   15.349955    ( 0.0000,  0.0000,  0.0000)
  34 Li     2.907001    6.526954   15.398867    ( 0.0000,  0.0000,  0.0000)
  35 Li     6.356142    6.292211   15.319578    ( 0.0000,  0.0000,  0.0000)
  36 B     10.689207    8.323249   16.034354    ( 0.0000,  0.0000,  0.0000)
  37 H     10.828798    9.194764   16.889434    ( 0.0000,  0.0000,  0.0000)
  38 H      9.433262    8.461947   15.946908    ( 0.0000,  0.0000,  0.0000)
  39 H     10.712544    7.263971   16.646723    ( 0.0000,  0.0000,  0.0000)

Unit cell:
           periodic     x           y           z      points  spacing
  1. axis:    yes    9.702222    0.000000    0.000000    60     0.1617
  2. axis:    yes    0.000000    9.702222    0.000000    60     0.1617
  3. axis:    no     0.000000    0.000000   24.851111   156     0.1593

  Lengths:   9.702222   9.702222  24.851111
  Angles:   90.000000  90.000000  90.000000

Effective grid spacing dv^(1/3) = 0.1609

     iter     time        total  log10-change:
                         energy  eigst   dens
iter:   1 02:41:19  -220.484584  -0.83
iter:   2 02:43:40  -220.481363  -1.62  -1.91
iter:   3 02:45:59  -220.477303c -2.28  -2.01
iter:   4 02:48:14  -220.471306c -2.10  -2.14
Writing to output.gpw (mode='')

iter:   5 02:50:44  -220.471001c -2.41  -2.39
iter:   6 02:53:09  -220.470739c -2.48  -2.47
iter:   7 02:55:31  -220.470744c -2.30  -2.54
iter:   8 02:57:49  -220.470830c -2.32  -2.57
iter:   9 03:00:10  -220.470326c -3.06  -2.62
Writing to output.gpw (mode='')

iter:  10 03:02:46  -220.470262c -3.25  -2.95
iter:  11 03:05:11  -220.470256c -3.41  -3.04
iter:  12 03:07:34  -220.470262c -3.90  -3.18
iter:  13 03:09:51  -220.470274c -4.02  -3.34
iter:  14 03:12:15  -220.470279c -4.24  -3.38
Writing to output.gpw (mode='')

iter:  15 03:14:53  -220.470279c -4.63  -3.50
iter:  16 03:17:16  -220.470282c -4.62  -3.72
iter:  17 03:19:32  -220.470281c -4.96  -3.78
iter:  18 03:21:53  -220.470281c -5.01  -3.88
iter:  19 03:24:02  -220.470281c -5.28  -4.00c
Writing to output.gpw (mode='')

iter:  20 03:26:30  -220.470280c -5.51  -4.05c
iter:  21 03:28:43  -220.470280c -5.53  -4.23c
iter:  22 03:30:57  -220.470281c -5.69  -4.24c
iter:  23 03:33:08  -220.470282c -5.75  -4.42c
iter:  24 03:35:30  -220.470283c -5.97  -4.44c
Writing to output.gpw (mode='')

iter:  25 03:37:57  -220.470284c -6.00  -4.51c
iter:  26 03:40:08  -220.470283c -6.45  -4.78c
iter:  27 03:42:22  -220.470283c -6.35  -4.87c
iter:  28 03:44:43  -220.470283c -6.52  -4.99c
iter:  29 03:46:58  -220.470283c -6.78  -5.02c
Writing to output.gpw (mode='')

iter:  30 03:49:24  -220.470283c -6.56  -5.02c
iter:  31 03:51:38  -220.470283c -6.90  -4.89c
iter:  32 03:53:52  -220.470283c -7.07  -4.89c
iter:  33 03:55:59  -220.470283c -7.14  -4.85c
iter:  34 03:58:13  -220.470283c -6.93  -4.96c
Writing to output.gpw (mode='')

iter:  35 04:00:39  -220.470284c -7.10  -4.82c
iter:  36 04:02:52  -220.470284c -7.42c -5.02c

Converged after 36 iterations.

Dipole moment: (1.513992, -2.890985, -0.011155) |e|*Ang

Energy contributions relative to reference atoms: (reference = -8007.321583)

Kinetic:        +93.201521
Potential:      -80.335927
External:        +0.000000
XC:            -233.058469
Entropy (-ST):   -0.128592
Local:           -0.213113
--------------------------
Free energy:   -220.534580
Extrapolated:  -220.470284

Dipole-layer corrected work functions: 3.430416, 3.451861 eV

Showing only first 2 kpts
 Kpt  Band  Eigenvalues  Occupancy
  0    19     -3.68565    1.98507
  0    20     -3.62536    1.95100
  0    21     -3.35309    0.29334
  0    22     -3.18395    0.01160

  1    19     -3.70711    1.99026
  1    20     -3.40990    0.69740
  1    21     -3.34436    0.25227
  1    22     -3.22112    0.02425


Fermi level: -3.44114

No gap
Writing to output.gpw (mode='')


Forces in eV/Ang:
  0 Li    0.01472   -0.01297   -0.28091
  1 Li    0.01808   -0.00145   -0.27523
  2 Li   -0.00994    0.00697   -0.30127
  3 Li    0.01077   -0.00873   -0.29377
  4 Li    0.01906   -0.00438   -0.26892
  5 Li   -0.00252   -0.03509   -0.28246
  6 Li    0.01608   -0.00537   -0.24171
  7 Li   -0.01127    0.00404   -0.29970
  8 Li    0.00564   -0.01415   -0.25950
  9 Li    0.00983    0.04645    0.19057
 10 Li   -0.02446   -0.07664    0.21127
 11 Li   -0.10624   -0.00176    0.22174
 12 Li   -0.03127    0.05669    0.21494
 13 Li    0.09074   -0.00834    0.12691
 14 Li   -0.11956    0.03498    0.21944
 15 Li    0.02735    0.12714    0.28252
 16 Li   -0.00877    0.11214    0.20965
 17 Li   -0.11070    0.07443    0.19219
 18 Li   -0.12871   -0.06351    0.14907
 19 Li   -0.02347    0.09466   -0.08313
 20 Li    0.11291   -0.08410    0.12169
 21 Li   -0.03338   -0.04353    0.05122
 22 Li   -0.02539    0.04408    0.00805
 23 Li    0.00727   -0.08668    0.07204
 24 Li    0.09508    0.01410   -0.18888
 25 Li    0.02410    0.02276   -0.00276
 26 Li    0.04158   -0.03793    0.10836
 27 Li    0.02075    0.11819   -0.09348
 28 Li   -0.25625   -0.12125   -0.10582
 29 Li    0.14276   -0.00970    0.09887
 30 Li   -0.00661   -0.23738    0.05492
 31 Li    0.07842    0.04651    0.02647
 32 Li   -0.06198    0.02216    0.03301
 33 Li    0.02347    0.25597    0.10437
 34 Li   -0.17594    0.21869    0.11115
 35 Li   -0.07796    0.04528    0.03068
 36 B    -0.44863   -0.02709    0.17743
 37 H     0.52512    0.17165    0.12652
 38 H     0.08105   -0.40986   -0.41741
 39 H     0.31038   -0.22027    0.24152

System changes: positions 

Initializing position-dependent things.

Density initialized from wave functions
       .-----------------------.  
      /|                       |  
     / |                       |  
    /  |                       |  
   /   |                       |  
  /    |                       |  
 *     |                       |  
 |     |                       |  
 |     |                       |  
 |     |                       |  
 |     | H                     |  
 |     |      Li               |  
 |     |HB            Li      H|  
 |     |                       |  
 |     |    Li       Li      Li|  
 |     |  Li      Li      Li   |  
 |     |   Li      Li      Li  |  
 |     |Li      Li      LLi    |  
 |     |                       |  
 |   LLi     LLi     LLi       |  
 |     |  Li      Li      Li   |  
 | Li  |   Li      Li          |  
 |     |Li      Li      Li     |  
 Li    | Li      Li            |  
 |    Li      Li      Li       |  
 |     |                       |  
 |     |                       |  
 |     |                       |  
 |     |                       |  
 |     |                       |  
 |     |                       |  
 |     .-----------------------.  
 |    /                       /   
 |   /                       /    
 |  /                       /     
 | /                       /      
 |/                       /       
 *-----------------------*        

Positions:
   0 Li     1.617037    1.617037   10.000000    ( 0.0000,  0.0000,  0.0000)
   1 Li     4.851111    1.617037   10.000000    ( 0.0000,  0.0000,  0.0000)
   2 Li     8.085185    1.617037   10.000000    ( 0.0000,  0.0000,  0.0000)
   3 Li     1.617037    4.851111   10.000000    ( 0.0000,  0.0000,  0.0000)
   4 Li     4.851111    4.851111   10.000000    ( 0.0000,  0.0000,  0.0000)
   5 Li     8.085185    4.851111   10.000000    ( 0.0000,  0.0000,  0.0000)
   6 Li     1.617037    8.085185   10.000000    ( 0.0000,  0.0000,  0.0000)
   7 Li     4.851111    8.085185   10.000000    ( 0.0000,  0.0000,  0.0000)
   8 Li     8.085185    8.085185   10.000000    ( 0.0000,  0.0000,  0.0000)
   9 Li     0.000000    0.000000   11.617037    ( 0.0000,  0.0000,  0.0000)
  10 Li     3.234074    0.000000   11.617037    ( 0.0000,  0.0000,  0.0000)
  11 Li     6.468148    0.000000   11.617037    ( 0.0000,  0.0000,  0.0000)
  12 Li     0.000000    3.234074   11.617037    ( 0.0000,  0.0000,  0.0000)
  13 Li     3.234074    3.234074   11.617037    ( 0.0000,  0.0000,  0.0000)
  14 Li     6.468148    3.234074   11.617037    ( 0.0000,  0.0000,  0.0000)
  15 Li     0.000000    6.468148   11.617037    ( 0.0000,  0.0000,  0.0000)
  16 Li     3.234074    6.468148   11.617037    ( 0.0000,  0.0000,  0.0000)
  17 Li     6.468148    6.468148   11.617037    ( 0.0000,  0.0000,  0.0000)
  18 Li     1.683027    1.717534   13.326266    ( 0.0000,  0.0000,  0.0000)
  19 Li     4.762118    1.511118   13.522847    ( 0.0000,  0.0000,  0.0000)
  20 Li     8.000204    1.679314   13.330906    ( 0.0000,  0.0000,  0.0000)
  21 Li     1.686939    4.953526   13.274195    ( 0.0000,  0.0000,  0.0000)
  22 Li     4.799516    4.768452   13.457750    ( 0.0000,  0.0000,  0.0000)
  23 Li     8.010991    5.014176   13.310104    ( 0.0000,  0.0000,  0.0000)
  24 Li     1.506092    8.297647   13.705005    ( 0.0000,  0.0000,  0.0000)
  25 Li     4.735411    7.990482   13.464230    ( 0.0000,  0.0000,  0.0000)
  26 Li     7.965107    8.201998   13.401055    ( 0.0000,  0.0000,  0.0000)
  27 Li    -0.062400    0.450818   15.630719    ( 0.0000,  0.0000,  0.0000)
  28 Li     2.978542   -0.041490   15.720148    ( 0.0000,  0.0000,  0.0000)
  29 Li     6.083225   -0.042197   15.312373    ( 0.0000,  0.0000,  0.0000)
  30 Li    -0.009845    3.620190   15.032380    ( 0.0000,  0.0000,  0.0000)
  31 Li     3.143290    3.222141   15.331626    ( 0.0000,  0.0000,  0.0000)
  32 Li     6.623521    3.128186   15.320804    ( 0.0000,  0.0000,  0.0000)
  33 Li    -0.140111    6.531615   15.344474    ( 0.0000,  0.0000,  0.0000)
  34 Li     2.896489    6.537882   15.396783    ( 0.0000,  0.0000,  0.0000)
  35 Li     6.350364    6.292595   15.315407    ( 0.0000,  0.0000,  0.0000)
  36 B     10.708389    8.310513   16.024144    ( 0.0000,  0.0000,  0.0000)
  37 H     10.834853    9.189424   16.874183    ( 0.0000,  0.0000,  0.0000)
  38 H      9.451138    8.435155   15.932423    ( 0.0000,  0.0000,  0.0000)
  39 H     10.733423    7.252429   16.640998    ( 0.0000,  0.0000,  0.0000)

Unit cell:
           periodic     x           y           z      points  spacing
  1. axis:    yes    9.702222    0.000000    0.000000    60     0.1617
  2. axis:    yes    0.000000    9.702222    0.000000    60     0.1617
  3. axis:    no     0.000000    0.000000   24.851111   156     0.1593

  Lengths:   9.702222   9.702222  24.851111
  Angles:   90.000000  90.000000  90.000000

Effective grid spacing dv^(1/3) = 0.1609

     iter     time        total  log10-change:
                         energy  eigst   dens
iter:   1 04:05:56  -220.507438  -0.88
iter:   2 04:08:11  -220.505266  -1.66  -1.94
iter:   3 04:10:31  -220.499357c -2.34  -2.03
iter:   4 04:12:53  -220.496103c -2.28  -2.25
Writing to output.gpw (mode='')

iter:   5 04:15:20  -220.495243c -2.09  -2.45
iter:   6 04:17:35  -220.495596c -2.89  -2.61
iter:   7 04:19:57  -220.497093c -1.90  -2.56
iter:   8 04:22:11  -220.495710c -2.88  -2.45
iter:   9 04:24:30  -220.495867c -3.31  -2.67
Writing to output.gpw (mode='')

iter:  10 04:27:00  -220.495765c -3.61  -2.68
iter:  11 04:29:14  -220.495141c -2.77  -2.71
iter:  12 04:31:28  -220.495161c -3.70  -3.05
iter:  13 04:33:48  -220.495181c -3.93  -3.14
iter:  14 04:36:04  -220.495185c -3.79  -3.34
Writing to output.gpw (mode='')

iter:  15 04:38:25  -220.495183c -4.18  -3.54
iter:  16 04:40:42  -220.495181c -4.69  -3.61
iter:  17 04:42:55  -220.495178c -4.82  -3.65
iter:  18 04:45:10  -220.495179c -5.02  -3.74
iter:  19 04:47:24  -220.495180c -5.15  -3.83
Writing to output.gpw (mode='')

iter:  20 04:49:46  -220.495181c -5.28  -3.99
iter:  21 04:51:58  -220.495180c -5.43  -4.10c
iter:  22 04:54:06  -220.495177c -5.63  -4.22c
iter:  23 04:56:28  -220.495177c -5.95  -4.44c
iter:  24 04:59:00  -220.495178c -6.08  -4.50c
Writing to output.gpw (mode='')

iter:  25 05:01:43  -220.495179c -6.04  -4.57c
iter:  26 05:04:11  -220.495180c -6.31  -4.69c
iter:  27 05:06:25  -220.495180c -6.33  -4.85c
iter:  28 05:08:39  -220.495181c -6.43  -4.97c
iter:  29 05:10:51  -220.495180c -6.60  -5.04c
Writing to output.gpw (mode='')

iter:  30 05:13:20  -220.495180c -6.77  -5.09c
iter:  31 05:15:46  -220.495180c -6.77  -5.14c
iter:  32 05:18:01  -220.495180c -6.95  -5.30c
iter:  33 05:20:24  -220.495180c -6.89  -5.41c
iter:  34 05:22:47  -220.495180c -7.19  -5.44c
Writing to output.gpw (mode='')

iter:  35 05:25:18  -220.495180c -7.21  -5.42c
iter:  36 05:27:45  -220.495180c -7.30  -5.39c
iter:  37 05:30:00  -220.495180c -7.47c -5.34c

Converged after 37 iterations.

Dipole moment: (1.889504, -2.989036, -0.006715) |e|*Ang

Energy contributions relative to reference atoms: (reference = -8007.321583)

Kinetic:        +93.208161
Potential:      -80.349255
External:        +0.000000
XC:            -233.076968
Entropy (-ST):   -0.128364
Local:           -0.212936
--------------------------
Free energy:   -220.559363
Extrapolated:  -220.495180

Dipole-layer corrected work functions: 3.430876, 3.443784 eV

Showing only first 2 kpts
 Kpt  Band  Eigenvalues  Occupancy
  0    19     -3.68162    1.98501
  0    20     -3.62134    1.95080
  0    21     -3.34887    0.29131
  0    22     -3.17970    0.01150

  1    19     -3.70307    1.99021
  1    20     -3.40639    0.70008
  1    21     -3.33964    0.24828
  1    22     -3.21401    0.02272


Fermi level: -3.43733

No gap
Writing to output.gpw (mode='')


Forces in eV/Ang:
  0 Li    0.01423   -0.01362   -0.27928
  1 Li    0.01787   -0.00077   -0.27685
  2 Li   -0.00909    0.00683   -0.30012
  3 Li    0.01026   -0.00817   -0.29437
  4 Li    0.01968   -0.00449   -0.26826
  5 Li   -0.00245   -0.03439   -0.28370
  6 Li    0.01665   -0.00485   -0.24079
  7 Li   -0.01202    0.00471   -0.29909
  8 Li    0.00531   -0.01351   -0.25902
  9 Li    0.01087    0.04142    0.18496
 10 Li   -0.02427   -0.07192    0.20558
 11 Li   -0.10424   -0.00061    0.22224
 12 Li   -0.03223    0.05374    0.21447
 13 Li    0.08125   -0.01360    0.13084
 14 Li   -0.10888    0.02483    0.22903
 15 Li    0.02589    0.13078    0.28215
 16 Li   -0.01026    0.10885    0.20693
 17 Li   -0.10612    0.07509    0.19460
 18 Li   -0.12089   -0.05871    0.14372
 19 Li   -0.02318    0.09489   -0.08316
 20 Li    0.09902   -0.07514    0.11636
 21 Li   -0.03073   -0.04434    0.05069
 22 Li   -0.02646    0.04833    0.01385
 23 Li    0.00276   -0.09043    0.06929
 24 Li    0.07430    0.00971   -0.17768
 25 Li    0.02736    0.02161   -0.00136
 26 Li    0.04200   -0.03718    0.10446
 27 Li    0.01086    0.12684   -0.11720
 28 Li   -0.24801   -0.11737   -0.11091
 29 Li    0.15237   -0.00959    0.10029
 30 Li   -0.00725   -0.22374    0.05837
 31 Li    0.07841    0.04459    0.02851
 32 Li   -0.05987    0.02081    0.03237
 33 Li    0.05239    0.25277    0.11255
 34 Li   -0.17717    0.21619    0.11492
 35 Li   -0.07994    0.04520    0.03092
 36 B    -0.47641   -0.06503    0.15969
 37 H     0.52519    0.16153    0.16387
 38 H     0.08187   -0.38643   -0.42608
 39 H     0.32584   -0.20528    0.23769

System changes: positions 

Initializing position-dependent things.

Density initialized from wave functions
       .-----------------------.  
      /|                       |  
     / |                       |  
    /  |                       |  
   /   |                       |  
  /    |                       |  
 *     |                       |  
 |     |                       |  
 |     |                       |  
 |     |                       |  
 |     |  H                    |  
 |     |      Li               |  
 |     |HB            Li      H|  
 |     |                       |  
 |     |    Li       Li      Li|  
 |     |  Li      Li      Li   |  
 |     |   Li      Li      Li  |  
 |     |Li      Li      LLi    |  
 |     |                       |  
 |   LLi     LLi     LLi       |  
 |     |  Li      Li      Li   |  
 | Li  |   Li      Li          |  
 |     |Li      Li      Li     |  
 Li    | Li      Li            |  
 |    Li      Li      Li       |  
 |     |                       |  
 |     |                       |  
 |     |                       |  
 |     |                       |  
 |     |                       |  
 |     |                       |  
 |     .-----------------------.  
 |    /                       /   
 |   /                       /    
 |  /                       /     
 | /                       /      
 |/                       /       
 *-----------------------*        

Positions:
   0 Li     1.617037    1.617037   10.000000    ( 0.0000,  0.0000,  0.0000)
   1 Li     4.851111    1.617037   10.000000    ( 0.0000,  0.0000,  0.0000)
   2 Li     8.085185    1.617037   10.000000    ( 0.0000,  0.0000,  0.0000)
   3 Li     1.617037    4.851111   10.000000    ( 0.0000,  0.0000,  0.0000)
   4 Li     4.851111    4.851111   10.000000    ( 0.0000,  0.0000,  0.0000)
   5 Li     8.085185    4.851111   10.000000    ( 0.0000,  0.0000,  0.0000)
   6 Li     1.617037    8.085185   10.000000    ( 0.0000,  0.0000,  0.0000)
   7 Li     4.851111    8.085185   10.000000    ( 0.0000,  0.0000,  0.0000)
   8 Li     8.085185    8.085185   10.000000    ( 0.0000,  0.0000,  0.0000)
   9 Li     0.000000    0.000000   11.617037    ( 0.0000,  0.0000,  0.0000)
  10 Li     3.234074    0.000000   11.617037    ( 0.0000,  0.0000,  0.0000)
  11 Li     6.468148    0.000000   11.617037    ( 0.0000,  0.0000,  0.0000)
  12 Li     0.000000    3.234074   11.617037    ( 0.0000,  0.0000,  0.0000)
  13 Li     3.234074    3.234074   11.617037    ( 0.0000,  0.0000,  0.0000)
  14 Li     6.468148    3.234074   11.617037    ( 0.0000,  0.0000,  0.0000)
  15 Li     0.000000    6.468148   11.617037    ( 0.0000,  0.0000,  0.0000)
  16 Li     3.234074    6.468148   11.617037    ( 0.0000,  0.0000,  0.0000)
  17 Li     6.468148    6.468148   11.617037    ( 0.0000,  0.0000,  0.0000)
  18 Li     1.675427    1.711482   13.334064    ( 0.0000,  0.0000,  0.0000)
  19 Li     4.759812    1.512140   13.518756    ( 0.0000,  0.0000,  0.0000)
  20 Li     8.012897    1.666826   13.340948    ( 0.0000,  0.0000,  0.0000)
  21 Li     1.682127    4.952218   13.274811    ( 0.0000,  0.0000,  0.0000)
  22 Li     4.798573    4.767992   13.451039    ( 0.0000,  0.0000,  0.0000)
  23 Li     8.014515    5.012173   13.311932    ( 0.0000,  0.0000,  0.0000)
  24 Li     1.522234    8.300925   13.695331    ( 0.0000,  0.0000,  0.0000)
  25 Li     4.733069    7.991738   13.460815    ( 0.0000,  0.0000,  0.0000)
  26 Li     7.964662    8.202845   13.407255    ( 0.0000,  0.0000,  0.0000)
  27 Li    -0.064451    0.437453   15.668365    ( 0.0000,  0.0000,  0.0000)
  28 Li     2.975378   -0.040216   15.719701    ( 0.0000,  0.0000,  0.0000)
  29 Li     6.071809   -0.042071   15.312765    ( 0.0000,  0.0000,  0.0000)
  30 Li    -0.009134    3.601504   15.034302    ( 0.0000,  0.0000,  0.0000)
  31 Li     3.147111    3.225063   15.327671    ( 0.0000,  0.0000,  0.0000)
  32 Li     6.620027    3.127983   15.317654    ( 0.0000,  0.0000,  0.0000)
  33 Li    -0.153493    6.530199   15.339229    ( 0.0000,  0.0000,  0.0000)
  34 Li     2.885930    6.549662   15.395587    ( 0.0000,  0.0000,  0.0000)
  35 Li     6.344036    6.293256   15.311938    ( 0.0000,  0.0000,  0.0000)
  36 B     10.727309    8.297662   16.013505    ( 0.0000,  0.0000,  0.0000)
  37 H     10.842660    9.185250   16.857684    ( 0.0000,  0.0000,  0.0000)
  38 H      9.469326    8.408015   15.916386    ( 0.0000,  0.0000,  0.0000)
  39 H     10.753721    7.242220   16.637971    ( 0.0000,  0.0000,  0.0000)

Unit cell:
           periodic     x           y           z      points  spacing
  1. axis:    yes    9.702222    0.000000    0.000000    60     0.1617
  2. axis:    yes    0.000000    9.702222    0.000000    60     0.1617
  3. axis:    no     0.000000    0.000000   24.851111   156     0.1593

  Lengths:   9.702222   9.702222  24.851111
  Angles:   90.000000  90.000000  90.000000

Effective grid spacing dv^(1/3) = 0.1609

     iter     time        total  log10-change:
                         energy  eigst   dens
iter:   1 05:33:00  -220.535386  -0.86
iter:   2 05:35:21  -220.532212  -1.64  -1.91
iter:   3 05:37:42  -220.527437c -2.30  -2.02
iter:   4 05:39:59  -220.522373c -2.02  -2.16
Writing to output.gpw (mode='')

iter:   5 05:42:31  -220.522362c -2.54  -2.38
iter:   6 05:44:45  -220.521858c -2.39  -2.45
iter:   7 05:47:01  -220.521564c -2.60  -2.56
iter:   8 05:49:19  -220.521687c -2.90  -2.76
iter:   9 05:51:36  -220.521449c -2.75  -2.75
Writing to output.gpw (mode='')

iter:  10 05:53:58  -220.521474c -3.41  -3.05
iter:  11 05:56:08  -220.521475c -3.71  -3.21
iter:  12 05:58:17  -220.521445c -3.76  -3.25
iter:  13 06:00:36  -220.521464c -4.18  -3.40
iter:  14 06:03:01  -220.521472c -4.69  -3.48
Writing to output.gpw (mode='')

iter:  15 06:05:36  -220.521485c -4.57  -3.54
iter:  16 06:07:51  -220.521479c -4.50  -3.68
iter:  17 06:10:03  -220.521484c -4.95  -3.57
iter:  18 06:12:25  -220.521487c -4.85  -3.60
iter:  19 06:14:41  -220.521484c -4.86  -3.52
Writing to output.gpw (mode='')

iter:  20 06:17:13  -220.521483c -5.24  -3.66
iter:  21 06:19:34  -220.521483c -5.24  -3.69
iter:  22 06:21:58  -220.521481c -5.49  -3.74
iter:  23 06:24:16  -220.521481c -5.41  -4.03c
iter:  24 06:26:35  -220.521482c -5.48  -4.27c
Writing to output.gpw (mode='')

iter:  25 06:29:07  -220.521483c -6.13  -4.30c
iter:  26 06:31:26  -220.521485c -5.91  -4.34c
iter:  27 06:33:43  -220.521485c -6.15  -4.48c
iter:  28 06:35:53  -220.521485c -6.04  -4.55c
iter:  29 06:38:09  -220.521485c -6.39  -4.69c
Writing to output.gpw (mode='')

iter:  30 06:40:39  -220.521485c -6.50  -4.75c
iter:  31 06:42:58  -220.521485c -6.50  -4.95c
iter:  32 06:45:20  -220.521485c -6.68  -4.97c
iter:  33 06:47:36  -220.521484c -6.81  -5.04c
iter:  34 06:49:52  -220.521485c -6.91  -5.18c
Writing to output.gpw (mode='')

iter:  35 06:52:21  -220.521484c -7.03  -5.25c
iter:  36 06:54:45  -220.521484c -7.22  -5.33c
iter:  37 06:56:56  -220.521484c -7.20  -5.37c
iter:  38 06:59:19  -220.521485c -7.54c -5.38c

Converged after 38 iterations.

Dipole moment: (2.244390, -3.069466, -0.002052) |e|*Ang

Energy contributions relative to reference atoms: (reference = -8007.321583)

Kinetic:        +93.195624
Potential:      -80.350808
External:        +0.000000
XC:            -233.089444
Entropy (-ST):   -0.128146
Local:           -0.212784
--------------------------
Free energy:   -220.585557
Extrapolated:  -220.521485

Dipole-layer corrected work functions: 3.431338, 3.435283 eV

Showing only first 2 kpts
 Kpt  Band  Eigenvalues  Occupancy
  0    19     -3.67723    1.98490
  0    20     -3.61720    1.95069
  0    21     -3.34444    0.28925
  0    22     -3.17507    0.01136

  1    19     -3.69880    1.99016
  1    20     -3.40269    0.70304
  1    21     -3.33497    0.24544
  1    22     -3.20652    0.02121


Fermi level: -3.43331

No gap
Writing to output.gpw (mode='')


Forces in eV/Ang:
  0 Li    0.01364   -0.01431   -0.27771
  1 Li    0.01765   -0.00006   -0.27851
  2 Li   -0.00813    0.00667   -0.29901
  3 Li    0.00977   -0.00754   -0.29485
  4 Li    0.02030   -0.00460   -0.26774
  5 Li   -0.00238   -0.03358   -0.28492
  6 Li    0.01719   -0.00430   -0.23997
  7 Li   -0.01283    0.00530   -0.29836
  8 Li    0.00501   -0.01280   -0.25866
  9 Li    0.01196    0.03613    0.17967
 10 Li   -0.02406   -0.06656    0.19986
 11 Li   -0.10137    0.00059    0.22357
 12 Li   -0.03327    0.05043    0.21453
 13 Li    0.07124   -0.01887    0.13515
 14 Li   -0.09786    0.01446    0.23894
 15 Li    0.02426    0.13416    0.28175
 16 Li   -0.01167    0.10535    0.20438
 17 Li   -0.10100    0.07562    0.19755
 18 Li   -0.11168   -0.05327    0.13680
 19 Li   -0.02277    0.09373   -0.08198
 20 Li    0.08377   -0.06580    0.11061
 21 Li   -0.02778   -0.04491    0.05026
 22 Li   -0.02729    0.05267    0.01997
 23 Li   -0.00216   -0.09403    0.06600
 24 Li    0.05196    0.00358   -0.16498
 25 Li    0.03084    0.02050    0.00024
 26 Li    0.04181   -0.03592    0.09898
 27 Li   -0.00264    0.13034   -0.14112
 28 Li   -0.23422   -0.11073   -0.11527
 29 Li    0.15917   -0.00914    0.10100
 30 Li   -0.00783   -0.20779    0.06244
 31 Li    0.07767    0.04219    0.03035
 32 Li   -0.05688    0.01918    0.03110
 33 Li    0.08233    0.24311    0.12002
 34 Li   -0.17605    0.21050    0.11738
 35 Li   -0.08166    0.04470    0.03066
 36 B    -0.50797   -0.10339    0.16683
 37 H     0.52610    0.14593    0.18858
 38 H     0.07584   -0.34528   -0.42313
 39 H     0.33031   -0.19126    0.22705

System changes: positions 

Initializing position-dependent things.

Density initialized from wave functions
       .-----------------------.  
      /|                       |  
     / |                       |  
    /  |                       |  
   /   |                       |  
  /    |                       |  
 *     |                       |  
 |     |                       |  
 |     |                       |  
 |     |                       |  
 |     |  H                    |  
 |     |      Li               |  
 |     |HB            Li      H|  
 |     |                       |  
 |     |    Li       Li      Li|  
 |     |  Li      Li      Li   |  
 |     |   Li      Li      Li  |  
 |     |Li      Li      LLi    |  
 |     |                       |  
 |   LLi     LLi     LLi       |  
 |     |  Li      Li      Li   |  
 | Li  |   Li      Li          |  
 |     |Li      Li      Li     |  
 Li    | Li      Li            |  
 |    Li      Li      Li       |  
 |     |                       |  
 |     |                       |  
 |     |                       |  
 |     |                       |  
 |     |                       |  
 |     |                       |  
 |     .-----------------------.  
 |    /                       /   
 |   /                       /    
 |  /                       /     
 | /                       /      
 |/                       /       
 *-----------------------*        

Positions:
   0 Li     1.617037    1.617037   10.000000    ( 0.0000,  0.0000,  0.0000)
   1 Li     4.851111    1.617037   10.000000    ( 0.0000,  0.0000,  0.0000)
   2 Li     8.085185    1.617037   10.000000    ( 0.0000,  0.0000,  0.0000)
   3 Li     1.617037    4.851111   10.000000    ( 0.0000,  0.0000,  0.0000)
   4 Li     4.851111    4.851111   10.000000    ( 0.0000,  0.0000,  0.0000)
   5 Li     8.085185    4.851111   10.000000    ( 0.0000,  0.0000,  0.0000)
   6 Li     1.617037    8.085185   10.000000    ( 0.0000,  0.0000,  0.0000)
   7 Li     4.851111    8.085185   10.000000    ( 0.0000,  0.0000,  0.0000)
   8 Li     8.085185    8.085185   10.000000    ( 0.0000,  0.0000,  0.0000)
   9 Li     0.000000    0.000000   11.617037    ( 0.0000,  0.0000,  0.0000)
  10 Li     3.234074    0.000000   11.617037    ( 0.0000,  0.0000,  0.0000)
  11 Li     6.468148    0.000000   11.617037    ( 0.0000,  0.0000,  0.0000)
  12 Li     0.000000    3.234074   11.617037    ( 0.0000,  0.0000,  0.0000)
  13 Li     3.234074    3.234074   11.617037    ( 0.0000,  0.0000,  0.0000)
  14 Li     6.468148    3.234074   11.617037    ( 0.0000,  0.0000,  0.0000)
  15 Li     0.000000    6.468148   11.617037    ( 0.0000,  0.0000,  0.0000)
  16 Li     3.234074    6.468148   11.617037    ( 0.0000,  0.0000,  0.0000)
  17 Li     6.468148    6.468148   11.617037    ( 0.0000,  0.0000,  0.0000)
  18 Li     1.666855    1.705000   13.343949    ( 0.0000,  0.0000,  0.0000)
  19 Li     4.757641    1.513553   13.515357    ( 0.0000,  0.0000,  0.0000)
  20 Li     8.027318    1.653166   13.353341    ( 0.0000,  0.0000,  0.0000)
  21 Li     1.675674    4.950310   13.278295    ( 0.0000,  0.0000,  0.0000)
  22 Li     4.797715    4.768311   13.443928    ( 0.0000,  0.0000,  0.0000)
  23 Li     8.019379    5.008940   13.316676    ( 0.0000,  0.0000,  0.0000)
  24 Li     1.541593    8.303025   13.683335    ( 0.0000,  0.0000,  0.0000)
  25 Li     4.731371    7.994807   13.458797    ( 0.0000,  0.0000,  0.0000)
  26 Li     7.965087    8.202312   13.415553    ( 0.0000,  0.0000,  0.0000)
  27 Li    -0.067395    0.422572   15.705377    ( 0.0000,  0.0000,  0.0000)
  28 Li     2.967140   -0.039270   15.719574    ( 0.0000,  0.0000,  0.0000)
  29 Li     6.065181   -0.041589   15.316729    ( 0.0000,  0.0000,  0.0000)
  30 Li    -0.008303    3.577663   15.040451    ( 0.0000,  0.0000,  0.0000)
  31 Li     3.152839    3.229140   15.324696    ( 0.0000,  0.0000,  0.0000)
  32 Li     6.614406    3.128959   15.315689    ( 0.0000,  0.0000,  0.0000)
  33 Li    -0.167743    6.531031   15.336324    ( 0.0000,  0.0000,  0.0000)
  34 Li     2.876267    6.562807   15.395906    ( 0.0000,  0.0000,  0.0000)
  35 Li     6.336585    6.294703   15.309877    ( 0.0000,  0.0000,  0.0000)
  36 B     10.743176    8.287453   16.007261    ( 0.0000,  0.0000,  0.0000)
  37 H     10.853971    9.185739   16.839734    ( 0.0000,  0.0000,  0.0000)
  38 H      9.485949    8.384495   15.901615    ( 0.0000,  0.0000,  0.0000)
  39 H     10.770860    7.235761   16.642086    ( 0.0000,  0.0000,  0.0000)

Unit cell:
           periodic     x           y           z      points  spacing
  1. axis:    yes    9.702222    0.000000    0.000000    60     0.1617
  2. axis:    yes    0.000000    9.702222    0.000000    60     0.1617
  3. axis:    no     0.000000    0.000000   24.851111   156     0.1593

  Lengths:   9.702222   9.702222  24.851111
  Angles:   90.000000  90.000000  90.000000

Effective grid spacing dv^(1/3) = 0.1609

     iter     time        total  log10-change:
                         energy  eigst   dens
iter:   1 07:02:22  -220.585318  -0.85
iter:   2 07:04:37  -220.564882  -1.60  -1.71
iter:   3 07:06:55  -220.560895  -2.22  -1.96
iter:   4 07:09:17  -220.552770c -1.91  -2.06
Writing to output.gpw (mode='')

iter:   5 07:11:48  -220.553680c -2.84  -2.36
iter:   6 07:14:05  -220.552495c -2.24  -2.38
iter:   7 07:16:17  -220.552269c -2.50  -2.56
iter:   8 07:18:36  -220.552362c -3.13  -2.75
iter:   9 07:20:50  -220.552265c -2.85  -2.79
Writing to output.gpw (mode='')

iter:  10 07:23:15  -220.552275c -3.07  -3.03
iter:  11 07:25:26  -220.552260c -3.72  -3.15
iter:  12 07:27:41  -220.552260c -3.76  -3.25
iter:  13 07:29:58  -220.552279c -3.65  -3.33
iter:  14 07:32:14  -220.552277c -4.23  -3.45
Writing to output.gpw (mode='')

iter:  15 07:34:39  -220.552281c -4.53  -3.64
iter:  16 07:36:56  -220.552293c -4.57  -3.68
iter:  17 07:39:09  -220.552296c -4.85  -3.84
iter:  18 07:41:24  -220.552294c -5.15  -3.91
iter:  19 07:43:37  -220.552291c -5.14  -3.95
Writing to output.gpw (mode='')

iter:  20 07:46:03  -220.552288c -5.30  -4.03c
iter:  21 07:48:14  -220.552286c -5.49  -4.28c
iter:  22 07:50:32  -220.552286c -5.67  -4.33c
iter:  23 07:52:49  -220.552288c -5.77  -4.35c
iter:  24 07:55:10  -220.552289c -5.91  -4.49c
Writing to output.gpw (mode='')

iter:  25 07:57:39  -220.552289c -5.95  -4.60c
iter:  26 07:59:57  -220.552290c -6.05  -4.62c
iter:  27 08:02:18  -220.552291c -6.10  -4.73c
iter:  28 08:04:33  -220.552291c -6.47  -4.90c
iter:  29 08:06:51  -220.552291c -6.45  -4.94c
Writing to output.gpw (mode='')

iter:  30 08:09:14  -220.552291c -6.43  -4.99c
iter:  31 08:11:29  -220.552291c -6.58  -5.02c
iter:  32 08:13:41  -220.552291c -6.68  -5.08c
iter:  33 08:15:54  -220.552291c -6.67  -5.09c
iter:  34 08:18:21  -220.552291c -6.86  -5.24c
Writing to output.gpw (mode='')

iter:  35 08:20:42  -220.552291c -6.96  -5.31c
iter:  36 08:23:11  -220.552291c -7.12  -5.36c
iter:  37 08:25:24  -220.552291c -7.01  -5.33c
iter:  38 08:27:35  -220.552291c -6.93  -5.25c
iter:  39 08:29:59  -220.552291c -7.29  -5.15c
Writing to output.gpw (mode='')

iter:  40 08:32:29  -220.552291c -7.29  -5.10c
iter:  41 08:34:51  -220.552291c -7.57c -5.08c

Converged after 41 iterations.

Dipole moment: (2.566342, -3.128792, 0.002635) |e|*Ang

Energy contributions relative to reference atoms: (reference = -8007.321583)

Kinetic:        +93.168535
Potential:      -80.349959
External:        +0.000000
XC:            -233.094288
Entropy (-ST):   -0.127884
Local:           -0.212637
--------------------------
Free energy:   -220.616233
Extrapolated:  -220.552291

Dipole-layer corrected work functions: 3.431799, 3.426734 eV

Showing only first 2 kpts
 Kpt  Band  Eigenvalues  Occupancy
  0    19     -3.67229    1.98463
  0    20     -3.61337    1.95089
  0    21     -3.33990    0.28680
  0    22     -3.17005    0.01115

  1    19     -3.69412    1.99004
  1    20     -3.39910    0.70720
  1    21     -3.33098    0.24568
  1    22     -3.19924    0.01989


Fermi level: -3.42927

No gap
Writing to output.gpw (mode='')


Forces in eV/Ang:
  0 Li    0.01284   -0.01502   -0.27611
  1 Li    0.01747    0.00070   -0.28023
  2 Li   -0.00704    0.00662   -0.29792
  3 Li    0.00934   -0.00680   -0.29492
  4 Li    0.02090   -0.00480   -0.26774
  5 Li   -0.00227   -0.03269   -0.28595
  6 Li    0.01774   -0.00373   -0.23941
  7 Li   -0.01379    0.00572   -0.29730
  8 Li    0.00472   -0.01192   -0.25851
  9 Li    0.01295    0.03019    0.17567
 10 Li   -0.02354   -0.05987    0.19392
 11 Li   -0.09661    0.00172    0.22661
 12 Li   -0.03434    0.04634    0.21562
 13 Li    0.05992   -0.02401    0.14107
 14 Li   -0.08574    0.00384    0.25027
 15 Li    0.02235    0.13684    0.28169
 16 Li   -0.01341    0.10116    0.20359
 17 Li   -0.09414    0.07538    0.20249
 18 Li   -0.10013   -0.04732    0.12701
 19 Li   -0.02198    0.08977   -0.07881
 20 Li    0.06500   -0.05475    0.10275
 21 Li   -0.02393   -0.04481    0.04863
 22 Li   -0.02819    0.05731    0.02654
 23 Li   -0.00803   -0.09653    0.06080
 24 Li    0.02341   -0.00462   -0.13919
 25 Li    0.03489    0.01933    0.00169
 26 Li    0.04054   -0.03317    0.08954
 27 Li   -0.02404    0.14778   -0.16927
 28 Li   -0.21068   -0.09940   -0.11931
 29 Li    0.15975   -0.00796    0.09937
 30 Li   -0.00849   -0.18487    0.06677
 31 Li    0.07569    0.03910    0.03210
 32 Li   -0.05205    0.01670    0.02889
 33 Li    0.11476    0.22676    0.12709
 34 Li   -0.17214    0.20012    0.11853
 35 Li   -0.08315    0.04336    0.02981
 36 B    -0.50642   -0.17515    0.14169
 37 H     0.52154    0.13804    0.21628
 38 H     0.07556   -0.30558   -0.41316
 39 H     0.33313   -0.16797    0.20351

System changes: positions 

Initializing position-dependent things.

Density initialized from wave functions
       .-----------------------.  
      /|                       |  
     / |                       |  
    /  |                       |  
   /   |                       |  
  /    |                       |  
 *     |                       |  
 |     |                       |  
 |     |                       |  
 |     |                       |  
 |     |  H                    |  
 |     |      Li               |  
 |     |HB            Li      H|  
 |     |                       |  
 |     |    Li       Li      Li|  
 |     |  Li      Li      Li   |  
 |     |   Li      Li      Li  |  
 |     |Li      Li      LLi    |  
 |     |                       |  
 |   LLi     LLi     LLi       |  
 |     |  Li      Li      Li   |  
 | Li  |   Li      Li          |  
 |     |Li      Li      Li     |  
 Li    | Li      Li            |  
 |    Li      Li      Li       |  
 |     |                       |  
 |     |                       |  
 |     |                       |  
 |     |                       |  
 |     |                       |  
 |     |                       |  
 |     .-----------------------.  
 |    /                       /   
 |   /                       /    
 |  /                       /     
 | /                       /      
 |/                       /       
 *-----------------------*        

Positions:
   0 Li     1.617037    1.617037   10.000000    ( 0.0000,  0.0000,  0.0000)
   1 Li     4.851111    1.617037   10.000000    ( 0.0000,  0.0000,  0.0000)
   2 Li     8.085185    1.617037   10.000000    ( 0.0000,  0.0000,  0.0000)
   3 Li     1.617037    4.851111   10.000000    ( 0.0000,  0.0000,  0.0000)
   4 Li     4.851111    4.851111   10.000000    ( 0.0000,  0.0000,  0.0000)
   5 Li     8.085185    4.851111   10.000000    ( 0.0000,  0.0000,  0.0000)
   6 Li     1.617037    8.085185   10.000000    ( 0.0000,  0.0000,  0.0000)
   7 Li     4.851111    8.085185   10.000000    ( 0.0000,  0.0000,  0.0000)
   8 Li     8.085185    8.085185   10.000000    ( 0.0000,  0.0000,  0.0000)
   9 Li     0.000000    0.000000   11.617037    ( 0.0000,  0.0000,  0.0000)
  10 Li     3.234074    0.000000   11.617037    ( 0.0000,  0.0000,  0.0000)
  11 Li     6.468148    0.000000   11.617037    ( 0.0000,  0.0000,  0.0000)
  12 Li     0.000000    3.234074   11.617037    ( 0.0000,  0.0000,  0.0000)
  13 Li     3.234074    3.234074   11.617037    ( 0.0000,  0.0000,  0.0000)
  14 Li     6.468148    3.234074   11.617037    ( 0.0000,  0.0000,  0.0000)
  15 Li     0.000000    6.468148   11.617037    ( 0.0000,  0.0000,  0.0000)
  16 Li     3.234074    6.468148   11.617037    ( 0.0000,  0.0000,  0.0000)
  17 Li     6.468148    6.468148   11.617037    ( 0.0000,  0.0000,  0.0000)
  18 Li     1.657434    1.698239   13.354988    ( 0.0000,  0.0000,  0.0000)
  19 Li     4.755225    1.515765   13.511414    ( 0.0000,  0.0000,  0.0000)
  20 Li     8.043014    1.638533   13.367131    ( 0.0000,  0.0000,  0.0000)
  21 Li     1.669090    4.948116   13.282109    ( 0.0000,  0.0000,  0.0000)
  22 Li     4.796697    4.769001   13.436833    ( 0.0000,  0.0000,  0.0000)
  23 Li     8.024066    5.005089   13.321885    ( 0.0000,  0.0000,  0.0000)
  24 Li     1.562499    8.305171   13.670409    ( 0.0000,  0.0000,  0.0000)
  25 Li     4.729816    7.998037   13.456615    ( 0.0000,  0.0000,  0.0000)
  26 Li     7.966035    8.201415   13.425114    ( 0.0000,  0.0000,  0.0000)
  27 Li    -0.071351    0.408940   15.742773    ( 0.0000,  0.0000,  0.0000)
  28 Li     2.955387   -0.038728   15.718547    ( 0.0000,  0.0000,  0.0000)
  29 Li     6.059573   -0.041035   15.320993    ( 0.0000,  0.0000,  0.0000)
  30 Li    -0.007433    3.552054   15.046792    ( 0.0000,  0.0000,  0.0000)
  31 Li     3.159372    3.233679   15.322092    ( 0.0000,  0.0000,  0.0000)
  32 Li     6.608102    3.130037   15.314181    ( 0.0000,  0.0000,  0.0000)
  33 Li    -0.182818    6.532126   15.332439    ( 0.0000,  0.0000,  0.0000)
  34 Li     2.865573    6.577687   15.397268    ( 0.0000,  0.0000,  0.0000)
  35 Li     6.328065    6.296477   15.308388    ( 0.0000,  0.0000,  0.0000)
  36 B     10.760334    8.274214   15.999257    ( 0.0000,  0.0000,  0.0000)
  37 H     10.868630    9.186109   16.818112    ( 0.0000,  0.0000,  0.0000)
  38 H      9.504318    8.357020   15.882483    ( 0.0000,  0.0000,  0.0000)
  39 H     10.789422    7.228701   16.648392    ( 0.0000,  0.0000,  0.0000)

Unit cell:
           periodic     x           y           z      points  spacing
  1. axis:    yes    9.702222    0.000000    0.000000    60     0.1617
  2. axis:    yes    0.000000    9.702222    0.000000    60     0.1617
  3. axis:    no     0.000000    0.000000   24.851111   156     0.1593

  Lengths:   9.702222   9.702222  24.851111
  Angles:   90.000000  90.000000  90.000000

Effective grid spacing dv^(1/3) = 0.1609

     iter     time        total  log10-change:
                         energy  eigst   dens
iter:   1 08:37:47  -220.621798  -0.78
iter:   2 08:39:58  -220.598908  -1.53  -1.68
iter:   3 08:42:12  -220.594420  -2.15  -1.93
iter:   4 08:44:28  -220.585024c -1.86  -2.02
Writing to output.gpw (mode='')

iter:   5 08:46:49  -220.586089c -2.77  -2.32
iter:   6 08:49:11  -220.584576c -2.17  -2.32
iter:   7 08:51:27  -220.584264c -2.42  -2.51
iter:   8 08:53:49  -220.584354c -3.05  -2.70
iter:   9 08:56:05  -220.584199c -2.73  -2.74
Writing to output.gpw (mode='')

iter:  10 08:58:29  -220.584209c -3.04  -2.99
iter:  11 09:00:47  -220.584197c -3.65  -3.11
iter:  12 09:03:02  -220.584198c -3.68  -3.21
iter:  13 09:05:25  -220.584220c -3.58  -3.29
iter:  14 09:07:43  -220.584219c -4.16  -3.42
Writing to output.gpw (mode='')

iter:  15 09:10:07  -220.584224c -4.48  -3.60
iter:  16 09:12:32  -220.584235c -4.55  -3.63
iter:  17 09:14:50  -220.584239c -4.80  -3.80
iter:  18 09:17:00  -220.584237c -5.06  -3.84
iter:  19 09:19:17  -220.584232c -5.06  -3.87
Writing to output.gpw (mode='')

iter:  20 09:21:34  -220.584233c -5.23  -3.99
iter:  21 09:23:47  -220.584228c -5.32  -4.16c
iter:  22 09:26:08  -220.584229c -5.62  -4.30c
iter:  23 09:28:27  -220.584231c -5.76  -4.31c
iter:  24 09:30:47  -220.584235c -5.85  -4.43c
Writing to output.gpw (mode='')

iter:  25 09:33:15  -220.584234c -6.03  -4.73c
iter:  26 09:35:33  -220.584233c -5.98  -4.79c
iter:  27 09:37:49  -220.584234c -6.04  -4.79c
iter:  28 09:39:59  -220.584234c -6.12  -4.82c
iter:  29 09:42:15  -220.584234c -6.16  -4.82c
Writing to output.gpw (mode='')

iter:  30 09:44:45  -220.584234c -6.41  -4.80c
iter:  31 09:47:06  -220.584234c -6.55  -4.77c
iter:  32 09:49:22  -220.584234c -6.53  -4.72c
iter:  33 09:51:42  -220.584234c -6.73  -4.80c
iter:  34 09:53:59  -220.584234c -6.57  -4.77c
Writing to output.gpw (mode='')

iter:  35 09:56:20  -220.584234c -6.65  -4.76c
iter:  36 09:58:33  -220.584234c -6.83  -4.81c
iter:  37 10:00:51  -220.584234c -6.79  -4.80c
iter:  38 10:03:10  -220.584234c -7.16  -4.83c
iter:  39 10:05:32  -220.584234c -7.17  -5.01c
Writing to output.gpw (mode='')

iter:  40 10:07:54  -220.584235c -7.02  -5.12c
iter:  41 10:10:29  -220.584234c -7.25  -5.17c
iter:  42 10:12:45  -220.584234c -7.30  -5.22c
iter:  43 10:15:05  -220.584234c -7.34  -5.25c
iter:  44 10:17:14  -220.584234c -7.44c -5.38c

Converged after 44 iterations.

Dipole moment: (2.867384, -3.176774, 0.007632) |e|*Ang

Energy contributions relative to reference atoms: (reference = -8007.321583)

Kinetic:        +93.126779
Potential:      -80.339005
External:        +0.000000
XC:            -233.095587
Entropy (-ST):   -0.127647
Local:           -0.212598
--------------------------
Free energy:   -220.648058
Extrapolated:  -220.584234

Dipole-layer corrected work functions: 3.432266, 3.417595 eV

Showing only first 2 kpts
 Kpt  Band  Eigenvalues  Occupancy
  0    19     -3.66695    1.98432
  0    20     -3.60933    1.95118
  0    21     -3.33506    0.28434
  0    22     -3.16450    0.01088

  1    19     -3.68904    1.98989
  1    20     -3.39521    0.71129
  1    21     -3.32689    0.24674
  1    22     -3.19118    0.01848


Fermi level: -3.42493

No gap
Writing to output.gpw (mode='')


Forces in eV/Ang:
  0 Li    0.01198   -0.01578   -0.27453
  1 Li    0.01726    0.00155   -0.28201
  2 Li   -0.00583    0.00657   -0.29686
  3 Li    0.00895   -0.00592   -0.29491
  4 Li    0.02154   -0.00497   -0.26779
  5 Li   -0.00224   -0.03169   -0.28709
  6 Li    0.01828   -0.00313   -0.23887
  7 Li   -0.01493    0.00610   -0.29603
  8 Li    0.00443   -0.01091   -0.25845
  9 Li    0.01418    0.02393    0.17210
 10 Li   -0.02300   -0.05231    0.18774
 11 Li   -0.09098    0.00288    0.23057
 12 Li   -0.03557    0.04192    0.21724
 13 Li    0.04810   -0.02900    0.14705
 14 Li   -0.07343   -0.00719    0.26177
 15 Li    0.02013    0.13922    0.28190
 16 Li   -0.01481    0.09654    0.20199
 17 Li   -0.08675    0.07530    0.20784
 18 Li   -0.08645   -0.04058    0.11479
 19 Li   -0.02114    0.08417   -0.07421
 20 Li    0.04372   -0.04262    0.09345
 21 Li   -0.02002   -0.04408    0.04735
 22 Li   -0.02878    0.06175    0.03307
 23 Li   -0.01438   -0.09893    0.05487
 24 Li   -0.00671   -0.01588   -0.11521
 25 Li    0.03922    0.01860    0.00371
 26 Li    0.03819   -0.02975    0.07802
 27 Li   -0.04671    0.14631   -0.19412
 28 Li   -0.17957   -0.08510   -0.12283
 29 Li    0.15810   -0.00632    0.09716
 30 Li   -0.00908   -0.15962    0.07145
 31 Li    0.07254    0.03523    0.03382
 32 Li   -0.04619    0.01399    0.02612
 33 Li    0.14703    0.19902    0.13255
 34 Li   -0.16395    0.18406    0.11754
 35 Li   -0.08391    0.04174    0.02868
 36 B    -0.51193   -0.22918    0.12651
 37 H     0.49245    0.12033    0.25045
 38 H     0.06782   -0.22493   -0.38398
 39 H     0.34081   -0.14212    0.17525

System changes: positions 

Initializing position-dependent things.

Density initialized from wave functions
       .-----------------------.  
      /|                       |  
     / |                       |  
    /  |                       |  
   /   |                       |  
  /    |                       |  
 *     |                       |  
 |     |                       |  
 |     |                       |  
 |     |                       |  
 |     |  H                    |  
 |     |      Li               |  
 |     |HB            Li      H|  
 |     |                       |  
 |     |    Li       Li      Li|  
 |     |  Li      Li      Li   |  
 |     |   Li      Li      Li  |  
 |     |Li      Li      LLi    |  
 |     |                       |  
 |   LLi     LLi     LLi       |  
 |     |  Li      Li      Li   |  
 | Li  |   Li      Li          |  
 |     |Li      Li      Li     |  
 Li    | Li      Li            |  
 |    Li      Li      Li       |  
 |     |                       |  
 |     |                       |  
 |     |                       |  
 |     |                       |  
 |     |                       |  
 |     |                       |  
 |     .-----------------------.  
 |    /                       /   
 |   /                       /    
 |  /                       /     
 | /                       /      
 |/                       /       
 *-----------------------*        

Positions:
   0 Li     1.617037    1.617037   10.000000    ( 0.0000,  0.0000,  0.0000)
   1 Li     4.851111    1.617037   10.000000    ( 0.0000,  0.0000,  0.0000)
   2 Li     8.085185    1.617037   10.000000    ( 0.0000,  0.0000,  0.0000)
   3 Li     1.617037    4.851111   10.000000    ( 0.0000,  0.0000,  0.0000)
   4 Li     4.851111    4.851111   10.000000    ( 0.0000,  0.0000,  0.0000)
   5 Li     8.085185    4.851111   10.000000    ( 0.0000,  0.0000,  0.0000)
   6 Li     1.617037    8.085185   10.000000    ( 0.0000,  0.0000,  0.0000)
   7 Li     4.851111    8.085185   10.000000    ( 0.0000,  0.0000,  0.0000)
   8 Li     8.085185    8.085185   10.000000    ( 0.0000,  0.0000,  0.0000)
   9 Li     0.000000    0.000000   11.617037    ( 0.0000,  0.0000,  0.0000)
  10 Li     3.234074    0.000000   11.617037    ( 0.0000,  0.0000,  0.0000)
  11 Li     6.468148    0.000000   11.617037    ( 0.0000,  0.0000,  0.0000)
  12 Li     0.000000    3.234074   11.617037    ( 0.0000,  0.0000,  0.0000)
  13 Li     3.234074    3.234074   11.617037    ( 0.0000,  0.0000,  0.0000)
  14 Li     6.468148    3.234074   11.617037    ( 0.0000,  0.0000,  0.0000)
  15 Li     0.000000    6.468148   11.617037    ( 0.0000,  0.0000,  0.0000)
  16 Li     3.234074    6.468148   11.617037    ( 0.0000,  0.0000,  0.0000)
  17 Li     6.468148    6.468148   11.617037    ( 0.0000,  0.0000,  0.0000)
  18 Li     1.645595    1.690221   13.370370    ( 0.0000,  0.0000,  0.0000)
  19 Li     4.752866    1.517490   13.509541    ( 0.0000,  0.0000,  0.0000)
  20 Li     8.062442    1.621094   13.385847    ( 0.0000,  0.0000,  0.0000)
  21 Li     1.658162    4.944860   13.292027    ( 0.0000,  0.0000,  0.0000)
  22 Li     4.795676    4.771119   13.427760    ( 0.0000,  0.0000,  0.0000)
  23 Li     8.032382    4.998900   13.333338    ( 0.0000,  0.0000,  0.0000)
  24 Li     1.589474    8.305121   13.653026    ( 0.0000,  0.0000,  0.0000)
  25 Li     4.729457    8.005929   13.457985    ( 0.0000,  0.0000,  0.0000)
  26 Li     7.968367    8.197913   13.438429    ( 0.0000,  0.0000,  0.0000)
  27 Li    -0.077364    0.393267   15.778091    ( 0.0000,  0.0000,  0.0000)
  28 Li     2.932832   -0.039073   15.719643    ( 0.0000,  0.0000,  0.0000)
  29 Li     6.063292   -0.039818   15.333729    ( 0.0000,  0.0000,  0.0000)
  30 Li    -0.006377    3.515320   15.062588    ( 0.0000,  0.0000,  0.0000)
  31 Li     3.169980    3.240841   15.320932    ( 0.0000,  0.0000,  0.0000)
  32 Li     6.597499    3.133574   15.314454    ( 0.0000,  0.0000,  0.0000)
  33 Li    -0.199442    6.537567   15.334552    ( 0.0000,  0.0000,  0.0000)
  34 Li     2.855963    6.595301   15.401202    ( 0.0000,  0.0000,  0.0000)
  35 Li     6.316685    6.299225   15.308929    ( 0.0000,  0.0000,  0.0000)
  36 B     10.773147    8.264174   15.996836    ( 0.0000,  0.0000,  0.0000)
  37 H     10.890558    9.195449   16.794100    ( 0.0000,  0.0000,  0.0000)
  38 H      9.521294    8.334549   15.864309    ( 0.0000,  0.0000,  0.0000)
  39 H     10.803867    7.227271   16.665987    ( 0.0000,  0.0000,  0.0000)

Unit cell:
           periodic     x           y           z      points  spacing
  1. axis:    yes    9.702222    0.000000    0.000000    60     0.1617
  2. axis:    yes    0.000000    9.702222    0.000000    60     0.1617
  3. axis:    no     0.000000    0.000000   24.851111   156     0.1593

  Lengths:   9.702222   9.702222  24.851111
  Angles:   90.000000  90.000000  90.000000

Effective grid spacing dv^(1/3) = 0.1609

     iter     time        total  log10-change:
                         energy  eigst   dens
iter:   1 10:20:12  -220.775913  -0.53
iter:   2 10:22:34  -220.652117  -1.25  -1.37
iter:   3 10:24:51  -220.643166  -1.94  -1.76
iter:   4 10:27:13  -220.624051  -1.50  -1.86
Writing to output.gpw (mode='')

iter:   5 10:29:34  -220.627153c -2.57  -2.20
iter:   6 10:31:55  -220.624381c -2.01  -2.16
iter:   7 10:34:28  -220.623729c -2.01  -2.37
iter:   8 10:36:53  -220.623863c -2.71  -2.58
iter:   9 10:39:10  -220.623852c -2.58  -2.69
Writing to output.gpw (mode='')

iter:  10 10:41:31  -220.623891c -2.73  -2.83
iter:  11 10:43:50  -220.623815c -3.29  -2.92
iter:  12 10:45:59  -220.623819c -3.37  -3.07
iter:  13 10:48:12  -220.623873c -3.29  -3.16
[...]

Unit cell:
           periodic     x           y           z      points  spacing
  1. axis:    yes    9.702222    0.000000    0.000000    60     0.1617
  2. axis:    yes    0.000000    9.702222    0.000000    60     0.1617
  3. axis:    no     0.000000    0.000000   24.851111   156     0.1593

  Lengths:   9.702222   9.702222  24.851111
  Angles:   90.000000  90.000000  90.000000

Effective grid spacing dv^(1/3) = 0.1609

     iter     time        total  log10-change:
                         energy  eigst   dens
iter:   1 06:55:37  -220.835049  -1.44
iter:   2 06:57:50  -220.828401  -2.15  -1.94
iter:   3 07:00:10  -220.827542c -2.73  -2.27
iter:   4 07:02:23  -220.825224c -2.56  -2.35
Writing to output.gpw (mode='')

iter:   5 07:04:52  -220.825627c -3.39  -2.65
iter:   6 07:07:08  -220.825126c -2.84  -2.62
iter:   7 07:09:27  -220.825016c -2.88  -2.80
iter:   8 07:11:48  -220.825126c -3.59  -3.00
iter:   9 07:13:59  -220.825096c -3.33  -3.10
Writing to output.gpw (mode='')

iter:  10 07:16:27  -220.825069c -3.76  -3.25
iter:  11 07:18:34  -220.825057c -4.28  -3.34
iter:  12 07:20:52  -220.825028c -4.16  -3.47
iter:  13 07:23:09  -220.825036c -4.44  -3.61
iter:  14 07:25:40  -220.825046c -4.88  -3.65
Writing to output.gpw (mode='')

iter:  15 07:27:59  -220.825063c -4.91  -3.73
iter:  16 07:30:12  -220.825061c -5.32  -3.91
iter:  17 07:32:33  -220.825053c -5.36  -3.95
iter:  18 07:35:07  -220.825060c -5.50  -4.02c
iter:  19 07:37:22  -220.825058c -5.52  -4.14c
Writing to output.gpw (mode='')

iter:  20 07:39:56  -220.825060c -5.94  -4.25c
iter:  21 07:42:16  -220.825061c -5.98  -4.32c
iter:  22 07:44:26  -220.825061c -6.18  -4.45c
iter:  23 07:46:37  -220.825060c -6.30  -4.50c
iter:  24 07:49:03  -220.825060c -6.48  -4.55c
Writing to output.gpw (mode='')

iter:  25 07:51:35  -220.825061c -6.64  -4.87c
iter:  26 07:53:55  -220.825061c -6.78  -4.95c
iter:  27 07:56:10  -220.825061c -6.84  -4.95c
iter:  28 07:58:19  -220.825061c -6.91  -4.98c
iter:  29 08:00:33  -220.825061c -7.08  -5.28c
Writing to output.gpw (mode='')

iter:  30 08:03:00  -220.825061c -7.10  -5.30c
iter:  31 08:05:15  -220.825060c -7.06  -5.34c
iter:  32 08:07:28  -220.825060c -7.16  -5.40c
iter:  33 08:09:41  -220.825061c -7.19  -5.44c
iter:  34 08:11:51  -220.825061c -7.60c -5.57c

Converged after 34 iterations.

Dipole moment: (1.763601, -3.501964, 0.007212) |e|*Ang

Energy contributions relative to reference atoms: (reference = -8007.321583)

Kinetic:        +91.852561
Potential:      -79.708836
External:        +0.000000
XC:            -232.695058
Entropy (-ST):   -0.127890
Local:           -0.209782
--------------------------
Free energy:   -220.889006
Extrapolated:  -220.825061

Dipole-layer corrected work functions: 3.433149, 3.419285 eV

Showing only first 2 kpts
 Kpt  Band  Eigenvalues  Occupancy
  0    19     -3.64709    1.97616
  0    20     -3.61655    1.95652
  0    21     -3.34305    0.31862
  0    22     -3.15180    0.00823

  1    19     -3.67688    1.98679
  1    20     -3.39645    0.71080
  1    21     -3.34240    0.31515
  1    22     -3.18992    0.01757


Fermi level: -3.42622

No gap
Writing to output.gpw (mode='')


Forces in eV/Ang:
  0 Li    0.00875   -0.01439   -0.27567
  1 Li    0.02011    0.00259   -0.28699
  2 Li   -0.00175    0.01112   -0.29334
  3 Li    0.01021    0.00091   -0.28026
  4 Li    0.02032   -0.00799   -0.28154
  5 Li   -0.00120   -0.02775   -0.28952
  6 Li    0.01357   -0.00046   -0.24834
  7 Li   -0.01638    0.00318   -0.27989
  8 Li    0.00691   -0.00100   -0.26525
  9 Li    0.00039    0.00604    0.20772
 10 Li   -0.05241   -0.03115    0.21396
 11 Li   -0.04851    0.00762    0.25264
 12 Li   -0.04675   -0.00160    0.23990
 13 Li   -0.01790   -0.03672    0.21696
 14 Li   -0.04265   -0.02484    0.32701
 15 Li   -0.00455    0.09459    0.30050
 16 Li   -0.04640    0.08579    0.25365
 17 Li   -0.03539    0.04524    0.27133
 18 Li    0.02715    0.02731   -0.03311
 19 Li    0.01945    0.03185   -0.00014
 20 Li   -0.03998    0.02756   -0.02431
 21 Li    0.01681   -0.02626    0.00898
 22 Li   -0.01002    0.02603    0.02464
 23 Li   -0.00999    0.01144    0.01814
 24 Li   -0.05384   -0.00590    0.02538
 25 Li   -0.01087   -0.00056   -0.01494
 26 Li    0.00669   -0.05205    0.02279
 27 Li    0.05163   -0.04775    0.00436
 28 Li    0.02226    0.02747   -0.06224
 29 Li    0.04845    0.02573   -0.00216
 30 Li    0.00099    0.03283    0.03918
 31 Li   -0.00446    0.00898    0.03291
 32 Li   -0.01429   -0.00021    0.02108
 33 Li   -0.01009   -0.01412    0.04398
 34 Li    0.14092   -0.07809    0.03841
 35 Li   -0.00086    0.02113    0.04763
 36 B     0.02420   -0.08743   -0.01518
 37 H     0.07037    0.14552    0.01420
 38 H    -0.00531   -0.17413    0.07027
 39 H    -0.02933   -0.01010   -0.05680

System changes: positions 

Initializing position-dependent things.

Density initialized from wave functions
       .-----------------------.  
      /|                       |  
     / |                       |  
    /  |                       |  
   /   |                       |  
  /    |                       |  
 *     |                       |  
 |     |                       |  
 |     |                       |  
 |     |                       |  
 |     |  H                    |  
 |     |                       |  
 |     | H    Li      Li      H|  
 |     |                       |  
 |     |    Li      Li       Li|  
 |     |  Li      Li      Li   |  
 |     |   Li      Li      Li  |  
 |     |Li      Li      LLi    |  
 |     |                       |  
 |   LLi     LLi     LLi       |  
 |     |  Li      Li      Li   |  
 | Li  |   Li      Li          |  
 |     |Li      Li      Li     |  
 Li    | Li      Li            |  
 |    Li      Li      Li       |  
 |     |                       |  
 |     |                       |  
 |     |                       |  
 |     |                       |  
 |     |                       |  
 |     |                       |  
 |     .-----------------------.  
 |    /                       /   
 |   /                       /    
 |  /                       /     
 | /                       /      
 |/                       /       
 *-----------------------*        

Positions:
   0 Li     1.617037    1.617037   10.000000    ( 0.0000,  0.0000,  0.0000)
   1 Li     4.851111    1.617037   10.000000    ( 0.0000,  0.0000,  0.0000)
   2 Li     8.085185    1.617037   10.000000    ( 0.0000,  0.0000,  0.0000)
   3 Li     1.617037    4.851111   10.000000    ( 0.0000,  0.0000,  0.0000)
   4 Li     4.851111    4.851111   10.000000    ( 0.0000,  0.0000,  0.0000)
   5 Li     8.085185    4.851111   10.000000    ( 0.0000,  0.0000,  0.0000)
   6 Li     1.617037    8.085185   10.000000    ( 0.0000,  0.0000,  0.0000)
   7 Li     4.851111    8.085185   10.000000    ( 0.0000,  0.0000,  0.0000)
   8 Li     8.085185    8.085185   10.000000    ( 0.0000,  0.0000,  0.0000)
   9 Li     0.000000    0.000000   11.617037    ( 0.0000,  0.0000,  0.0000)
  10 Li     3.234074    0.000000   11.617037    ( 0.0000,  0.0000,  0.0000)
  11 Li     6.468148    0.000000   11.617037    ( 0.0000,  0.0000,  0.0000)
  12 Li     0.000000    3.234074   11.617037    ( 0.0000,  0.0000,  0.0000)
  13 Li     3.234074    3.234074   11.617037    ( 0.0000,  0.0000,  0.0000)
  14 Li     6.468148    3.234074   11.617037    ( 0.0000,  0.0000,  0.0000)
  15 Li     0.000000    6.468148   11.617037    ( 0.0000,  0.0000,  0.0000)
  16 Li     3.234074    6.468148   11.617037    ( 0.0000,  0.0000,  0.0000)
  17 Li     6.468148    6.468148   11.617037    ( 0.0000,  0.0000,  0.0000)
  18 Li     1.581968    1.653536   13.452914    ( 0.0000,  0.0000,  0.0000)
  19 Li     4.743039    1.541536   13.497231    ( 0.0000,  0.0000,  0.0000)
  20 Li     8.088324    1.567655   13.469982    ( 0.0000,  0.0000,  0.0000)
  21 Li     1.600948    4.902706   13.381440    ( 0.0000,  0.0000,  0.0000)
  22 Li     4.764391    4.838412   13.432274    ( 0.0000,  0.0000,  0.0000)
  23 Li     8.052662    4.914862   13.422661    ( 0.0000,  0.0000,  0.0000)
  24 Li     1.563202    8.231254   13.608707    ( 0.0000,  0.0000,  0.0000)
  25 Li     4.765894    8.071190   13.493339    ( 0.0000,  0.0000,  0.0000)
  26 Li     7.987323    8.163896   13.485009    ( 0.0000,  0.0000,  0.0000)
  27 Li    -0.095565    0.340836   15.674494    ( 0.0000,  0.0000,  0.0000)
  28 Li     2.873062   -0.048671   15.619334    ( 0.0000,  0.0000,  0.0000)
  29 Li     6.169360   -0.019046   15.459636    ( 0.0000,  0.0000,  0.0000)
  30 Li    -0.009875    3.351518   15.224237    ( 0.0000,  0.0000,  0.0000)
  31 Li     3.246875    3.287023   15.350931    ( 0.0000,  0.0000,  0.0000)
  32 Li     6.540538    3.152907   15.327219    ( 0.0000,  0.0000,  0.0000)
  33 Li    -0.118860    6.516354   15.468779    ( 0.0000,  0.0000,  0.0000)
  34 Li     2.757224    6.710940   15.490525    ( 0.0000,  0.0000,  0.0000)
  35 Li     6.218295    6.334329   15.334926    ( 0.0000,  0.0000,  0.0000)
  36 B     10.814608    8.229997   16.091555    ( 0.0000,  0.0000,  0.0000)
  37 H     11.036913    9.183506   16.840578    ( 0.0000,  0.0000,  0.0000)
  38 H      9.593916    8.289025   15.878572    ( 0.0000,  0.0000,  0.0000)
  39 H     10.947704    7.217049   16.794371    ( 0.0000,  0.0000,  0.0000)

Unit cell:
           periodic     x           y           z      points  spacing
  1. axis:    yes    9.702222    0.000000    0.000000    60     0.1617
  2. axis:    yes    0.000000    9.702222    0.000000    60     0.1617
  3. axis:    no     0.000000    0.000000   24.851111   156     0.1593

  Lengths:   9.702222   9.702222  24.851111
  Angles:   90.000000  90.000000  90.000000

Effective grid spacing dv^(1/3) = 0.1609

     iter     time        total  log10-change:
                         energy  eigst   dens
iter:   1 08:14:48  -220.841045  -1.43
iter:   2 08:17:18  -220.832936  -2.13  -1.91
iter:   3 08:19:46  -220.832203c -2.72  -2.28
iter:   4 08:21:59  -220.830127c -2.69  -2.35
Writing to output.gpw (mode='')

iter:   5 08:24:32  -220.830551c -3.39  -2.68
iter:   6 08:27:00  -220.830043c -2.79  -2.60
iter:   7 08:29:18  -220.829941c -2.87  -2.81
iter:   8 08:31:38  -220.830102c -3.59  -3.04
iter:   9 08:33:50  -220.830073c -3.50  -3.13
Writing to output.gpw (mode='')

iter:  10 08:36:18  -220.830020c -3.87  -3.23
iter:  11 08:38:31  -220.830008c -4.24  -3.38
iter:  12 08:40:40  -220.829990c -4.39  -3.54
iter:  13 08:43:02  -220.829998c -4.61  -3.62
iter:  14 08:45:11  -220.830037c -4.66  -3.67
Writing to output.gpw (mode='')

iter:  15 08:47:31  -220.830016c -4.78  -3.66
iter:  16 08:49:49  -220.830013c -5.01  -3.91
iter:  17 08:52:08  -220.830027c -5.45  -3.92
iter:  18 08:54:33  -220.830024c -5.37  -4.01c
iter:  19 08:56:48  -220.830023c -5.54  -4.28c
Writing to output.gpw (mode='')

iter:  20 08:59:07  -220.830025c -5.85  -4.34c
iter:  21 09:01:20  -220.830024c -5.79  -4.43c
iter:  22 09:03:43  -220.830023c -5.88  -4.53c
iter:  23 09:06:03  -220.830025c -6.31  -4.54c
iter:  24 09:08:18  -220.830024c -6.59  -4.78c
Writing to output.gpw (mode='')

iter:  25 09:10:42  -220.830024c -6.32  -4.80c
iter:  26 09:13:01  -220.830025c -6.65  -4.92c
iter:  27 09:15:19  -220.830025c -6.88  -5.10c
iter:  28 09:17:40  -220.830025c -6.95  -5.15c
iter:  29 09:19:53  -220.830025c -6.91  -5.23c
Writing to output.gpw (mode='')

iter:  30 09:22:14  -220.830025c -6.87  -5.33c
iter:  31 09:24:27  -220.830025c -7.01  -5.36c
iter:  32 09:26:54  -220.830025c -7.16  -5.40c
iter:  33 09:29:18  -220.830025c -7.32  -5.49c
iter:  34 09:31:54  -220.830025c -7.51c -5.53c

Converged after 34 iterations.

Dipole moment: (1.689574, -3.483471, 0.007046) |e|*Ang

Energy contributions relative to reference atoms: (reference = -8007.321583)

Kinetic:        +91.866811
Potential:      -79.725744
External:        +0.000000
XC:            -232.697523
Entropy (-ST):   -0.127844
Local:           -0.209647
--------------------------
Free energy:   -220.893947
Extrapolated:  -220.830025

Dipole-layer corrected work functions: 3.433231, 3.419686 eV

Showing only first 2 kpts
 Kpt  Band  Eigenvalues  Occupancy
  0    19     -3.64638    1.97570
  0    20     -3.61658    1.95634
  0    21     -3.34327    0.31851
  0    22     -3.15201    0.00823

  1    19     -3.67647    1.98662
  1    20     -3.39644    0.70848
  1    21     -3.34310    0.31758
  1    22     -3.18913    0.01721


Fermi level: -3.42646

No gap
Writing to output.gpw (mode='')


Forces in eV/Ang:
  0 Li    0.00860   -0.01422   -0.27522
  1 Li    0.02021    0.00286   -0.28790
  2 Li   -0.00170    0.01151   -0.29307
  3 Li    0.01030    0.00116   -0.28069
  4 Li    0.02040   -0.00806   -0.28009
  5 Li   -0.00141   -0.02730   -0.29064
  6 Li    0.01361   -0.00049   -0.24817
  7 Li   -0.01673    0.00285   -0.28009
  8 Li    0.00683   -0.00094   -0.26509
  9 Li   -0.00018    0.00395    0.21026
 10 Li   -0.05165   -0.02794    0.21676
 11 Li   -0.04475    0.00659    0.25712
 12 Li   -0.04757   -0.00154    0.24209
 13 Li   -0.01904   -0.03480    0.21587
 14 Li   -0.04107   -0.02526    0.32774
 15 Li   -0.00511    0.09155    0.30317
 16 Li   -0.04610    0.08309    0.24963
 17 Li   -0.03382    0.04497    0.27030
 18 Li    0.02892    0.02946   -0.04140
 19 Li    0.01835    0.02077    0.00527
 20 Li   -0.04207    0.02732   -0.02579
 21 Li    0.01168   -0.02070    0.01381
 22 Li   -0.00845    0.02458    0.02066
 23 Li   -0.00639    0.01173    0.01947
 24 Li   -0.06243   -0.01747    0.03546
 25 Li   -0.00710    0.00614   -0.00837
 26 Li    0.00360   -0.04550    0.01105
 27 Li    0.03629   -0.02200   -0.00859
 28 Li    0.03709    0.03213   -0.05285
 29 Li    0.04072    0.02490   -0.00473
 30 Li   -0.00078    0.03326    0.04148
 31 Li   -0.00603    0.00732    0.03225
 32 Li   -0.01082    0.00276    0.02023
 33 Li    0.01172   -0.01505    0.05018
 34 Li    0.13516   -0.08506    0.03491
 35 Li   -0.00027    0.01762    0.04519
 36 B     0.06874   -0.12011   -0.00642
 37 H     0.03123    0.09221    0.02676
 38 H    -0.07371   -0.10932    0.05902
 39 H     0.01229   -0.01662   -0.05319

System changes: positions 

Initializing position-dependent things.

Density initialized from wave functions
       .-----------------------.  
      /|                       |  
     / |                       |  
    /  |                       |  
   /   |                       |  
  /    |                       |  
 *     |                       |  
 |     |                       |  
 |     |                       |  
 |     |                       |  
 |     |  H                    |  
 |     |                       |  
 |     | H    Li      Li      H|  
 |     |                       |  
 |     |    Li      Li       Li|  
 |     |  Li      Li      Li   |  
 |     |   Li      Li      Li  |  
 |     |Li      Li      LLi    |  
 |     |                       |  
 |   LLi     LLi     LLi       |  
 |     |  Li      Li      Li   |  
 | Li  |   Li      Li          |  
 |     |Li      Li      Li     |  
 Li    | Li      Li            |  
 |    Li      Li      Li       |  
 |     |                       |  
 |     |                       |  
 |     |                       |  
 |     |                       |  
 |     |                       |  
 |     |                       |  
 |     .-----------------------.  
 |    /                       /   
 |   /                       /    
 |  /                       /     
 | /                       /      
 |/                       /       
 *-----------------------*        

Positions:
   0 Li     1.617037    1.617037   10.000000    ( 0.0000,  0.0000,  0.0000)
   1 Li     4.851111    1.617037   10.000000    ( 0.0000,  0.0000,  0.0000)
   2 Li     8.085185    1.617037   10.000000    ( 0.0000,  0.0000,  0.0000)
   3 Li     1.617037    4.851111   10.000000    ( 0.0000,  0.0000,  0.0000)
   4 Li     4.851111    4.851111   10.000000    ( 0.0000,  0.0000,  0.0000)
   5 Li     8.085185    4.851111   10.000000    ( 0.0000,  0.0000,  0.0000)
   6 Li     1.617037    8.085185   10.000000    ( 0.0000,  0.0000,  0.0000)
   7 Li     4.851111    8.085185   10.000000    ( 0.0000,  0.0000,  0.0000)
   8 Li     8.085185    8.085185   10.000000    ( 0.0000,  0.0000,  0.0000)
   9 Li     0.000000    0.000000   11.617037    ( 0.0000,  0.0000,  0.0000)
  10 Li     3.234074    0.000000   11.617037    ( 0.0000,  0.0000,  0.0000)
  11 Li     6.468148    0.000000   11.617037    ( 0.0000,  0.0000,  0.0000)
  12 Li     0.000000    3.234074   11.617037    ( 0.0000,  0.0000,  0.0000)
  13 Li     3.234074    3.234074   11.617037    ( 0.0000,  0.0000,  0.0000)
  14 Li     6.468148    3.234074   11.617037    ( 0.0000,  0.0000,  0.0000)
  15 Li     0.000000    6.468148   11.617037    ( 0.0000,  0.0000,  0.0000)
  16 Li     3.234074    6.468148   11.617037    ( 0.0000,  0.0000,  0.0000)
  17 Li     6.468148    6.468148   11.617037    ( 0.0000,  0.0000,  0.0000)
  18 Li     1.582591    1.655679   13.453054    ( 0.0000,  0.0000,  0.0000)
  19 Li     4.745002    1.552058   13.492182    ( 0.0000,  0.0000,  0.0000)
  20 Li     8.084574    1.569038   13.470417    ( 0.0000,  0.0000,  0.0000)
  21 Li     1.604347    4.896700   13.384443    ( 0.0000,  0.0000,  0.0000)
  22 Li     4.761774    4.845641   13.440000    ( 0.0000,  0.0000,  0.0000)
  23 Li     8.048088    4.910519   13.426662    ( 0.0000,  0.0000,  0.0000)
  24 Li     1.556864    8.226542   13.607804    ( 0.0000,  0.0000,  0.0000)
  25 Li     4.766691    8.069608   13.489257    ( 0.0000,  0.0000,  0.0000)
  26 Li     7.990509    8.156667   13.491815    ( 0.0000,  0.0000,  0.0000)
  27 Li    -0.088722    0.325885   15.673459    ( 0.0000,  0.0000,  0.0000)
  28 Li     2.876292   -0.045819   15.598953    ( 0.0000,  0.0000,  0.0000)
  29 Li     6.177230   -0.014979   15.458696    ( 0.0000,  0.0000,  0.0000)
  30 Li    -0.009717    3.350445   15.230628    ( 0.0000,  0.0000,  0.0000)
  31 Li     3.249490    3.289086   15.357540    ( 0.0000,  0.0000,  0.0000)
  32 Li     6.536590    3.152653   15.331742    ( 0.0000,  0.0000,  0.0000)
  33 Li    -0.117376    6.511168   15.472571    ( 0.0000,  0.0000,  0.0000)
  34 Li     2.765543    6.711904   15.501447    ( 0.0000,  0.0000,  0.0000)
  35 Li     6.214223    6.341025   15.343702    ( 0.0000,  0.0000,  0.0000)
  36 B     10.818578    8.229292   16.103651    ( 0.0000,  0.0000,  0.0000)
  37 H     11.047222    9.192217   16.840025    ( 0.0000,  0.0000,  0.0000)
  38 H      9.599661    8.273574   15.894216    ( 0.0000,  0.0000,  0.0000)
  39 H     10.948272    7.216617   16.807237    ( 0.0000,  0.0000,  0.0000)

Unit cell:
           periodic     x           y           z      points  spacing
  1. axis:    yes    9.702222    0.000000    0.000000    60     0.1617
  2. axis:    yes    0.000000    9.702222    0.000000    60     0.1617
  3. axis:    no     0.000000    0.000000   24.851111   156     0.1593

  Lengths:   9.702222   9.702222  24.851111
  Angles:   90.000000  90.000000  90.000000

Effective grid spacing dv^(1/3) = 0.1609

     iter     time        total  log10-change:
                         energy  eigst   dens
iter:   1 09:34:58  -220.858206  -1.15
iter:   2 09:37:15  -220.843558  -1.85  -1.79
iter:   3 09:39:28  -220.842256c -2.51  -2.14
iter:   4 09:41:42  -220.838617c -2.68  -2.22
Writing to output.gpw (mode='')

iter:   5 09:44:15  -220.839117c -3.34  -2.57
iter:   6 09:46:37  -220.838125c -2.48  -2.50
iter:   7 09:48:54  -220.838043c -2.65  -2.73
iter:   8 09:51:11  -220.838228c -3.30  -2.96
iter:   9 09:53:28  -220.838251c -3.31  -3.14
Writing to output.gpw (mode='')

iter:  10 09:56:00  -220.838216c -3.72  -3.17
iter:  11 09:58:22  -220.838219c -4.10  -3.27
iter:  12 10:00:32  -220.838202c -4.26  -3.46
iter:  13 10:02:46  -220.838200c -4.36  -3.54
iter:  14 10:05:05  -220.838199c -4.67  -3.64
Writing to output.gpw (mode='')

iter:  15 10:07:32  -220.838205c -4.82  -3.70
iter:  16 10:09:49  -220.838204c -4.99  -3.85
iter:  17 10:12:04  -220.838209c -5.26  -3.92
