
  ___ ___ ___ _ _ _  
 |   |   |_  | | | | 
 | | | | | . | | | | 
 |__ |  _|___|_____|  22.8.0
 |___|_|             

User:   vazumah@r106.ib.bridges2.psc.edu
Date:   Fri Mar 10 18:33:13 2023
Arch:   x86_64
Pid:    31968
CWD:    /jet/home/vazumah/Calcs/LiMEAS/proton_donors/propan_1_ol_y/bridge/8.085_1.617/N2_x
Python: 3.11.0
gpaw:   /jet/home/vazumah/.conda/envs/GPAW_mpich/lib/python3.11/site-packages/gpaw
_gpaw:  /jet/home/vazumah/.conda/envs/GPAW_mpich/lib/python3.11/site-packages/
        _gpaw.cpython-311-x86_64-linux-gnu.so
ase:    /jet/home/vazumah/.conda/envs/GPAW_mpich/lib/python3.11/site-packages/ase (version 3.22.1)
numpy:  /jet/home/vazumah/.conda/envs/GPAW_mpich/lib/python3.11/site-packages/numpy (version 1.24.2)
scipy:  /jet/home/vazumah/.conda/envs/GPAW_mpich/lib/python3.11/site-packages/scipy (version 1.10.1)
libxc:  5.2.3
units:  Angstrom and eV
cores: 128
OpenMP: True
OMP_NUM_THREADS: 1

Input parameters:
  h: 0.16
  kpts: {size: [4, 4, 1]}
  occupations: {name: fermi-dirac,
                width: 0.05}
  poissonsolver: {dipolelayer: xy}
  xc: BEEF-vdW

System changes: positions, numbers, cell, pbc, initial_charges, initial_magmoms 

Initialize ...

species:
  Li:
    name: Lithium
    id: 830b4218f175192f93f959cfc0aad614
    Z: 3.0
    valence: 1
    core: 2
    charge: 0.0
    file: /jet/home/vazumah/datasets/gpaw-setups-0.9.20000/Li.PBE.gz
    compensation charges: {type: gauss,
                           rc: 0.33,
                           lmax: 2}
    cutoffs: {filter: 1.91,
              core: 2.55}
    valence states:
      #              energy  rcut
      - 2s(1.00)    -2.874   1.058
      - 2p(0.00)    -1.090   1.058
      -  s          24.337   1.058
  
    # Using partial waves for Li as LCAO basis

  O:
    name: Oxygen
    id: 32ecd46bf208036f09c70b0ec9a88b78
    Z: 8.0
    valence: 6
    core: 2
    charge: 0.0
    file: /jet/home/vazumah/datasets/gpaw-setups-0.9.20000/O.PBE.gz
    compensation charges: {type: gauss,
                           rc: 0.21,
                           lmax: 2}
    cutoffs: {filter: 1.17,
              core: 0.83}
    valence states:
      #              energy  rcut
      - 2s(2.00)   -23.961   0.688
      - 2p(4.00)    -9.029   0.598
      -  s           3.251   0.688
      -  p          18.182   0.598
      -  d           0.000   0.619
  
    # Using partial waves for O as LCAO basis

  C:
    name: Carbon
    id: 4aa54d4b901d75f77cc0ea3eec22967b
    Z: 6.0
    valence: 4
    core: 2
    charge: 0.0
    file: /jet/home/vazumah/datasets/gpaw-setups-0.9.20000/C.PBE.gz
    compensation charges: {type: gauss,
                           rc: 0.20,
                           lmax: 2}
    cutoffs: {filter: 1.14,
              core: 1.14}
    valence states:
      #              energy  rcut
      - 2s(2.00)   -13.751   0.635
      - 2p(2.00)    -5.284   0.635
      -  s          13.461   0.635
      -  p          21.927   0.635
      -  d           0.000   0.635
  
    # Using partial waves for C as LCAO basis

  H:
    name: Hydrogen
    id: d65de229564ff8ea4db303e23b6d1ecf
    Z: 1.0
    valence: 1
    core: 0
    charge: 0.0
    file: /jet/home/vazumah/datasets/gpaw-setups-0.9.20000/H.PBE.gz
    compensation charges: {type: gauss,
                           rc: 0.15,
                           lmax: 2}
    cutoffs: {filter: 0.85,
              core: 0.53}
    valence states:
      #              energy  rcut
      - 1s(1.00)    -6.494   0.476
      -  s          20.717   0.476
      -  p           0.000   0.476
  
    # Using partial waves for H as LCAO basis

  N:
    name: Nitrogen
    id: f7500608b86eaa90eef8b1d9a670dc53
    Z: 7.0
    valence: 5
    core: 2
    charge: 0.0
    file: /jet/home/vazumah/datasets/gpaw-setups-0.9.20000/N.PBE.gz
    compensation charges: {type: gauss,
                           rc: 0.18,
                           lmax: 2}
    cutoffs: {filter: 1.11,
              core: 0.96}
    valence states:
      #              energy  rcut
      - 2s(2.00)   -18.583   0.603
      - 2p(3.00)    -7.089   0.529
      -  s           8.629   0.603
      -  p          20.123   0.529
      -  d           0.000   0.577
  
    # Using partial waves for N as LCAO basis

Reference energy: -15487.462483  # eV

Spin-paired calculation

Convergence criteria:
 Maximum [total energy] change in last 3 cyles: 0.0005 eV / electron
 Maximum integral of absolute [dens]ity change: 0.0001 electrons / valence electron
 Maximum integral of absolute [eigenst]ate change: 4e-08 eV^2 / valence electron
 Maximum number of scf [iter]ations: 333
 (Square brackets indicate name in SCF output, whereas a 'c' in
 the SCF output indicates the quantity has converged.)

Symmetries present (total): 1

  ( 1  0  0)
  ( 0  1  0)
  ( 0  0  1)

16 k-points: 4 x 4 x 1 Monkhorst-Pack grid
8 k-points in the irreducible part of the Brillouin zone
       k-points in crystal coordinates                weights
   0:     0.12500000   -0.37500000    0.00000000          2/16
   1:     0.12500000   -0.12500000    0.00000000          2/16
   2:     0.12500000    0.12500000    0.00000000          2/16
   3:     0.12500000    0.37500000    0.00000000          2/16
   4:     0.37500000   -0.37500000    0.00000000          2/16
   5:     0.37500000   -0.12500000    0.00000000          2/16
   6:     0.37500000    0.12500000    0.00000000          2/16
   7:     0.37500000    0.37500000    0.00000000          2/16

Wave functions: Uniform real-space grid
  Kinetic energy operator: 6*3+1=19 point O(h^6) finite-difference Laplacian
  ScaLapack parameters: grid=1x1, blocksize=None
  Wavefunction extrapolation:
    Improved wavefunction reuse through dual PAW basis 

Occupation numbers: Fermi-Dirac:
  width: 0.0500  # eV
 

Eigensolver
   Davidson(niter=2) 

Densities:
  Coarse grid: 60*60*164 grid
  Fine grid: 120*120*328 grid
  Total Charge: 0.000000 

Density mixing:
  Method: separate
  Backend: pulay
  Linear mixing parameter: 0.05
  old densities: 5
  Damping of long wavelength oscillations: 50 

Hamiltonian:
  XC and Coulomb potentials evaluated on a 120*120*328 grid
  Using the BEEF-vdW Exchange-Correlation functional
  Interpolation: tri-quintic (5. degree polynomial)
  Poisson solver: FastPoissonSolver using
    Stencil: 6*3+1=19 point O(h^6) finite-difference Laplacian
    FFT axes: [0, 1]
    FST axes: [2]

Dipole correction along z-axis 

XC parameters: BEEF-vdW with 2 nearest neighbor stencil

Memory estimate:
  Process memory now: 131.16 MiB
  Calculator: 84.83 MiB
    Density: 22.60 MiB
      Arrays: 7.22 MiB
      Localized functions: 12.63 MiB
      Mixer: 2.75 MiB
    Hamiltonian: 5.72 MiB
      Arrays: 4.72 MiB
      XC: 0.00 MiB
      Poisson: 0.00 MiB
      vbar: 1.00 MiB
    Wavefunctions: 56.51 MiB
      Arrays psit_nG: 26.37 MiB
      Eigensolver: 29.47 MiB
      Projections: 0.01 MiB
      Projectors: 0.66 MiB

Total number of cores used: 128
Parallelization over k-points: 8
Domain decomposition: 2 x 2 x 4

Number of atoms: 50
Number of atomic orbitals: 176
Number of bands in calculation: 48
Number of valence electrons: 72
Bands to converge: occupied

... initialized

Initializing position-dependent things.

Density initialized from atomic densities
Creating initial wave functions:
  48 bands from LCAO basis set

       .-----------------------.  
      /|                       |  
     / |                       |  
    /  |                       |  
   /   |                       |  
  /    |                       |  
 *     |                       |  
 |     |                       |  
 |     |                       |  
 |     |                       |  
 |     |                       |  
 |     |                   H   |  
 |     |             H  HC     |  
 |     |               C  HH   |  
 |     |             H  C      |  
 |   Li|     Li      LO   H    |  
 |     |           N  N        |  
 | Li  |  LLi     LLi     Li   |  
 |     |                       |  
 Li    |LLi     LLi     Li     |  
 |   Li|     Li      Li        |  
 |    Li  Li  Li  Li  Li  Li   |  
 | Li  |   Li      Li          |  
 |     |Li      Li      Li     |  
 Li    | Li      Li            |  
 |    Li      Li      Li       |  
 |     |                       |  
 |     |                       |  
 |     |                       |  
 |     |                       |  
 |     |                       |  
 |     |                       |  
 |     .-----------------------.  
 |    /                       /   
 |   /                       /    
 |  /                       /     
 | /                       /      
 |/                       /       
 *-----------------------*        

Positions:
   0 Li     1.617037    1.617037   10.000000    ( 0.0000,  0.0000,  0.0000)
   1 Li     4.851111    1.617037   10.000000    ( 0.0000,  0.0000,  0.0000)
   2 Li     8.085185    1.617037   10.000000    ( 0.0000,  0.0000,  0.0000)
   3 Li     1.617037    4.851111   10.000000    ( 0.0000,  0.0000,  0.0000)
   4 Li     4.851111    4.851111   10.000000    ( 0.0000,  0.0000,  0.0000)
   5 Li     8.085185    4.851111   10.000000    ( 0.0000,  0.0000,  0.0000)
   6 Li     1.617037    8.085185   10.000000    ( 0.0000,  0.0000,  0.0000)
   7 Li     4.851111    8.085185   10.000000    ( 0.0000,  0.0000,  0.0000)
   8 Li     8.085185    8.085185   10.000000    ( 0.0000,  0.0000,  0.0000)
   9 Li     0.000000    0.000000   11.617037    ( 0.0000,  0.0000,  0.0000)
  10 Li     3.234074    0.000000   11.617037    ( 0.0000,  0.0000,  0.0000)
  11 Li     6.468148    0.000000   11.617037    ( 0.0000,  0.0000,  0.0000)
  12 Li     0.000000    3.234074   11.617037    ( 0.0000,  0.0000,  0.0000)
  13 Li     3.234074    3.234074   11.617037    ( 0.0000,  0.0000,  0.0000)
  14 Li     6.468148    3.234074   11.617037    ( 0.0000,  0.0000,  0.0000)
  15 Li     0.000000    6.468148   11.617037    ( 0.0000,  0.0000,  0.0000)
  16 Li     3.234074    6.468148   11.617037    ( 0.0000,  0.0000,  0.0000)
  17 Li     6.468148    6.468148   11.617037    ( 0.0000,  0.0000,  0.0000)
  18 Li     1.617038    1.617038   13.469728    ( 0.0000,  0.0000,  0.0000)
  19 Li     4.851111    1.617038   13.469729    ( 0.0000,  0.0000,  0.0000)
  20 Li     8.085184    1.617038   13.469728    ( 0.0000,  0.0000,  0.0000)
  21 Li     1.617038    4.851111   13.469729    ( 0.0000,  0.0000,  0.0000)
  22 Li     4.851111    4.851111   13.469730    ( 0.0000,  0.0000,  0.0000)
  23 Li     8.085184    4.851111   13.469729    ( 0.0000,  0.0000,  0.0000)
  24 Li     1.617038    8.085184   13.469728    ( 0.0000,  0.0000,  0.0000)
  25 Li     4.851111    8.085184   13.469729    ( 0.0000,  0.0000,  0.0000)
  26 Li     8.085184    8.085184   13.469728    ( 0.0000,  0.0000,  0.0000)
  27 Li    -0.000000   -0.000000   15.445939    ( 0.0000,  0.0000,  0.0000)
  28 Li     3.234074    0.000000   15.445939    ( 0.0000,  0.0000,  0.0000)
  29 Li     6.468148    0.000000   15.445939    ( 0.0000,  0.0000,  0.0000)
  30 Li     0.000000    3.234074   15.445939    ( 0.0000,  0.0000,  0.0000)
  31 Li     3.234076    3.234076   15.445938    ( 0.0000,  0.0000,  0.0000)
  32 Li     6.468146    3.234076   15.445938    ( 0.0000,  0.0000,  0.0000)
  33 Li     0.000000    6.468148   15.445939    ( 0.0000,  0.0000,  0.0000)
  34 Li     3.234076    6.468146   15.445938    ( 0.0000,  0.0000,  0.0000)
  35 Li     6.468146    6.468146   15.445938    ( 0.0000,  0.0000,  0.0000)
  36 O      8.085185    1.617037   18.445939    ( 0.0000,  0.0000,  0.0000)
  37 C      7.697564    4.051286   18.446069    ( 0.0000,  0.0000,  0.0000)
  38 C      8.707974    2.909097   18.456622    ( 0.0000,  0.0000,  0.0000)
  39 C      8.359977    5.431621   18.439708    ( 0.0000,  0.0000,  0.0000)
  40 H      7.054715    3.932673   17.568768    ( 0.0000,  0.0000,  0.0000)
  41 H      7.055806    3.957371   19.331748    ( 0.0000,  0.0000,  0.0000)
  42 H      9.327917    2.932904   17.556731    ( 0.0000,  0.0000,  0.0000)
  43 H      9.374877    3.002679   19.324396    ( 0.0000,  0.0000,  0.0000)
  44 H      8.986057    5.565158   17.554030    ( 0.0000,  0.0000,  0.0000)
  45 H      7.615203    6.228902   18.438902    ( 0.0000,  0.0000,  0.0000)
  46 H      8.995494    5.573170   19.317969    ( 0.0000,  0.0000,  0.0000)
  47 H      7.507627    1.568275   19.217251    ( 0.0000,  0.0000,  0.0000)
  48 N      8.085000    1.617000   16.945939    ( 0.0000,  0.0000,  0.0000)
  49 N      6.988378    1.617000   16.945939    ( 0.0000,  0.0000,  0.0000)

Unit cell:
           periodic     x           y           z      points  spacing
  1. axis:    yes    9.702222    0.000000    0.000000    60     0.1617
  2. axis:    yes    0.000000    9.702222    0.000000    60     0.1617
  3. axis:    no     0.000000    0.000000   26.351111   164     0.1607

  Lengths:   9.702222   9.702222  26.351111
  Angles:   90.000000  90.000000  90.000000

Effective grid spacing dv^(1/3) = 0.1614

     iter     time        total  log10-change:
                         energy  eigst   dens
iter:   1 18:33:29  -592.618055
iter:   2 18:33:37  -109.115344  +2.71  +0.00
iter:   3 18:33:44  -117.141930  +3.11  -0.21
iter:   4 18:33:51  -256.515659  +3.15  -0.32
Writing to output.gpw (mode='')

iter:   5 18:33:59  -292.879482  +2.68  -0.38
iter:   6 18:34:06  -325.320212  +2.34  -0.65
iter:   7 18:34:13  -337.569052  +1.97  -0.67
iter:   8 18:34:20  -341.836591  +1.60  -0.65
iter:   9 18:34:28  -345.136563  +1.44  -0.68
Writing to output.gpw (mode='')

iter:  10 18:34:35  -370.246115  +1.68  -0.59
iter:  11 18:34:42  -340.645116  +0.89  -0.60
iter:  12 18:34:49  -330.412369  +1.21  -0.73
iter:  13 18:34:57  -331.760253  +1.01  -0.83
iter:  14 18:35:04  -330.620454  +0.31  -0.82
Writing to output.gpw (mode='')

iter:  15 18:35:11  -329.373937  +0.70  -0.87
iter:  16 18:35:19  -328.018949  +0.39  -0.97
iter:  17 18:35:26  -328.171700  +0.26  -1.16
iter:  18 18:35:33  -327.727237  -0.28  -1.17
iter:  19 18:35:43  -327.600166  -0.26  -1.24
Writing to output.gpw (mode='')

iter:  20 18:35:50  -327.454337  -0.21  -1.29
iter:  21 18:35:57  -327.225289  -0.04  -1.36
iter:  22 18:36:05  -327.224499  -0.50  -1.55
iter:  23 18:36:12  -327.186265  -0.89  -1.61
iter:  24 18:36:19  -327.194775  -0.83  -1.76
Writing to output.gpw (mode='')

iter:  25 18:36:27  -327.202952c -1.16  -1.83
iter:  26 18:36:34  -327.200703c -1.25  -1.92
iter:  27 18:36:41  -327.194583c -1.45  -2.14
iter:  28 18:36:48  -327.198813c -1.41  -2.30
iter:  29 18:36:56  -327.198679c -1.72  -2.29
Writing to output.gpw (mode='')

iter:  30 18:37:03  -327.200983c -1.80  -2.47
iter:  31 18:37:10  -327.202620c -1.96  -2.51
iter:  32 18:37:17  -327.204826c -1.99  -2.58
iter:  33 18:37:25  -327.206611c -1.99  -2.61
iter:  34 18:37:32  -327.208122c -2.12  -2.69
Writing to output.gpw (mode='')

iter:  35 18:37:39  -327.209890c -2.27  -2.78
iter:  36 18:37:47  -327.209936c -2.38  -2.80
iter:  37 18:37:57  -327.210693c -2.40  -2.94
iter:  38 18:38:15  -327.211475c -2.31  -2.94
iter:  39 18:38:24  -327.212447c -2.27  -2.93
Writing to output.gpw (mode='')

iter:  40 18:38:32  -327.212679c -2.67  -2.84
iter:  41 18:38:39  -327.213113c -2.58  -2.82
iter:  42 18:38:46  -327.213555c -2.72  -2.82
iter:  43 18:38:53  -327.213861c -2.87  -2.82
iter:  44 18:39:01  -327.214386c -2.30  -2.80
Writing to output.gpw (mode='')

iter:  45 18:39:08  -327.214718c -2.68  -2.75
iter:  46 18:39:15  -327.214975c -2.93  -2.80
iter:  47 18:39:23  -327.215051c -2.87  -2.73
iter:  48 18:39:30  -327.215543c -2.81  -2.77
iter:  49 18:39:37  -327.215642c -3.32  -2.93
Writing to output.gpw (mode='')

iter:  50 18:39:44  -327.215950c -3.16  -2.94
iter:  51 18:39:52  -327.216276c -3.16  -2.96
iter:  52 18:39:59  -327.215920c -3.29  -2.99
iter:  53 18:40:06  -327.216196c -3.45  -3.15
iter:  54 18:40:13  -327.216081c -3.67  -3.35
Writing to output.gpw (mode='')

iter:  55 18:40:21  -327.216232c -3.42  -3.39
iter:  56 18:40:28  -327.216119c -3.71  -3.48
iter:  57 18:40:35  -327.216236c -3.71  -3.53
iter:  58 18:40:42  -327.216214c -4.06  -3.63
iter:  59 18:40:50  -327.216271c -3.86  -3.77
Writing to output.gpw (mode='')

iter:  60 18:40:57  -327.216300c -3.93  -3.97
iter:  61 18:41:04  -327.216317c -4.04  -3.99
iter:  62 18:41:12  -327.216326c -4.15  -4.02c
iter:  63 18:41:19  -327.216332c -4.30  -4.19c
iter:  64 18:41:26  -327.216327c -4.34  -4.17c
Writing to output.gpw (mode='')

iter:  65 18:41:33  -327.216330c -4.42  -4.12c
iter:  66 18:41:41  -327.216332c -4.58  -4.13c
iter:  67 18:41:48  -327.216314c -4.26  -4.11c
iter:  68 18:41:55  -327.216314c -4.49  -4.02c
iter:  69 18:42:02  -327.216318c -4.69  -4.02c
Writing to output.gpw (mode='')

iter:  70 18:42:10  -327.216332c -4.71  -4.02c
iter:  71 18:42:17  -327.216324c -4.84  -4.03c
iter:  72 18:42:24  -327.216383c -4.79  -4.00
iter:  73 18:42:31  -327.216349c -4.48  -3.97
iter:  74 18:42:39  -327.216327c -4.82  -4.13c
Writing to output.gpw (mode='')

iter:  75 18:42:46  -327.216367c -4.90  -4.00c
iter:  76 18:42:53  -327.216347c -4.89  -4.12c
iter:  77 18:43:00  -327.216397c -4.99  -4.06c
iter:  78 18:43:14  -327.216398c -4.91  -4.33c
iter:  79 18:43:22  -327.216403c -4.96  -4.51c
Writing to output.gpw (mode='')

iter:  80 18:43:29  -327.216397c -5.23  -4.56c
iter:  81 18:43:36  -327.216397c -5.11  -4.59c
iter:  82 18:43:44  -327.216399c -5.03  -4.61c
iter:  83 18:43:51  -327.216394c -5.34  -4.68c
iter:  84 18:43:58  -327.216394c -5.46  -4.87c
Writing to output.gpw (mode='')

iter:  85 18:44:05  -327.216396c -5.42  -5.01c
iter:  86 18:44:13  -327.216398c -5.43  -5.09c
iter:  87 18:44:20  -327.216398c -5.55  -5.18c
iter:  88 18:44:27  -327.216399c -5.55  -5.18c
iter:  89 18:44:34  -327.216400c -5.41  -5.24c
Writing to output.gpw (mode='')

iter:  90 18:44:42  -327.216401c -5.59  -5.42c
iter:  91 18:44:49  -327.216400c -5.86  -5.53c
iter:  92 18:44:56  -327.216399c -5.78  -5.46c
iter:  93 18:45:03  -327.216399c -5.86  -5.36c
iter:  94 18:45:11  -327.216400c -5.91  -5.35c
Writing to output.gpw (mode='')

iter:  95 18:45:18  -327.216400c -5.98  -5.37c
iter:  96 18:45:25  -327.216399c -5.87  -5.30c
iter:  97 18:45:32  -327.216400c -5.98  -5.21c
iter:  98 18:45:40  -327.216400c -6.20  -5.23c
iter:  99 18:45:47  -327.216400c -6.13  -5.21c
Writing to output.gpw (mode='')

iter: 100 18:45:54  -327.216399c -6.27  -5.21c
iter: 101 18:46:02  -327.216398c -6.29  -5.08c
iter: 102 18:46:09  -327.216399c -6.28  -5.06c
iter: 103 18:46:16  -327.216402c -6.33  -5.15c
iter: 104 18:46:23  -327.216402c -6.37  -5.23c
Writing to output.gpw (mode='')

iter: 105 18:46:31  -327.216404c -6.44  -5.20c
iter: 106 18:46:38  -327.216403c -6.45  -5.20c
iter: 107 18:46:45  -327.216404c -6.45  -5.33c
iter: 108 18:46:53  -327.216404c -6.59  -5.50c
iter: 109 18:47:00  -327.216404c -6.57  -5.57c
Writing to output.gpw (mode='')

iter: 110 18:47:07  -327.216404c -6.59  -5.63c
iter: 111 18:47:14  -327.216404c -6.73  -5.65c
iter: 112 18:47:22  -327.216404c -6.88  -5.77c
iter: 113 18:47:29  -327.216404c -6.84  -5.87c
iter: 114 18:47:36  -327.216405c -6.74  -5.94c
Writing to output.gpw (mode='')

iter: 115 18:47:44  -327.216405c -6.98  -6.00c
iter: 116 18:47:51  -327.216405c -7.01  -6.03c
iter: 117 18:47:58  -327.216405c -7.06  -6.11c
iter: 118 18:48:05  -327.216405c -7.03  -6.23c
iter: 119 18:48:18  -327.216405c -7.24  -6.32c
Writing to output.gpw (mode='')

iter: 120 18:48:26  -327.216404c -7.17  -6.29c
iter: 121 18:48:33  -327.216404c -7.34  -6.17c
iter: 122 18:48:40  -327.216405c -7.24  -6.17c
iter: 123 18:48:48  -327.216404c -7.45c -6.17c

Converged after 123 iterations.

Dipole moment: (4.586841, -3.586891, 0.522437) |e|*Ang

Energy contributions relative to reference atoms: (reference = -15487.462483)

Kinetic:       +202.717542
Potential:     -185.803992
External:        +0.000000
XC:            -344.821572
Entropy (-ST):   -0.160987
Local:           +0.772112
--------------------------
Free energy:   -327.296898
Extrapolated:  -327.216404

Dipole-layer corrected work functions: 3.390074, 2.385772 eV

Showing only first 2 kpts
 Kpt  Band  Eigenvalues  Occupancy
  0    34     -3.13452    1.98568
  0    35     -2.99102    1.77428
  0    36     -2.75908    0.14130
  0    37     -2.67340    0.02703

  1    34     -2.93127    1.40819
  1    35     -2.88349    0.95572
  1    36     -2.85419    0.67491
  1    37     -2.78919    0.24378


Fermi level: -2.88792

No gap
Writing to output.gpw (mode='')


Forces in eV/Ang:
  0 Li    0.01157    0.00352   -0.26608
  1 Li   -0.01666    0.00251   -0.27948
  2 Li    0.00888   -0.00244   -0.28161
  3 Li    0.00076   -0.00325   -0.27243
  4 Li    0.00062    0.00923   -0.27870
  5 Li   -0.00484    0.02156   -0.27159
  6 Li   -0.00337    0.00017   -0.27594
  7 Li    0.00685   -0.01006   -0.27687
  8 Li   -0.00624   -0.01896   -0.27524
  9 Li    0.00622    0.00518    0.28426
 10 Li   -0.01690    0.00090    0.25625
 11 Li    0.00385    0.01010    0.31244
 12 Li    0.00923   -0.00461    0.28371
 13 Li   -0.01291   -0.00067    0.24453
 14 Li   -0.00035   -0.01429    0.31612
 15 Li   -0.01589    0.00120    0.24565
 16 Li    0.01143   -0.00167    0.27319
 17 Li    0.00741    0.00337    0.22615
 18 Li   -0.00428    0.00276    0.06543
 19 Li   -0.05220   -0.00304   -0.07918
 20 Li    0.02450    0.01112   -0.19546
 21 Li   -0.02215   -0.00108    0.05941
 22 Li    0.03423   -0.03131    0.06893
 23 Li   -0.00791   -0.02224    0.05310
 24 Li   -0.01602   -0.00460    0.04331
 25 Li    0.02928    0.03177    0.06512
 26 Li   -0.00752    0.00866    0.05225
 27 Li    0.11599   -0.05741   -0.02940
 28 Li   -0.04528   -0.02042   -0.02425
 29 Li   -0.05802    0.06790    0.02119
 30 Li    0.20525    0.04285   -0.36499
 31 Li   -0.06007    0.03221   -0.03182
 32 Li   -0.12456   -0.16099   -0.13814
 33 Li    0.02678    0.05386   -0.15835
 34 Li    0.01398   -0.00932   -0.00024
 35 Li   -0.03524    0.03198   -0.11067
 36 O     7.23588    0.87819   12.70908
 37 C    -0.02284    0.01397    0.23882
 38 C     1.19976    1.90747    2.09149
 39 C     0.05489   -0.14264    0.20466
 40 H    -0.13218    0.27323    0.08306
 41 H    -0.06881    0.03035   -0.09843
 42 H     0.31265    0.22895    0.54681
 43 H    -0.00676   -0.04121   -0.08825
 44 H     0.00547   -0.05433   -0.00478
 45 H    -0.07185   -0.03366   -0.03277
 46 H     0.01555   -0.02113    0.02129
 47 H    -1.11181   -0.55405    0.88445
 48 N     3.05188   -2.36343   -7.72687
 49 N   -10.44701   -0.10013   -8.08411

System changes: positions 

Initializing position-dependent things.

Density initialized from wave functions
       .-----------------------.  
      /|                       |  
     / |                       |  
    /  |                       |  
   /   |                       |  
  /    |                       |  
 *     |                       |  
 |     |                       |  
 |     |                       |  
 |     |                       |  
 |     |                       |  
 |     |                   H   |  
 |     |             H  HC     |  
 |     Li      Li      C  HH   |  
 |     |             H  C      |  
 |   Li|     Li      LO   H    |  
 |     |           N  N        |  
 | Li  |  LLi     LLi     Li   |  
 |     |                       |  
 |     |Li      LLi     Li     |  
 |   Li|     Li      Li        |  
 |    Li  Li  Li  Li  Li  Li   |  
 | Li  |   Li      Li          |  
 |     |Li      Li      Li     |  
 Li    | Li      Li            |  
 |    Li      Li      Li       |  
 |     |                       |  
 |     |                       |  
 |     |                       |  
 |     |                       |  
 |     |                       |  
 |     |                       |  
 |     .-----------------------.  
 |    /                       /   
 |   /                       /    
 |  /                       /     
 | /                       /      
 |/                       /       
 *-----------------------*        

Positions:
   0 Li     1.617037    1.617037   10.000000    ( 0.0000,  0.0000,  0.0000)
   1 Li     4.851111    1.617037   10.000000    ( 0.0000,  0.0000,  0.0000)
   2 Li     8.085185    1.617037   10.000000    ( 0.0000,  0.0000,  0.0000)
   3 Li     1.617037    4.851111   10.000000    ( 0.0000,  0.0000,  0.0000)
   4 Li     4.851111    4.851111   10.000000    ( 0.0000,  0.0000,  0.0000)
   5 Li     8.085185    4.851111   10.000000    ( 0.0000,  0.0000,  0.0000)
   6 Li     1.617037    8.085185   10.000000    ( 0.0000,  0.0000,  0.0000)
   7 Li     4.851111    8.085185   10.000000    ( 0.0000,  0.0000,  0.0000)
   8 Li     8.085185    8.085185   10.000000    ( 0.0000,  0.0000,  0.0000)
   9 Li     0.000000    0.000000   11.617037    ( 0.0000,  0.0000,  0.0000)
  10 Li     3.234074    0.000000   11.617037    ( 0.0000,  0.0000,  0.0000)
  11 Li     6.468148    0.000000   11.617037    ( 0.0000,  0.0000,  0.0000)
  12 Li     0.000000    3.234074   11.617037    ( 0.0000,  0.0000,  0.0000)
  13 Li     3.234074    3.234074   11.617037    ( 0.0000,  0.0000,  0.0000)
  14 Li     6.468148    3.234074   11.617037    ( 0.0000,  0.0000,  0.0000)
  15 Li     0.000000    6.468148   11.617037    ( 0.0000,  0.0000,  0.0000)
  16 Li     3.234074    6.468148   11.617037    ( 0.0000,  0.0000,  0.0000)
  17 Li     6.468148    6.468148   11.617037    ( 0.0000,  0.0000,  0.0000)
  18 Li     1.617026    1.617046   13.469906    ( 0.0000,  0.0000,  0.0000)
  19 Li     4.850968    1.617030   13.469513    ( 0.0000,  0.0000,  0.0000)
  20 Li     8.085251    1.617068   13.469194    ( 0.0000,  0.0000,  0.0000)
  21 Li     1.616978    4.851108   13.469892    ( 0.0000,  0.0000,  0.0000)
  22 Li     4.851204    4.851026   13.469918    ( 0.0000,  0.0000,  0.0000)
  23 Li     8.085162    4.851050   13.469874    ( 0.0000,  0.0000,  0.0000)
  24 Li     1.616994    8.085171   13.469846    ( 0.0000,  0.0000,  0.0000)
  25 Li     4.851191    8.085270   13.469907    ( 0.0000,  0.0000,  0.0000)
  26 Li     8.085163    8.085208   13.469871    ( 0.0000,  0.0000,  0.0000)
  27 Li     0.000317   -0.000157   15.445859    ( 0.0000,  0.0000,  0.0000)
  28 Li     3.233950   -0.000056   15.445873    ( 0.0000,  0.0000,  0.0000)
  29 Li     6.467990    0.000185   15.445997    ( 0.0000,  0.0000,  0.0000)
  30 Li     0.000560    3.234191   15.444942    ( 0.0000,  0.0000,  0.0000)
  31 Li     3.233912    3.234164   15.445851    ( 0.0000,  0.0000,  0.0000)
  32 Li     6.467805    3.233637   15.445561    ( 0.0000,  0.0000,  0.0000)
  33 Li     0.000073    6.468295   15.445506    ( 0.0000,  0.0000,  0.0000)
  34 Li     3.234115    6.468120   15.445937    ( 0.0000,  0.0000,  0.0000)
  35 Li     6.468049    6.468233   15.445636    ( 0.0000,  0.0000,  0.0000)
  36 O      8.104941    1.619434   18.480638    ( 0.0000,  0.0000,  0.0000)
  37 C      7.697502    4.051324   18.446721    ( 0.0000,  0.0000,  0.0000)
  38 C      8.711250    2.914305   18.462332    ( 0.0000,  0.0000,  0.0000)
  39 C      8.360127    5.431231   18.440267    ( 0.0000,  0.0000,  0.0000)
  40 H      7.054354    3.933419   17.568995    ( 0.0000,  0.0000,  0.0000)
  41 H      7.055619    3.957454   19.331480    ( 0.0000,  0.0000,  0.0000)
  42 H      9.328771    2.933529   17.558224    ( 0.0000,  0.0000,  0.0000)
  43 H      9.374858    3.002567   19.324155    ( 0.0000,  0.0000,  0.0000)
  44 H      8.986072    5.565009   17.554017    ( 0.0000,  0.0000,  0.0000)
  45 H      7.615006    6.228810   18.438813    ( 0.0000,  0.0000,  0.0000)
  46 H      8.995536    5.573112   19.318027    ( 0.0000,  0.0000,  0.0000)
  47 H      7.504592    1.566763   19.219666    ( 0.0000,  0.0000,  0.0000)
  48 N      8.093332    1.610547   16.924843    ( 0.0000,  0.0000,  0.0000)
  49 N      6.959856    1.616727   16.923868    ( 0.0000,  0.0000,  0.0000)

Unit cell:
           periodic     x           y           z      points  spacing
  1. axis:    yes    9.702222    0.000000    0.000000    60     0.1617
  2. axis:    yes    0.000000    9.702222    0.000000    60     0.1617
  3. axis:    no     0.000000    0.000000   26.351111   164     0.1607

  Lengths:   9.702222   9.702222  26.351111
  Angles:   90.000000  90.000000  90.000000

Effective grid spacing dv^(1/3) = 0.1614

     iter     time        total  log10-change:
                         energy  eigst   dens
iter:   1 18:48:57  -329.081663  -0.40
iter:   2 18:49:04  -328.772178  -0.64  -1.34
iter:   3 18:49:12  -328.428519  -0.72  -1.32
iter:   4 18:49:19  -328.356923  -1.29  -1.59
Writing to output.gpw (mode='')

iter:   5 18:49:26  -328.351193  -1.24  -1.95
iter:   6 18:49:34  -328.342646c -1.13  -1.95
iter:   7 18:49:41  -328.367012c -1.41  -2.00
iter:   8 18:49:48  -328.349076c -2.14  -2.12
iter:   9 18:49:56  -328.334382c -2.30  -2.22
Writing to output.gpw (mode='')

iter:  10 18:50:03  -328.331107c -2.15  -2.58
iter:  11 18:50:10  -328.333027c -2.55  -2.46
iter:  12 18:50:18  -328.331862c -3.12  -2.58
iter:  13 18:50:25  -328.331811c -2.79  -2.64
iter:  14 18:50:32  -328.331554c -3.37  -2.97
Writing to output.gpw (mode='')

iter:  15 18:50:40  -328.331810c -3.75  -3.04
iter:  16 18:50:47  -328.331686c -3.49  -3.14
iter:  17 18:50:54  -328.331569c -3.79  -3.34
iter:  18 18:51:02  -328.331714c -3.84  -3.38
iter:  19 18:51:09  -328.331726c -4.22  -3.50
Writing to output.gpw (mode='')

iter:  20 18:51:16  -328.331868c -4.05  -3.60
iter:  21 18:51:24  -328.331738c -4.39  -3.51
iter:  22 18:51:31  -328.331769c -4.74  -3.88
iter:  23 18:51:39  -328.331797c -4.47  -3.90
iter:  24 18:51:47  -328.331755c -4.68  -3.97
Writing to output.gpw (mode='')

iter:  25 18:51:54  -328.331779c -4.81  -4.18c
iter:  26 18:52:01  -328.331781c -4.85  -4.25c
iter:  27 18:52:09  -328.331791c -4.98  -4.31c
iter:  28 18:52:16  -328.331783c -5.18  -4.37c
iter:  29 18:52:23  -328.331790c -5.35  -4.47c
Writing to output.gpw (mode='')

iter:  30 18:52:30  -328.331799c -5.45  -4.50c
iter:  31 18:52:38  -328.331798c -5.46  -4.57c
iter:  32 18:52:45  -328.331801c -5.81  -4.68c
iter:  33 18:52:52  -328.331799c -5.68  -4.73c
iter:  34 18:53:00  -328.331806c -5.97  -4.75c
Writing to output.gpw (mode='')

iter:  35 18:53:15  -328.331800c -5.97  -4.68c
iter:  36 18:53:23  -328.331796c -5.79  -4.90c
iter:  37 18:53:30  -328.331801c -6.22  -4.94c
iter:  38 18:53:38  -328.331801c -6.20  -5.21c
iter:  39 18:53:45  -328.331802c -6.56  -5.26c
Writing to output.gpw (mode='')

iter:  40 18:53:52  -328.331802c -6.66  -5.27c
iter:  41 18:54:00  -328.331800c -6.49  -5.24c
iter:  42 18:54:07  -328.331800c -6.58  -5.05c
iter:  43 18:54:14  -328.331800c -6.70  -5.08c
iter:  44 18:54:22  -328.331801c -6.82  -5.04c
Writing to output.gpw (mode='')

iter:  45 18:54:29  -328.331801c -6.73  -5.04c
iter:  46 18:54:36  -328.331800c -6.91  -5.00c
iter:  47 18:54:44  -328.331800c -7.06  -4.96c
iter:  48 18:54:51  -328.331801c -7.13  -4.92c
iter:  49 18:54:58  -328.331803c -7.21  -4.97c
Writing to output.gpw (mode='')

iter:  50 18:55:06  -328.331802c -7.47c -5.26c

Converged after 50 iterations.

Dipole moment: (4.480016, -3.450952, 0.502717) |e|*Ang

Energy contributions relative to reference atoms: (reference = -15487.462483)

Kinetic:       +194.626560
Potential:     -179.916979
External:        +0.000000
XC:            -343.736906
Entropy (-ST):   -0.168014
Local:           +0.779531
--------------------------
Free energy:   -328.415809
Extrapolated:  -328.331802

Dipole-layer corrected work functions: 3.392605, 2.426211 eV

Showing only first 2 kpts
 Kpt  Band  Eigenvalues  Occupancy
  0    34     -3.15571    1.98559
  0    35     -3.00343    1.73531
  0    36     -2.80316    0.21338
  0    37     -2.69578    0.02751

  1    34     -2.95282    1.40874
  1    35     -2.90152    0.92125
  1    36     -2.86811    0.60901
  1    37     -2.81255    0.25193


Fermi level: -2.90941

No gap

Forces in eV/Ang:
  0 Li    0.01139    0.00322   -0.26654
  1 Li   -0.01575    0.00216   -0.28017
  2 Li    0.00835   -0.00259   -0.28270
  3 Li    0.00122   -0.00214   -0.27227
  4 Li    0.00034    0.01056   -0.27952
  5 Li   -0.00525    0.02172   -0.27211
  6 Li   -0.00281   -0.00059   -0.27624
  7 Li    0.00632   -0.01106   -0.27729
  8 Li   -0.00665   -0.01890   -0.27613
  9 Li    0.00569    0.00605    0.28712
 10 Li   -0.01661    0.00092    0.25590
 11 Li    0.00367    0.00991    0.31475
 12 Li    0.00816   -0.00548    0.28717
 13 Li   -0.01207   -0.00020    0.24420
 14 Li   -0.00071   -0.01400    0.31869
 15 Li   -0.01504    0.00091    0.24450
 16 Li    0.01079   -0.00212    0.27170
 17 Li    0.00759    0.00324    0.22602
 18 Li   -0.00046    0.00277    0.06042
 19 Li   -0.05471   -0.00342   -0.08680
 20 Li    0.02244    0.01054   -0.19166
 21 Li   -0.02262   -0.00200    0.06011
 22 Li    0.03449   -0.03112    0.06673
 23 Li   -0.00726   -0.01855    0.04576
 24 Li   -0.01673   -0.00372    0.04388
 25 Li    0.03017    0.03178    0.06431
 26 Li   -0.00692    0.00515    0.04481
 27 Li    0.08875   -0.03445    0.00754
 28 Li   -0.04317   -0.02534   -0.02600
 29 Li   -0.02426    0.09173    0.07778
 30 Li    0.17915    0.02434   -0.32206
 31 Li   -0.05864    0.03651   -0.03391
 32 Li   -0.09270   -0.18453   -0.08028
 33 Li    0.02953    0.05220   -0.15721
 34 Li    0.01358   -0.00878   -0.00181
 35 Li   -0.03853    0.02987   -0.11222
 36 O     6.22654    0.63981    9.95408
 37 C     0.01303    0.06630    0.20864
 38 C     1.00562    1.66013    1.85453
 39 C     0.02242   -0.10861    0.18932
 40 H    -0.10211    0.23469    0.10577
 41 H    -0.08280    0.03304   -0.07689
 42 H     0.25779    0.21254    0.60684
 43 H     0.15809    0.12352    0.08616
 44 H     0.00349   -0.05676    0.00392
 45 H    -0.05770   -0.03243   -0.03003
 46 H     0.02353   -0.01565    0.02925
 47 H    -1.28926   -0.40932    1.03044
 48 N    -0.91822   -2.18335   -6.89953
 49 N    -5.35357   -0.12351   -6.53563

System changes: positions 

Initializing position-dependent things.

Density initialized from wave functions
       .-----------------------.  
      /|                       |  
     / |                       |  
    /  |                       |  
   /   |                       |  
  /    |                       |  
 *     |                       |  
 |     |                       |  
 |     |                       |  
 |     |                       |  
 |     |                       |  
 |     |                   H   |  
 |     |             H  HC     |  
 |     Li      Li      C  HH   |  
 |     |             H  C      |  
 |   Li|     Li      LO   H    |  
 |     |           N  N        |  
 | Li  |  LLi     LLi     Li   |  
 |     |                       |  
 |     |Li      LLi     Li     |  
 |   Li|     Li      Li        |  
 |    Li  Li  Li  Li  Li  Li   |  
 | Li  |   Li      Li          |  
 |     |Li      Li      Li     |  
 Li    | Li      Li            |  
 |    Li      Li      Li       |  
 |     |                       |  
 |     |                       |  
 |     |                       |  
 |     |                       |  
 |     |                       |  
 |     |                       |  
 |     .-----------------------.  
 |    /                       /   
 |   /                       /    
 |  /                       /     
 | /                       /      
 |/                       /       
 *-----------------------*        

Positions:
   0 Li     1.617037    1.617037   10.000000    ( 0.0000,  0.0000,  0.0000)
   1 Li     4.851111    1.617037   10.000000    ( 0.0000,  0.0000,  0.0000)
   2 Li     8.085185    1.617037   10.000000    ( 0.0000,  0.0000,  0.0000)
   3 Li     1.617037    4.851111   10.000000    ( 0.0000,  0.0000,  0.0000)
   4 Li     4.851111    4.851111   10.000000    ( 0.0000,  0.0000,  0.0000)
   5 Li     8.085185    4.851111   10.000000    ( 0.0000,  0.0000,  0.0000)
   6 Li     1.617037    8.085185   10.000000    ( 0.0000,  0.0000,  0.0000)
   7 Li     4.851111    8.085185   10.000000    ( 0.0000,  0.0000,  0.0000)
   8 Li     8.085185    8.085185   10.000000    ( 0.0000,  0.0000,  0.0000)
   9 Li     0.000000    0.000000   11.617037    ( 0.0000,  0.0000,  0.0000)
  10 Li     3.234074    0.000000   11.617037    ( 0.0000,  0.0000,  0.0000)
  11 Li     6.468148    0.000000   11.617037    ( 0.0000,  0.0000,  0.0000)
  12 Li     0.000000    3.234074   11.617037    ( 0.0000,  0.0000,  0.0000)
  13 Li     3.234074    3.234074   11.617037    ( 0.0000,  0.0000,  0.0000)
  14 Li     6.468148    3.234074   11.617037    ( 0.0000,  0.0000,  0.0000)
  15 Li     0.000000    6.468148   11.617037    ( 0.0000,  0.0000,  0.0000)
  16 Li     3.234074    6.468148   11.617037    ( 0.0000,  0.0000,  0.0000)
  17 Li     6.468148    6.468148   11.617037    ( 0.0000,  0.0000,  0.0000)
  18 Li     1.617037    1.617057   13.470144    ( 0.0000,  0.0000,  0.0000)
  19 Li     4.850730    1.617014   13.469123    ( 0.0000,  0.0000,  0.0000)
  20 Li     8.085338    1.617111   13.468400    ( 0.0000,  0.0000,  0.0000)
  21 Li     1.616881    4.851097   13.470147    ( 0.0000,  0.0000,  0.0000)
  22 Li     4.851350    4.850895   13.470192    ( 0.0000,  0.0000,  0.0000)
  23 Li     8.085134    4.850984   13.470043    ( 0.0000,  0.0000,  0.0000)
  24 Li     1.616922    8.085159   13.470033    ( 0.0000,  0.0000,  0.0000)
  25 Li     4.851321    8.085404   13.470175    ( 0.0000,  0.0000,  0.0000)
  26 Li     8.085136    8.085218   13.470034    ( 0.0000,  0.0000,  0.0000)
  27 Li     0.000600   -0.000226   15.446013    ( 0.0000,  0.0000,  0.0000)
  28 Li     3.233775   -0.000179   15.445757    ( 0.0000,  0.0000,  0.0000)
  29 Li     6.468000    0.000650   15.446512    ( 0.0000,  0.0000,  0.0000)
  30 Li     0.001228    3.234232   15.443729    ( 0.0000,  0.0000,  0.0000)
  31 Li     3.233670    3.234332   15.445702    ( 0.0000,  0.0000,  0.0000)
  32 Li     6.467521    3.232782   15.445415    ( 0.0000,  0.0000,  0.0000)
  33 Li     0.000207    6.468509   15.444849    ( 0.0000,  0.0000,  0.0000)
  34 Li     3.234170    6.468085   15.445925    ( 0.0000,  0.0000,  0.0000)
  35 Li     6.467876    6.468352   15.445158    ( 0.0000,  0.0000,  0.0000)
  36 O      8.127803    1.621338   18.513405    ( 0.0000,  0.0000,  0.0000)
  37 C      7.697676    4.051776   18.447499    ( 0.0000,  0.0000,  0.0000)
  38 C      8.714839    2.920472   18.469352    ( 0.0000,  0.0000,  0.0000)
  39 C      8.360114    5.430887   18.441013    ( 0.0000,  0.0000,  0.0000)
  40 H      7.054024    3.934279   17.569515    ( 0.0000,  0.0000,  0.0000)
  41 H      7.055224    3.957602   19.331227    ( 0.0000,  0.0000,  0.0000)
  42 H      9.329674    2.934370   17.560977    ( 0.0000,  0.0000,  0.0000)
  43 H      9.376070    3.003632   19.325096    ( 0.0000,  0.0000,  0.0000)
  44 H      8.986080    5.564762   17.554062    ( 0.0000,  0.0000,  0.0000)
  45 H      7.614810    6.228678   18.438695    ( 0.0000,  0.0000,  0.0000)
  46 H      8.995661    5.573064   19.318177    ( 0.0000,  0.0000,  0.0000)
  47 H      7.498578    1.565519   19.224486    ( 0.0000,  0.0000,  0.0000)
  48 N      8.076315    1.601955   16.898546    ( 0.0000,  0.0000,  0.0000)
  49 N      6.954198    1.616129   16.901491    ( 0.0000,  0.0000,  0.0000)

Unit cell:
           periodic     x           y           z      points  spacing
  1. axis:    yes    9.702222    0.000000    0.000000    60     0.1617
  2. axis:    yes    0.000000    9.702222    0.000000    60     0.1617
  3. axis:    no     0.000000    0.000000   26.351111   164     0.1607

  Lengths:   9.702222   9.702222  26.351111
  Angles:   90.000000  90.000000  90.000000

Effective grid spacing dv^(1/3) = 0.1614

     iter     time        total  log10-change:
                         energy  eigst   dens
iter:   1 18:55:15  -329.406441  -0.83
iter:   2 18:55:22  -329.248866  -0.81  -1.54
iter:   3 18:55:29  -329.199038  -1.56  -1.65
iter:   4 18:55:37  -329.257527  -0.84  -2.04
Writing to output.gpw (mode='')

iter:   5 18:55:44  -329.171323  -1.70  -1.63
iter:   6 18:55:51  -329.276087  -1.12  -2.27
iter:   7 18:55:59  -329.214726  -1.90  -1.86
iter:   8 18:56:06  -329.168346  -1.64  -2.01
iter:   9 18:56:13  -329.167966  -2.16  -2.45
Writing to output.gpw (mode='')

iter:  10 18:56:21  -329.174660c -2.34  -2.57
iter:  11 18:56:28  -329.166046c -1.93  -2.44
iter:  12 18:56:35  -329.166837c -3.03  -2.52
iter:  13 18:56:43  -329.166648c -3.05  -2.74
iter:  14 18:56:50  -329.166939c -3.14  -2.89
Writing to output.gpw (mode='')

iter:  15 18:56:57  -329.166880c -3.67  -3.13
iter:  16 18:57:04  -329.166539c -3.62  -3.17
iter:  17 18:57:12  -329.166678c -3.75  -3.29
iter:  18 18:57:19  -329.166565c -3.70  -3.29
iter:  19 18:57:26  -329.166715c -3.90  -3.47
Writing to output.gpw (mode='')

iter:  20 18:57:34  -329.166707c -4.40  -3.58
iter:  21 18:57:41  -329.166692c -4.28  -3.65
iter:  22 18:57:48  -329.166724c -4.42  -3.84
iter:  23 18:57:56  -329.166737c -4.49  -3.87
iter:  24 18:58:03  -329.166739c -4.38  -4.01c
Writing to output.gpw (mode='')

iter:  25 18:58:17  -329.166753c -4.74  -4.04c
iter:  26 18:58:24  -329.166780c -4.71  -4.15c
iter:  27 18:58:32  -329.166763c -5.07  -4.32c
iter:  28 18:58:39  -329.166756c -4.99  -4.41c
iter:  29 18:58:46  -329.166771c -5.04  -4.37c
Writing to output.gpw (mode='')

iter:  30 18:58:54  -329.166777c -5.20  -4.45c
iter:  31 18:59:01  -329.166787c -5.28  -4.47c
iter:  32 18:59:08  -329.166785c -5.62  -4.61c
iter:  33 18:59:16  -329.166789c -5.46  -4.65c
iter:  34 18:59:23  -329.166789c -5.55  -4.71c
Writing to output.gpw (mode='')

iter:  35 18:59:30  -329.166797c -5.79  -4.74c
iter:  36 18:59:37  -329.166798c -5.76  -4.86c
iter:  37 18:59:45  -329.166791c -6.00  -4.91c
iter:  38 18:59:52  -329.166793c -6.02  -4.96c
iter:  39 18:59:59  -329.166799c -6.12  -5.01c
Writing to output.gpw (mode='')

iter:  40 19:00:07  -329.166797c -6.22  -5.22c
iter:  41 19:00:14  -329.166798c -6.26  -5.23c
iter:  42 19:00:21  -329.166799c -6.40  -5.53c
iter:  43 19:00:29  -329.166799c -6.36  -5.58c
iter:  44 19:00:36  -329.166800c -6.41  -5.61c
Writing to output.gpw (mode='')

iter:  45 19:00:43  -329.166800c -6.42  -5.70c
iter:  46 19:00:50  -329.166800c -6.51  -5.62c
iter:  47 19:00:58  -329.166800c -6.60  -5.50c
iter:  48 19:01:05  -329.166800c -6.86  -5.47c
iter:  49 19:01:12  -329.166800c -6.69  -5.43c
Writing to output.gpw (mode='')

iter:  50 19:01:20  -329.166800c -6.83  -5.33c
iter:  51 19:01:27  -329.166799c -6.98  -5.31c
iter:  52 19:01:34  -329.166800c -6.90  -5.25c
iter:  53 19:01:42  -329.166800c -7.31  -5.22c
iter:  54 19:01:49  -329.166800c -7.22  -5.24c
Writing to output.gpw (mode='')

iter:  55 19:01:56  -329.166799c -7.36  -5.16c
iter:  56 19:02:03  -329.166799c -7.33  -5.13c
iter:  57 19:02:11  -329.166802c -7.48c -5.12c

Converged after 57 iterations.

Dipole moment: (4.437576, -3.463230, 0.501323) |e|*Ang

Energy contributions relative to reference atoms: (reference = -15487.462483)

Kinetic:       +193.703582
Potential:     -179.795433
External:        +0.000000
XC:            -343.774713
Entropy (-ST):   -0.166489
Local:           +0.783006
--------------------------
Free energy:   -329.250047
Extrapolated:  -329.166802

Dipole-layer corrected work functions: 3.392687, 2.428972 eV

Showing only first 2 kpts
 Kpt  Band  Eigenvalues  Occupancy
  0    34     -3.15798    1.98584
  0    35     -3.00507    1.73631
  0    36     -2.79944    0.19458
  0    37     -2.69470    0.02618

  1    34     -2.95383    1.40531
  1    35     -2.90409    0.93275
  1    36     -2.86895    0.60408
  1    37     -2.81429    0.25332


Fermi level: -2.91083

No gap
Writing to output.gpw (mode='')


Forces in eV/Ang:
  0 Li    0.01245    0.00292   -0.26675
  1 Li   -0.01703    0.00197   -0.28018
  2 Li    0.00866   -0.00251   -0.28250
  3 Li    0.00094   -0.00237   -0.27247
  4 Li    0.00033    0.01024   -0.27915
  5 Li   -0.00551    0.02224   -0.27181
  6 Li   -0.00284   -0.00016   -0.27627
  7 Li    0.00595   -0.01082   -0.27699
  8 Li   -0.00675   -0.01943   -0.27568
  9 Li    0.00589    0.00610    0.28676
 10 Li   -0.01725    0.00051    0.25394
 11 Li    0.00370    0.01062    0.31629
 12 Li    0.00849   -0.00537    0.28687
 13 Li   -0.01278    0.00022    0.24284
 14 Li   -0.00098   -0.01429    0.31964
 15 Li   -0.01534    0.00037    0.24473
 16 Li    0.01141   -0.00186    0.27132
 17 Li    0.00846    0.00287    0.22626
 18 Li   -0.00026    0.00257    0.05817
 19 Li   -0.05337   -0.00365   -0.08261
 20 Li    0.02471    0.00987   -0.19950
 21 Li   -0.02184   -0.00144    0.05952
 22 Li    0.03484   -0.03168    0.06751
 23 Li   -0.00717   -0.02097    0.04675
 24 Li   -0.01608   -0.00351    0.04349
 25 Li    0.03074    0.03275    0.06562
 26 Li   -0.00730    0.00826    0.04773
 27 Li    0.09156   -0.03639    0.00543
 28 Li   -0.04024   -0.02391   -0.02812
 29 Li   -0.03476    0.03710    0.03871
 30 Li    0.18003    0.02844   -0.31412
 31 Li   -0.05507    0.03434   -0.03554
 32 Li   -0.10387   -0.13117   -0.11332
 33 Li    0.02791    0.05259   -0.15466
 34 Li    0.01378   -0.00839   -0.00169
 35 Li   -0.03803    0.02989   -0.11047
 36 O     5.17221    0.33854    8.38018
 37 C     0.03199    0.09101    0.22174
 38 C     0.80317    1.31898    1.58359
 39 C     0.00019   -0.06229    0.16108
 40 H    -0.08027    0.22405    0.10939
 41 H    -0.09426    0.03479   -0.05599
 42 H     0.20639    0.17934    0.59618
 43 H     0.32282    0.29238    0.21270
 44 H    -0.00494   -0.06061    0.01752
 45 H    -0.04715   -0.03040   -0.02841
 46 H     0.02585   -0.01606    0.03666
 47 H    -1.15925   -0.22498    0.96506
 48 N     0.10474   -1.97219   -6.31888
 49 N    -5.33153   -0.10250   -5.17875

System changes: positions 

Initializing position-dependent things.

Density initialized from wave functions
       .-----------------------.  
      /|                       |  
     / |                       |  
    /  |                       |  
   /   |                       |  
  /    |                       |  
 *     |                       |  
 |     |                       |  
 |     |                       |  
 |     |                       |  
 |     |                       |  
 |     |                   H   |  
 |     |             H  HC     |  
 |     Li      Li      C  HH   |  
 |     |            HHO C      |  
 |   Li|     Li      Li   H    |  
 |     |           N           |  
 | Li  |  LLi     LLi N   Li   |  
 |     |                       |  
 |     |Li      LLi     Li     |  
 |   Li|     Li      Li        |  
 |    Li  Li  Li  Li  Li  Li   |  
 | Li  |   Li      Li          |  
 |     |Li      Li      Li     |  
 Li    | Li      Li            |  
 |    Li      Li      Li       |  
 |     |                       |  
 |     |                       |  
 |     |                       |  
 |     |                       |  
 |     |                       |  
 |     |                       |  
 |     .-----------------------.  
 |    /                       /   
 |   /                       /    
 |  /                       /     
 | /                       /      
 |/                       /       
 *-----------------------*        

Positions:
   0 Li     1.617037    1.617037   10.000000    ( 0.0000,  0.0000,  0.0000)
   1 Li     4.851111    1.617037   10.000000    ( 0.0000,  0.0000,  0.0000)
   2 Li     8.085185    1.617037   10.000000    ( 0.0000,  0.0000,  0.0000)
   3 Li     1.617037    4.851111   10.000000    ( 0.0000,  0.0000,  0.0000)
   4 Li     4.851111    4.851111   10.000000    ( 0.0000,  0.0000,  0.0000)
   5 Li     8.085185    4.851111   10.000000    ( 0.0000,  0.0000,  0.0000)
   6 Li     1.617037    8.085185   10.000000    ( 0.0000,  0.0000,  0.0000)
   7 Li     4.851111    8.085185   10.000000    ( 0.0000,  0.0000,  0.0000)
   8 Li     8.085185    8.085185   10.000000    ( 0.0000,  0.0000,  0.0000)
   9 Li     0.000000    0.000000   11.617037    ( 0.0000,  0.0000,  0.0000)
  10 Li     3.234074    0.000000   11.617037    ( 0.0000,  0.0000,  0.0000)
  11 Li     6.468148    0.000000   11.617037    ( 0.0000,  0.0000,  0.0000)
  12 Li     0.000000    3.234074   11.617037    ( 0.0000,  0.0000,  0.0000)
  13 Li     3.234074    3.234074   11.617037    ( 0.0000,  0.0000,  0.0000)
  14 Li     6.468148    3.234074   11.617037    ( 0.0000,  0.0000,  0.0000)
  15 Li     0.000000    6.468148   11.617037    ( 0.0000,  0.0000,  0.0000)
  16 Li     3.234074    6.468148   11.617037    ( 0.0000,  0.0000,  0.0000)
  17 Li     6.468148    6.468148   11.617037    ( 0.0000,  0.0000,  0.0000)
  18 Li     1.617057    1.617074   13.470521    ( 0.0000,  0.0000,  0.0000)
  19 Li     4.850341    1.616984   13.468520    ( 0.0000,  0.0000,  0.0000)
  20 Li     8.085527    1.617174   13.466902    ( 0.0000,  0.0000,  0.0000)
  21 Li     1.616727    4.851086   13.470578    ( 0.0000,  0.0000,  0.0000)
  22 Li     4.851608    4.850661   13.470678    ( 0.0000,  0.0000,  0.0000)
  23 Li     8.085086    4.850830   13.470353    ( 0.0000,  0.0000,  0.0000)
  24 Li     1.616807    8.085140   13.470348    ( 0.0000,  0.0000,  0.0000)
  25 Li     4.851554    8.085651   13.470659    ( 0.0000,  0.0000,  0.0000)
  26 Li     8.085083    8.085287   13.470368    ( 0.0000,  0.0000,  0.0000)
  27 Li     0.001147   -0.000387   15.446227    ( 0.0000,  0.0000,  0.0000)
  28 Li     3.233520   -0.000366   15.445525    ( 0.0000,  0.0000,  0.0000)
  29 Li     6.467831    0.000565   15.446745    ( 0.0000,  0.0000,  0.0000)
  30 Li     0.002407    3.234378   15.441741    ( 0.0000,  0.0000,  0.0000)
  31 Li     3.233309    3.234585   15.445418    ( 0.0000,  0.0000,  0.0000)
  32 Li     6.466835    3.232175   15.444604    ( 0.0000,  0.0000,  0.0000)
  33 Li     0.000409    6.468886   15.443753    ( 0.0000,  0.0000,  0.0000)
  34 Li     3.234270    6.468030   15.445905    ( 0.0000,  0.0000,  0.0000)
  35 Li     6.467587    6.468558   15.444363    ( 0.0000,  0.0000,  0.0000)
  36 O      8.150846    1.619905   18.546069    ( 0.0000,  0.0000,  0.0000)
  37 C      7.698262    4.052928   18.449068    ( 0.0000,  0.0000,  0.0000)
  38 C      8.717882    2.925766   18.477240    ( 0.0000,  0.0000,  0.0000)
  39 C      8.359750    5.431019   18.441855    ( 0.0000,  0.0000,  0.0000)
  40 H      7.053789    3.935612   17.570461    ( 0.0000,  0.0000,  0.0000)
  41 H      7.054365    3.957884   19.331117    ( 0.0000,  0.0000,  0.0000)
  42 H      9.330435    2.935295   17.565528    ( 0.0000,  0.0000,  0.0000)
  43 H      9.380724    3.008101   19.328664    ( 0.0000,  0.0000,  0.0000)
  44 H      8.985960    5.564275   17.554354    ( 0.0000,  0.0000,  0.0000)
  45 H      7.614634    6.228481   18.438517    ( 0.0000,  0.0000,  0.0000)
  46 H      8.995911    5.572973   19.318550    ( 0.0000,  0.0000,  0.0000)
  47 H      7.490369    1.566260   19.231687    ( 0.0000,  0.0000,  0.0000)
  48 N      8.065311    1.590421   16.862059    ( 0.0000,  0.0000,  0.0000)
  49 N      6.942276    1.615447   16.883876    ( 0.0000,  0.0000,  0.0000)

Unit cell:
           periodic     x           y           z      points  spacing
  1. axis:    yes    9.702222    0.000000    0.000000    60     0.1617
  2. axis:    yes    0.000000    9.702222    0.000000    60     0.1617
  3. axis:    no     0.000000    0.000000   26.351111   164     0.1607

  Lengths:   9.702222   9.702222  26.351111
  Angles:   90.000000  90.000000  90.000000

Effective grid spacing dv^(1/3) = 0.1614

     iter     time        total  log10-change:
                         energy  eigst   dens
iter:   1 19:02:20  -329.987415  -0.86
iter:   2 19:02:27  -329.966671  -1.26  -1.81
iter:   3 19:02:35  -329.954466c -1.86  -1.89
iter:   4 19:02:42  -329.954842c -2.10  -2.35
Writing to output.gpw (mode='')

iter:   5 19:02:49  -329.952858c -2.20  -2.36
iter:   6 19:02:57  -329.947463c -2.11  -2.42
iter:   7 19:03:04  -329.948189c -2.67  -2.63
iter:   8 19:03:17  -329.945516c -2.54  -2.60
iter:   9 19:03:25  -329.945919c -3.03  -2.92
Writing to output.gpw (mode='')

iter:  10 19:03:32  -329.946343c -3.08  -3.09
iter:  11 19:03:40  -329.946017c -3.55  -3.10
iter:  12 19:03:47  -329.945956c -3.42  -3.26
iter:  13 19:03:54  -329.946067c -4.00  -3.38
iter:  14 19:04:02  -329.946073c -3.97  -3.49
Writing to output.gpw (mode='')

iter:  15 19:04:09  -329.946098c -4.20  -3.70
iter:  16 19:04:16  -329.946099c -4.24  -3.84
iter:  17 19:04:24  -329.946126c -4.41  -4.01c
iter:  18 19:04:31  -329.946126c -4.76  -4.02c
iter:  19 19:04:38  -329.946118c -4.55  -4.03c
Writing to output.gpw (mode='')

iter:  20 19:04:46  -329.946119c -4.81  -3.88
iter:  21 19:04:53  -329.946163c -4.85  -3.99
iter:  22 19:05:00  -329.946163c -5.29  -4.26c
iter:  23 19:05:08  -329.946155c -5.06  -4.22c
iter:  24 19:05:15  -329.946154c -5.18  -4.18c
Writing to output.gpw (mode='')

iter:  25 19:05:22  -329.946160c -5.31  -4.19c
iter:  26 19:05:30  -329.946153c -5.32  -4.18c
iter:  27 19:05:37  -329.946164c -5.54  -4.11c
iter:  28 19:05:44  -329.946167c -5.52  -4.33c
iter:  29 19:05:52  -329.946162c -5.69  -4.34c
Writing to output.gpw (mode='')

iter:  30 19:05:59  -329.946171c -5.88  -4.29c
iter:  31 19:06:06  -329.946188c -5.82  -4.37c
iter:  32 19:06:14  -329.946184c -6.09  -4.47c
iter:  33 19:06:21  -329.946192c -6.10  -4.54c
iter:  34 19:06:28  -329.946188c -6.15  -4.55c
Writing to output.gpw (mode='')

iter:  35 19:06:36  -329.946185c -6.15  -4.85c
iter:  36 19:06:43  -329.946185c -6.33  -4.82c
iter:  37 19:06:50  -329.946190c -6.43  -4.89c
iter:  38 19:06:57  -329.946187c -6.73  -4.99c
iter:  39 19:07:05  -329.946187c -6.75  -5.13c
Writing to output.gpw (mode='')

iter:  40 19:07:12  -329.946187c -6.67  -5.19c
iter:  41 19:07:20  -329.946189c -6.82  -5.29c
iter:  42 19:07:27  -329.946189c -7.15  -5.31c
iter:  43 19:07:35  -329.946190c -7.12  -5.37c
iter:  44 19:07:43  -329.946188c -7.00  -5.60c
Writing to output.gpw (mode='')

iter:  45 19:07:51  -329.946189c -7.33  -5.69c
iter:  46 19:08:07  -329.946189c -7.43c -5.72c

Converged after 46 iterations.

Dipole moment: (4.359072, -3.397872, 0.476973) |e|*Ang

Energy contributions relative to reference atoms: (reference = -15487.462483)

Kinetic:       +190.684093
Potential:     -177.929052
External:        +0.000000
XC:            -343.404647
Entropy (-ST):   -0.167108
Local:           +0.786972
--------------------------
Free energy:   -330.029743
Extrapolated:  -329.946189

Dipole-layer corrected work functions: 3.394424, 2.477519 eV

Showing only first 2 kpts
 Kpt  Band  Eigenvalues  Occupancy
  0    34     -3.18352    1.98595
  0    35     -3.02637    1.71822
  0    36     -2.82633    0.20079
  0    37     -2.71593    0.02423

  1    34     -2.97981    1.41234
  1    35     -2.92853    0.92567
  1    36     -2.89343    0.59850
  1    37     -2.83706    0.24303


Fermi level: -2.93597

No gap
Writing to output.gpw (mode='')


Forces in eV/Ang:
  0 Li    0.01362    0.00250   -0.26687
  1 Li   -0.01761    0.00158   -0.28031
  2 Li    0.00852   -0.00250   -0.28234
  3 Li    0.00062   -0.00193   -0.27298
  4 Li   -0.00004    0.01021   -0.27915
  5 Li   -0.00581    0.02280   -0.27202
  6 Li   -0.00290   -0.00035   -0.27667
  7 Li    0.00505   -0.01083   -0.27710
  8 Li   -0.00692   -0.01992   -0.27557
  9 Li    0.00573    0.00629    0.28691
 10 Li   -0.01785    0.00018    0.25216
 11 Li    0.00352    0.01105    0.31782
 12 Li    0.00824   -0.00552    0.28750
 13 Li   -0.01339    0.00071    0.24176
 14 Li   -0.00156   -0.01437    0.32073
 15 Li   -0.01516   -0.00025    0.24494
 16 Li    0.01228   -0.00160    0.26997
 17 Li    0.00946    0.00250    0.22654
 18 Li    0.00129    0.00220    0.05327
 19 Li   -0.05237   -0.00398   -0.07877
 20 Li    0.02460    0.00861   -0.19702
 21 Li   -0.02055   -0.00121    0.05864
 22 Li    0.03496   -0.03107    0.06670
 23 Li   -0.00678   -0.02114    0.04386
 24 Li   -0.01532   -0.00257    0.04330
 25 Li    0.03127    0.03265    0.06534
 26 Li   -0.00707    0.00943    0.04730
 27 Li    0.07937   -0.02563    0.01731
 28 Li   -0.03566   -0.02345   -0.03011
 29 Li   -0.02869    0.00721    0.02928
 30 Li    0.16892    0.02362   -0.29001
 31 Li   -0.05034    0.03287   -0.03739
 32 Li   -0.09964   -0.10113   -0.11624
 33 Li    0.02715    0.05237   -0.15070
 34 Li    0.01314   -0.00789   -0.00262
 35 Li   -0.03839    0.02912   -0.10946
 36 O     4.13629    0.11867    7.01368
 37 C     0.01613    0.07582    0.21281
 38 C     0.66788    0.96035    1.39333
 39 C     0.01010   -0.03344    0.14850
 40 H    -0.04951    0.20595    0.12573
 41 H    -0.10196    0.04293   -0.03585
 42 H     0.15788    0.14352    0.57271
 43 H     0.39816    0.42835    0.25430
 44 H    -0.01016   -0.06087    0.02753
 45 H    -0.04925   -0.01293   -0.02498
 46 H     0.02220   -0.01030    0.03556
 47 H    -0.89092   -0.06076    0.74872
 48 N     0.03024   -1.68375   -5.64939
 49 N    -4.41699   -0.09428   -4.13156

System changes: positions 

Initializing position-dependent things.

Density initialized from wave functions
       .-----------------------.  
      /|                       |  
     / |                       |  
    /  |                       |  
   /   |                       |  
  /    |                       |  
 *     |                       |  
 |     |                       |  
 |     |                       |  
 |     |                       |  
 |     |                       |  
 |     |                   H   |  
 |     |             H  HC     |  
 |     Li      Li      C  HH   |  
 |     |            HHO C      |  
 |   Li|     Li      Li   H    |  
 |     |                       |  
 | Li  |  LLi     LNi N   Li   |  
 |     |                       |  
 |     |Li      LLi     Li     |  
 |   Li|     Li      Li        |  
 |    Li  Li  Li  Li  Li  Li   |  
 | Li  |   Li      Li          |  
 |     |Li      Li      Li     |  
 Li    | Li      Li            |  
 |    Li      Li      Li       |  
 |     |                       |  
 |     |                       |  
 |     |                       |  
 |     |                       |  
 |     |                       |  
 |     |                       |  
 |     .-----------------------.  
 |    /                       /   
 |   /                       /    
 |  /                       /     
 | /                       /      
 |/                       /       
 *-----------------------*        

Positions:
   0 Li     1.617037    1.617037   10.000000    ( 0.0000,  0.0000,  0.0000)
   1 Li     4.851111    1.617037   10.000000    ( 0.0000,  0.0000,  0.0000)
   2 Li     8.085185    1.617037   10.000000    ( 0.0000,  0.0000,  0.0000)
   3 Li     1.617037    4.851111   10.000000    ( 0.0000,  0.0000,  0.0000)
   4 Li     4.851111    4.851111   10.000000    ( 0.0000,  0.0000,  0.0000)
   5 Li     8.085185    4.851111   10.000000    ( 0.0000,  0.0000,  0.0000)
   6 Li     1.617037    8.085185   10.000000    ( 0.0000,  0.0000,  0.0000)
   7 Li     4.851111    8.085185   10.000000    ( 0.0000,  0.0000,  0.0000)
   8 Li     8.085185    8.085185   10.000000    ( 0.0000,  0.0000,  0.0000)
   9 Li     0.000000    0.000000   11.617037    ( 0.0000,  0.0000,  0.0000)
  10 Li     3.234074    0.000000   11.617037    ( 0.0000,  0.0000,  0.0000)
  11 Li     6.468148    0.000000   11.617037    ( 0.0000,  0.0000,  0.0000)
  12 Li     0.000000    3.234074   11.617037    ( 0.0000,  0.0000,  0.0000)
  13 Li     3.234074    3.234074   11.617037    ( 0.0000,  0.0000,  0.0000)
  14 Li     6.468148    3.234074   11.617037    ( 0.0000,  0.0000,  0.0000)
  15 Li     0.000000    6.468148   11.617037    ( 0.0000,  0.0000,  0.0000)
  16 Li     3.234074    6.468148   11.617037    ( 0.0000,  0.0000,  0.0000)
  17 Li     6.468148    6.468148   11.617037    ( 0.0000,  0.0000,  0.0000)
  18 Li     1.617095    1.617090   13.470916    ( 0.0000,  0.0000,  0.0000)
  19 Li     4.849891    1.616944   13.467856    ( 0.0000,  0.0000,  0.0000)
  20 Li     8.085747    1.617234   13.465168    ( 0.0000,  0.0000,  0.0000)
  21 Li     1.616560    4.851077   13.471080    ( 0.0000,  0.0000,  0.0000)
  22 Li     4.851915    4.850392   13.471247    ( 0.0000,  0.0000,  0.0000)
  23 Li     8.085033    4.850645   13.470691    ( 0.0000,  0.0000,  0.0000)
  24 Li     1.616680    8.085128   13.470722    ( 0.0000,  0.0000,  0.0000)
  25 Li     4.851836    8.085940   13.471230    ( 0.0000,  0.0000,  0.0000)
  26 Li     8.085023    8.085382   13.470764    ( 0.0000,  0.0000,  0.0000)
  27 Li     0.001665   -0.000460   15.446593    ( 0.0000,  0.0000,  0.0000)
  28 Li     3.233268   -0.000577   15.445230    ( 0.0000,  0.0000,  0.0000)
  29 Li     6.467690    0.000161   15.446908    ( 0.0000,  0.0000,  0.0000)
  30 Li     0.003698    3.234503   15.439614    ( 0.0000,  0.0000,  0.0000)
  31 Li     3.232933    3.234865   15.445062    ( 0.0000,  0.0000,  0.0000)
  32 Li     6.466054    3.231758   15.443593    ( 0.0000,  0.0000,  0.0000)
  33 Li     0.000641    6.469334   15.442494    ( 0.0000,  0.0000,  0.0000)
  34 Li     3.234380    6.467970   15.445871    ( 0.0000,  0.0000,  0.0000)
  35 Li     6.467242    6.468797   15.443426    ( 0.0000,  0.0000,  0.0000)
  36 O      8.168565    1.616414   18.575326    ( 0.0000,  0.0000,  0.0000)
  37 C      7.698607    4.053909   18.450823    ( 0.0000,  0.0000,  0.0000)
  38 C      8.720554    2.928438   18.485192    ( 0.0000,  0.0000,  0.0000)
  39 C      8.359589    5.431384   18.442795    ( 0.0000,  0.0000,  0.0000)
  40 H      7.053830    3.937045   17.571771    ( 0.0000,  0.0000,  0.0000)
  41 H      7.053292    3.958328   19.331170    ( 0.0000,  0.0000,  0.0000)
  42 H      9.330907    2.936017   17.570542    ( 0.0000,  0.0000,  0.0000)
  43 H      9.386539    3.014556   19.332801    ( 0.0000,  0.0000,  0.0000)
  44 H      8.985772    5.563708   17.554788    ( 0.0000,  0.0000,  0.0000)
  45 H      7.614335    6.228490   18.438345    ( 0.0000,  0.0000,  0.0000)
  46 H      8.996135    5.572938   19.318940    ( 0.0000,  0.0000,  0.0000)
  47 H      7.484364    1.568665   19.237094    ( 0.0000,  0.0000,  0.0000)
  48 N      8.055130    1.579831   16.824855    ( 0.0000,  0.0000,  0.0000)
  49 N      6.931874    1.614728   16.870850    ( 0.0000,  0.0000,  0.0000)

Unit cell:
           periodic     x           y           z      points  spacing
  1. axis:    yes    9.702222    0.000000    0.000000    60     0.1617
  2. axis:    yes    0.000000    9.702222    0.000000    60     0.1617
  3. axis:    no     0.000000    0.000000   26.351111   164     0.1607

  Lengths:   9.702222   9.702222  26.351111
  Angles:   90.000000  90.000000  90.000000

Effective grid spacing dv^(1/3) = 0.1614

     iter     time        total  log10-change:
                         energy  eigst   dens
iter:   1 19:08:21  -330.569437  -0.95
iter:   2 19:08:29  -330.556706  -1.40  -1.89
iter:   3 19:08:36  -330.547961c -1.97  -1.97
iter:   4 19:08:44  -330.547850c -2.21  -2.43
Writing to output.gpw (mode='')

iter:   5 19:08:51  -330.542398c -2.04  -2.45
iter:   6 19:08:58  -330.542754c -2.33  -2.46
iter:   7 19:09:06  -330.544487c -2.61  -2.75
iter:   8 19:09:13  -330.542810c -2.93  -2.64
iter:   9 19:09:20  -330.542575c -3.26  -2.94
Writing to output.gpw (mode='')

iter:  10 19:09:28  -330.542166c -3.35  -3.08
iter:  11 19:09:35  -330.542344c -3.88  -3.13
iter:  12 19:09:42  -330.542458c -3.92  -3.20
iter:  13 19:09:50  -330.542246c -4.02  -3.26
iter:  14 19:09:57  -330.542686c -3.97  -3.27
Writing to output.gpw (mode='')

iter:  15 19:10:04  -330.542496c -4.37  -3.46
iter:  16 19:10:12  -330.542533c -4.45  -3.71
iter:  17 19:10:19  -330.542528c -4.26  -3.76
iter:  18 19:10:26  -330.542563c -4.89  -3.91
iter:  19 19:10:34  -330.542547c -4.70  -3.98
Writing to output.gpw (mode='')

iter:  20 19:10:41  -330.542556c -5.02  -4.07c
iter:  21 19:10:48  -330.542571c -5.08  -4.13c
iter:  22 19:10:56  -330.542562c -5.15  -4.26c
iter:  23 19:11:03  -330.542567c -5.27  -4.31c
iter:  24 19:11:10  -330.542568c -5.34  -4.35c
Writing to output.gpw (mode='')

iter:  25 19:11:18  -330.542585c -5.46  -4.39c
iter:  26 19:11:25  -330.542575c -5.52  -4.34c
iter:  27 19:11:32  -330.542577c -5.99  -4.46c
iter:  28 19:11:40  -330.542584c -5.80  -4.50c
iter:  29 19:11:47  -330.542576c -5.88  -4.58c
Writing to output.gpw (mode='')

iter:  30 19:11:54  -330.542580c -6.20  -4.63c
iter:  31 19:12:02  -330.542582c -6.11  -4.74c
iter:  32 19:12:09  -330.542581c -6.16  -4.84c
iter:  33 19:12:16  -330.542581c -6.42  -4.89c
iter:  34 19:12:23  -330.542581c -6.59  -4.94c
Writing to output.gpw (mode='')

iter:  35 19:12:31  -330.542581c -6.75  -5.19c
iter:  36 19:12:38  -330.542581c -6.83  -5.21c
iter:  37 19:12:45  -330.542578c -6.72  -5.19c
iter:  38 19:12:53  -330.542580c -6.69  -5.06c
iter:  39 19:13:00  -330.542579c -6.98  -5.10c
Writing to output.gpw (mode='')

iter:  40 19:13:14  -330.542579c -7.24  -5.03c
iter:  41 19:13:23  -330.542581c -7.19  -5.06c
iter:  42 19:13:30  -330.542580c -7.29  -5.14c
iter:  43 19:13:37  -330.542584c -7.40c -5.18c

Converged after 43 iterations.

Dipole moment: (4.287873, -3.324091, 0.448201) |e|*Ang

Energy contributions relative to reference atoms: (reference = -15487.462483)

Kinetic:       +188.191378
Potential:     -176.335703
External:        +0.000000
XC:            -343.103954
Entropy (-ST):   -0.167355
Local:           +0.789372
--------------------------
Free energy:   -330.626261
Extrapolated:  -330.542584

Dipole-layer corrected work functions: 3.396277, 2.534680 eV

Showing only first 2 kpts
 Kpt  Band  Eigenvalues  Occupancy
  0    34     -3.21328    1.98602
  0    35     -3.05186    1.69821
  0    36     -2.85630    0.20248
  0    37     -2.74148    0.02242

  1    34     -3.01136    1.42914
  1    35     -2.95703    0.91574
  1    36     -2.92332    0.60178
  1    37     -2.86225    0.22516


Fermi level: -2.96548

No gap
Writing to output.gpw (mode='')


Forces in eV/Ang:
  0 Li    0.01480    0.00214   -0.26685
  1 Li   -0.01799    0.00121   -0.28045
  2 Li    0.00819   -0.00248   -0.28206
  3 Li    0.00030   -0.00137   -0.27364
  4 Li   -0.00054    0.01014   -0.27918
  5 Li   -0.00605    0.02332   -0.27239
  6 Li   -0.00302   -0.00076   -0.27708
  7 Li    0.00408   -0.01090   -0.27735
  8 Li   -0.00710   -0.02038   -0.27555
  9 Li    0.00554    0.00636    0.28696
 10 Li   -0.01843   -0.00019    0.25062
 11 Li    0.00332    0.01136    0.31904
 12 Li    0.00799   -0.00559    0.28806
 13 Li   -0.01419    0.00120    0.24096
 14 Li   -0.00219   -0.01436    0.32146
 15 Li   -0.01489   -0.00085    0.24541
 16 Li    0.01329   -0.00125    0.26863
 17 Li    0.01042    0.00215    0.22689
 18 Li    0.00285    0.00173    0.04813
 19 Li   -0.05142   -0.00418   -0.07440
 20 Li    0.02399    0.00731   -0.19048
 21 Li   -0.01894   -0.00100    0.05732
 22 Li    0.03488   -0.03001    0.06551
 23 Li   -0.00639   -0.02098    0.04066
 24 Li   -0.01451   -0.00138    0.04317
 25 Li    0.03159    0.03207    0.06433
 26 Li   -0.00667    0.01028    0.04652
 27 Li    0.06453   -0.01291    0.02900
 28 Li   -0.03122   -0.02262   -0.03159
 29 Li   -0.02160   -0.01350    0.02402
 30 Li    0.15679    0.01770   -0.26696
 31 Li   -0.04551    0.03103   -0.03875
 32 Li   -0.09272   -0.07943   -0.11519
 33 Li    0.02638    0.05201   -0.14635
 34 Li    0.01228   -0.00744   -0.00361
 35 Li   -0.03854    0.02840   -0.10839
 36 O     3.40731    0.03391    5.79733
 37 C     0.02110    0.03961    0.21368
 38 C     0.54811    0.69280    1.24659
 39 C     0.00858   -0.02109    0.13565
 40 H    -0.02902    0.18642    0.13150
 41 H    -0.10984    0.05171   -0.01641
 42 H     0.11705    0.09785    0.54810
 43 H     0.42795    0.51348    0.25931
 44 H    -0.01105   -0.05949    0.03282
 45 H    -0.04705   -0.00136   -0.02090
 46 H     0.02241   -0.00233    0.03944
 47 H    -0.77316    0.04468    0.68823
 48 N     0.16659   -1.49185   -5.11109
 49 N    -3.78538   -0.06735   -3.36474

System changes: positions 

Initializing position-dependent things.

Density initialized from wave functions
       .-----------------------.  
      /|                       |  
     / |                       |  
    /  |                       |  
   /   |                       |  
  /    |                       |  
 *     |                       |  
 |     |                       |  
 |     |                       |  
 |     |                       |  
 |     |                       |  
 |     |                   H   |  
 |     |             H  HC     |  
 |     Li      Li      Ci HH   |  
 |     |            HHO C      |  
 |   Li|     Li      Li   H    |  
 |     |                       |  
 | Li  |  LLi     LNi N   Li   |  
 |     |                       |  
 |     |Li      Li      Li     |  
 |   Li|     Li      Li        |  
 |    Li  Li  Li  Li  Li  Li   |  
 | Li  |   Li      Li          |  
 |     |Li      Li      Li     |  
 Li    | Li      Li            |  
 |    Li      Li      Li       |  
 |     |                       |  
 |     |                       |  
 |     |                       |  
 |     |                       |  
 |     |                       |  
 |     |                       |  
 |     .-----------------------.  
 |    /                       /   
 |   /                       /    
 |  /                       /     
 | /                       /      
 |/                       /       
 *-----------------------*        

Positions:
   0 Li     1.617037    1.617037   10.000000    ( 0.0000,  0.0000,  0.0000)
   1 Li     4.851111    1.617037   10.000000    ( 0.0000,  0.0000,  0.0000)
   2 Li     8.085185    1.617037   10.000000    ( 0.0000,  0.0000,  0.0000)
   3 Li     1.617037    4.851111   10.000000    ( 0.0000,  0.0000,  0.0000)
   4 Li     4.851111    4.851111   10.000000    ( 0.0000,  0.0000,  0.0000)
   5 Li     8.085185    4.851111   10.000000    ( 0.0000,  0.0000,  0.0000)
   6 Li     1.617037    8.085185   10.000000    ( 0.0000,  0.0000,  0.0000)
   7 Li     4.851111    8.085185   10.000000    ( 0.0000,  0.0000,  0.0000)
   8 Li     8.085185    8.085185   10.000000    ( 0.0000,  0.0000,  0.0000)
   9 Li     0.000000    0.000000   11.617037    ( 0.0000,  0.0000,  0.0000)
  10 Li     3.234074    0.000000   11.617037    ( 0.0000,  0.0000,  0.0000)
  11 Li     6.468148    0.000000   11.617037    ( 0.0000,  0.0000,  0.0000)
  12 Li     0.000000    3.234074   11.617037    ( 0.0000,  0.0000,  0.0000)
  13 Li     3.234074    3.234074   11.617037    ( 0.0000,  0.0000,  0.0000)
  14 Li     6.468148    3.234074   11.617037    ( 0.0000,  0.0000,  0.0000)
  15 Li     0.000000    6.468148   11.617037    ( 0.0000,  0.0000,  0.0000)
  16 Li     3.234074    6.468148   11.617037    ( 0.0000,  0.0000,  0.0000)
  17 Li     6.468148    6.468148   11.617037    ( 0.0000,  0.0000,  0.0000)
  18 Li     1.617155    1.617102   13.471309    ( 0.0000,  0.0000,  0.0000)
  19 Li     4.849392    1.616897   13.467157    ( 0.0000,  0.0000,  0.0000)
  20 Li     8.085986    1.617287   13.463302    ( 0.0000,  0.0000,  0.0000)
  21 Li     1.616390    4.851069   13.471633    ( 0.0000,  0.0000,  0.0000)
  22 Li     4.852262    4.850102   13.471879    ( 0.0000,  0.0000,  0.0000)
  23 Li     8.084977    4.850438   13.471039    ( 0.0000,  0.0000,  0.0000)
  24 Li     1.616546    8.085129   13.471146    ( 0.0000,  0.0000,  0.0000)
  25 Li     4.852158    8.086259   13.471862    ( 0.0000,  0.0000,  0.0000)
  26 Li     8.084960    8.085498   13.471204    ( 0.0000,  0.0000,  0.0000)
  27 Li     0.002081   -0.000396   15.447125    ( 0.0000,  0.0000,  0.0000)
  28 Li     3.233029   -0.000805   15.444882    ( 0.0000,  0.0000,  0.0000)
  29 Li     6.467611   -0.000447   15.447066    ( 0.0000,  0.0000,  0.0000)
  30 Li     0.005034    3.234577   15.437426    ( 0.0000,  0.0000,  0.0000)
  31 Li     3.232557    3.235159   15.444647    ( 0.0000,  0.0000,  0.0000)
  32 Li     6.465253    3.231448   15.442481    ( 0.0000,  0.0000,  0.0000)
  33 Li     0.000895    6.469840   15.441111    ( 0.0000,  0.0000,  0.0000)
  34 Li     3.234494    6.467906   15.445821    ( 0.0000,  0.0000,  0.0000)
  35 Li     6.466849    6.469061   15.442373    ( 0.0000,  0.0000,  0.0000)
  36 O      8.183375    1.612531   18.599758    ( 0.0000,  0.0000,  0.0000)
  37 C      7.699017    4.054413   18.452848    ( 0.0000,  0.0000,  0.0000)
  38 C      8.722755    2.929247   18.493302    ( 0.0000,  0.0000,  0.0000)
  39 C      8.359453    5.431787   18.443781    ( 0.0000,  0.0000,  0.0000)
  40 H      7.054039    3.938486   17.573285    ( 0.0000,  0.0000,  0.0000)
  41 H      7.052011    3.958939   19.331407    ( 0.0000,  0.0000,  0.0000)
  42 H      9.331108    2.936331   17.575889    ( 0.0000,  0.0000,  0.0000)
  43 H      9.392903    3.022341   19.337033    ( 0.0000,  0.0000,  0.0000)
  44 H      8.985575    5.563094   17.555301    ( 0.0000,  0.0000,  0.0000)
  45 H      7.613991    6.228633   18.438195    ( 0.0000,  0.0000,  0.0000)
  46 H      8.996384    5.572999   19.319418    ( 0.0000,  0.0000,  0.0000)
  47 H      7.478674    1.572076   19.242728    ( 0.0000,  0.0000,  0.0000)
  48 N      8.047376    1.569409   16.787023    ( 0.0000,  0.0000,  0.0000)
  49 N      6.922357    1.614262   16.860645    ( 0.0000,  0.0000,  0.0000)

Unit cell:
           periodic     x           y           z      points  spacing
  1. axis:    yes    9.702222    0.000000    0.000000    60     0.1617
  2. axis:    yes    0.000000    9.702222    0.000000    60     0.1617
  3. axis:    no     0.000000    0.000000   26.351111   164     0.1607

  Lengths:   9.702222   9.702222  26.351111
  Angles:   90.000000  90.000000  90.000000

Effective grid spacing dv^(1/3) = 0.1614

     iter     time        total  log10-change:
                         energy  eigst   dens
iter:   1 19:13:46  -331.019573  -1.05
iter:   2 19:13:54  -331.018581  -1.67  -2.15
iter:   3 19:14:01  -331.018964c -2.08  -2.29
iter:   4 19:14:09  -331.018910c -2.30  -2.43
Writing to output.gpw (mode='')

iter:   5 19:14:16  -331.017163c -2.02  -2.51
iter:   6 19:14:23  -331.016695c -2.69  -2.66
iter:   7 19:14:31  -331.016144c -2.98  -2.71
iter:   8 19:14:38  -331.015904c -2.94  -2.78
iter:   9 19:14:46  -331.016406c -3.13  -2.81
Writing to output.gpw (mode='')

iter:  10 19:14:53  -331.016222c -3.43  -2.99
iter:  11 19:15:00  -331.016456c -3.14  -2.92
iter:  12 19:15:08  -331.016521c -4.02  -2.84
iter:  13 19:15:15  -331.016127c -3.75  -2.86
iter:  14 19:15:22  -331.016131c -3.95  -2.86
Writing to output.gpw (mode='')

iter:  15 19:15:30  -331.016020c -4.18  -2.84
iter:  16 19:15:37  -331.016123c -3.70  -2.96
iter:  17 19:15:45  -331.015932c -3.71  -3.20
iter:  18 19:15:52  -331.015918c -4.13  -3.00
iter:  19 19:15:59  -331.016045c -3.81  -3.19
Writing to output.gpw (mode='')

iter:  20 19:16:07  -331.015833c -4.43  -3.33
iter:  21 19:16:14  -331.016060c -4.15  -3.23
iter:  22 19:16:21  -331.016035c -4.54  -3.53
iter:  23 19:16:29  -331.016014c -4.52  -3.66
iter:  24 19:16:36  -331.015939c -4.96  -3.83
Writing to output.gpw (mode='')

iter:  25 19:16:43  -331.015965c -4.90  -3.95
iter:  26 19:16:51  -331.015998c -5.22  -4.10c
iter:  27 19:16:58  -331.015997c -5.60  -4.24c
iter:  28 19:17:06  -331.015998c -5.65  -4.32c
iter:  29 19:17:13  -331.016005c -5.70  -4.46c
Writing to output.gpw (mode='')

iter:  30 19:17:20  -331.015995c -5.95  -4.51c
iter:  31 19:17:28  -331.015996c -6.10  -4.60c
iter:  32 19:17:35  -331.016000c -6.22  -4.70c
iter:  33 19:17:42  -331.016005c -6.28  -4.80c
iter:  34 19:17:50  -331.016001c -6.34  -4.89c
Writing to output.gpw (mode='')

iter:  35 19:17:57  -331.016002c -6.57  -5.07c
iter:  36 19:18:05  -331.016001c -6.60  -5.15c
iter:  37 19:18:18  -331.016001c -6.75  -5.22c
iter:  38 19:18:26  -331.016001c -6.89  -5.33c
iter:  39 19:18:33  -331.016000c -6.80  -5.46c
Writing to output.gpw (mode='')

iter:  40 19:18:40  -331.016001c -6.79  -5.57c
iter:  41 19:18:48  -331.016001c -7.20  -5.58c
iter:  42 19:18:55  -331.016001c -7.20  -5.61c
iter:  43 19:19:03  -331.016001c -7.17  -5.66c
iter:  44 19:19:10  -331.016002c -7.28  -5.62c
Writing to output.gpw (mode='')

iter:  45 19:19:17  -331.016002c -7.40c -5.75c

Converged after 45 iterations.

Dipole moment: (4.222771, -3.243239, 0.417836) |e|*Ang

Energy contributions relative to reference atoms: (reference = -15487.462483)

Kinetic:       +185.641593
Potential:     -174.598165
External:        +0.000000
XC:            -342.767556
Entropy (-ST):   -0.167749
Local:           +0.792001
--------------------------
Free energy:   -331.099876
Extrapolated:  -331.016002

Dipole-layer corrected work functions: 3.398227, 2.595003 eV

Showing only first 2 kpts
 Kpt  Band  Eigenvalues  Occupancy
  0    34     -3.24449    1.98604
  0    35     -3.07842    1.67400
  0    36     -2.88830    0.20564
  0    37     -2.76879    0.02078

  1    34     -3.04531    1.45181
  1    35     -2.98700    0.90418
  1    36     -2.95486    0.60510
  1    37     -2.88795    0.20435


Fermi level: -2.99662

No gap

Forces in eV/Ang:
  0 Li    0.01583    0.00177   -0.26668
  1 Li   -0.01809    0.00080   -0.28062
  2 Li    0.00764   -0.00248   -0.28172
  3 Li   -0.00003   -0.00070   -0.27445
  4 Li   -0.00106    0.01006   -0.27937
  5 Li   -0.00620    0.02372   -0.27294
  6 Li   -0.00315   -0.00133   -0.27752
  7 Li    0.00309   -0.01097   -0.27780
  8 Li   -0.00725   -0.02068   -0.27563
  9 Li    0.00528    0.00646    0.28726
 10 Li   -0.01882   -0.00056    0.24927
 11 Li    0.00312    0.01149    0.32002
 12 Li    0.00771   -0.00570    0.28881
 13 Li   -0.01492    0.00162    0.24040
 14 Li   -0.00282   -0.01428    0.32199
 15 Li   -0.01455   -0.00148    0.24589
 16 Li    0.01421   -0.00077    0.26748
 17 Li    0.01135    0.00184    0.22726
 18 Li    0.00482    0.00118    0.04255
 19 Li   -0.05092   -0.00436   -0.07059
 20 Li    0.02302    0.00586   -0.18112
 21 Li   -0.01728   -0.00098    0.05577
 22 Li    0.03469   -0.02866    0.06390
 23 Li   -0.00600   -0.02026    0.03676
 24 Li   -0.01387    0.00022    0.04319
 25 Li    0.03176    0.03123    0.06267
 26 Li   -0.00608    0.01059    0.04498
 27 Li    0.04561    0.00291    0.04241
 28 Li   -0.02705   -0.02178   -0.03260
 29 Li   -0.01141   -0.02258    0.02661
 30 Li    0.14259    0.00986   -0.24301
 31 Li   -0.04091    0.02913   -0.03970
 32 Li   -0.08208   -0.06892   -0.10654
 33 Li    0.02592    0.05158   -0.14188
 34 Li    0.01123   -0.00697   -0.00464
 35 Li   -0.03870    0.02762   -0.10738
 36 O     2.81729   -0.00107    5.01287
 37 C     0.02284    0.00508    0.21138
 38 C     0.46869    0.51700    1.10065
 39 C     0.00808   -0.02048    0.12717
 40 H    -0.01051    0.16372    0.13689
 41 H    -0.11633    0.05908    0.00143
 42 H     0.08273    0.05559    0.52601
 43 H     0.43072    0.56615    0.24968
 44 H    -0.01086   -0.05799    0.03688
 45 H    -0.04369    0.00489   -0.01651
 46 H     0.02246    0.00660    0.04252
 47 H    -0.60710    0.10455    0.56492
 48 N     0.01953   -1.35278   -4.62667
 49 N    -3.12873   -0.05707   -2.78915

System changes: positions 

Initializing position-dependent things.

Density initialized from wave functions
       .-----------------------.  
      /|                       |  
     / |                       |  
    /  |                       |  
   /   |                       |  
  /    |                       |  
 *     |                       |  
 |     |                       |  
 |     |                       |  
 |     |                       |  
 |     |                       |  
 |     |                   H   |  
 |     |             H  HC     |  
 |     Li      Li      Ci HH   |  
 |     |            HHO C      |  
 |   Li|     Li      Li   H    |  
 |     |                       |  
 | Li  |  LLi     LNi N   Li   |  
 |     |                       |  
 |     |Li      Li      Li     |  
 |   Li|     Li      Li        |  
 |    Li  Li  Li  Li  Li  Li   |  
 | Li  |   Li      Li          |  
 |     |Li      Li      Li     |  
 Li    | Li      Li            |  
 |    Li      Li      Li       |  
 |     |                       |  
 |     |                       |  
 |     |                       |  
 |     |                       |  
 |     |                       |  
 |     |                       |  
 |     .-----------------------.  
 |    /                       /   
 |   /                       /    
 |  /                       /     
 | /                       /      
 |/                       /       
[...]
--------------------------
Free energy:   -334.691967
Extrapolated:  -334.601626

Dipole-layer corrected work functions: 3.412113, 3.894657 eV

Showing only first 2 kpts
 Kpt  Band  Eigenvalues  Occupancy
  0    34     -3.88801    1.98184
  0    35     -3.68691    1.32322
  0    36     -3.60392    0.54210
  0    37     -3.46904    0.04887

  1    34     -3.77812    1.84754
  1    35     -3.70532    1.47722
  1    36     -3.59617    0.48309
  1    37     -3.50119    0.09096


Fermi level: -3.65339

No gap
Writing to output.gpw (mode='')


Forces in eV/Ang:
  0 Li   -0.00369    0.00800   -0.27847
  1 Li   -0.00414    0.00538   -0.28353
  2 Li    0.00860    0.00436   -0.26449
  3 Li    0.02055    0.01603   -0.29466
  4 Li    0.00482    0.01373   -0.28187
  5 Li    0.01821    0.00530   -0.28901
  6 Li    0.01351   -0.01077   -0.27670
  7 Li    0.01139   -0.00666   -0.28786
  8 Li    0.01428   -0.00523   -0.29483
  9 Li   -0.02807    0.02274    0.27690
 10 Li   -0.02120   -0.05230    0.22910
 11 Li    0.02007    0.03955    0.32275
 12 Li    0.00452   -0.00354    0.27424
 13 Li   -0.01375    0.01469    0.24707
 14 Li   -0.00407   -0.03788    0.29817
 15 Li   -0.03495   -0.01005    0.26319
 16 Li   -0.03123   -0.00881    0.33304
 17 Li   -0.07946   -0.01529    0.24377
 18 Li   -0.00399    0.00073   -0.00179
 19 Li    0.00399    0.00821    0.01093
 20 Li    0.00992   -0.00799   -0.03466
 21 Li    0.00483   -0.00284   -0.00796
 22 Li    0.00100    0.00377   -0.00996
 23 Li    0.00301    0.00884   -0.01277
 24 Li    0.01160    0.00124    0.00570
 25 Li   -0.00991   -0.00684    0.00016
 26 Li    0.01427    0.01013    0.01405
 27 Li   -0.02148    0.01347    0.00752
 28 Li    0.00040   -0.00465    0.00711
 29 Li   -0.00747   -0.00261    0.00165
 30 Li    0.00455   -0.00964    0.00715
 31 Li    0.01160   -0.00333    0.00028
 32 Li   -0.00174   -0.01142   -0.00567
 33 Li   -0.00940    0.00136    0.00879
 34 Li    0.00099    0.00682   -0.00230
 35 Li    0.00412   -0.00230    0.00376
 36 O     0.04220    0.01837    0.03600
 37 C    -0.00549    0.00278   -0.00334
 38 C     0.00513    0.00857    0.00616
 39 C    -0.00339   -0.00091   -0.00638
 40 H     0.01340    0.00949    0.00009
 41 H    -0.03127   -0.00812    0.00971
 42 H    -0.02495   -0.02786   -0.01592
 43 H    -0.00800   -0.01302    0.00276
 44 H     0.02601    0.01624    0.00516
 45 H     0.00653    0.00544    0.03650
 46 H    -0.01006   -0.02783   -0.00939
 47 H     0.01533   -0.02142   -0.02011
 48 N     0.02261    0.00388    0.00726
 49 N    -0.01145   -0.01421    0.00483

System changes: positions 

Initializing position-dependent things.

Density initialized from wave functions
       .-----------------------.  
      /|                       |  
     / |                       |  
    /  |                       |  
   /   |                       |  
  /    |                       |  
 *     |                       |  
 |     |                       |  
 |     |                       |  
 |     |                       |  
 |     |                       |  
 |     |              H H  H   |  
 |     |               C C H   |  
 |     |       Li    H O C H   |  
 |     |                  H    |  
 |   Li|     Li      Hi        |  
 |     |                       |  
 |     |  LLi     LLN     Li   |  
 |     |              N        |  
 |     |Li      LLi     Li     |  
 |   Li|     Li      Li        |  
 |    Li  Li  Li  Li  Li  Li   |  
 | Li  |   Li      Li          |  
 |     |Li      Li      Li     |  
 Li    | Li      Li            |  
 |    Li      Li      Li       |  
 |     |                       |  
 |     |                       |  
 |     |                       |  
 |     |                       |  
 |     |                       |  
 |     |                       |  
 |     .-----------------------.  
 |    /                       /   
 |   /                       /    
 |  /                       /     
 | /                       /      
 |/                       /       
 *-----------------------*        

Positions:
   0 Li     1.617037    1.617037   10.000000    ( 0.0000,  0.0000,  0.0000)
   1 Li     4.851111    1.617037   10.000000    ( 0.0000,  0.0000,  0.0000)
   2 Li     8.085185    1.617037   10.000000    ( 0.0000,  0.0000,  0.0000)
   3 Li     1.617037    4.851111   10.000000    ( 0.0000,  0.0000,  0.0000)
   4 Li     4.851111    4.851111   10.000000    ( 0.0000,  0.0000,  0.0000)
   5 Li     8.085185    4.851111   10.000000    ( 0.0000,  0.0000,  0.0000)
   6 Li     1.617037    8.085185   10.000000    ( 0.0000,  0.0000,  0.0000)
   7 Li     4.851111    8.085185   10.000000    ( 0.0000,  0.0000,  0.0000)
   8 Li     8.085185    8.085185   10.000000    ( 0.0000,  0.0000,  0.0000)
   9 Li     0.000000    0.000000   11.617037    ( 0.0000,  0.0000,  0.0000)
  10 Li     3.234074    0.000000   11.617037    ( 0.0000,  0.0000,  0.0000)
  11 Li     6.468148    0.000000   11.617037    ( 0.0000,  0.0000,  0.0000)
  12 Li     0.000000    3.234074   11.617037    ( 0.0000,  0.0000,  0.0000)
  13 Li     3.234074    3.234074   11.617037    ( 0.0000,  0.0000,  0.0000)
  14 Li     6.468148    3.234074   11.617037    ( 0.0000,  0.0000,  0.0000)
  15 Li     0.000000    6.468148   11.617037    ( 0.0000,  0.0000,  0.0000)
  16 Li     3.234074    6.468148   11.617037    ( 0.0000,  0.0000,  0.0000)
  17 Li     6.468148    6.468148   11.617037    ( 0.0000,  0.0000,  0.0000)
  18 Li     1.632338    1.589636   13.474777    ( 0.0000,  0.0000,  0.0000)
  19 Li     4.772941    1.589826   13.443809    ( 0.0000,  0.0000,  0.0000)
  20 Li     8.138983    1.656823   13.482137    ( 0.0000,  0.0000,  0.0000)
  21 Li     1.553893    4.828333   13.511049    ( 0.0000,  0.0000,  0.0000)
  22 Li     4.839474    4.792993   13.538369    ( 0.0000,  0.0000,  0.0000)
  23 Li     8.014663    4.851122   13.464195    ( 0.0000,  0.0000,  0.0000)
  24 Li     1.533969    8.114373   13.522534    ( 0.0000,  0.0000,  0.0000)
  25 Li     4.829588    8.113724   13.513689    ( 0.0000,  0.0000,  0.0000)
  26 Li     8.022382    8.058569   13.442032    ( 0.0000,  0.0000,  0.0000)
  27 Li    -0.355745    0.085737   15.519251    ( 0.0000,  0.0000,  0.0000)
  28 Li     3.105436   -0.026616   15.482922    ( 0.0000,  0.0000,  0.0000)
  29 Li     6.414112    0.005684   15.511182    ( 0.0000,  0.0000,  0.0000)
  30 Li    -0.204794    3.108978   15.321746    ( 0.0000,  0.0000,  0.0000)
  31 Li     3.143181    3.260100   15.468803    ( 0.0000,  0.0000,  0.0000)
  32 Li     6.451628    3.046248   15.557871    ( 0.0000,  0.0000,  0.0000)
  33 Li     0.012778    6.509923   15.402635    ( 0.0000,  0.0000,  0.0000)
  34 Li     3.235369    6.463959   15.448536    ( 0.0000,  0.0000,  0.0000)
  35 Li     6.429541    6.472479   15.415723    ( 0.0000,  0.0000,  0.0000)
  36 O      8.309697    1.759548   19.283770    ( 0.0000,  0.0000,  0.0000)
  37 C      7.809357    4.171162   19.055383    ( 0.0000,  0.0000,  0.0000)
  38 C      8.863649    3.062741   19.116750    ( 0.0000,  0.0000,  0.0000)
  39 C      8.410744    5.549299   18.773956    ( 0.0000,  0.0000,  0.0000)
  40 H      7.078493    3.915663   18.277087    ( 0.0000,  0.0000,  0.0000)
  41 H      7.259657    4.186414   19.999942    ( 0.0000,  0.0000,  0.0000)
  42 H      9.497872    3.107810   18.212541    ( 0.0000,  0.0000,  0.0000)
  43 H      9.532924    3.224010   19.967370    ( 0.0000,  0.0000,  0.0000)
  44 H      8.982117    5.532695   17.838858    ( 0.0000,  0.0000,  0.0000)
  45 H      7.634083    6.311878   18.668227    ( 0.0000,  0.0000,  0.0000)
  46 H      9.088652    5.869254   19.570619    ( 0.0000,  0.0000,  0.0000)
  47 H      7.845583    1.538949   18.458534    ( 0.0000,  0.0000,  0.0000)
  48 N      7.973763    1.633088   15.376227    ( 0.0000,  0.0000,  0.0000)
  49 N      7.381410    1.446104   16.459528    ( 0.0000,  0.0000,  0.0000)

Unit cell:
           periodic     x           y           z      points  spacing
  1. axis:    yes    9.702222    0.000000    0.000000    60     0.1617
  2. axis:    yes    0.000000    9.702222    0.000000    60     0.1617
  3. axis:    no     0.000000    0.000000   26.351111   164     0.1607

  Lengths:   9.702222   9.702222  26.351111
  Angles:   90.000000  90.000000  90.000000

Effective grid spacing dv^(1/3) = 0.1614

     iter     time        total  log10-change:
                         energy  eigst   dens
iter:   1 01:49:59  -334.603362  -1.93
iter:   2 01:50:07  -334.603400  -2.74  -2.62
iter:   3 01:50:14  -334.603259c -3.27  -2.73
iter:   4 01:50:22  -334.603143c -3.49  -2.81
Writing to output.gpw (mode='')

iter:   5 01:50:29  -334.602875c -3.09  -2.89
iter:   6 01:50:36  -334.602831c -3.63  -2.99
iter:   7 01:50:44  -334.602831c -3.96  -3.12
iter:   8 01:50:51  -334.602829c -4.24  -3.35
iter:   9 01:50:58  -334.602848c -4.44  -3.38
Writing to output.gpw (mode='')

iter:  10 01:51:06  -334.602840c -4.83  -3.47
iter:  11 01:51:13  -334.602826c -4.83  -3.65
iter:  12 01:51:20  -334.602819c -5.26  -3.74
iter:  13 01:51:28  -334.602810c -5.29  -3.82
iter:  14 01:51:35  -334.602812c -5.63  -4.05c
Writing to output.gpw (mode='')

iter:  15 01:51:43  -334.602814c -6.18  -4.14c
iter:  16 01:51:50  -334.602819c -6.07  -4.23c
iter:  17 01:51:58  -334.602820c -6.17  -4.41c
iter:  18 01:52:05  -334.602821c -6.54  -4.46c
iter:  19 01:52:12  -334.602817c -6.56  -4.51c
Writing to output.gpw (mode='')

iter:  20 01:52:20  -334.602818c -6.80  -4.66c
iter:  21 01:52:27  -334.602819c -6.83  -4.78c
iter:  22 01:52:35  -334.602819c -7.27  -4.79c
iter:  23 01:52:42  -334.602819c -7.00  -4.85c
iter:  24 01:52:50  -334.602820c -7.33  -4.99c
Writing to output.gpw (mode='')

iter:  25 01:52:57  -334.602820c -7.52c -5.17c

Converged after 25 iterations.

Dipole moment: (11.548099, -2.832255, -0.252036) |e|*Ang

Energy contributions relative to reference atoms: (reference = -15487.462483)

Kinetic:       +164.747832
Potential:     -158.147656
External:        +0.000000
XC:            -341.931960
Entropy (-ST):   -0.180390
Local:           +0.819159
--------------------------
Free energy:   -334.693015
Extrapolated:  -334.602820

Dipole-layer corrected work functions: 3.412294, 3.896794 eV

Showing only first 2 kpts
 Kpt  Band  Eigenvalues  Occupancy
  0    34     -3.88898    1.98177
  0    35     -3.68904    1.33191
  0    36     -3.60485    0.54027
  0    37     -3.46991    0.04860

  1    34     -3.77843    1.84514
  1    35     -3.70896    1.49616
  1    36     -3.59714    0.48167
  1    37     -3.50232    0.09092


Fermi level: -3.65454

No gap

Forces in eV/Ang:
  0 Li   -0.00373    0.00811   -0.27818
  1 Li   -0.00415    0.00528   -0.28351
  2 Li    0.00879    0.00442   -0.26444
  3 Li    0.02060    0.01603   -0.29485
  4 Li    0.00472    0.01376   -0.28193
  5 Li    0.01828    0.00505   -0.28876
  6 Li    0.01329   -0.01080   -0.27698
  7 Li    0.01131   -0.00660   -0.28797
  8 Li    0.01409   -0.00497   -0.29472
  9 Li   -0.02661    0.02167    0.27543
 10 Li   -0.02214   -0.05438    0.22896
 11 Li    0.02011    0.03915    0.32256
 12 Li    0.00672   -0.00288    0.27152
 13 Li   -0.01459    0.01507    0.24765
 14 Li   -0.00585   -0.03864    0.29739
 15 Li   -0.03448   -0.00924    0.26260
 16 Li   -0.03074   -0.00746    0.33446
 17 Li   -0.07883   -0.01390    0.24417
 18 Li   -0.00281    0.00066   -0.00213
 19 Li    0.00860    0.00918    0.01283
 20 Li    0.00736   -0.00926   -0.02361
 21 Li    0.00589   -0.00393   -0.00652
 22 Li   -0.00012    0.00392   -0.00974
 23 Li    0.00431    0.00975   -0.01001
 24 Li    0.01092    0.00261    0.00469
 25 Li   -0.01181   -0.00848   -0.00225
 26 Li    0.01335    0.01077    0.01381
 27 Li   -0.01333   -0.00226    0.00822
 28 Li   -0.00069   -0.00251    0.00722
 29 Li   -0.01759   -0.01297   -0.00538
 30 Li    0.00433   -0.00531    0.00540
 31 Li    0.00986   -0.00530   -0.00051
 32 Li   -0.00348   -0.01283   -0.00377
 33 Li   -0.00723    0.00184    0.00855
 34 Li    0.00283    0.00668   -0.00255
 35 Li    0.00117   -0.00235    0.00438
 36 O     0.04120    0.00530    0.02647
 37 C    -0.00800   -0.00132    0.01216
 38 C     0.00108    0.01133    0.00170
 39 C    -0.00433   -0.01709   -0.00797
 40 H     0.00819    0.02952   -0.00312
 41 H    -0.03001   -0.01608    0.01551
 42 H    -0.01996   -0.02881   -0.02732
 43 H    -0.02858   -0.00775    0.00414
 44 H     0.02861    0.02584    0.00894
 45 H     0.01602   -0.00895    0.03025
 46 H    -0.01276   -0.02240   -0.02738
 47 H     0.02312   -0.00080    0.00139
 48 N     0.03204    0.00030   -0.01412
 49 N     0.01306   -0.02442    0.00399

Timing:                                      incl.     excl.
-------------------------------------------------------------------
Density initialized from wave functions:     4.941     4.939   0.0% |
 Symmetrize density:                         0.002     0.002   0.0% |
Forces:                                     47.128    47.128   0.2% |
Hamiltonian:                               588.436     0.014   0.0% |
 Atomic:                                     0.023     0.023   0.0% |
  XC Correction:                             0.000     0.000   0.0% |
 Calculate atomic Hamiltonians:              0.038     0.038   0.0% |
 Communicate:                                8.837     8.837   0.0% |
 Hartree integrate/restrict:                 2.018     2.018   0.0% |
 Initialize Hamiltonian:                     0.000     0.000   0.0% |
 Poisson:                                   27.700    10.125   0.0% |
  Communicate from 1D:                       2.786     2.786   0.0% |
  Communicate from 2D:                       2.809     2.809   0.0% |
  Communicate to 1D:                         1.536     1.536   0.0% |
  Communicate to 2D:                         3.167     3.167   0.0% |
  FFT 1D:                                    3.621     3.621   0.0% |
  FFT 2D:                                    3.656     3.656   0.0% |
 XC 3D grid:                               549.276    85.696   0.3% |
  VdW-DF integral:                         463.581     3.930   0.0% |
   Convolution:                             42.440    42.440   0.2% |
   FFT:                                     18.349    18.349   0.1% |
   gather:                                 159.355   159.355   0.6% |
   hmm1:                                    14.994    14.994   0.1% |
   hmm2:                                    19.888    19.888   0.1% |
   iFFT:                                    18.992    18.992   0.1% |
   potential:                              182.066     5.230   0.0% |
    collect:                                29.009    29.009   0.1% |
    p1:                                     81.876    81.876   0.3% |
    p2:                                     30.678    30.678   0.1% |
    sum:                                    35.274    35.274   0.1% |
   splines:                                  3.567     3.567   0.0% |
 vbar:                                       0.529     0.529   0.0% |
LCAO initialization:                         1.217     0.183   0.0% |
 LCAO eigensolver:                           0.275     0.000   0.0% |
  Calculate projections:                     0.000     0.000   0.0% |
  DenseAtomicCorrection:                     0.000     0.000   0.0% |
  Distribute overlap matrix:                 0.245     0.245   0.0% |
  Orbital Layouts:                           0.029     0.029   0.0% |
  Potential matrix:                          0.001     0.001   0.0% |
  Sum over cells:                            0.001     0.001   0.0% |
 LCAO to grid:                               0.625     0.625   0.0% |
 Set positions (LCAO WFS):                   0.134     0.085   0.0% |
  Basic WFS set positions:                   0.001     0.001   0.0% |
  Basis functions set positions:             0.000     0.000   0.0% |
  P tci:                                     0.000     0.000   0.0% |
  ST tci:                                    0.013     0.013   0.0% |
  mktci:                                     0.034     0.034   0.0% |
Redistribute:                                0.064     0.064   0.0% |
SCF-cycle:                               25610.693   371.774   1.4% ||
 Davidson:                                6952.890  2083.974   7.9% |--|
  Apply hamiltonian:                       427.326   427.326   1.6% ||
  Subspace diag:                          1289.554     0.426   0.0% |
   calc_h_matrix:                          640.803   198.614   0.8% |
    Apply hamiltonian:                     442.189   442.189   1.7% ||
   diagonalize:                             70.445    70.445   0.3% |
   rotate_psi:                             577.879   577.879   2.2% ||
  calc. matrices:                         2201.775  1120.486   4.2% |-|
   Apply hamiltonian:                     1081.289  1081.289   4.1% |-|
  diagonalize:                              20.353    20.353   0.1% |
  rotate_psi:                              929.908   929.908   3.5% ||
 Density:                                  126.269     0.094   0.0% |
  Atomic density matrices:                  16.378    16.378   0.1% |
  Mix:                                      52.111    52.111   0.2% |
  Multipole moments:                         6.543     6.543   0.0% |
  Pseudo density:                           51.142    51.071   0.2% |
   Symmetrize density:                       0.071     0.071   0.0% |
 Hamiltonian:                            18139.034     0.433   0.0% |
  Atomic:                                    0.787     0.778   0.0% |
   XC Correction:                            0.009     0.009   0.0% |
  Calculate atomic Hamiltonians:             1.190     1.190   0.0% |
  Communicate:                             253.862   253.862   1.0% |
  Hartree integrate/restrict:               65.037    65.037   0.2% |
  Poisson:                                 864.231   318.118   1.2% |
   Communicate from 1D:                     85.094    85.094   0.3% |
   Communicate from 2D:                     88.654    88.654   0.3% |
   Communicate to 1D:                       48.880    48.880   0.2% |
   Communicate to 2D:                       99.636    99.636   0.4% |
   FFT 1D:                                 112.057   112.057   0.4% |
   FFT 2D:                                 111.792   111.792   0.4% |
  XC 3D grid:                            16938.431  2588.292   9.8% |---|
   VdW-DF integral:                      14350.139   121.867   0.5% |
    Convolution:                          1313.285  1313.285   5.0% |-|
    FFT:                                   572.734   572.734   2.2% ||
    gather:                               5046.772  5046.772  19.1% |-------|
    hmm1:                                  464.050   464.050   1.8% ||
    hmm2:                                  615.802   615.802   2.3% ||
    iFFT:                                  588.416   588.416   2.2% ||
    potential:                            5627.180   162.207   0.6% |
     collect:                              876.236   876.236   3.3% ||
     p1:                                  2535.864  2535.864   9.6% |---|
     p2:                                   956.271   956.271   3.6% ||
     sum:                                 1096.601  1096.601   4.2% |-|
    splines:                                 0.033     0.033   0.0% |
  vbar:                                     15.064    15.064   0.1% |
 Orthonormalize:                            20.727     0.015   0.0% |
  calc_s_matrix:                             2.962     2.962   0.0% |
  inverse-cholesky:                          6.678     6.678   0.0% |
  projections:                               0.002     0.002   0.0% |
  rotate_psi_s:                             11.069    11.069   0.0% |
Set symmetry:                                0.001     0.001   0.0% |
Other:                                     131.952   131.952   0.5% |
-------------------------------------------------------------------
Total:                                             26384.432 100.0%

Memory usage: 1.13 GiB
Date: Sat Mar 11 01:52:57 2023
