
  ___ ___ ___ _ _ _  
 |   |   |_  | | | | 
 | | | | | . | | | | 
 |__ |  _|___|_____|  22.8.0
 |___|_|             

User:   vazumah@r342.ib.bridges2.psc.edu
Date:   Fri Mar 10 12:22:51 2023
Arch:   x86_64
Pid:    24187
CWD:    /jet/home/vazumah/Calcs/LiMEAS/proton_donors/ethanediol_z/bridge/0.0_1.617/N2_x
Python: 3.11.0
gpaw:   /jet/home/vazumah/.conda/envs/GPAW_mpich/lib/python3.11/site-packages/gpaw
_gpaw:  /jet/home/vazumah/.conda/envs/GPAW_mpich/lib/python3.11/site-packages/
        _gpaw.cpython-311-x86_64-linux-gnu.so
ase:    /jet/home/vazumah/.conda/envs/GPAW_mpich/lib/python3.11/site-packages/ase (version 3.22.1)
numpy:  /jet/home/vazumah/.conda/envs/GPAW_mpich/lib/python3.11/site-packages/numpy (version 1.24.2)
scipy:  /jet/home/vazumah/.conda/envs/GPAW_mpich/lib/python3.11/site-packages/scipy (version 1.10.1)
libxc:  5.2.3
units:  Angstrom and eV
cores: 128
OpenMP: True
OMP_NUM_THREADS: 1

Input parameters:
  h: 0.16
  kpts: {size: [4, 4, 1]}
  occupations: {name: fermi-dirac,
                width: 0.05}
  poissonsolver: {dipolelayer: xy}
  xc: BEEF-vdW

System changes: positions, numbers, cell, pbc, initial_charges, initial_magmoms 

Initialize ...

species:
  Li:
    name: Lithium
    id: 830b4218f175192f93f959cfc0aad614
    Z: 3.0
    valence: 1
    core: 2
    charge: 0.0
    file: /jet/home/vazumah/datasets/gpaw-setups-0.9.20000/Li.PBE.gz
    compensation charges: {type: gauss,
                           rc: 0.33,
                           lmax: 2}
    cutoffs: {filter: 1.91,
              core: 2.55}
    valence states:
      #              energy  rcut
      - 2s(1.00)    -2.874   1.058
      - 2p(0.00)    -1.090   1.058
      -  s          24.337   1.058
  
    # Using partial waves for Li as LCAO basis

  O:
    name: Oxygen
    id: 32ecd46bf208036f09c70b0ec9a88b78
    Z: 8.0
    valence: 6
    core: 2
    charge: 0.0
    file: /jet/home/vazumah/datasets/gpaw-setups-0.9.20000/O.PBE.gz
    compensation charges: {type: gauss,
                           rc: 0.21,
                           lmax: 2}
    cutoffs: {filter: 1.17,
              core: 0.83}
    valence states:
      #              energy  rcut
      - 2s(2.00)   -23.961   0.688
      - 2p(4.00)    -9.029   0.598
      -  s           3.251   0.688
      -  p          18.182   0.598
      -  d           0.000   0.619
  
    # Using partial waves for O as LCAO basis

  C:
    name: Carbon
    id: 4aa54d4b901d75f77cc0ea3eec22967b
    Z: 6.0
    valence: 4
    core: 2
    charge: 0.0
    file: /jet/home/vazumah/datasets/gpaw-setups-0.9.20000/C.PBE.gz
    compensation charges: {type: gauss,
                           rc: 0.20,
                           lmax: 2}
    cutoffs: {filter: 1.14,
              core: 1.14}
    valence states:
      #              energy  rcut
      - 2s(2.00)   -13.751   0.635
      - 2p(2.00)    -5.284   0.635
      -  s          13.461   0.635
      -  p          21.927   0.635
      -  d           0.000   0.635
  
    # Using partial waves for C as LCAO basis

  H:
    name: Hydrogen
    id: d65de229564ff8ea4db303e23b6d1ecf
    Z: 1.0
    valence: 1
    core: 0
    charge: 0.0
    file: /jet/home/vazumah/datasets/gpaw-setups-0.9.20000/H.PBE.gz
    compensation charges: {type: gauss,
                           rc: 0.15,
                           lmax: 2}
    cutoffs: {filter: 0.85,
              core: 0.53}
    valence states:
      #              energy  rcut
      - 1s(1.00)    -6.494   0.476
      -  s          20.717   0.476
      -  p           0.000   0.476
  
    # Using partial waves for H as LCAO basis

  N:
    name: Nitrogen
    id: f7500608b86eaa90eef8b1d9a670dc53
    Z: 7.0
    valence: 5
    core: 2
    charge: 0.0
    file: /jet/home/vazumah/datasets/gpaw-setups-0.9.20000/N.PBE.gz
    compensation charges: {type: gauss,
                           rc: 0.18,
                           lmax: 2}
    cutoffs: {filter: 1.11,
              core: 0.96}
    valence states:
      #              energy  rcut
      - 2s(2.00)   -18.583   0.603
      - 2p(3.00)    -7.089   0.529
      -  s           8.629   0.603
      -  p          20.123   0.529
      -  d           0.000   0.577
  
    # Using partial waves for N as LCAO basis

Reference energy: -16475.706344  # eV

Spin-paired calculation

Convergence criteria:
 Maximum [total energy] change in last 3 cyles: 0.0005 eV / electron
 Maximum integral of absolute [dens]ity change: 0.0001 electrons / valence electron
 Maximum integral of absolute [eigenst]ate change: 4e-08 eV^2 / valence electron
 Maximum number of scf [iter]ations: 333
 (Square brackets indicate name in SCF output, whereas a 'c' in
 the SCF output indicates the quantity has converged.)

Symmetries present (total): 1

  ( 1  0  0)
  ( 0  1  0)
  ( 0  0  1)

16 k-points: 4 x 4 x 1 Monkhorst-Pack grid
8 k-points in the irreducible part of the Brillouin zone
       k-points in crystal coordinates                weights
   0:     0.12500000   -0.37500000    0.00000000          2/16
   1:     0.12500000   -0.12500000    0.00000000          2/16
   2:     0.12500000    0.12500000    0.00000000          2/16
   3:     0.12500000    0.37500000    0.00000000          2/16
   4:     0.37500000   -0.37500000    0.00000000          2/16
   5:     0.37500000   -0.12500000    0.00000000          2/16
   6:     0.37500000    0.12500000    0.00000000          2/16
   7:     0.37500000    0.37500000    0.00000000          2/16

Wave functions: Uniform real-space grid
  Kinetic energy operator: 6*3+1=19 point O(h^6) finite-difference Laplacian
  ScaLapack parameters: grid=1x1, blocksize=None
  Wavefunction extrapolation:
    Improved wavefunction reuse through dual PAW basis 

Occupation numbers: Fermi-Dirac:
  width: 0.0500  # eV
 

Eigensolver
   Davidson(niter=2) 

Densities:
  Coarse grid: 60*60*164 grid
  Fine grid: 120*120*328 grid
  Total Charge: 0.000000 

Density mixing:
  Method: separate
  Backend: pulay
  Linear mixing parameter: 0.05
  old densities: 5
  Damping of long wavelength oscillations: 50 

Hamiltonian:
  XC and Coulomb potentials evaluated on a 120*120*328 grid
  Using the BEEF-vdW Exchange-Correlation functional
  Interpolation: tri-quintic (5. degree polynomial)
  Poisson solver: FastPoissonSolver using
    Stencil: 6*3+1=19 point O(h^6) finite-difference Laplacian
    FFT axes: [0, 1]
    FST axes: [2]

Dipole correction along z-axis 

XC parameters: BEEF-vdW with 2 nearest neighbor stencil

Memory estimate:
  Process memory now: 127.50 MiB
  Calculator: 84.78 MiB
    Density: 22.56 MiB
      Arrays: 7.22 MiB
      Localized functions: 12.59 MiB
      Mixer: 2.75 MiB
    Hamiltonian: 5.72 MiB
      Arrays: 4.72 MiB
      XC: 0.00 MiB
      Poisson: 0.00 MiB
      vbar: 0.99 MiB
    Wavefunctions: 56.50 MiB
      Arrays psit_nG: 26.37 MiB
      Eigensolver: 29.47 MiB
      Projections: 0.01 MiB
      Projectors: 0.66 MiB

Total number of cores used: 128
Parallelization over k-points: 8
Domain decomposition: 2 x 2 x 4

Number of atoms: 48
Number of atomic orbitals: 174
Number of bands in calculation: 48
Number of valence electrons: 72
Bands to converge: occupied

... initialized

Initializing position-dependent things.

Density initialized from atomic densities
Creating initial wave functions:
  48 bands from LCAO basis set

       .-----------------------.  
      /|                       |  
     / |                       |  
    /  |                       |  
   /   |                       |  
  /    |                       |  
 *     |                       |  
 |     |                       |  
 |     |                       |  
 |     |                       |  
 |     |                   H   |  
 | C  H|                 O     |  
 |     |                 H     |  
 |     |               H  CH   |  
 |     |                       |  
 |O HLi|     Li      Li        |  
 |N    |               N       |  
 | Li  |  LLi     LLi     Li   |  
 |     |                       |  
 Li    |LLi     LLi     Li     |  
 |   Li|     Li      Li        |  
 |    Li  Li  Li  Li  Li  Li   |  
 | Li  |   Li      Li          |  
 |     |Li      Li      Li     |  
 Li    | Li      Li            |  
 |    Li      Li      Li       |  
 |     |                       |  
 |     |                       |  
 |     |                       |  
 |     |                       |  
 |     |                       |  
 |     |                       |  
 |     .-----------------------.  
 |    /                       /   
 |   /                       /    
 |  /                       /     
 | /                       /      
 |/                       /       
 *-----------------------*        

Positions:
   0 Li     1.617037    1.617037   10.000000    ( 0.0000,  0.0000,  0.0000)
   1 Li     4.851111    1.617037   10.000000    ( 0.0000,  0.0000,  0.0000)
   2 Li     8.085185    1.617037   10.000000    ( 0.0000,  0.0000,  0.0000)
   3 Li     1.617037    4.851111   10.000000    ( 0.0000,  0.0000,  0.0000)
   4 Li     4.851111    4.851111   10.000000    ( 0.0000,  0.0000,  0.0000)
   5 Li     8.085185    4.851111   10.000000    ( 0.0000,  0.0000,  0.0000)
   6 Li     1.617037    8.085185   10.000000    ( 0.0000,  0.0000,  0.0000)
   7 Li     4.851111    8.085185   10.000000    ( 0.0000,  0.0000,  0.0000)
   8 Li     8.085185    8.085185   10.000000    ( 0.0000,  0.0000,  0.0000)
   9 Li     0.000000    0.000000   11.617037    ( 0.0000,  0.0000,  0.0000)
  10 Li     3.234074    0.000000   11.617037    ( 0.0000,  0.0000,  0.0000)
  11 Li     6.468148    0.000000   11.617037    ( 0.0000,  0.0000,  0.0000)
  12 Li     0.000000    3.234074   11.617037    ( 0.0000,  0.0000,  0.0000)
  13 Li     3.234074    3.234074   11.617037    ( 0.0000,  0.0000,  0.0000)
  14 Li     6.468148    3.234074   11.617037    ( 0.0000,  0.0000,  0.0000)
  15 Li     0.000000    6.468148   11.617037    ( 0.0000,  0.0000,  0.0000)
  16 Li     3.234074    6.468148   11.617037    ( 0.0000,  0.0000,  0.0000)
  17 Li     6.468148    6.468148   11.617037    ( 0.0000,  0.0000,  0.0000)
  18 Li     1.617038    1.617038   13.469728    ( 0.0000,  0.0000,  0.0000)
  19 Li     4.851111    1.617038   13.469729    ( 0.0000,  0.0000,  0.0000)
  20 Li     8.085184    1.617038   13.469728    ( 0.0000,  0.0000,  0.0000)
  21 Li     1.617038    4.851111   13.469729    ( 0.0000,  0.0000,  0.0000)
  22 Li     4.851111    4.851111   13.469730    ( 0.0000,  0.0000,  0.0000)
  23 Li     8.085184    4.851111   13.469729    ( 0.0000,  0.0000,  0.0000)
  24 Li     1.617038    8.085184   13.469728    ( 0.0000,  0.0000,  0.0000)
  25 Li     4.851111    8.085184   13.469729    ( 0.0000,  0.0000,  0.0000)
  26 Li     8.085184    8.085184   13.469728    ( 0.0000,  0.0000,  0.0000)
  27 Li    -0.000000   -0.000000   15.445939    ( 0.0000,  0.0000,  0.0000)
  28 Li     3.234074    0.000000   15.445939    ( 0.0000,  0.0000,  0.0000)
  29 Li     6.468148    0.000000   15.445939    ( 0.0000,  0.0000,  0.0000)
  30 Li     0.000000    3.234074   15.445939    ( 0.0000,  0.0000,  0.0000)
  31 Li     3.234076    3.234076   15.445938    ( 0.0000,  0.0000,  0.0000)
  32 Li     6.468146    3.234076   15.445938    ( 0.0000,  0.0000,  0.0000)
  33 Li     0.000000    6.468148   15.445939    ( 0.0000,  0.0000,  0.0000)
  34 Li     3.234076    6.468146   15.445938    ( 0.0000,  0.0000,  0.0000)
  35 Li     6.468146    6.468146   15.445938    ( 0.0000,  0.0000,  0.0000)
  36 O      0.000000    1.617037   18.445939    ( 0.0000,  0.0000,  0.0000)
  37 O     -0.232689    1.661030   21.344137    ( 0.0000,  0.0000,  0.0000)
  38 C     -0.412377    2.788249   19.174500    ( 0.0000,  0.0000,  0.0000)
  39 C      0.156774    2.801939   20.583686    ( 0.0000,  0.0000,  0.0000)
  40 H     -0.119544    3.702639   18.646375    ( 0.0000,  0.0000,  0.0000)
  41 H     -1.501944    2.740951   19.207249    ( 0.0000,  0.0000,  0.0000)
  42 H     -0.219707    3.676205   21.120404    ( 0.0000,  0.0000,  0.0000)
  43 H      1.255834    2.877440   20.533956    ( 0.0000,  0.0000,  0.0000)
  44 H      0.947321    1.691552   18.276515    ( 0.0000,  0.0000,  0.0000)
  45 H     -0.136250    0.893910   20.764672    ( 0.0000,  0.0000,  0.0000)
  46 N      0.000000    1.617000   16.945939    ( 0.0000,  0.0000,  0.0000)
  47 N     -1.096622    1.617000   16.945939    ( 0.0000,  0.0000,  0.0000)

Unit cell:
           periodic     x           y           z      points  spacing
  1. axis:    yes    9.702222    0.000000    0.000000    60     0.1617
  2. axis:    yes    0.000000    9.702222    0.000000    60     0.1617
  3. axis:    no     0.000000    0.000000   26.351111   164     0.1607

  Lengths:   9.702222   9.702222  26.351111
  Angles:   90.000000  90.000000  90.000000

Effective grid spacing dv^(1/3) = 0.1614

     iter     time        total  log10-change:
                         energy  eigst   dens
iter:   1 12:23:06  -669.826051
iter:   2 12:23:13    -4.351037  +2.64  +0.04
iter:   3 12:23:21    31.816277  +3.28  -0.15
iter:   4 12:23:28  -212.430052  +3.29  -0.24
Writing to output.gpw (mode='')

iter:   5 12:23:35  -270.519511  +2.88  -0.24
iter:   6 12:23:42  -314.801086  +2.48  -0.51
iter:   7 12:23:50  -329.222912  +2.16  -0.56
iter:   8 12:23:57  -342.617416  +1.96  -0.55
iter:   9 12:24:04  -543.494810  +2.82  -0.52
Writing to output.gpw (mode='')

iter:  10 12:24:11  -358.143420  +1.62  -0.23
iter:  11 12:24:19  -340.985791  +1.41  -0.48
iter:  12 12:24:26  -335.290703  +1.63  -0.62
iter:  13 12:24:33  -331.567797  +1.62  -0.74
iter:  14 12:24:47  -333.044765  +1.22  -0.68
Writing to output.gpw (mode='')

iter:  15 12:24:55  -328.361370  +0.53  -0.68
iter:  16 12:25:04  -325.030714  +0.65  -0.76
iter:  17 12:25:11  -323.486885  +0.89  -0.85
iter:  18 12:25:19  -323.431974  +0.39  -0.82
iter:  19 12:25:26  -324.730538  +0.27  -0.87
Writing to output.gpw (mode='')

iter:  20 12:25:33  -324.348131  -0.26  -0.88
iter:  21 12:25:40  -322.390656  +0.11  -0.88
iter:  22 12:25:48  -320.962446  +0.13  -0.93
iter:  23 12:25:55  -320.853916  -0.03  -1.17
iter:  24 12:26:02  -320.807904  -0.04  -1.27
Writing to output.gpw (mode='')

iter:  25 12:26:09  -320.747599  -0.24  -1.32
iter:  26 12:26:17  -320.638859  -0.54  -1.40
iter:  27 12:26:24  -320.670101  -0.32  -1.50
iter:  28 12:26:31  -320.620070  -1.03  -1.61
iter:  29 12:26:39  -320.625867  -0.80  -1.65
Writing to output.gpw (mode='')

iter:  30 12:26:46  -320.613593c -0.95  -1.70
iter:  31 12:26:53  -320.612647c -1.47  -1.94
iter:  32 12:27:00  -320.606564c -1.77  -2.02
iter:  33 12:27:08  -320.603685c -1.67  -2.07
iter:  34 12:27:15  -320.605397c -1.98  -2.12
Writing to output.gpw (mode='')

iter:  35 12:27:22  -320.603396c -1.90  -2.20
iter:  36 12:27:29  -320.603863c -1.97  -2.41
iter:  37 12:27:37  -320.604754c -2.29  -2.52
iter:  38 12:27:44  -320.605801c -2.22  -2.60
iter:  39 12:27:51  -320.606202c -2.48  -2.70
Writing to output.gpw (mode='')

iter:  40 12:27:59  -320.606480c -2.55  -2.85
iter:  41 12:28:06  -320.606700c -2.76  -2.92
iter:  42 12:28:13  -320.606960c -2.88  -3.11
iter:  43 12:28:20  -320.607231c -2.91  -3.22
iter:  44 12:28:28  -320.607454c -3.07  -3.29
Writing to output.gpw (mode='')

iter:  45 12:28:35  -320.607606c -3.08  -3.35
iter:  46 12:28:42  -320.607778c -3.26  -3.41
iter:  47 12:28:49  -320.607873c -3.33  -3.45
iter:  48 12:28:57  -320.607978c -3.52  -3.65
iter:  49 12:29:04  -320.608064c -3.56  -3.80
Writing to output.gpw (mode='')

iter:  50 12:29:11  -320.608153c -3.36  -3.90
iter:  51 12:29:19  -320.608206c -3.62  -3.97
iter:  52 12:29:26  -320.608251c -3.86  -4.08c
iter:  53 12:29:33  -320.608288c -3.81  -4.08c
iter:  54 12:29:46  -320.608324c -3.89  -4.16c
Writing to output.gpw (mode='')

iter:  55 12:29:55  -320.608349c -3.83  -4.17c
iter:  56 12:30:02  -320.608371c -4.15  -4.17c
iter:  57 12:30:09  -320.608386c -4.32  -4.09c
iter:  58 12:30:17  -320.608399c -4.31  -4.26c
iter:  59 12:30:24  -320.608412c -4.35  -4.40c
Writing to output.gpw (mode='')

iter:  60 12:30:31  -320.608423c -4.41  -4.38c
iter:  61 12:30:38  -320.608434c -4.46  -4.39c
iter:  62 12:30:46  -320.608448c -4.33  -4.52c
iter:  63 12:30:53  -320.608453c -4.41  -4.50c
iter:  64 12:31:00  -320.608457c -4.54  -4.49c
Writing to output.gpw (mode='')

iter:  65 12:31:07  -320.608462c -4.78  -4.46c
iter:  66 12:31:15  -320.608464c -4.86  -4.62c
iter:  67 12:31:22  -320.608467c -4.81  -4.67c
iter:  68 12:31:29  -320.608470c -4.87  -4.67c
iter:  69 12:31:36  -320.608472c -5.05  -4.65c
Writing to output.gpw (mode='')

iter:  70 12:31:44  -320.608475c -5.16  -4.59c
iter:  71 12:31:51  -320.608476c -4.78  -4.53c
iter:  72 12:31:58  -320.608478c -5.18  -4.52c
iter:  73 12:32:05  -320.608479c -5.26  -4.47c
iter:  74 12:32:13  -320.608480c -5.26  -4.55c
Writing to output.gpw (mode='')

iter:  75 12:32:20  -320.608481c -5.30  -4.53c
iter:  76 12:32:27  -320.608483c -5.37  -4.54c
iter:  77 12:32:34  -320.608483c -5.37  -4.69c
iter:  78 12:32:42  -320.608484c -5.37  -4.70c
iter:  79 12:32:49  -320.608486c -5.41  -4.78c
Writing to output.gpw (mode='')

iter:  80 12:32:56  -320.608485c -5.52  -4.99c
iter:  81 12:33:03  -320.608486c -5.70  -5.17c
iter:  82 12:33:11  -320.608486c -5.70  -5.19c
iter:  83 12:33:18  -320.608487c -5.72  -5.20c
iter:  84 12:33:25  -320.608487c -5.77  -5.20c
Writing to output.gpw (mode='')

iter:  85 12:33:32  -320.608488c -5.90  -5.34c
iter:  86 12:33:39  -320.608487c -5.96  -5.40c
iter:  87 12:33:47  -320.608488c -6.03  -5.43c
iter:  88 12:33:54  -320.608488c -6.00  -5.49c
iter:  89 12:34:01  -320.608488c -5.96  -5.62c
Writing to output.gpw (mode='')

iter:  90 12:34:09  -320.608488c -6.15  -5.69c
iter:  91 12:34:16  -320.608488c -6.18  -5.80c
iter:  92 12:34:23  -320.608488c -6.27  -5.78c
iter:  93 12:34:30  -320.608488c -6.32  -5.80c
iter:  94 12:34:38  -320.608488c -6.37  -5.70c
Writing to output.gpw (mode='')

iter:  95 12:34:50  -320.608488c -6.38  -5.74c
iter:  96 12:34:58  -320.608488c -6.47  -5.91c
iter:  97 12:35:05  -320.608489c -6.48  -6.02c
iter:  98 12:35:12  -320.608489c -6.54  -6.12c
iter:  99 12:35:19  -320.608489c -6.57  -6.17c
Writing to output.gpw (mode='')

iter: 100 12:35:27  -320.608489c -6.72  -6.13c
iter: 101 12:35:34  -320.608489c -6.77  -5.90c
iter: 102 12:35:41  -320.608489c -6.73  -5.86c
iter: 103 12:35:49  -320.608489c -6.86  -5.79c
iter: 104 12:35:56  -320.608489c -6.88  -5.76c
Writing to output.gpw (mode='')

iter: 105 12:36:03  -320.608489c -6.86  -5.75c
iter: 106 12:36:10  -320.608489c -6.99  -5.73c
iter: 107 12:36:18  -320.608489c -7.02  -5.83c
iter: 108 12:36:25  -320.608489c -6.98  -5.79c
iter: 109 12:36:32  -320.608489c -7.13  -5.75c
Writing to output.gpw (mode='')

iter: 110 12:36:39  -320.608489c -7.12  -5.92c
iter: 111 12:36:47  -320.608489c -7.27  -6.02c
iter: 112 12:36:54  -320.608489c -7.18  -5.76c
iter: 113 12:37:01  -320.608489c -7.23  -6.02c
iter: 114 12:37:09  -320.608489c -7.31  -6.26c
Writing to output.gpw (mode='')

iter: 115 12:37:16  -320.608489c -7.42c -6.30c

Converged after 115 iterations.

Dipole moment: (5.882942, -3.648769, 0.147009) |e|*Ang

Energy contributions relative to reference atoms: (reference = -16475.706344)

Kinetic:       +193.943941
Potential:     -177.171935
External:        +0.000000
XC:            -338.393351
Entropy (-ST):   -0.159139
Local:           +1.092425
--------------------------
Free energy:   -320.688058
Extrapolated:  -320.608489

Dipole-layer corrected work functions: 3.375134, 3.092532 eV

Showing only first 2 kpts
 Kpt  Band  Eigenvalues  Occupancy
  0    34     -3.48213    1.98615
  0    35     -3.33371    1.76106
  0    36     -3.13104    0.22691
  0    37     -3.00077    0.01873

  1    34     -3.30036    1.58183
  1    35     -3.25280    1.18747
  1    36     -3.17741    0.48889
  1    37     -3.11107    0.15812


Fermi level: -3.23383

Gap: 0.030 eV
Transition (v -> c):
  (s=0, k=1, n=35, [0.12, -0.12, 0.00]) -> (s=0, k=4, n=36, [0.38, -0.38, 0.00])

Forces in eV/Ang:
  0 Li    0.02580    0.00099   -0.28070
  1 Li   -0.01416    0.00022   -0.27488
  2 Li   -0.01203    0.00020   -0.27898
  3 Li   -0.00749    0.01354   -0.27699
  4 Li   -0.00145   -0.00547   -0.27332
  5 Li    0.00856    0.02431   -0.27176
  6 Li   -0.00699   -0.01470   -0.27685
  7 Li   -0.00095    0.00565   -0.27165
  8 Li    0.00830   -0.02512   -0.27459
  9 Li   -0.00312    0.01058    0.32506
 10 Li    0.00938    0.00342    0.24835
 11 Li   -0.00526    0.00711    0.29217
 12 Li   -0.00390   -0.00922    0.32149
 13 Li    0.01153   -0.00292    0.24977
 14 Li   -0.00546   -0.00807    0.29232
 15 Li   -0.00896   -0.00049    0.23383
 16 Li   -0.00665   -0.00093    0.27029
 17 Li    0.01610    0.00068    0.24726
 18 Li    0.05322    0.00043   -0.10233
 19 Li   -0.01217   -0.00117    0.04978
 20 Li   -0.00628    0.00307   -0.12823
 21 Li   -0.02559   -0.03756    0.06748
 22 Li    0.01659    0.00431    0.03160
 23 Li    0.00830   -0.01673    0.05243
 24 Li   -0.02278    0.03817    0.06042
 25 Li    0.01328   -0.00273    0.03952
 26 Li    0.00928    0.01356    0.03889
 27 Li   -0.04281   -0.08576    0.00336
 28 Li    0.06301   -0.03056   -0.05301
 29 Li   -0.00677   -0.02071    0.04585
 30 Li   -0.04264    0.08221   -0.04318
 31 Li    0.04944    0.03580   -0.04361
 32 Li   -0.01167    0.02890    0.02876
 33 Li   -0.00522   -0.00745   -0.02293
 34 Li   -0.02895   -0.00475   -0.00172
 35 Li    0.03569   -0.00592   -0.01302
 36 O     6.01672   -0.49034   12.39290
 37 O    -0.07373    0.06158   -0.07649
 38 C    -0.71711    1.18491    0.90082
 39 C     0.23004   -0.26561    0.00800
 40 H     0.12837   -0.08816   -0.20169
 41 H     0.06201   -0.05186   -0.04816
 42 H    -0.01786    0.02352   -0.07154
 43 H    -0.08153    0.03466    0.00824
 44 H     1.69017   -0.15431    1.80378
 45 H     0.02510   -0.10405    0.11740
 46 N     4.92807    0.08884   -6.63886
 47 N   -12.19334   -0.23084   -8.20375

System changes: positions 

Initializing position-dependent things.

Density initialized from wave functions
       .-----------------------.  
      /|                       |  
     / |                       |  
    /  |                       |  
   /   |                       |  
  /    |                       |  
 *     |                       |  
 |     |                       |  
 |     |                       |  
 |     |                       |  
 |     |                   H   |  
 | C  H|                 O     |  
 |     |                 H     |  
 |     |       Li      Hi CH   Li 
 |     |                       |  
 |O H  |     Li      Li      Li|  
 |N    |               N       |  
 |     |  LLi     LLi     LLi  |  
 |     |                       |  
 |     |Li      Li      Li     |  
 |   Li|     Li      Li        |  
 |    Li  Li  Li  Li  Li  Li   |  
 | Li  |   Li      Li          |  
 |     |Li      Li      Li     |  
 Li    | Li      Li            |  
 |    Li      Li      Li       |  
 |     |                       |  
 |     |                       |  
 |     |                       |  
 |     |                       |  
 |     |                       |  
 |     |                       |  
 |     .-----------------------.  
 |    /                       /   
 |   /                       /    
 |  /                       /     
 | /                       /      
 |/                       /       
 *-----------------------*        

Positions:
   0 Li     1.617037    1.617037   10.000000    ( 0.0000,  0.0000,  0.0000)
   1 Li     4.851111    1.617037   10.000000    ( 0.0000,  0.0000,  0.0000)
   2 Li     8.085185    1.617037   10.000000    ( 0.0000,  0.0000,  0.0000)
   3 Li     1.617037    4.851111   10.000000    ( 0.0000,  0.0000,  0.0000)
   4 Li     4.851111    4.851111   10.000000    ( 0.0000,  0.0000,  0.0000)
   5 Li     8.085185    4.851111   10.000000    ( 0.0000,  0.0000,  0.0000)
   6 Li     1.617037    8.085185   10.000000    ( 0.0000,  0.0000,  0.0000)
   7 Li     4.851111    8.085185   10.000000    ( 0.0000,  0.0000,  0.0000)
   8 Li     8.085185    8.085185   10.000000    ( 0.0000,  0.0000,  0.0000)
   9 Li     0.000000    0.000000   11.617037    ( 0.0000,  0.0000,  0.0000)
  10 Li     3.234074    0.000000   11.617037    ( 0.0000,  0.0000,  0.0000)
  11 Li     6.468148    0.000000   11.617037    ( 0.0000,  0.0000,  0.0000)
  12 Li     0.000000    3.234074   11.617037    ( 0.0000,  0.0000,  0.0000)
  13 Li     3.234074    3.234074   11.617037    ( 0.0000,  0.0000,  0.0000)
  14 Li     6.468148    3.234074   11.617037    ( 0.0000,  0.0000,  0.0000)
  15 Li     0.000000    6.468148   11.617037    ( 0.0000,  0.0000,  0.0000)
  16 Li     3.234074    6.468148   11.617037    ( 0.0000,  0.0000,  0.0000)
  17 Li     6.468148    6.468148   11.617037    ( 0.0000,  0.0000,  0.0000)
  18 Li     1.617183    1.617039   13.469449    ( 0.0000,  0.0000,  0.0000)
  19 Li     4.851078    1.617035   13.469865    ( 0.0000,  0.0000,  0.0000)
  20 Li     8.085167    1.617046   13.469379    ( 0.0000,  0.0000,  0.0000)
  21 Li     1.616969    4.851009   13.469913    ( 0.0000,  0.0000,  0.0000)
  22 Li     4.851156    4.851123   13.469816    ( 0.0000,  0.0000,  0.0000)
  23 Li     8.085206    4.851065   13.469872    ( 0.0000,  0.0000,  0.0000)
  24 Li     1.616976    8.085288   13.469892    ( 0.0000,  0.0000,  0.0000)
  25 Li     4.851147    8.085176   13.469837    ( 0.0000,  0.0000,  0.0000)
  26 Li     8.085209    8.085221   13.469834    ( 0.0000,  0.0000,  0.0000)
  27 Li    -0.000116   -0.000233   15.445949    ( 0.0000,  0.0000,  0.0000)
  28 Li     3.234245   -0.000083   15.445795    ( 0.0000,  0.0000,  0.0000)
  29 Li     6.468130   -0.000056   15.446064    ( 0.0000,  0.0000,  0.0000)
  30 Li    -0.000116    3.234297   15.445821    ( 0.0000,  0.0000,  0.0000)
  31 Li     3.234211    3.234174   15.445819    ( 0.0000,  0.0000,  0.0000)
  32 Li     6.468114    3.234155   15.446016    ( 0.0000,  0.0000,  0.0000)
  33 Li    -0.000014    6.468128   15.445876    ( 0.0000,  0.0000,  0.0000)
  34 Li     3.233998    6.468133   15.445933    ( 0.0000,  0.0000,  0.0000)
  35 Li     6.468243    6.468129   15.445903    ( 0.0000,  0.0000,  0.0000)
  36 O      0.016374    1.615702   18.479666    ( 0.0000,  0.0000,  0.0000)
  37 O     -0.232890    1.661198   21.343929    ( 0.0000,  0.0000,  0.0000)
  38 C     -0.414329    2.791473   19.176952    ( 0.0000,  0.0000,  0.0000)
  39 C      0.157400    2.801216   20.583708    ( 0.0000,  0.0000,  0.0000)
  40 H     -0.119195    3.702399   18.645826    ( 0.0000,  0.0000,  0.0000)
  41 H     -1.501775    2.740809   19.207118    ( 0.0000,  0.0000,  0.0000)
  42 H     -0.219756    3.676269   21.120209    ( 0.0000,  0.0000,  0.0000)
  43 H      1.255613    2.877535   20.533978    ( 0.0000,  0.0000,  0.0000)
  44 H      0.951921    1.691132   18.281424    ( 0.0000,  0.0000,  0.0000)
  45 H     -0.136182    0.893627   20.764991    ( 0.0000,  0.0000,  0.0000)
  46 N      0.013411    1.617242   16.927872    ( 0.0000,  0.0000,  0.0000)
  47 N     -1.129805    1.616372   16.923613    ( 0.0000,  0.0000,  0.0000)

Unit cell:
           periodic     x           y           z      points  spacing
  1. axis:    yes    9.702222    0.000000    0.000000    60     0.1617
  2. axis:    yes    0.000000    9.702222    0.000000    60     0.1617
  3. axis:    no     0.000000    0.000000   26.351111   164     0.1607

  Lengths:   9.702222   9.702222  26.351111
  Angles:   90.000000  90.000000  90.000000

Effective grid spacing dv^(1/3) = 0.1614

     iter     time        total  log10-change:
                         energy  eigst   dens
iter:   1 12:37:25  -322.669858  -0.28
iter:   2 12:37:32  -322.016151  -0.66  -1.38
iter:   3 12:37:40  -321.899598  -0.90  -1.38
iter:   4 12:37:47  -321.764360  -0.84  -1.54
Writing to output.gpw (mode='')

iter:   5 12:37:54  -321.782055  -1.38  -1.87
iter:   6 12:38:02  -321.760895c -1.39  -1.77
iter:   7 12:38:09  -321.716604  -1.29  -1.82
iter:   8 12:38:17  -321.712770  -2.12  -2.17
iter:   9 12:38:24  -321.702480c -2.35  -2.21
Writing to output.gpw (mode='')

iter:  10 12:38:31  -321.702096c -2.18  -2.47
iter:  11 12:38:39  -321.702333c -2.69  -2.51
iter:  12 12:38:46  -321.701741c -3.05  -2.70
iter:  13 12:38:53  -321.701413c -2.98  -2.78
iter:  14 12:39:01  -321.701838c -3.23  -3.07
Writing to output.gpw (mode='')

iter:  15 12:39:08  -321.701513c -3.53  -3.07
iter:  16 12:39:15  -321.701570c -3.62  -3.14
iter:  17 12:39:23  -321.701564c -3.70  -3.30
iter:  18 12:39:30  -321.701698c -4.01  -3.25
iter:  19 12:39:37  -321.701682c -3.97  -3.49
Writing to output.gpw (mode='')

iter:  20 12:39:50  -321.701689c -4.02  -3.56
iter:  21 12:39:59  -321.701735c -4.38  -3.63
iter:  22 12:40:06  -321.701673c -4.57  -3.77
iter:  23 12:40:15  -321.701692c -4.63  -3.85
iter:  24 12:40:26  -321.701723c -4.91  -3.91
Writing to output.gpw (mode='')

iter:  25 12:40:35  -321.701711c -5.08  -4.13c
iter:  26 12:40:43  -321.701736c -5.00  -4.22c
iter:  27 12:40:50  -321.701720c -5.04  -4.16c
iter:  28 12:40:58  -321.701714c -5.22  -4.36c
iter:  29 12:41:07  -321.701724c -5.22  -4.46c
Writing to output.gpw (mode='')

iter:  30 12:41:15  -321.701722c -5.60  -4.59c
iter:  31 12:41:22  -321.701723c -5.67  -4.63c
iter:  32 12:41:29  -321.701721c -5.58  -4.60c
iter:  33 12:41:37  -321.701721c -5.65  -4.60c
iter:  34 12:41:44  -321.701723c -5.71  -4.61c
Writing to output.gpw (mode='')

iter:  35 12:41:51  -321.701721c -5.97  -4.59c
iter:  36 12:41:59  -321.701721c -5.87  -4.59c
iter:  37 12:42:06  -321.701724c -6.22  -4.54c
iter:  38 12:42:14  -321.701723c -6.34  -4.58c
iter:  39 12:42:21  -321.701725c -6.15  -4.58c
Writing to output.gpw (mode='')

iter:  40 12:42:29  -321.701724c -6.29  -4.60c
iter:  41 12:42:36  -321.701721c -6.45  -4.64c
iter:  42 12:42:43  -321.701719c -6.60  -4.80c
iter:  43 12:42:51  -321.701721c -6.56  -4.84c
iter:  44 12:42:58  -321.701721c -6.83  -5.00c
Writing to output.gpw (mode='')

iter:  45 12:43:05  -321.701721c -6.74  -5.07c
iter:  46 12:43:13  -321.701721c -6.91  -5.18c
iter:  47 12:43:20  -321.701721c -6.92  -5.31c
iter:  48 12:43:27  -321.701720c -6.83  -5.43c
iter:  49 12:43:35  -321.701721c -6.91  -5.47c
Writing to output.gpw (mode='')

iter:  50 12:43:42  -321.701721c -7.05  -5.67c
iter:  51 12:43:49  -321.701721c -7.05  -5.69c
iter:  52 12:43:57  -321.701721c -7.29  -5.75c
iter:  53 12:44:04  -321.701721c -7.36  -5.78c
iter:  54 12:44:11  -321.701721c -7.39  -5.84c
Writing to output.gpw (mode='')

iter:  55 12:44:19  -321.701721c -7.58c -5.84c

Converged after 55 iterations.

Dipole moment: (3.102649, -3.471081, 0.091277) |e|*Ang

Energy contributions relative to reference atoms: (reference = -16475.706344)

Kinetic:       +184.493107
Potential:     -170.164406
External:        +0.000000
XC:            -337.047787
Entropy (-ST):   -0.163610
Local:           +1.099170
--------------------------
Free energy:   -321.783526
Extrapolated:  -321.701721

Dipole-layer corrected work functions: 3.380086, 3.204621 eV

Showing only first 2 kpts
 Kpt  Band  Eigenvalues  Occupancy
  0    34     -3.53911    1.98572
  0    35     -3.38022    1.70574
  0    36     -3.21095    0.32816
  0    37     -3.05634    0.01767

  1    34     -3.36805    1.63929
  1    35     -3.30416    1.11750
  1    36     -3.22919    0.44084
  1    37     -3.16062    0.13388


Fermi level: -3.29235

Gap: 0.029 eV
Transition (v -> c):
  (s=0, k=1, n=35, [0.12, -0.12, 0.00]) -> (s=0, k=4, n=36, [0.38, -0.38, 0.00])

Forces in eV/Ang:
  0 Li    0.02466    0.00081   -0.28140
  1 Li   -0.01347    0.00023   -0.27490
  2 Li   -0.01167    0.00032   -0.28001
  3 Li   -0.00679    0.01511   -0.27806
  4 Li   -0.00174   -0.00427   -0.27399
  5 Li    0.00838    0.02423   -0.27285
  6 Li   -0.00625   -0.01616   -0.27794
  7 Li   -0.00148    0.00435   -0.27234
  8 Li    0.00817   -0.02507   -0.27546
  9 Li   -0.00321    0.01025    0.32738
 10 Li    0.00955    0.00303    0.24872
 11 Li   -0.00498    0.00819    0.29467
 12 Li   -0.00372   -0.00909    0.32407
 13 Li    0.01111   -0.00258    0.25034
 14 Li   -0.00508   -0.00870    0.29411
 15 Li   -0.00865   -0.00041    0.23348
 16 Li   -0.00710   -0.00064    0.26791
 17 Li    0.01600    0.00026    0.24709
 18 Li    0.05562   -0.00001   -0.10996
 19 Li   -0.01534   -0.00091    0.04772
 20 Li   -0.00413    0.00303   -0.11965
 21 Li   -0.02578   -0.03544    0.06427
 22 Li    0.01677    0.00298    0.03324
 23 Li    0.00805   -0.01264    0.04544
 24 Li   -0.02283    0.03645    0.05740
 25 Li    0.01384   -0.00164    0.03986
 26 Li    0.00865    0.00979    0.03240
 27 Li   -0.07209   -0.03199    0.09988
 28 Li    0.06023   -0.03538   -0.05386
 29 Li    0.01903   -0.00405    0.07489
 30 Li   -0.07379    0.02811    0.05203
 31 Li    0.04892    0.04040   -0.04665
 32 Li    0.01492    0.01104    0.05742
 33 Li   -0.00172   -0.00709   -0.02995
 34 Li   -0.02656   -0.00476   -0.00377
 35 Li    0.03017   -0.00560   -0.01630
 36 O     4.53850   -0.57505   10.14376
 37 O    -0.06836    0.04967   -0.07254
 38 C    -0.42862    0.94612    0.87455
 39 C     0.10702   -0.06594    0.12381
 40 H     0.12313   -0.05793   -0.20038
 41 H     0.00106   -0.07012   -0.05162
 42 H     0.01284    0.00182   -0.03741
 43 H    -0.05819    0.02739   -0.00609
 44 H     1.68165   -0.02496    1.58754
 45 H     0.02388   -0.08938    0.10226
 46 N    -0.07284    0.03715   -5.89068
 47 N    -5.93039   -0.16529   -6.85948

System changes: positions 

Initializing position-dependent things.

Density initialized from wave functions
       .-----------------------.  
      /|                       |  
     / |                       |  
    /  |                       |  
   /   |                       |  
  /    |                       |  
 *     |                       |  
 |     |                       |  
 |     |                       |  
 |     |                       |  
 |     |                   H   |  
 | C  H|                 O     |  
 |     |                 H     |  
 |     |       Li      Hi CH   Li 
 |     |                       |  
 |O H  |     Li      Li      Li|  
 |     |               N  N    |  
 |     |  LLi     LLi     LLi  |  
 |     |                       |  
 |     |Li      Li      Li     |  
 |   Li|     Li      Li        |  
 |    Li  Li  Li  Li  Li  Li   |  
 | Li  |   Li      Li          |  
 |     |Li      Li      Li     |  
 Li    | Li      Li            |  
 |    Li      Li      Li       |  
 |     |                       |  
 |     |                       |  
 |     |                       |  
 |     |                       |  
 |     |                       |  
 |     |                       |  
 |     .-----------------------.  
 |    /                       /   
 |   /                       /    
 |  /                       /     
 | /                       /      
 |/                       /       
 *-----------------------*        

Positions:
   0 Li     1.617037    1.617037   10.000000    ( 0.0000,  0.0000,  0.0000)
   1 Li     4.851111    1.617037   10.000000    ( 0.0000,  0.0000,  0.0000)
   2 Li     8.085185    1.617037   10.000000    ( 0.0000,  0.0000,  0.0000)
   3 Li     1.617037    4.851111   10.000000    ( 0.0000,  0.0000,  0.0000)
   4 Li     4.851111    4.851111   10.000000    ( 0.0000,  0.0000,  0.0000)
   5 Li     8.085185    4.851111   10.000000    ( 0.0000,  0.0000,  0.0000)
   6 Li     1.617037    8.085185   10.000000    ( 0.0000,  0.0000,  0.0000)
   7 Li     4.851111    8.085185   10.000000    ( 0.0000,  0.0000,  0.0000)
   8 Li     8.085185    8.085185   10.000000    ( 0.0000,  0.0000,  0.0000)
   9 Li     0.000000    0.000000   11.617037    ( 0.0000,  0.0000,  0.0000)
  10 Li     3.234074    0.000000   11.617037    ( 0.0000,  0.0000,  0.0000)
  11 Li     6.468148    0.000000   11.617037    ( 0.0000,  0.0000,  0.0000)
  12 Li     0.000000    3.234074   11.617037    ( 0.0000,  0.0000,  0.0000)
  13 Li     3.234074    3.234074   11.617037    ( 0.0000,  0.0000,  0.0000)
  14 Li     6.468148    3.234074   11.617037    ( 0.0000,  0.0000,  0.0000)
  15 Li     0.000000    6.468148   11.617037    ( 0.0000,  0.0000,  0.0000)
  16 Li     3.234074    6.468148   11.617037    ( 0.0000,  0.0000,  0.0000)
  17 Li     6.468148    6.468148   11.617037    ( 0.0000,  0.0000,  0.0000)
  18 Li     1.617425    1.617038   13.468962    ( 0.0000,  0.0000,  0.0000)
  19 Li     4.851004    1.617032   13.470062    ( 0.0000,  0.0000,  0.0000)
  20 Li     8.085155    1.617059   13.468895    ( 0.0000,  0.0000,  0.0000)
  21 Li     1.616859    4.850864   13.470177    ( 0.0000,  0.0000,  0.0000)
  22 Li     4.851228    4.851132   13.469962    ( 0.0000,  0.0000,  0.0000)
  23 Li     8.085240    4.851023   13.470046    ( 0.0000,  0.0000,  0.0000)
  24 Li     1.616879    8.085438   13.470128    ( 0.0000,  0.0000,  0.0000)
  25 Li     4.851207    8.085172   13.470007    ( 0.0000,  0.0000,  0.0000)
  26 Li     8.085244    8.085252   13.469953    ( 0.0000,  0.0000,  0.0000)
  27 Li    -0.000502   -0.000222   15.446635    ( 0.0000,  0.0000,  0.0000)
  28 Li     3.234493   -0.000246   15.445564    ( 0.0000,  0.0000,  0.0000)
  29 Li     6.468281   -0.000028   15.446460    ( 0.0000,  0.0000,  0.0000)
  30 Li    -0.000514    3.234269   15.446302    ( 0.0000,  0.0000,  0.0000)
  31 Li     3.234417    3.234358   15.445613    ( 0.0000,  0.0000,  0.0000)
  32 Li     6.468250    3.234153   15.446338    ( 0.0000,  0.0000,  0.0000)
  33 Li    -0.000012    6.468099   15.445730    ( 0.0000,  0.0000,  0.0000)
  34 Li     3.233892    6.468112   15.445912    ( 0.0000,  0.0000,  0.0000)
  35 Li     6.468356    6.468107   15.445825    ( 0.0000,  0.0000,  0.0000)
  36 O      0.031595    1.613032   18.516561    ( 0.0000,  0.0000,  0.0000)
  37 O     -0.233165    1.661376   21.343632    ( 0.0000,  0.0000,  0.0000)
  38 C     -0.415360    2.794836   19.180590    ( 0.0000,  0.0000,  0.0000)
  39 C      0.157519    2.801481   20.584549    ( 0.0000,  0.0000,  0.0000)
  40 H     -0.118687    3.702236   18.644979    ( 0.0000,  0.0000,  0.0000)
  41 H     -1.501937    2.740462   19.206890    ( 0.0000,  0.0000,  0.0000)
  42 H     -0.219618    3.676217   21.120144    ( 0.0000,  0.0000,  0.0000)
  43 H      1.255429    2.877631   20.533913    ( 0.0000,  0.0000,  0.0000)
  44 H      0.959031    1.691379   18.287568    ( 0.0000,  0.0000,  0.0000)
  45 H     -0.136084    0.893288   20.765384    ( 0.0000,  0.0000,  0.0000)
  46 N     -0.000536    1.617258   16.904925    ( 0.0000,  0.0000,  0.0000)
  47 N     -1.137881    1.615849   16.898182    ( 0.0000,  0.0000,  0.0000)

Unit cell:
           periodic     x           y           z      points  spacing
  1. axis:    yes    9.702222    0.000000    0.000000    60     0.1617
  2. axis:    yes    0.000000    9.702222    0.000000    60     0.1617
  3. axis:    no     0.000000    0.000000   26.351111   164     0.1607

  Lengths:   9.702222   9.702222  26.351111
  Angles:   90.000000  90.000000  90.000000

Effective grid spacing dv^(1/3) = 0.1614

     iter     time        total  log10-change:
                         energy  eigst   dens
iter:   1 12:44:28  -322.613338  -0.83
iter:   2 12:44:35  -322.535721  -0.94  -1.62
iter:   3 12:44:47  -322.501138  -1.60  -1.71
iter:   4 12:44:55  -322.484714  -1.33  -2.06
Writing to output.gpw (mode='')

iter:   5 12:45:02  -322.507988c -1.61  -2.14
iter:   6 12:45:09  -322.538814  -1.55  -2.09
iter:   7 12:45:17  -322.483897  -1.99  -1.93
iter:   8 12:45:24  -322.475964  -1.85  -2.31
iter:   9 12:45:31  -322.476820c -2.41  -2.61
Writing to output.gpw (mode='')

iter:  10 12:45:39  -322.485119c -2.41  -2.67
iter:  11 12:45:46  -322.475764c -2.29  -2.36
iter:  12 12:45:54  -322.475914c -2.61  -3.01
iter:  13 12:46:01  -322.476222c -3.30  -3.06
iter:  14 12:46:08  -322.476029c -3.22  -3.12
Writing to output.gpw (mode='')

iter:  15 12:46:16  -322.476557c -3.56  -3.09
iter:  16 12:46:23  -322.476345c -3.15  -3.14
iter:  17 12:46:30  -322.476287c -3.91  -3.28
iter:  18 12:46:38  -322.476247c -3.69  -3.35
iter:  19 12:46:45  -322.476259c -4.05  -3.57
Writing to output.gpw (mode='')

iter:  20 12:46:52  -322.476312c -4.45  -3.67
iter:  21 12:46:59  -322.476297c -4.49  -3.72
iter:  22 12:47:07  -322.476313c -4.54  -3.78
iter:  23 12:47:14  -322.476315c -4.66  -3.86
iter:  24 12:47:21  -322.476322c -4.95  -3.88
Writing to output.gpw (mode='')

iter:  25 12:47:29  -322.476337c -5.12  -3.92
iter:  26 12:47:36  -322.476312c -5.10  -4.03c
iter:  27 12:47:43  -322.476335c -5.17  -4.12c
iter:  28 12:47:51  -322.476328c -5.36  -4.10c
iter:  29 12:47:58  -322.476346c -5.30  -4.31c
Writing to output.gpw (mode='')

iter:  30 12:48:05  -322.476341c -5.49  -4.25c
iter:  31 12:48:13  -322.476334c -5.62  -4.33c
iter:  32 12:48:20  -322.476336c -5.84  -4.53c
iter:  33 12:48:27  -322.476338c -5.95  -4.57c
iter:  34 12:48:35  -322.476338c -6.19  -4.74c
Writing to output.gpw (mode='')

iter:  35 12:48:42  -322.476339c -6.11  -4.77c
iter:  36 12:48:49  -322.476339c -6.45  -4.80c
iter:  37 12:48:57  -322.476342c -6.37  -4.88c
iter:  38 12:49:04  -322.476343c -6.59  -4.93c
iter:  39 12:49:11  -322.476342c -6.95  -4.94c
Writing to output.gpw (mode='')

iter:  40 12:49:19  -322.476343c -6.83  -5.07c
iter:  41 12:49:26  -322.476342c -7.21  -5.24c
iter:  42 12:49:33  -322.476342c -7.06  -5.29c
iter:  43 12:49:46  -322.476343c -7.29  -5.31c
iter:  44 12:49:55  -322.476343c -7.14  -5.51c
Writing to output.gpw (mode='')

iter:  45 12:50:02  -322.476342c -7.30  -5.60c
iter:  46 12:50:09  -322.476342c -7.28  -5.62c
iter:  47 12:50:17  -322.476342c -7.50c -5.71c

Converged after 47 iterations.

Dipole moment: (3.339119, -3.443489, 0.048108) |e|*Ang

Energy contributions relative to reference atoms: (reference = -16475.706344)

Kinetic:       +183.177118
Potential:     -169.645852
External:        +0.000000
XC:            -337.029471
Entropy (-ST):   -0.163265
Local:           +1.103495
--------------------------
Free energy:   -322.557975
Extrapolated:  -322.476342

Dipole-layer corrected work functions: 3.381356, 3.288876 eV

Showing only first 2 kpts
 Kpt  Band  Eigenvalues  Occupancy
  0    34     -3.58255    1.98592
  0    35     -3.42279    1.70476
  0    36     -3.25035    0.31017
  0    37     -3.09891    0.01760

  1    34     -3.41077    1.63903
  1    35     -3.34592    1.10761
  1    36     -3.27303    0.44825
  1    37     -3.20709    0.14345


Fermi level: -3.33512

Gap: 0.028 eV
Transition (v -> c):
  (s=0, k=1, n=35, [0.12, -0.12, 0.00]) -> (s=0, k=4, n=36, [0.38, -0.38, 0.00])
Writing to output.gpw (mode='')


Forces in eV/Ang:
  0 Li    0.02475    0.00073   -0.28152
  1 Li   -0.01399    0.00010   -0.27366
  2 Li   -0.01173    0.00030   -0.28049
  3 Li   -0.00677    0.01505   -0.27802
  4 Li   -0.00136   -0.00399   -0.27413
  5 Li    0.00853    0.02481   -0.27286
  6 Li   -0.00620   -0.01604   -0.27785
  7 Li   -0.00114    0.00407   -0.27258
  8 Li    0.00815   -0.02550   -0.27525
  9 Li   -0.00294    0.01074    0.32830
 10 Li    0.01113    0.00275    0.24817
 11 Li   -0.00598    0.00761    0.29336
 12 Li   -0.00326   -0.00970    0.32528
 13 Li    0.01225   -0.00230    0.24981
 14 Li   -0.00616   -0.00794    0.29272
 15 Li   -0.00900   -0.00045    0.23276
 16 Li   -0.00801   -0.00043    0.26716
 17 Li    0.01638    0.00005    0.24699
 18 Li    0.05576   -0.00031   -0.10672
 19 Li   -0.01271   -0.00080    0.04986
 20 Li   -0.00932    0.00275   -0.13515
 21 Li   -0.02621   -0.03528    0.06472
 22 Li    0.01594    0.00440    0.03297
 23 Li    0.00864   -0.01552    0.04782
 24 Li   -0.02342    0.03642    0.05771
 25 Li    0.01302   -0.00319    0.03885
 26 Li    0.00918    0.01310    0.03588
 27 Li   -0.05539   -0.06333    0.07171
 28 Li    0.05899   -0.03546   -0.05401
 29 Li    0.00440   -0.01379    0.06470
 30 Li   -0.05713    0.06124    0.02238
 31 Li    0.04982    0.04045   -0.04844
 32 Li    0.00073    0.01972    0.04789
 33 Li   -0.00173   -0.00705   -0.02994
 34 Li   -0.02629   -0.00477   -0.00390
 35 Li    0.03036   -0.00518   -0.01600
 36 O     3.64660   -0.60563    8.74570
 37 O    -0.07152    0.05606   -0.06321
 38 C    -0.13741    0.65449    0.86172
 39 C     0.01047    0.12039    0.25441
 40 H     0.11766   -0.03235   -0.19275
 41 H    -0.04184   -0.08099   -0.04463
 42 H     0.02967    0.01343    0.03115
 43 H    -0.05372    0.02428   -0.02104
 44 H     1.40871    0.07636    1.36368
 45 H     0.03113   -0.06913    0.07641
 46 N     0.14890   -0.03204   -5.44082
 47 N    -5.10327   -0.11650   -5.61664

System changes: positions 

Initializing position-dependent things.

Density initialized from wave functions
       .-----------------------.  
      /|                       |  
     / |                       |  
    /  |                       |  
   /   |                       |  
  /    |                       |  
 *     |                       |  
 |     |                       |  
 |     |                       |  
 |     |                       |  
 |     |                   H   |  
 | C  H|                 O     |  
 |     |                 H     |  
 |     |       Li      Hi CH   Li 
 |O    |                       |  
 |  H  |     Li      Li      Li|  
 |     |                       |  
 |     |  LLi     LLi  N  NLi  |  
 |     |                       |  
 |     |Li      Li      Li     |  
 |   Li|     Li      Li        |  
 |    Li  Li  Li  Li  Li  Li   |  
 | Li  |   Li      Li          |  
 |     |Li      Li      Li     |  
 Li    | Li      Li            |  
 |    Li      Li      Li       |  
 |     |                       |  
 |     |                       |  
 |     |                       |  
 |     |                       |  
 |     |                       |  
 |     |                       |  
 |     .-----------------------.  
 |    /                       /   
 |   /                       /    
 |  /                       /     
 | /                       /      
 |/                       /       
 *-----------------------*        

Positions:
   0 Li     1.617037    1.617037   10.000000    ( 0.0000,  0.0000,  0.0000)
   1 Li     4.851111    1.617037   10.000000    ( 0.0000,  0.0000,  0.0000)
   2 Li     8.085185    1.617037   10.000000    ( 0.0000,  0.0000,  0.0000)
   3 Li     1.617037    4.851111   10.000000    ( 0.0000,  0.0000,  0.0000)
   4 Li     4.851111    4.851111   10.000000    ( 0.0000,  0.0000,  0.0000)
   5 Li     8.085185    4.851111   10.000000    ( 0.0000,  0.0000,  0.0000)
   6 Li     1.617037    8.085185   10.000000    ( 0.0000,  0.0000,  0.0000)
   7 Li     4.851111    8.085185   10.000000    ( 0.0000,  0.0000,  0.0000)
   8 Li     8.085185    8.085185   10.000000    ( 0.0000,  0.0000,  0.0000)
   9 Li     0.000000    0.000000   11.617037    ( 0.0000,  0.0000,  0.0000)
  10 Li     3.234074    0.000000   11.617037    ( 0.0000,  0.0000,  0.0000)
  11 Li     6.468148    0.000000   11.617037    ( 0.0000,  0.0000,  0.0000)
  12 Li     0.000000    3.234074   11.617037    ( 0.0000,  0.0000,  0.0000)
  13 Li     3.234074    3.234074   11.617037    ( 0.0000,  0.0000,  0.0000)
  14 Li     6.468148    3.234074   11.617037    ( 0.0000,  0.0000,  0.0000)
  15 Li     0.000000    6.468148   11.617037    ( 0.0000,  0.0000,  0.0000)
  16 Li     3.234074    6.468148   11.617037    ( 0.0000,  0.0000,  0.0000)
  17 Li     6.468148    6.468148   11.617037    ( 0.0000,  0.0000,  0.0000)
  18 Li     1.617799    1.617032   13.468271    ( 0.0000,  0.0000,  0.0000)
  19 Li     4.850936    1.617029   13.470402    ( 0.0000,  0.0000,  0.0000)
  20 Li     8.085053    1.617075   13.467893    ( 0.0000,  0.0000,  0.0000)
  21 Li     1.616683    4.850641   13.470596    ( 0.0000,  0.0000,  0.0000)
  22 Li     4.851325    4.851170   13.470180    ( 0.0000,  0.0000,  0.0000)
  23 Li     8.085301    4.850907   13.470361    ( 0.0000,  0.0000,  0.0000)
  24 Li     1.616720    8.085671   13.470500    ( 0.0000,  0.0000,  0.0000)
  25 Li     4.851287    8.085140   13.470253    ( 0.0000,  0.0000,  0.0000)
  26 Li     8.085307    8.085357   13.470202    ( 0.0000,  0.0000,  0.0000)
  27 Li    -0.000797   -0.000768   15.447126    ( 0.0000,  0.0000,  0.0000)
  28 Li     3.234860   -0.000493   15.445206    ( 0.0000,  0.0000,  0.0000)
  29 Li     6.468251   -0.000159   15.446875    ( 0.0000,  0.0000,  0.0000)
  30 Li    -0.000826    3.234817   15.446452    ( 0.0000,  0.0000,  0.0000)
  31 Li     3.234750    3.234636   15.445271    ( 0.0000,  0.0000,  0.0000)
  32 Li     6.468201    3.234310   15.446647    ( 0.0000,  0.0000,  0.0000)
  33 Li    -0.000013    6.468054   15.445514    ( 0.0000,  0.0000,  0.0000)
  34 Li     3.233729    6.468081   15.445879    ( 0.0000,  0.0000,  0.0000)
  35 Li     6.468540    6.468077   15.445713    ( 0.0000,  0.0000,  0.0000)
  36 O      0.043085    1.608543   18.554611    ( 0.0000,  0.0000,  0.0000)
  37 O     -0.233647    1.661767   21.343315    ( 0.0000,  0.0000,  0.0000)
  38 C     -0.412773    2.795774   19.186041    ( 0.0000,  0.0000,  0.0000)
  39 C      0.156352    2.804544   20.587740    ( 0.0000,  0.0000,  0.0000)
  40 H     -0.117981    3.702345   18.643790    ( 0.0000,  0.0000,  0.0000)
  41 H     -1.502778    2.739780   19.206651    ( 0.0000,  0.0000,  0.0000)
  42 H     -0.219181    3.676348   21.121071    ( 0.0000,  0.0000,  0.0000)
  43 H      1.255186    2.877741   20.533598    ( 0.0000,  0.0000,  0.0000)
  44 H      0.965743    1.693176   18.293835    ( 0.0000,  0.0000,  0.0000)
  45 H     -0.135817    0.893062   20.765605    ( 0.0000,  0.0000,  0.0000)
  46 N     -0.011943    1.616269   16.875549    ( 0.0000,  0.0000,  0.0000)
  47 N     -1.145721    1.615720   16.876604    ( 0.0000,  0.0000,  0.0000)

Unit cell:
           periodic     x           y           z      points  spacing
  1. axis:    yes    9.702222    0.000000    0.000000    60     0.1617
  2. axis:    yes    0.000000    9.702222    0.000000    60     0.1617
  3. axis:    no     0.000000    0.000000   26.351111   164     0.1607

  Lengths:   9.702222   9.702222  26.351111
  Angles:   90.000000  90.000000  90.000000

Effective grid spacing dv^(1/3) = 0.1614

     iter     time        total  log10-change:
                         energy  eigst   dens
iter:   1 12:50:26  -323.225201  -0.85
iter:   2 12:50:33  -323.185064  -1.10  -1.73
iter:   3 12:50:40  -323.164778  -1.70  -1.81
iter:   4 12:50:48  -323.149599c -1.64  -2.13
Writing to output.gpw (mode='')

iter:   5 12:50:55  -323.175735c -1.73  -2.30
iter:   6 12:51:02  -323.179860c -1.94  -2.08
iter:   7 12:51:10  -323.144558c -1.87  -2.03
iter:   8 12:51:17  -323.144924c -2.06  -2.66
iter:   9 12:51:24  -323.152078c -2.50  -2.46
Writing to output.gpw (mode='')

iter:  10 12:51:32  -323.145444c -2.66  -2.39
iter:  11 12:51:39  -323.144374c -2.59  -2.81
iter:  12 12:51:47  -323.144436c -2.87  -2.79
iter:  13 12:51:54  -323.144814c -3.42  -2.99
iter:  14 12:52:01  -323.144670c -3.61  -3.20
Writing to output.gpw (mode='')

iter:  15 12:52:09  -323.144823c -3.97  -3.21
iter:  16 12:52:16  -323.144640c -3.86  -3.26
iter:  17 12:52:23  -323.144728c -4.23  -3.55
iter:  18 12:52:31  -323.144734c -4.27  -3.65
iter:  19 12:52:38  -323.144702c -4.39  -3.71
Writing to output.gpw (mode='')

iter:  20 12:52:45  -323.144735c -4.61  -3.90
iter:  21 12:52:53  -323.144737c -4.73  -3.94
iter:  22 12:53:00  -323.144748c -4.91  -3.99
iter:  23 12:53:07  -323.144769c -5.07  -4.05c
iter:  24 12:53:15  -323.144767c -5.46  -4.18c
Writing to output.gpw (mode='')

iter:  25 12:53:22  -323.144752c -5.29  -4.21c
iter:  26 12:53:29  -323.144773c -5.58  -4.39c
iter:  27 12:53:37  -323.144766c -5.43  -4.30c
iter:  28 12:53:44  -323.144761c -5.66  -4.51c
iter:  29 12:53:51  -323.144762c -5.78  -4.66c
Writing to output.gpw (mode='')

iter:  30 12:53:59  -323.144764c -6.11  -4.93c
iter:  31 12:54:06  -323.144764c -5.93  -4.97c
iter:  32 12:54:14  -323.144767c -6.01  -5.00c
iter:  33 12:54:21  -323.144767c -6.13  -5.02c
iter:  34 12:54:29  -323.144767c -6.29  -5.03c
Writing to output.gpw (mode='')

iter:  35 12:54:36  -323.144767c -6.17  -5.03c
iter:  36 12:54:48  -323.144767c -6.24  -4.95c
iter:  37 12:54:56  -323.144768c -6.63  -4.95c
iter:  38 12:55:03  -323.144767c -6.55  -4.95c
iter:  39 12:55:10  -323.144768c -6.74  -4.92c
Writing to output.gpw (mode='')

iter:  40 12:55:18  -323.144767c -6.95  -4.90c
iter:  41 12:55:25  -323.144767c -6.67  -4.91c
iter:  42 12:55:32  -323.144767c -7.16  -4.92c
iter:  43 12:55:40  -323.144772c -7.09  -4.92c
iter:  44 12:55:47  -323.144770c -7.13  -4.99c
Writing to output.gpw (mode='')

iter:  45 12:55:55  -323.144770c -7.07  -5.12c
iter:  46 12:56:02  -323.144771c -7.37  -5.12c
iter:  47 12:56:09  -323.144771c -7.57c -5.33c

Converged after 47 iterations.

Dipole moment: (3.821936, -3.380221, -0.008453) |e|*Ang

Energy contributions relative to reference atoms: (reference = -16475.706344)

Kinetic:       +181.574342
Potential:     -168.816210
External:        +0.000000
XC:            -336.930382
Entropy (-ST):   -0.163642
Local:           +1.109300
--------------------------
Free energy:   -323.226592
Extrapolated:  -323.144771

Dipole-layer corrected work functions: 3.383553, 3.399803 eV

Showing only first 2 kpts
 Kpt  Band  Eigenvalues  Occupancy
  0    34     -3.63940    1.98599
  0    35     -3.47769    1.69632
  0    36     -3.30586    0.30470
  0    37     -3.15444    0.01724

  1    34     -3.46774    1.64146
  1    35     -3.40022    1.08525
  1    36     -3.33022    0.45269
  1    37     -3.26618    0.15031


Fermi level: -3.39168

Gap: 0.026 eV
Transition (v -> c):
  (s=0, k=1, n=35, [0.12, -0.12, 0.00]) -> (s=0, k=4, n=36, [0.38, -0.38, 0.00])
Writing to output.gpw (mode='')


Forces in eV/Ang:
  0 Li    0.02437    0.00067   -0.28176
  1 Li   -0.01431   -0.00001   -0.27240
  2 Li   -0.01178    0.00029   -0.28086
  3 Li   -0.00652    0.01506   -0.27808
  4 Li   -0.00094   -0.00354   -0.27447
  5 Li    0.00864    0.02511   -0.27307
  6 Li   -0.00593   -0.01594   -0.27785
  7 Li   -0.00079    0.00365   -0.27298
  8 Li    0.00813   -0.02572   -0.27526
  9 Li   -0.00249    0.01121    0.32888
 10 Li    0.01287    0.00236    0.24789
 11 Li   -0.00692    0.00705    0.29170
 12 Li   -0.00273   -0.01026    0.32621
 13 Li    0.01359   -0.00188    0.24947
 14 Li   -0.00711   -0.00723    0.29107
 15 Li   -0.00931   -0.00047    0.23221
 16 Li   -0.00924   -0.00035    0.26618
 17 Li    0.01664   -0.00003    0.24717
 18 Li    0.05565   -0.00050   -0.10339
 19 Li   -0.01023   -0.00071    0.05121
 20 Li   -0.01377    0.00234   -0.14501
 21 Li   -0.02639   -0.03458    0.06417
 22 Li    0.01484    0.00549    0.03272
 23 Li    0.00902   -0.01749    0.04906
 24 Li   -0.02383    0.03572    0.05734
 25 Li    0.01201   -0.00446    0.03797
 26 Li    0.00946    0.01561    0.03818
 27 Li   -0.04306   -0.09502    0.04502
 28 Li    0.05700   -0.03583   -0.05372
 29 Li   -0.00608   -0.02000    0.05699
 30 Li   -0.04424    0.09291   -0.00311
 31 Li    0.04970    0.04077   -0.04973
 32 Li   -0.00908    0.02476    0.04129
 33 Li   -0.00144   -0.00691   -0.03027
 34 Li   -0.02543   -0.00459   -0.00434
 35 Li    0.02993   -0.00483   -0.01581
 36 O     3.09804   -0.63321    7.31204
 37 O    -0.08234    0.07262   -0.02194
 38 C    -0.10801    0.52735    0.80469
 39 C     0.03282    0.14804    0.31062
 40 H     0.11505   -0.07217   -0.15622
 41 H     0.03682   -0.07611   -0.02597
 42 H     0.00373    0.10105    0.14427
 43 H    -0.07641    0.03449   -0.00970
 44 H     0.96603    0.11006    1.19124
 45 H     0.04250   -0.02575    0.04661
 46 N     0.30015   -0.06241   -4.94057
 47 N    -4.47292   -0.08482   -4.70315

System changes: positions 

Initializing position-dependent things.

Density initialized from wave functions
       .-----------------------.  
      /|                       |  
     / |                       |  
    /  |                       |  
   /   |                       |  
  /    |                       |  
 *     |                       |  
 |     |                       |  
 |     |                       |  
 |     |                       |  
 |     |                   H   |  
 | C  H|                 O     |  
 |     |                 H     |  
 |     |       Li      Hi CH   Li 
 |O    |                       |  
 |  H  |     Li      Li      Li|  
 |     |                       |  
 |     |  LLi     LLi  N  NLi  |  
 |     |                       |  
 |     |Li      Li      Li     |  
 |   Li|     Li      Li        |  
 |    Li  Li  Li  Li  Li  Li   |  
 | Li  |   Li      Li          |  
 |     |Li      Li      Li     |  
 Li    | Li      Li            |  
 |    Li      Li      Li       |  
 |     |                       |  
 |     |                       |  
 |     |                       |  
 |     |                       |  
 |     |                       |  
 |     |                       |  
 |     .-----------------------.  
 |    /                       /   
 |   /                       /    
 |  /                       /     
 | /                       /      
 |/                       /       
 *-----------------------*        

Positions:
   0 Li     1.617037    1.617037   10.000000    ( 0.0000,  0.0000,  0.0000)
   1 Li     4.851111    1.617037   10.000000    ( 0.0000,  0.0000,  0.0000)
   2 Li     8.085185    1.617037   10.000000    ( 0.0000,  0.0000,  0.0000)
   3 Li     1.617037    4.851111   10.000000    ( 0.0000,  0.0000,  0.0000)
   4 Li     4.851111    4.851111   10.000000    ( 0.0000,  0.0000,  0.0000)
   5 Li     8.085185    4.851111   10.000000    ( 0.0000,  0.0000,  0.0000)
   6 Li     1.617037    8.085185   10.000000    ( 0.0000,  0.0000,  0.0000)
   7 Li     4.851111    8.085185   10.000000    ( 0.0000,  0.0000,  0.0000)
   8 Li     8.085185    8.085185   10.000000    ( 0.0000,  0.0000,  0.0000)
   9 Li     0.000000    0.000000   11.617037    ( 0.0000,  0.0000,  0.0000)
  10 Li     3.234074    0.000000   11.617037    ( 0.0000,  0.0000,  0.0000)
  11 Li     6.468148    0.000000   11.617037    ( 0.0000,  0.0000,  0.0000)
  12 Li     0.000000    3.234074   11.617037    ( 0.0000,  0.0000,  0.0000)
  13 Li     3.234074    3.234074   11.617037    ( 0.0000,  0.0000,  0.0000)
  14 Li     6.468148    3.234074   11.617037    ( 0.0000,  0.0000,  0.0000)
  15 Li     0.000000    6.468148   11.617037    ( 0.0000,  0.0000,  0.0000)
  16 Li     3.234074    6.468148   11.617037    ( 0.0000,  0.0000,  0.0000)
  17 Li     6.468148    6.468148   11.617037    ( 0.0000,  0.0000,  0.0000)
  18 Li     1.618329    1.617022   13.467331    ( 0.0000,  0.0000,  0.0000)
  19 Li     4.850872    1.617025   13.470905    ( 0.0000,  0.0000,  0.0000)
  20 Li     8.084850    1.617091   13.466347    ( 0.0000,  0.0000,  0.0000)
  21 Li     1.616429    4.850330   13.471187    ( 0.0000,  0.0000,  0.0000)
  22 Li     4.851449    4.851238   13.470488    ( 0.0000,  0.0000,  0.0000)
  23 Li     8.085393    4.850715   13.470828    ( 0.0000,  0.0000,  0.0000)
  24 Li     1.616488    8.085995   13.471027    ( 0.0000,  0.0000,  0.0000)
  25 Li     4.851386    8.085078   13.470594    ( 0.0000,  0.0000,  0.0000)
  26 Li     8.085401    8.085540   13.470587    ( 0.0000,  0.0000,  0.0000)
  27 Li    -0.001052   -0.002005   15.447409    ( 0.0000,  0.0000,  0.0000)
  28 Li     3.235359   -0.000848   15.444701    ( 0.0000,  0.0000,  0.0000)
  29 Li     6.468067   -0.000427   15.447354    ( 0.0000,  0.0000,  0.0000)
  30 Li    -0.001095    3.236049   15.446275    ( 0.0000,  0.0000,  0.0000)
  31 Li     3.235221    3.235037   15.444769    ( 0.0000,  0.0000,  0.0000)
  32 Li     6.468001    3.234600   15.446992    ( 0.0000,  0.0000,  0.0000)
  33 Li    -0.000013    6.467992   15.445205    ( 0.0000,  0.0000,  0.0000)
  34 Li     3.233507    6.468039   15.445827    ( 0.0000,  0.0000,  0.0000)
  35 Li     6.468801    6.468040   15.445558    ( 0.0000,  0.0000,  0.0000)
  36 O      0.055001    1.601843   18.592202    ( 0.0000,  0.0000,  0.0000)
  37 O     -0.234511    1.662592   21.343518    ( 0.0000,  0.0000,  0.0000)
  38 C     -0.409965    2.796319   19.192949    ( 0.0000,  0.0000,  0.0000)
  39 C      0.155545    2.808492   20.592644    ( 0.0000,  0.0000,  0.0000)
  40 H     -0.116989    3.701700   18.642675    ( 0.0000,  0.0000,  0.0000)
  41 H     -1.502430    2.738944   19.206601    ( 0.0000,  0.0000,  0.0000)
  42 H     -0.219088    3.677990   21.124012    ( 0.0000,  0.0000,  0.0000)
  43 H      1.254416    2.878089   20.533409    ( 0.0000,  0.0000,  0.0000)
  44 H      0.968949    1.695809   18.300951    ( 0.0000,  0.0000,  0.0000)
  45 H     -0.135271    0.893380   20.765532    ( 0.0000,  0.0000,  0.0000)
  46 N     -0.022460    1.614655   16.839575    ( 0.0000,  0.0000,  0.0000)
  47 N     -1.154720    1.615824   16.855146    ( 0.0000,  0.0000,  0.0000)

Unit cell:
           periodic     x           y           z      points  spacing
  1. axis:    yes    9.702222    0.000000    0.000000    60     0.1617
  2. axis:    yes    0.000000    9.702222    0.000000    60     0.1617
  3. axis:    no     0.000000    0.000000   26.351111   164     0.1607

  Lengths:   9.702222   9.702222  26.351111
  Angles:   90.000000  90.000000  90.000000

Effective grid spacing dv^(1/3) = 0.1614

     iter     time        total  log10-change:
                         energy  eigst   dens
iter:   1 12:56:18  -323.805134  -0.86
iter:   2 12:56:25  -323.775276  -1.19  -1.76
iter:   3 12:56:33  -323.757411  -1.80  -1.84
iter:   4 12:56:40  -323.746729c -1.79  -2.20
Writing to output.gpw (mode='')

iter:   5 12:56:47  -323.757674c -2.05  -2.36
iter:   6 12:56:57  -323.758233c -2.13  -2.20
iter:   7 12:57:05  -323.742668c -2.03  -2.18
iter:   8 12:57:12  -323.742398c -2.25  -2.70
iter:   9 12:57:19  -323.742802c -2.84  -2.63
Writing to output.gpw (mode='')

iter:  10 12:57:27  -323.742459c -3.16  -2.92
iter:  11 12:57:34  -323.742485c -3.12  -2.99
iter:  12 12:57:41  -323.742742c -3.62  -3.08
iter:  13 12:57:49  -323.742502c -3.70  -3.15
iter:  14 12:57:56  -323.742546c -3.86  -3.18
Writing to output.gpw (mode='')

iter:  15 12:58:03  -323.742646c -4.09  -3.43
iter:  16 12:58:11  -323.742625c -4.13  -3.49
iter:  17 12:58:18  -323.742590c -4.21  -3.68
iter:  18 12:58:25  -323.742617c -4.36  -3.69
iter:  19 12:58:32  -323.742621c -4.50  -3.75
Writing to output.gpw (mode='')

iter:  20 12:58:40  -323.742640c -4.70  -3.85
iter:  21 12:58:47  -323.742624c -4.80  -3.90
iter:  22 12:58:54  -323.742660c -5.02  -3.89
iter:  23 12:59:02  -323.742650c -5.06  -3.97
iter:  24 12:59:09  -323.742646c -5.50  -4.20c
Writing to output.gpw (mode='')

iter:  25 12:59:16  -323.742659c -5.31  -4.28c
iter:  26 12:59:24  -323.742651c -5.18  -4.33c
iter:  27 12:59:31  -323.742649c -5.47  -4.67c
iter:  28 12:59:38  -323.742655c -5.56  -4.72c
iter:  29 12:59:52  -323.742654c -5.70  -4.69c
Writing to output.gpw (mode='')

iter:  30 12:59:59  -323.742655c -5.64  -4.95c
iter:  31 13:00:06  -323.742655c -5.94  -4.96c
iter:  32 13:00:14  -323.742654c -6.09  -4.88c
iter:  33 13:00:21  -323.742654c -5.97  -4.89c
iter:  34 13:00:29  -323.742654c -6.23  -4.98c
Writing to output.gpw (mode='')

iter:  35 13:00:36  -323.742654c -6.52  -4.98c
iter:  36 13:00:43  -323.742656c -6.51  -4.98c
iter:  37 13:00:50  -323.742654c -6.64  -4.94c
iter:  38 13:00:58  -323.742655c -6.61  -4.89c
iter:  39 13:01:05  -323.742656c -6.92  -4.96c
Writing to output.gpw (mode='')

iter:  40 13:01:12  -323.742655c -6.90  -4.96c
iter:  41 13:01:20  -323.742659c -6.95  -4.96c
iter:  42 13:01:27  -323.742659c -7.11  -4.93c
iter:  43 13:01:34  -323.742658c -6.97  -4.99c
iter:  44 13:01:41  -323.742658c -7.07  -4.99c
Writing to output.gpw (mode='')

iter:  45 13:01:49  -323.742656c -7.18  -4.99c
iter:  46 13:01:56  -323.742661c -7.32  -4.91c
iter:  47 13:02:03  -323.742661c -7.14  -5.10c
iter:  48 13:02:11  -323.742660c -7.54c -5.14c

Converged after 48 iterations.

Dipole moment: (4.271438, -3.289635, -0.068858) |e|*Ang

Energy contributions relative to reference atoms: (reference = -16475.706344)

Kinetic:       +179.857162
Potential:     -167.811031
External:        +0.000000
XC:            -336.819134
Entropy (-ST):   -0.164552
Local:           +1.112619
--------------------------
Free energy:   -323.824936
Extrapolated:  -323.742660

Dipole-layer corrected work functions: 3.386046, 3.518415 eV

Showing only first 2 kpts
 Kpt  Band  Eigenvalues  Occupancy
  0    34     -3.69995    1.98599
  0    35     -3.53520    1.68031
  0    36     -3.36687    0.30705
  0    37     -3.21349    0.01674

  1    34     -3.52928    1.64722
  1    35     -3.45793    1.05690
  1    36     -3.39135    0.45669
  1    37     -3.32768    0.15297


Fermi level: -3.45223

Gap: 0.024 eV
Transition (v -> c):
  (s=0, k=1, n=35, [0.12, -0.12, 0.00]) -> (s=0, k=4, n=36, [0.38, -0.38, 0.00])
Writing to output.gpw (mode='')


Forces in eV/Ang:
  0 Li    0.02359    0.00066   -0.28218
  1 Li   -0.01446   -0.00009   -0.27120
  2 Li   -0.01179    0.00027   -0.28120
  3 Li   -0.00613    0.01513   -0.27825
  4 Li   -0.00052   -0.00304   -0.27489
  5 Li    0.00886    0.02516   -0.27352
  6 Li   -0.00551   -0.01590   -0.27796
  7 Li   -0.00041    0.00320   -0.27347
  8 Li    0.00823   -0.02572   -0.27550
  9 Li   -0.00189    0.01169    0.32936
 10 Li    0.01467    0.00188    0.24807
 11 Li   -0.00770    0.00659    0.29002
 12 Li   -0.00215   -0.01081    0.32709
 13 Li    0.01502   -0.00131    0.24950
 14 Li   -0.00782   -0.00671    0.28954
 15 Li   -0.00965   -0.00048    0.23190
 16 Li   -0.01069   -0.00043    0.26513
 17 Li    0.01665    0.00002    0.24774
 18 Li    0.05536   -0.00059   -0.10064
 19 Li   -0.00802   -0.00062    0.05181
 20 Li   -0.01732    0.00185   -0.14970
 21 Li   -0.02640   -0.03345    0.06275
 22 Li    0.01363    0.00622    0.03244
 23 Li    0.00909   -0.01858    0.04905
 24 Li   -0.02405    0.03446    0.05613
 25 Li    0.01080   -0.00540    0.03713
 26 Li    0.00948    0.01728    0.03914
 27 Li   -0.03562   -0.12608    0.01968
 28 Li    0.05505   -0.03674   -0.05335
 29 Li   -0.01258   -0.02271    0.05225
 30 Li   -0.03542    0.12262   -0.02583
 31 Li    0.04932    0.04167   -0.05082
 32 Li   -0.01489    0.02629    0.03774
 33 Li   -0.00085   -0.00687   -0.03076
 34 Li   -0.02427   -0.00436   -0.00479
 35 Li    0.02915   -0.00460   -0.01553
 36 O     2.55356   -0.70819    5.91629
 37 O    -0.08859    0.07305    0.02304
 38 C    -0.07699    0.42273    0.71481
 39 C     0.02969    0.15825    0.34003
 40 H     0.11336   -0.12802   -0.11392
 41 H     0.08683   -0.07385   -0.00210
 42 H    -0.01367    0.16927    0.24245
 43 H    -0.07575    0.04975    0.01369
 44 H     0.69894    0.13033    1.00445
 45 H     0.05301    0.03749    0.03072
 46 N     0.44392   -0.06742   -4.24005
 47 N    -3.85849   -0.05155   -3.91562

System changes: positions 

Initializing position-dependent things.

Density initialized from wave functions
       .-----------------------.  
      /|                       |  
     / |                       |  
    /  |                       |  
   /   |                       |  
  /    |                       |  
 *     |                       |  
 |     |                       |  
 |     |                       |  
 |     |                       |  
 |     |                   H   |  
 | C  H|                 O     |  
 |     |                 H     |  
 |     |       Li      Hi CH   Li 
 |O    |                       |  
 |  H  |     Li      Li      Li|  
 |     |                       |  
 |     |  LLi     LLi  N  NLi  |  
 |     |                       |  
 |     |Li      Li      Li     |  
 |   Li|     Li      Li        |  
 |    Li  Li  Li  Li  Li  Li   |  
 | Li  |   Li      Li          |  
 |     |Li      Li      Li     |  
 Li    | Li      Li            |  
 |    Li      Li      Li       |  
 |     |                       |  
 |     |                       |  
 |     |                       |  
 |     |                       |  
 |     |                       |  
 |     |                       |  
 |     .-----------------------.  
 |    /                       /   
 |   /                       /    
 |  /                       /     
 | /                       /      
 |/                       /       
 *-----------------------*        

Positions:
   0 Li     1.617037    1.617037   10.000000    ( 0.0000,  0.0000,  0.0000)
   1 Li     4.851111    1.617037   10.000000    ( 0.0000,  0.0000,  0.0000)
   2 Li     8.085185    1.617037   10.000000    ( 0.0000,  0.0000,  0.0000)
   3 Li     1.617037    4.851111   10.000000    ( 0.0000,  0.0000,  0.0000)
   4 Li     4.851111    4.851111   10.000000    ( 0.0000,  0.0000,  0.0000)
   5 Li     8.085185    4.851111   10.000000    ( 0.0000,  0.0000,  0.0000)
   6 Li     1.617037    8.085185   10.000000    ( 0.0000,  0.0000,  0.0000)
   7 Li     4.851111    8.085185   10.000000    ( 0.0000,  0.0000,  0.0000)
   8 Li     8.085185    8.085185   10.000000    ( 0.0000,  0.0000,  0.0000)
   9 Li     0.000000    0.000000   11.617037    ( 0.0000,  0.0000,  0.0000)
  10 Li     3.234074    0.000000   11.617037    ( 0.0000,  0.0000,  0.0000)
  11 Li     6.468148    0.000000   11.617037    ( 0.0000,  0.0000,  0.0000)
  12 Li     0.000000    3.234074   11.617037    ( 0.0000,  0.0000,  0.0000)
  13 Li     3.234074    3.234074   11.617037    ( 0.0000,  0.0000,  0.0000)
  14 Li     6.468148    3.234074   11.617037    ( 0.0000,  0.0000,  0.0000)
  15 Li     0.000000    6.468148   11.617037    ( 0.0000,  0.0000,  0.0000)
  16 Li     3.234074    6.468148   11.617037    ( 0.0000,  0.0000,  0.0000)
  17 Li     6.468148    6.468148   11.617037    ( 0.0000,  0.0000,  0.0000)
  18 Li     1.619023    1.617008   13.466122    ( 0.0000,  0.0000,  0.0000)
  19 Li     4.850813    1.617020   13.471571    ( 0.0000,  0.0000,  0.0000)
  20 Li     8.084549    1.617106   13.464292    ( 0.0000,  0.0000,  0.0000)
  21 Li     1.616097    4.849936   13.471946    ( 0.0000,  0.0000,  0.0000)
  22 Li     4.851598    4.851334   13.470890    ( 0.0000,  0.0000,  0.0000)
  23 Li     8.085513    4.850455   13.471441    ( 0.0000,  0.0000,  0.0000)
  24 Li     1.616181    8.086404   13.471706    ( 0.0000,  0.0000,  0.0000)
  25 Li     4.851502    8.084988   13.471036    ( 0.0000,  0.0000,  0.0000)
  26 Li     8.085523    8.085796   13.471100    ( 0.0000,  0.0000,  0.0000)
  27 Li    -0.001329   -0.004023   15.447445    ( 0.0000,  0.0000,  0.0000)
  28 Li     3.235996   -0.001329   15.444039    ( 0.0000,  0.0000,  0.0000)
  29 Li     6.467769   -0.000792   15.447939    ( 0.0000,  0.0000,  0.0000)
  30 Li    -0.001365    3.238033   15.445750    ( 0.0000,  0.0000,  0.0000)
  31 Li     3.235836    3.235577   15.444097    ( 0.0000,  0.0000,  0.0000)
  32 Li     6.467690    3.234981   15.447416    ( 0.0000,  0.0000,  0.0000)
  33 Li    -0.000006    6.467910   15.444793    ( 0.0000,  0.0000,  0.0000)
  34 Li     3.233229    6.467988   15.445754    ( 0.0000,  0.0000,  0.0000)
  35 Li     6.469137    6.467991   15.445359    ( 0.0000,  0.0000,  0.0000)
  36 O      0.066778    1.591936   18.627948    ( 0.0000,  0.0000,  0.0000)
  37 O     -0.235725    1.663632   21.344409    ( 0.0000,  0.0000,  0.0000)
  38 C     -0.406911    2.796678   19.200764    ( 0.0000,  0.0000,  0.0000)
  39 C      0.154749    2.813092   20.598988    ( 0.0000,  0.0000,  0.0000)
  40 H     -0.115679    3.699904   18.641798    ( 0.0000,  0.0000,  0.0000)
  41 H     -1.501158    2.737911   19.206871    ( 0.0000,  0.0000,  0.0000)
  42 H     -0.219263    3.681062   21.129027    ( 0.0000,  0.0000,  0.0000)
  43 H      1.253442    2.878796   20.533584    ( 0.0000,  0.0000,  0.0000)
  44 H      0.970704    1.699138   18.308494    ( 0.0000,  0.0000,  0.0000)
  45 H     -0.134423    0.894687   20.765337    ( 0.0000,  0.0000,  0.0000)
  46 N     -0.031551    1.612771   16.800667    ( 0.0000,  0.0000,  0.0000)
  47 N     -1.164790    1.616244   16.832896    ( 0.0000,  0.0000,  0.0000)

Unit cell:
           periodic     x           y           z      points  spacing
  1. axis:    yes    9.702222    0.000000    0.000000    60     0.1617
  2. axis:    yes    0.000000    9.702222    0.000000    60     0.1617
  3. axis:    no     0.000000    0.000000   26.351111   164     0.1607

  Lengths:   9.702222   9.702222  26.351111
  Angles:   90.000000  90.000000  90.000000

Effective grid spacing dv^(1/3) = 0.1614

     iter     time        total  log10-change:
                         energy  eigst   dens
iter:   1 13:02:20  -324.279189  -0.90
iter:   2 13:02:27  -324.267234  -1.38  -1.87
iter:   3 13:02:34  -324.256802c -1.93  -1.95
iter:   4 13:02:42  -324.251903c -2.01  -2.34
Writing to output.gpw (mode='')

iter:   5 13:02:49  -324.250373c -2.13  -2.44
iter:   6 13:02:56  -324.250655c -2.35  -2.38
iter:   7 13:03:04  -324.247258c -2.55  -2.48
iter:   8 13:03:11  -324.247387c -2.76  -2.84
iter:   9 13:03:19  -324.247521c -3.19  -2.98
Writing to output.gpw (mode='')

iter:  10 13:03:26  -324.247937c -3.22  -3.03
iter:  11 13:03:33  -324.247306c -3.42  -3.05
iter:  12 13:03:41  -324.247567c -3.62  -3.05
iter:  13 13:03:48  -324.247589c -4.08  -3.29
iter:  14 13:03:55  -324.247517c -3.93  -3.34
Writing to output.gpw (mode='')

iter:  15 13:04:02  -324.247552c -4.38  -3.61
iter:  16 13:04:10  -324.247556c -4.56  -3.68
iter:  17 13:04:17  -324.247577c -4.45  -3.72
iter:  18 13:04:24  -324.247582c -4.80  -3.94
iter:  19 13:04:32  -324.247592c -4.81  -3.95
Writing to output.gpw (mode='')

iter:  20 13:04:39  -324.247581c -5.02  -4.01c
iter:  21 13:04:53  -324.247597c -5.16  -4.12c
iter:  22 13:05:00  -324.247595c -5.12  -4.28c
iter:  23 13:05:07  -324.247590c -5.32  -4.31c
iter:  24 13:05:15  -324.247594c -5.43  -4.48c
Writing to output.gpw (mode='')

iter:  25 13:05:22  -324.247596c -5.85  -4.42c
iter:  26 13:05:29  -324.247597c -5.69  -4.47c
iter:  27 13:05:37  -324.247598c -5.85  -4.58c
iter:  28 13:05:44  -324.247599c -5.94  -4.66c
iter:  29 13:05:51  -324.247601c -5.92  -4.82c
Writing to output.gpw (mode='')

iter:  30 13:05:59  -324.247598c -6.13  -4.81c
iter:  31 13:06:06  -324.247600c -6.47  -4.83c
iter:  32 13:06:14  -324.247601c -6.55  -4.89c
iter:  33 13:06:21  -324.247604c -6.58  -4.94c
iter:  34 13:06:29  -324.247601c -6.50  -5.17c
Writing to output.gpw (mode='')

iter:  35 13:06:36  -324.247601c -6.71  -5.21c
iter:  36 13:06:43  -324.247602c -6.41  -5.30c
iter:  37 13:06:51  -324.247602c -6.89  -5.46c
iter:  38 13:06:58  -324.247602c -7.07  -5.46c
iter:  39 13:07:05  -324.247602c -6.86  -5.46c
Writing to output.gpw (mode='')

iter:  40 13:07:13  -324.247602c -6.93  -5.27c
iter:  41 13:07:20  -324.247602c -7.19  -5.33c
iter:  42 13:07:27  -324.247601c -7.18  -5.44c
iter:  43 13:07:35  -324.247603c -7.20  -5.22c
iter:  44 13:07:42  -324.247603c -7.64c -5.50c

Converged after 44 iterations.

Dipole moment: (4.653493, -3.176924, -0.126425) |e|*Ang

Energy contributions relative to reference atoms: (reference = -16475.706344)

Kinetic:       +177.879737
Potential:     -166.517095
External:        +0.000000
XC:            -336.642539
Entropy (-ST):   -0.165834
Local:           +1.115211
--------------------------
Free energy:   -324.330520
Extrapolated:  -324.247603

Dipole-layer corrected work functions: 3.388366, 3.631399 eV

Showing only first 2 kpts
 Kpt  Band  Eigenvalues  Occupancy
  0    34     -3.75738    1.98593
  0    35     -3.58865    1.65707
  0    36     -3.42614    0.31554
  0    37     -3.26945    0.01619

  1    34     -3.58860    1.65678
  1    35     -3.51265    1.02763
  1    36     -3.44942    0.45969
  1    37     -3.38456    0.15082


Fermi level: -3.50988

Gap: 0.022 eV
Transition (v -> c):
  (s=0, k=1, n=35, [0.12, -0.12, 0.00]) -> (s=0, k=4, n=36, [0.38, -0.38, 0.00])
Writing to output.gpw (mode='')


Forces in eV/Ang:
  0 Li    0.02251    0.00069   -0.28282
  1 Li   -0.01444   -0.00015   -0.27016
  2 Li   -0.01171    0.00022   -0.28151
  3 Li   -0.00569    0.01535   -0.27858
  4 Li   -0.00013   -0.00246   -0.27527
  5 Li    0.00917    0.02506   -0.27414
  6 Li   -0.00504   -0.01601   -0.27821
  7 Li   -0.00003    0.00268   -0.27392
  8 Li    0.00843   -0.02560   -0.27594
  9 Li   -0.00122    0.01206    0.32961
 10 Li    0.01640    0.00135    0.24866
 11 Li   -0.00827    0.00625    0.28865
 12 Li   -0.00162   -0.01122    0.32779
 13 Li    0.01642   -0.00062    0.24990
 14 Li   -0.00822   -0.00642    0.28844
 15 Li   -0.01003   -0.00048    0.23181
 16 Li   -0.01211   -0.00064    0.26404
 17 Li    0.01641    0.00022    0.24852
 18 Li    0.05490   -0.00062   -0.09851
 19 Li   -0.00617   -0.00056    0.05148
 20 Li   -0.01965    0.00129   -0.14911
 21 Li   -0.02615   -0.03189    0.06048
 22 Li    0.01256    0.00654    0.03212
 23 Li    0.00870   -0.01860    0.04764
 24 Li   -0.02401    0.03266    0.05401
 25 Li    0.00958   -0.00598    0.03639
 26 Li    0.00906    0.01791    0.03853
 27 Li   -0.03368   -0.15359   -0.00126
 28 Li    0.05337   -0.03799   -0.05264
 29 Li   -0.01476   -0.02203    0.05115
 30 Li   -0.03118    0.14762   -0.04306
 31 Li    0.04881    0.04299   -0.05131
 32 Li   -0.01630    0.02443    0.03787
 33 Li   -0.00008   -0.00694   -0.03126
 34 Li   -0.02290   -0.00412   -0.00518
 35 Li    0.02811   -0.00454   -0.01518
 36 O     2.07382   -0.70366    4.64122
 37 O    -0.09346    0.08105    0.07726
 38 C    -0.07522    0.29907    0.59955
 39 C     0.02949    0.15850    0.34843
 40 H     0.12052   -0.18561   -0.07974
 41 H     0.12233   -0.07269    0.02208
 42 H    -0.02247    0.21259    0.31414
 43 H    -0.07063    0.06759    0.04807
 44 H     0.49900    0.11700    0.83052
 45 H     0.06360    0.09666    0.01790
 46 N     0.46915   -0.05932   -3.61137
 47 N    -3.16468   -0.01957   -3.16887

System changes: positions 

Initializing position-dependent things.

Density initialized from wave functions
       .-----------------------.  
      /|                       |  
     / |                       |  
    /  |                       |  
   /   |                       |  
  /    |                       |  
 *     |                       |  
 |     |                       |  
 |     |                       |  
 |     |                       |  
 |     |                   H   |  
 | C  H|                 O     |  
 |     |                 H     |  
 |     |       Li      Hi CH   Li 
 |O    |                       |  
 |  HLi|     Li      Li        |  
 |     |                       |  
 |     |  LLi     LLi  N  NLi  |  
 |     |                       |  
 |     |Li      Li      Li     |  
 |   Li|     Li      Li        |  
 |    Li  Li  Li  Li  Li  Li   |  
 | Li  |   Li      Li          |  
 |     |Li      Li      Li     |  
 Li    | Li      Li            |  
 |    Li      Li      Li       |  
 |     |                       |  
 |     |                       |  
 |     |                       |  
 |     |                       |  
 |     |                       |  
 |     |                       |  
 |     .-----------------------.  
 |    /                       /   
 |   /                       /    
 |  /                       /     
 | /                       /      
 |/                       /       
 *-----------------------*        

Positions:
   0 Li     1.617037    1.617037   10.000000    ( 0.0000,  0.0000,  0.0000)
   1 Li     4.851111    1.617037   10.000000    ( 0.0000,  0.0000,  0.0000)
   2 Li     8.085185    1.617037   10.000000    ( 0.0000,  0.0000,  0.0000)
   3 Li     1.617037    4.851111   10.000000    ( 0.0000,  0.0000,  0.0000)
   4 Li     4.851111    4.851111   10.000000    ( 0.0000,  0.0000,  0.0000)
   5 Li     8.085185    4.851111   10.000000    ( 0.0000,  0.0000,  0.0000)
   6 Li     1.617037    8.085185   10.000000    ( 0.0000,  0.0000,  0.0000)
   7 Li     4.851111    8.085185   10.000000    ( 0.0000,  0.0000,  0.0000)
   8 Li     8.085185    8.085185   10.000000    ( 0.0000,  0.0000,  0.0000)
   9 Li     0.000000    0.000000   11.617037    ( 0.0000,  0.0000,  0.0000)
  10 Li     3.234074    0.000000   11.617037    ( 0.0000,  0.0000,  0.0000)
  11 Li     6.468148    0.000000   11.617037    ( 0.0000,  0.0000,  0.0000)
  12 Li     0.000000    3.234074   11.617037    ( 0.0000,  0.0000,  0.0000)
  13 Li     3.234074    3.234074   11.617037    ( 0.0000,  0.0000,  0.0000)
[...]
iter:  21 18:50:57  -328.178293c -7.37  -5.04c
iter:  22 18:51:04  -328.178292c -7.45c -5.08c

Converged after 22 iterations.

Dipole moment: (-2.446352, -3.170469, -0.200342) |e|*Ang

Energy contributions relative to reference atoms: (reference = -16475.706344)

Kinetic:       +159.069281
Potential:     -151.556294
External:        +0.000000
XC:            -336.758085
Entropy (-ST):   -0.162149
Local:           +1.147881
--------------------------
Free energy:   -328.259366
Extrapolated:  -328.178292

Dipole-layer corrected work functions: 3.396846, 3.781972 eV

Showing only first 2 kpts
 Kpt  Band  Eigenvalues  Occupancy
  0    34     -3.78797    1.96300
  0    35     -3.60186    1.12386
  0    36     -3.57313    0.83861
  0    37     -3.48541    0.22211

  1    34     -3.90652    1.99649
  1    35     -3.53853    0.53101
  1    36     -3.49073    0.24399
  1    37     -3.46565    0.15524


Fermi level: -3.58941

No gap
Writing to output.gpw (mode='')


Forces in eV/Ang:
  0 Li   -0.01230   -0.01018   -0.29265
  1 Li    0.00191    0.00952   -0.29309
  2 Li   -0.00273   -0.00120   -0.24682
  3 Li    0.00991    0.01245   -0.28697
  4 Li   -0.01243    0.00728   -0.29084
  5 Li   -0.01124   -0.01002   -0.29270
  6 Li    0.00183   -0.00587   -0.29238
  7 Li   -0.01906   -0.01525   -0.28201
  8 Li    0.00787    0.00705   -0.29164
  9 Li   -0.00262    0.03344    0.30300
 10 Li    0.04933    0.01569    0.27516
 11 Li    0.05431    0.03186    0.26262
 12 Li   -0.00647   -0.03150    0.24520
 13 Li    0.01613   -0.02101    0.28589
 14 Li    0.04163   -0.01399    0.31120
 15 Li    0.00069   -0.00091    0.29856
 16 Li    0.01659    0.00199    0.28759
 17 Li    0.04208    0.02371    0.28362
 18 Li   -0.02034    0.00398    0.02467
 19 Li   -0.01838   -0.00440   -0.00571
 20 Li    0.00869   -0.01984    0.01911
 21 Li   -0.00410    0.01685    0.01184
 22 Li    0.00595   -0.00809    0.00698
 23 Li   -0.01208    0.00253    0.00863
 24 Li   -0.01512   -0.00325    0.00487
 25 Li   -0.01454    0.00359   -0.00197
 26 Li   -0.01181    0.00023    0.01082
 27 Li   -0.02037   -0.03326    0.01104
 28 Li   -0.01074   -0.00041   -0.00380
 29 Li   -0.00081    0.03111   -0.01104
 30 Li   -0.03884   -0.01405   -0.00281
 31 Li   -0.00269   -0.00658   -0.00000
 32 Li   -0.00940    0.00348    0.01661
 33 Li    0.00482   -0.00382    0.01908
 34 Li    0.00475    0.00178    0.00015
 35 Li    0.00437   -0.00794   -0.00874
 36 O     0.01185   -0.01025    0.01843
 37 O     0.00573   -0.03463   -0.01283
 38 C     0.00746    0.01097   -0.01262
 39 C    -0.01635    0.01574    0.00268
 40 H     0.01206    0.03162   -0.01353
 41 H     0.02620   -0.01797   -0.00886
 42 H    -0.01053    0.04761   -0.00303
 43 H    -0.01683   -0.01695   -0.02854
 44 H    -0.00307    0.02284    0.01193
 45 H     0.00247   -0.04266   -0.01411
 46 N     0.01901   -0.00646   -0.01419
 47 N    -0.09224    0.01828    0.02607

System changes: positions 

Initializing position-dependent things.

Density initialized from wave functions
       .-----------------------.  
      /|                       |  
     / |                       |  
    /  |                       |  
   /   |                       |  
  /    |                       |  
 *     |                       |  
 |     |                       |  
 |     |                       |  
 |     |                       |  
 |     |                   H   |  
 | C  H|                 O     |  
 |     |                  H    |  
 |     |Li      Li     H  CH   |  
 |O  H |                       |  
 |   Li|     Li      Li        |  
 |     |                       |  
 |     |  LLi     LLi     LLi  |  
 |     |             N N       |  
 |     |Li      LiLi    Li     |  
 |   Li|     Li      Li        |  
 |    Li  Li  Li  Li  Li  Li   |  
 | Li  |   Li      Li          |  
 |     |Li      Li      Li     |  
 Li    | Li      Li            |  
 |    Li      Li      Li       |  
 |     |                       |  
 |     |                       |  
 |     |                       |  
 |     |                       |  
 |     |                       |  
 |     |                       |  
 |     .-----------------------.  
 |    /                       /   
 |   /                       /    
 |  /                       /     
 | /                       /      
 |/                       /       
 *-----------------------*        

Positions:
   0 Li     1.617037    1.617037   10.000000    ( 0.0000,  0.0000,  0.0000)
   1 Li     4.851111    1.617037   10.000000    ( 0.0000,  0.0000,  0.0000)
   2 Li     8.085185    1.617037   10.000000    ( 0.0000,  0.0000,  0.0000)
   3 Li     1.617037    4.851111   10.000000    ( 0.0000,  0.0000,  0.0000)
   4 Li     4.851111    4.851111   10.000000    ( 0.0000,  0.0000,  0.0000)
   5 Li     8.085185    4.851111   10.000000    ( 0.0000,  0.0000,  0.0000)
   6 Li     1.617037    8.085185   10.000000    ( 0.0000,  0.0000,  0.0000)
   7 Li     4.851111    8.085185   10.000000    ( 0.0000,  0.0000,  0.0000)
   8 Li     8.085185    8.085185   10.000000    ( 0.0000,  0.0000,  0.0000)
   9 Li     0.000000    0.000000   11.617037    ( 0.0000,  0.0000,  0.0000)
  10 Li     3.234074    0.000000   11.617037    ( 0.0000,  0.0000,  0.0000)
  11 Li     6.468148    0.000000   11.617037    ( 0.0000,  0.0000,  0.0000)
  12 Li     0.000000    3.234074   11.617037    ( 0.0000,  0.0000,  0.0000)
  13 Li     3.234074    3.234074   11.617037    ( 0.0000,  0.0000,  0.0000)
  14 Li     6.468148    3.234074   11.617037    ( 0.0000,  0.0000,  0.0000)
  15 Li     0.000000    6.468148   11.617037    ( 0.0000,  0.0000,  0.0000)
  16 Li     3.234074    6.468148   11.617037    ( 0.0000,  0.0000,  0.0000)
  17 Li     6.468148    6.468148   11.617037    ( 0.0000,  0.0000,  0.0000)
  18 Li     1.660044    1.563489   13.498310    ( 0.0000,  0.0000,  0.0000)
  19 Li     4.918842    1.661179   13.501988    ( 0.0000,  0.0000,  0.0000)
  20 Li     8.127719    1.644956   13.541962    ( 0.0000,  0.0000,  0.0000)
  21 Li     1.575368    4.774900   13.484995    ( 0.0000,  0.0000,  0.0000)
  22 Li     4.832845    4.900898   13.484001    ( 0.0000,  0.0000,  0.0000)
  23 Li     8.062474    4.845713   13.491015    ( 0.0000,  0.0000,  0.0000)
  24 Li     1.694002    8.059302   13.486610    ( 0.0000,  0.0000,  0.0000)
  25 Li     4.949949    8.148136   13.494912    ( 0.0000,  0.0000,  0.0000)
  26 Li     8.163320    8.122238   13.516090    ( 0.0000,  0.0000,  0.0000)
  27 Li     0.247519   -0.089221   15.557638    ( 0.0000,  0.0000,  0.0000)
  28 Li     3.482899   -0.038550   15.446467    ( 0.0000,  0.0000,  0.0000)
  29 Li     6.815615    0.251726   15.615906    ( 0.0000,  0.0000,  0.0000)
  30 Li    -0.132263    2.986880   15.590046    ( 0.0000,  0.0000,  0.0000)
  31 Li     3.165262    3.283168   15.416564    ( 0.0000,  0.0000,  0.0000)
  32 Li     6.430340    3.361994   15.468538    ( 0.0000,  0.0000,  0.0000)
  33 Li     0.048369    6.333438   15.399882    ( 0.0000,  0.0000,  0.0000)
  34 Li     3.216626    6.469126   15.447952    ( 0.0000,  0.0000,  0.0000)
  35 Li     6.416306    6.626502   15.450607    ( 0.0000,  0.0000,  0.0000)
  36 O      0.236988    1.477187   18.774634    ( 0.0000,  0.0000,  0.0000)
  37 O     -0.289202    1.802315   21.654010    ( 0.0000,  0.0000,  0.0000)
  38 C     -0.301735    2.679362   19.360491    ( 0.0000,  0.0000,  0.0000)
  39 C      0.140053    2.864816   20.806162    ( 0.0000,  0.0000,  0.0000)
  40 H     -0.014583    3.562162   18.771554    ( 0.0000,  0.0000,  0.0000)
  41 H     -1.387787    2.563666   19.317445    ( 0.0000,  0.0000,  0.0000)
  42 H     -0.307652    3.775722   21.210261    ( 0.0000,  0.0000,  0.0000)
  43 H      1.234432    2.978846   20.850055    ( 0.0000,  0.0000,  0.0000)
  44 H      1.178243    1.617224   18.597139    ( 0.0000,  0.0000,  0.0000)
  45 H     -0.010263    0.977736   21.235477    ( 0.0000,  0.0000,  0.0000)
  46 N     -1.075188    1.185049   15.555375    ( 0.0000,  0.0000,  0.0000)
  47 N     -1.960968    2.072751   15.573424    ( 0.0000,  0.0000,  0.0000)

Unit cell:
           periodic     x           y           z      points  spacing
  1. axis:    yes    9.702222    0.000000    0.000000    60     0.1617
  2. axis:    yes    0.000000    9.702222    0.000000    60     0.1617
  3. axis:    no     0.000000    0.000000   26.351111   164     0.1607

  Lengths:   9.702222   9.702222  26.351111
  Angles:   90.000000  90.000000  90.000000

Effective grid spacing dv^(1/3) = 0.1614

     iter     time        total  log10-change:
                         energy  eigst   dens
iter:   1 18:51:13  -328.180198  -2.48
iter:   2 18:51:20  -328.179658  -3.19  -2.72
iter:   3 18:51:28  -328.179383c -3.37  -2.93
iter:   4 18:51:35  -328.179405c -3.90  -3.14
Writing to output.gpw (mode='')

iter:   5 18:51:42  -328.179332c -3.79  -3.26
iter:   6 18:51:49  -328.179335c -3.92  -3.34
iter:   7 18:51:59  -328.179331c -4.53  -3.41
iter:   8 18:52:07  -328.179336c -4.85  -3.62
iter:   9 18:52:14  -328.179335c -5.12  -3.67
Writing to output.gpw (mode='')

iter:  10 18:52:21  -328.179325c -4.88  -3.77
iter:  11 18:52:29  -328.179323c -5.63  -3.91
iter:  12 18:52:36  -328.179320c -5.75  -4.12c
iter:  13 18:52:43  -328.179323c -5.86  -4.32c
iter:  14 18:52:51  -328.179322c -6.06  -4.29c
Writing to output.gpw (mode='')

iter:  15 18:52:58  -328.179323c -6.23  -4.37c
iter:  16 18:53:06  -328.179323c -6.46  -4.47c
iter:  17 18:53:13  -328.179326c -6.66  -4.56c
iter:  18 18:53:21  -328.179326c -7.10  -4.72c
iter:  19 18:53:28  -328.179325c -7.08  -4.79c
Writing to output.gpw (mode='')

iter:  20 18:53:35  -328.179324c -7.17  -4.91c
iter:  21 18:53:43  -328.179324c -7.28  -5.06c
iter:  22 18:53:50  -328.179324c -7.59c -5.09c

Converged after 22 iterations.

Dipole moment: (-2.490392, -3.118705, -0.202272) |e|*Ang

Energy contributions relative to reference atoms: (reference = -16475.706344)

Kinetic:       +158.798695
Potential:     -151.345119
External:        +0.000000
XC:            -336.699719
Entropy (-ST):   -0.162143
Local:           +1.147891
--------------------------
Free energy:   -328.260396
Extrapolated:  -328.179324

Dipole-layer corrected work functions: 3.396980, 3.785817 eV

Showing only first 2 kpts
 Kpt  Band  Eigenvalues  Occupancy
  0    34     -3.78938    1.96257
  0    35     -3.60399    1.12525
  0    36     -3.57496    0.83708
  0    37     -3.48803    0.22462

  1    34     -3.90950    1.99655
  1    35     -3.54058    0.53149
  1    36     -3.49259    0.24345
  1    37     -3.46785    0.15583


Fermi level: -3.59140

No gap
Writing to output.gpw (mode='')


Forces in eV/Ang:
  0 Li   -0.01230   -0.01032   -0.29273
  1 Li    0.00204    0.00958   -0.29340
  2 Li   -0.00260   -0.00120   -0.24684
  3 Li    0.01001    0.01264   -0.28722
  4 Li   -0.01230    0.00727   -0.29073
  5 Li   -0.01130   -0.00999   -0.29275
  6 Li    0.00197   -0.00610   -0.29252
  7 Li   -0.01901   -0.01524   -0.28210
  8 Li    0.00800    0.00708   -0.29165
  9 Li   -0.00277    0.03329    0.30312
 10 Li    0.04732    0.01631    0.27637
 11 Li    0.05382    0.03182    0.26299
 12 Li   -0.00624   -0.03105    0.24609
 13 Li    0.01481   -0.02093    0.28722
 14 Li    0.04148   -0.01492    0.31168
 15 Li   -0.00018   -0.00092    0.29902
 16 Li    0.01669    0.00175    0.28781
 17 Li    0.04161    0.02362    0.28372
 18 Li   -0.01883    0.00317    0.02142
 19 Li   -0.01587   -0.00349   -0.00504
 20 Li    0.00629   -0.01696    0.01768
 21 Li   -0.00394    0.01483    0.01025
 22 Li    0.00423   -0.00675    0.00546
 23 Li   -0.01079    0.00270    0.00779
 24 Li   -0.01373   -0.00345    0.00412
 25 Li   -0.01314    0.00310   -0.00224
 26 Li   -0.01070   -0.00075    0.00927
 27 Li   -0.02440   -0.02220    0.01192
 28 Li   -0.01044   -0.00091   -0.00307
 29 Li   -0.00067    0.02429   -0.00810
 30 Li   -0.03620   -0.00591    0.00024
 31 Li   -0.00351   -0.00521    0.00029
 32 Li   -0.00270   -0.00785    0.01792
 33 Li    0.00412   -0.00467    0.01907
 34 Li    0.00511    0.00158    0.00038
 35 Li    0.00356   -0.00545   -0.00831
 36 O     0.01039    0.01108    0.01842
 37 O    -0.00429   -0.02638   -0.02872
 38 C     0.02394    0.00265    0.00457
 39 C    -0.00479   -0.00729    0.00472
 40 H    -0.02097    0.00326    0.00172
 41 H     0.03356   -0.00356   -0.03474
 42 H    -0.00049    0.02809   -0.01266
 43 H    -0.00544    0.00361   -0.02103
 44 H    -0.01456    0.02463    0.01518
 45 H    -0.00033   -0.03162   -0.01220
 46 N    -0.03153    0.01898   -0.01422
 47 N    -0.03444   -0.00580    0.02463

Timing:                                      incl.     excl.
-------------------------------------------------------------------
Density initialized from wave functions:     5.236     5.234   0.0% |
 Symmetrize density:                         0.002     0.002   0.0% |
Forces:                                     35.383    35.383   0.2% |
Hamiltonian:                               502.454     0.012   0.0% |
 Atomic:                                     0.020     0.020   0.0% |
  XC Correction:                             0.000     0.000   0.0% |
 Calculate atomic Hamiltonians:              0.035     0.035   0.0% |
 Communicate:                                8.932     8.932   0.0% |
 Hartree integrate/restrict:                 1.704     1.704   0.0% |
 Initialize Hamiltonian:                     0.000     0.000   0.0% |
 Poisson:                                   23.385     8.558   0.0% |
  Communicate from 1D:                       2.299     2.299   0.0% |
  Communicate from 2D:                       2.333     2.333   0.0% |
  Communicate to 1D:                         1.289     1.289   0.0% |
  Communicate to 2D:                         2.602     2.602   0.0% |
  FFT 1D:                                    3.111     3.111   0.0% |
  FFT 2D:                                    3.192     3.192   0.0% |
 XC 3D grid:                               467.982    70.639   0.3% |
  VdW-DF integral:                         397.344     3.291   0.0% |
   Convolution:                             35.779    35.779   0.2% |
   FFT:                                     15.523    15.523   0.1% |
   gather:                                 136.567   136.567   0.6% |
   hmm1:                                    12.858    12.858   0.1% |
   hmm2:                                    16.937    16.937   0.1% |
   iFFT:                                    15.998    15.998   0.1% |
   potential:                              156.805     4.257   0.0% |
    collect:                                25.741    25.741   0.1% |
    p1:                                     69.285    69.285   0.3% |
    p2:                                     26.046    26.046   0.1% |
    sum:                                    31.476    31.476   0.1% |
   splines:                                  3.585     3.585   0.0% |
 vbar:                                       0.384     0.384   0.0% |
LCAO initialization:                         1.139     0.183   0.0% |
 LCAO eigensolver:                           0.196     0.000   0.0% |
  Calculate projections:                     0.000     0.000   0.0% |
  DenseAtomicCorrection:                     0.000     0.000   0.0% |
  Distribute overlap matrix:                 0.178     0.178   0.0% |
  Orbital Layouts:                           0.016     0.016   0.0% |
  Potential matrix:                          0.001     0.001   0.0% |
  Sum over cells:                            0.001     0.001   0.0% |
 LCAO to grid:                               0.614     0.614   0.0% |
 Set positions (LCAO WFS):                   0.146     0.061   0.0% |
  Basic WFS set positions:                   0.001     0.001   0.0% |
  Basis functions set positions:             0.000     0.000   0.0% |
  P tci:                                     0.000     0.000   0.0% |
  ST tci:                                    0.054     0.054   0.0% |
  mktci:                                     0.029     0.029   0.0% |
Redistribute:                                0.052     0.052   0.0% |
SCF-cycle:                               22818.611   370.367   1.6% ||
 Davidson:                                6148.986  1834.075   7.8% |--|
  Apply hamiltonian:                       387.787   387.787   1.7% ||
  Subspace diag:                          1142.497     0.357   0.0% |
   calc_h_matrix:                          566.634   177.712   0.8% |
    Apply hamiltonian:                     388.922   388.922   1.7% ||
   diagonalize:                             59.308    59.308   0.3% |
   rotate_psi:                             516.198   516.198   2.2% ||
  calc. matrices:                         1917.615   996.172   4.2% |-|
   Apply hamiltonian:                      921.443   921.443   3.9% |-|
  diagonalize:                              18.282    18.282   0.1% |
  rotate_psi:                              848.729   848.729   3.6% ||
 Density:                                  110.761     0.075   0.0% |
  Atomic density matrices:                  11.688    11.688   0.0% |
  Mix:                                      45.417    45.417   0.2% |
  Multipole moments:                         4.378     4.378   0.0% |
  Pseudo density:                           49.203    49.141   0.2% |
   Symmetrize density:                       0.062     0.062   0.0% |
 Hamiltonian:                            16171.479     0.389   0.0% |
  Atomic:                                    0.762     0.753   0.0% |
   XC Correction:                            0.008     0.008   0.0% |
  Calculate atomic Hamiltonians:             1.174     1.174   0.0% |
  Communicate:                             229.225   229.225   1.0% |
  Hartree integrate/restrict:               58.246    58.246   0.2% |
  Poisson:                                 779.186   285.701   1.2% |
   Communicate from 1D:                     76.808    76.808   0.3% |
   Communicate from 2D:                     79.131    79.131   0.3% |
   Communicate to 1D:                       43.425    43.425   0.2% |
   Communicate to 2D:                       89.656    89.656   0.4% |
   FFT 1D:                                 101.847   101.847   0.4% |
   FFT 2D:                                 102.616   102.616   0.4% |
  XC 3D grid:                            15089.534  2314.477   9.9% |---|
   VdW-DF integral:                      12775.057   108.300   0.5% |
    Convolution:                          1174.809  1174.809   5.0% |-|
    FFT:                                   510.111   510.111   2.2% ||
    gather:                               4421.304  4421.304  18.8% |-------|
    hmm1:                                  422.497   422.497   1.8% ||
    hmm2:                                  554.299   554.299   2.4% ||
    iFFT:                                  526.438   526.438   2.2% ||
    potential:                            5057.275   140.334   0.6% |
     collect:                              778.709   778.709   3.3% ||
     p1:                                  2276.969  2276.969   9.7% |---|
     p2:                                   852.985   852.985   3.6% ||
     sum:                                 1008.278  1008.278   4.3% |-|
    splines:                                 0.025     0.025   0.0% |
  vbar:                                     12.963    12.963   0.1% |
 Orthonormalize:                            17.017     0.012   0.0% |
  calc_s_matrix:                             2.461     2.461   0.0% |
  inverse-cholesky:                          5.124     5.124   0.0% |
  projections:                               0.002     0.002   0.0% |
  rotate_psi_s:                              9.418     9.418   0.0% |
Set symmetry:                                0.015     0.015   0.0% |
Other:                                      96.611    96.611   0.4% |
-------------------------------------------------------------------
Total:                                             23459.501 100.0%

Memory usage: 1.12 GiB
Date: Fri Mar 10 18:53:51 2023
