
  ___ ___ ___ _ _ _  
 |   |   |_  | | | | 
 | | | | | . | | | | 
 |__ |  _|___|_____|  22.8.0
 |___|_|             

User:   vazumah@c17.hercules
Date:   Wed Mar  8 10:02:01 2023
Arch:   x86_64
Pid:    8476
CWD:    /home/vazumah/Python_projects/LiNRR/Li_adsorb_studies/proton_donors/on_pure_surface/Li_BCC100/adsorbates/methanol_x/bridge/8.085_1.617
Python: 3.10.8
gpaw:   /home/vazumah/.conda/envs/GPAW/lib/python3.10/site-packages/gpaw
_gpaw:  /home/vazumah/.conda/envs/GPAW/lib/python3.10/site-packages/
        _gpaw.cpython-310-x86_64-linux-gnu.so
ase:    /home/vazumah/.conda/envs/GPAW/lib/python3.10/site-packages/ase (version 3.22.1)
numpy:  /home/vazumah/.conda/envs/GPAW/lib/python3.10/site-packages/numpy (version 1.24.1)
scipy:  /home/vazumah/.conda/envs/GPAW/lib/python3.10/site-packages/scipy (version 1.10.0)
libxc:  5.2.3
units:  Angstrom and eV
cores: 24
OpenMP: True
OMP_NUM_THREADS: 1

Input parameters:
  h: 0.16
  kpts: {size: [4, 4, 1]}
  occupations: {name: fermi-dirac,
                width: 0.05}
  poissonsolver: {dipolelayer: xy}
  xc: BEEF-vdW

System changes: positions, numbers, cell, pbc, initial_charges, initial_magmoms 

Initialize ...

species:
  Li:
    name: Lithium
    id: 830b4218f175192f93f959cfc0aad614
    Z: 3.0
    valence: 1
    core: 2
    charge: 0.0
    file: /home/vazumah/.conda/envs/GPAW/share/gpaw/Li.PBE.gz
    compensation charges: {type: gauss,
                           rc: 0.33,
                           lmax: 2}
    cutoffs: {filter: 1.91,
              core: 2.55}
    valence states:
      #              energy  rcut
      - 2s(1.00)    -2.874   1.058
      - 2p(0.00)    -1.090   1.058
      -  s          24.337   1.058
  
    # Using partial waves for Li as LCAO basis

  O:
    name: Oxygen
    id: 32ecd46bf208036f09c70b0ec9a88b78
    Z: 8.0
    valence: 6
    core: 2
    charge: 0.0
    file: /home/vazumah/.conda/envs/GPAW/share/gpaw/O.PBE.gz
    compensation charges: {type: gauss,
                           rc: 0.21,
                           lmax: 2}
    cutoffs: {filter: 1.17,
              core: 0.83}
    valence states:
      #              energy  rcut
      - 2s(2.00)   -23.961   0.688
      - 2p(4.00)    -9.029   0.598
      -  s           3.251   0.688
      -  p          18.182   0.598
      -  d           0.000   0.619
  
    # Using partial waves for O as LCAO basis

  C:
    name: Carbon
    id: 4aa54d4b901d75f77cc0ea3eec22967b
    Z: 6.0
    valence: 4
    core: 2
    charge: 0.0
    file: /home/vazumah/.conda/envs/GPAW/share/gpaw/C.PBE.gz
    compensation charges: {type: gauss,
                           rc: 0.20,
                           lmax: 2}
    cutoffs: {filter: 1.14,
              core: 1.14}
    valence states:
      #              energy  rcut
      - 2s(2.00)   -13.751   0.635
      - 2p(2.00)    -5.284   0.635
      -  s          13.461   0.635
      -  p          21.927   0.635
      -  d           0.000   0.635
  
    # Using partial waves for C as LCAO basis

  H:
    name: Hydrogen
    id: d65de229564ff8ea4db303e23b6d1ecf
    Z: 1.0
    valence: 1
    core: 0
    charge: 0.0
    file: /home/vazumah/.conda/envs/GPAW/share/gpaw/H.PBE.gz
    compensation charges: {type: gauss,
                           rc: 0.15,
                           lmax: 2}
    cutoffs: {filter: 0.85,
              core: 0.53}
    valence states:
      #              energy  rcut
      - 1s(1.00)    -6.494   0.476
      -  s          20.717   0.476
      -  p           0.000   0.476
  
    # Using partial waves for H as LCAO basis

Reference energy: -10418.802594  # eV

Spin-paired calculation

Convergence criteria:
 Maximum [total energy] change in last 3 cyles: 0.0005 eV / electron
 Maximum integral of absolute [dens]ity change: 0.0001 electrons / valence electron
 Maximum integral of absolute [eigenst]ate change: 4e-08 eV^2 / valence electron
 Maximum number of scf [iter]ations: 333
 (Square brackets indicate name in SCF output, whereas a 'c' in
 the SCF output indicates the quantity has converged.)

Symmetries present (total): 1

  ( 1  0  0)
  ( 0  1  0)
  ( 0  0  1)

16 k-points: 4 x 4 x 1 Monkhorst-Pack grid
8 k-points in the irreducible part of the Brillouin zone
       k-points in crystal coordinates                weights
   0:     0.12500000   -0.37500000    0.00000000          2/16
   1:     0.12500000   -0.12500000    0.00000000          2/16
   2:     0.12500000    0.12500000    0.00000000          2/16
   3:     0.12500000    0.37500000    0.00000000          2/16
   4:     0.37500000   -0.37500000    0.00000000          2/16
   5:     0.37500000   -0.12500000    0.00000000          2/16
   6:     0.37500000    0.12500000    0.00000000          2/16
   7:     0.37500000    0.37500000    0.00000000          2/16

Wave functions: Uniform real-space grid
  Kinetic energy operator: 6*3+1=19 point O(h^6) finite-difference Laplacian
  ScaLapack parameters: grid=1x1, blocksize=None
  Wavefunction extrapolation:
    Improved wavefunction reuse through dual PAW basis 

Occupation numbers: Fermi-Dirac:
  width: 0.0500  # eV
 

Eigensolver
   Davidson(niter=2) 

Densities:
  Coarse grid: 60*60*156 grid
  Fine grid: 120*120*312 grid
  Total Charge: 0.000000 

Density mixing:
  Method: separate
  Backend: pulay
  Linear mixing parameter: 0.05
  old densities: 5
  Damping of long wavelength oscillations: 50 

Hamiltonian:
  XC and Coulomb potentials evaluated on a 120*120*312 grid
  Using the BEEF-vdW Exchange-Correlation functional
  Interpolation: tri-quintic (5. degree polynomial)
  Poisson solver: FastPoissonSolver using
    Stencil: 6*3+1=19 point O(h^6) finite-difference Laplacian
    FFT axes: [0, 1]
    FST axes: [2]

Dipole correction along z-axis 

XC parameters: BEEF-vdW with 2 nearest neighbor stencil

Memory estimate:
  Process memory now: 216.34 MiB
  Calculator: 353.93 MiB
    Density: 116.65 MiB
      Arrays: 36.75 MiB
      Localized functions: 65.89 MiB
      Mixer: 14.01 MiB
    Hamiltonian: 29.24 MiB
      Arrays: 24.03 MiB
      XC: 0.00 MiB
      Poisson: 0.00 MiB
      vbar: 5.20 MiB
    Wavefunctions: 208.04 MiB
      Arrays psit_nG: 95.25 MiB
      Eigensolver: 109.44 MiB
      Projections: 0.04 MiB
      Projectors: 3.32 MiB

Total number of cores used: 24
Parallelization over k-points: 8
Domain decomposition: 1 x 1 x 3

Number of atoms: 42
Number of atomic orbitals: 156
Number of bands in calculation: 34
Number of valence electrons: 50
Bands to converge: occupied

... initialized

Initializing position-dependent things.

Density initialized from atomic densities
Creating initial wave functions:
  34 bands from LCAO basis set

       .-----------------------.  
      /|                       |  
     / |                       |  
    /  |                       |  
   /   |                       |  
  /    |                       |  
 *     |                       |  
 |     |                       |  
 |     |                       |  
 |     |                       |  
 |     |                       |  
 |     |                       |  
 |     |                       |  
 |H    |                       |  
 | H Li|     Li      HO   C    |  
 |     |  Li      Li      Li   |  
 |HLi  |   Li      Li          |  
 |     |Li      Li      Li     |  
 Li    | Li      Li            |  
 |   LLi     LLi     LLi       |  
 |     |  Li      Li      Li   |  
 | Li  |   Li      Li          |  
 |     |Li      Li      Li     |  
 Li    | Li      Li            |  
 |    Li      Li      Li       |  
 |     |                       |  
 |     |                       |  
 |     |                       |  
 |     |                       |  
 |     |                       |  
 |     |                       |  
 |     .-----------------------.  
 |    /                       /   
 |   /                       /    
 |  /                       /     
 | /                       /      
 |/                       /       
 *-----------------------*        

Positions:
   0 Li     1.617037    1.617037   10.000000    ( 0.0000,  0.0000,  0.0000)
   1 Li     4.851111    1.617037   10.000000    ( 0.0000,  0.0000,  0.0000)
   2 Li     8.085185    1.617037   10.000000    ( 0.0000,  0.0000,  0.0000)
   3 Li     1.617037    4.851111   10.000000    ( 0.0000,  0.0000,  0.0000)
   4 Li     4.851111    4.851111   10.000000    ( 0.0000,  0.0000,  0.0000)
   5 Li     8.085185    4.851111   10.000000    ( 0.0000,  0.0000,  0.0000)
   6 Li     1.617037    8.085185   10.000000    ( 0.0000,  0.0000,  0.0000)
   7 Li     4.851111    8.085185   10.000000    ( 0.0000,  0.0000,  0.0000)
   8 Li     8.085185    8.085185   10.000000    ( 0.0000,  0.0000,  0.0000)
   9 Li     0.000000    0.000000   11.617037    ( 0.0000,  0.0000,  0.0000)
  10 Li     3.234074    0.000000   11.617037    ( 0.0000,  0.0000,  0.0000)
  11 Li     6.468148    0.000000   11.617037    ( 0.0000,  0.0000,  0.0000)
  12 Li     0.000000    3.234074   11.617037    ( 0.0000,  0.0000,  0.0000)
  13 Li     3.234074    3.234074   11.617037    ( 0.0000,  0.0000,  0.0000)
  14 Li     6.468148    3.234074   11.617037    ( 0.0000,  0.0000,  0.0000)
  15 Li     0.000000    6.468148   11.617037    ( 0.0000,  0.0000,  0.0000)
  16 Li     3.234074    6.468148   11.617037    ( 0.0000,  0.0000,  0.0000)
  17 Li     6.468148    6.468148   11.617037    ( 0.0000,  0.0000,  0.0000)
  18 Li     1.617038    1.617038   13.469728    ( 0.0000,  0.0000,  0.0000)
  19 Li     4.851111    1.617038   13.469729    ( 0.0000,  0.0000,  0.0000)
  20 Li     8.085184    1.617038   13.469728    ( 0.0000,  0.0000,  0.0000)
  21 Li     1.617038    4.851111   13.469729    ( 0.0000,  0.0000,  0.0000)
  22 Li     4.851111    4.851111   13.469730    ( 0.0000,  0.0000,  0.0000)
  23 Li     8.085184    4.851111   13.469729    ( 0.0000,  0.0000,  0.0000)
  24 Li     1.617038    8.085184   13.469728    ( 0.0000,  0.0000,  0.0000)
  25 Li     4.851111    8.085184   13.469729    ( 0.0000,  0.0000,  0.0000)
  26 Li     8.085184    8.085184   13.469728    ( 0.0000,  0.0000,  0.0000)
  27 Li    -0.000000   -0.000000   15.445939    ( 0.0000,  0.0000,  0.0000)
  28 Li     3.234074    0.000000   15.445939    ( 0.0000,  0.0000,  0.0000)
  29 Li     6.468148    0.000000   15.445939    ( 0.0000,  0.0000,  0.0000)
  30 Li     0.000000    3.234074   15.445939    ( 0.0000,  0.0000,  0.0000)
  31 Li     3.234076    3.234076   15.445938    ( 0.0000,  0.0000,  0.0000)
  32 Li     6.468146    3.234076   15.445938    ( 0.0000,  0.0000,  0.0000)
  33 Li     0.000000    6.468148   15.445939    ( 0.0000,  0.0000,  0.0000)
  34 Li     3.234076    6.468146   15.445938    ( 0.0000,  0.0000,  0.0000)
  35 Li     6.468146    6.468146   15.445938    ( 0.0000,  0.0000,  0.0000)
  36 O      8.085185    1.617037   17.445939    ( 0.0000,  0.0000,  0.0000)
  37 C      9.515148    1.601963   17.451439    ( 0.0000,  0.0000,  0.0000)
  38 H      9.919419    0.852010   16.764289    ( 0.0000,  0.0000,  0.0000)
  39 H      9.918660    1.423554   18.453228    ( 0.0000,  0.0000,  0.0000)
  40 H      9.834591    2.587678   17.118510    ( 0.0000,  0.0000,  0.0000)
  41 H      7.773530    0.753908   17.736944    ( 0.0000,  0.0000,  0.0000)

Unit cell:
           periodic     x           y           z      points  spacing
  1. axis:    yes    9.702222    0.000000    0.000000    60     0.1617
  2. axis:    yes    0.000000    9.702222    0.000000    60     0.1617
  3. axis:    no     0.000000    0.000000   24.851111   156     0.1593

  Lengths:   9.702222   9.702222  24.851111
  Angles:   90.000000  90.000000  90.000000

Effective grid spacing dv^(1/3) = 0.1609

     iter     time        total  log10-change:
                         energy  eigst   dens
iter:   1 10:03:10  -308.000791
iter:   2 10:04:01  -234.345188  +2.05  -0.21
iter:   3 10:04:46  -225.019717  +2.88  -0.39
iter:   4 10:05:35  -233.238534  +2.34  -0.48
Writing to output.gpw (mode='')

iter:   5 10:06:20  -238.310137  +2.15  -0.60
iter:   6 10:07:02  -244.529830  +1.83  -0.80
iter:   7 10:07:46  -247.561648  +1.42  -0.83
iter:   8 10:08:29  -248.184526  +0.80  -0.86
iter:   9 10:09:14  -251.330210  +1.11  -0.84
Writing to output.gpw (mode='')

iter:  10 10:10:00  -250.601534  +0.58  -0.80
iter:  11 10:10:43  -249.515184  +1.09  -0.81
iter:  12 10:11:24  -249.293457  +0.57  -0.75
iter:  13 10:12:07  -248.093877  +0.05  -0.78
iter:  14 10:12:51  -246.262743  +1.03  -0.85
Writing to output.gpw (mode='')

iter:  15 10:13:35  -246.104111  +0.57  -1.06
iter:  16 10:14:19  -246.261370  +0.38  -1.31
iter:  17 10:15:01  -246.218347  -0.04  -1.34
iter:  18 10:15:48  -246.221830  -0.20  -1.50
iter:  19 10:16:34  -246.228182c -0.61  -1.65
Writing to output.gpw (mode='')

iter:  20 10:17:22  -246.257156  -0.71  -1.66
iter:  21 10:18:07  -246.302261  -0.44  -1.62
iter:  22 10:18:49  -246.392728  -0.37  -1.54
iter:  23 10:19:34  -246.441206  -0.45  -1.47
iter:  24 10:20:18  -246.314224  -0.89  -1.44
Writing to output.gpw (mode='')

iter:  25 10:21:04  -246.263534  -0.75  -1.56
iter:  26 10:21:45  -246.268304  -1.02  -1.72
iter:  27 10:22:28  -246.271917c -0.85  -1.80
iter:  28 10:23:12  -246.270080c -1.00  -1.90
iter:  29 10:23:56  -246.274643c -1.31  -2.09
Writing to output.gpw (mode='')

iter:  30 10:24:41  -246.278128c -1.46  -2.13
iter:  31 10:25:25  -246.280481c -1.76  -2.36
iter:  32 10:26:09  -246.282716c -1.73  -2.34
iter:  33 10:26:55  -246.284784c -1.73  -2.40
iter:  34 10:27:36  -246.286625c -1.83  -2.56
Writing to output.gpw (mode='')

iter:  35 10:28:20  -246.288596c -1.79  -2.60
iter:  36 10:29:02  -246.289960c -2.13  -2.67
iter:  37 10:29:48  -246.291377c -2.04  -2.74
iter:  38 10:30:32  -246.292616c -2.07  -2.79
iter:  39 10:31:15  -246.293733c -2.14  -2.84
Writing to output.gpw (mode='')

iter:  40 10:31:58  -246.294763c -2.21  -2.94
iter:  41 10:32:44  -246.295643c -2.24  -3.02
iter:  42 10:33:26  -246.296307c -2.28  -3.19
iter:  43 10:34:09  -246.296838c -2.39  -3.25
iter:  44 10:34:51  -246.297268c -2.55  -3.20
Writing to output.gpw (mode='')

iter:  45 10:35:36  -246.297656c -2.67  -3.15
iter:  46 10:36:22  -246.298019c -2.62  -3.02
iter:  47 10:37:09  -246.298339c -2.67  -3.07
iter:  48 10:37:52  -246.298691c -2.53  -3.05
iter:  49 10:38:34  -246.299030c -2.52  -3.00
Writing to output.gpw (mode='')

iter:  50 10:39:17  -246.299302c -2.68  -3.02
iter:  51 10:40:00  -246.299539c -2.76  -3.01
iter:  52 10:40:46  -246.299736c -2.73  -3.02
iter:  53 10:41:34  -246.299898c -2.71  -3.07
iter:  54 10:42:17  -246.300091c -2.79  -3.11
Writing to output.gpw (mode='')

iter:  55 10:43:03  -246.300190c -2.95  -3.03
iter:  56 10:43:48  -246.300287c -2.92  -3.07
iter:  57 10:44:30  -246.300377c -3.04  -3.12
iter:  58 10:45:16  -246.300419c -3.34  -3.30
iter:  59 10:46:02  -246.300456c -3.36  -3.43
Writing to output.gpw (mode='')

iter:  60 10:46:46  -246.300483c -3.51  -3.47
iter:  61 10:47:29  -246.300508c -3.35  -3.50
iter:  62 10:48:12  -246.300532c -3.42  -3.59
iter:  63 10:48:55  -246.300549c -3.59  -3.70
iter:  64 10:49:39  -246.300559c -3.75  -3.82
Writing to output.gpw (mode='')

iter:  65 10:50:25  -246.300568c -3.64  -3.86
iter:  66 10:51:07  -246.300572c -3.81  -3.97
iter:  67 10:51:49  -246.300576c -3.80  -4.10c
iter:  68 10:52:31  -246.300577c -3.85  -4.13c
iter:  69 10:53:19  -246.300578c -3.84  -4.14c
Writing to output.gpw (mode='')

iter:  70 10:54:05  -246.300577c -3.87  -4.15c
iter:  71 10:54:50  -246.300573c -3.95  -4.23c
iter:  72 10:55:34  -246.300571c -4.16  -4.18c
iter:  73 10:56:17  -246.300568c -4.05  -4.45c
iter:  74 10:56:57  -246.300564c -4.17  -4.58c
Writing to output.gpw (mode='')

iter:  75 10:57:44  -246.300559c -4.22  -4.63c
iter:  76 10:58:27  -246.300555c -4.36  -4.66c
iter:  77 10:59:11  -246.300551c -4.41  -4.69c
iter:  78 10:59:54  -246.300547c -4.53  -4.83c
iter:  79 11:00:36  -246.300542c -4.39  -4.85c
Writing to output.gpw (mode='')

iter:  80 11:01:20  -246.300539c -4.62  -5.00c
iter:  81 11:02:04  -246.300535c -4.57  -5.03c
iter:  82 11:02:47  -246.300531c -4.65  -5.09c
iter:  83 11:03:31  -246.300528c -4.63  -5.09c
iter:  84 11:04:15  -246.300524c -4.65  -5.08c
Writing to output.gpw (mode='')

iter:  85 11:05:01  -246.300521c -4.81  -5.01c
iter:  86 11:05:43  -246.300518c -4.82  -4.97c
iter:  87 11:06:26  -246.300516c -4.97  -4.94c
iter:  88 11:07:08  -246.300513c -4.77  -4.79c
iter:  89 11:07:50  -246.300510c -4.98  -4.84c
Writing to output.gpw (mode='')

iter:  90 11:08:35  -246.300508c -4.86  -4.74c
iter:  91 11:09:18  -246.300506c -5.00  -4.72c
iter:  92 11:10:00  -246.300504c -5.08  -4.73c
iter:  93 11:10:43  -246.300502c -5.04  -4.67c
iter:  94 11:11:28  -246.300500c -5.17  -4.77c
Writing to output.gpw (mode='')

iter:  95 11:12:12  -246.300498c -5.20  -4.69c
iter:  96 11:12:56  -246.300497c -5.44  -4.83c
iter:  97 11:13:36  -246.300495c -5.25  -4.79c
iter:  98 11:14:18  -246.300494c -5.23  -4.92c
iter:  99 11:15:03  -246.300493c -5.35  -5.07c
Writing to output.gpw (mode='')

iter: 100 11:15:48  -246.300492c -5.54  -5.29c
iter: 101 11:16:29  -246.300491c -5.51  -5.38c
iter: 102 11:17:13  -246.300490c -5.64  -5.52c
iter: 103 11:17:55  -246.300489c -5.67  -5.64c
iter: 104 11:18:38  -246.300488c -5.57  -5.67c
Writing to output.gpw (mode='')

iter: 105 11:19:22  -246.300487c -5.52  -5.82c
iter: 106 11:20:06  -246.300487c -5.65  -5.97c
iter: 107 11:20:50  -246.300486c -5.65  -5.94c
iter: 108 11:21:31  -246.300486c -5.85  -5.74c
iter: 109 11:22:14  -246.300485c -5.78  -5.89c
Writing to output.gpw (mode='')

iter: 110 11:22:57  -246.300485c -5.77  -6.02c
iter: 111 11:23:39  -246.300484c -5.86  -6.00c
iter: 112 11:24:21  -246.300484c -5.78  -5.95c
iter: 113 11:25:03  -246.300483c -5.97  -5.88c
iter: 114 11:25:46  -246.300483c -6.00  -5.85c
Writing to output.gpw (mode='')

iter: 115 11:26:28  -246.300483c -5.99  -5.79c
iter: 116 11:27:07  -246.300483c -6.08  -5.75c
iter: 117 11:27:50  -246.300482c -6.07  -5.75c
iter: 118 11:28:33  -246.300482c -6.06  -5.80c
iter: 119 11:29:17  -246.300482c -6.24  -5.88c
Writing to output.gpw (mode='')

iter: 120 11:30:01  -246.300482c -6.24  -5.82c
iter: 121 11:30:47  -246.300481c -6.20  -5.95c
iter: 122 11:31:31  -246.300481c -6.32  -5.93c
iter: 123 11:32:15  -246.300481c -6.36  -5.91c
iter: 124 11:32:58  -246.300481c -6.35  -5.84c
Writing to output.gpw (mode='')

iter: 125 11:33:43  -246.300481c -6.44  -5.82c
iter: 126 11:34:28  -246.300481c -6.44  -5.91c
iter: 127 11:35:16  -246.300481c -6.44  -5.74c
iter: 128 11:35:59  -246.300481c -6.59  -5.92c
iter: 129 11:36:42  -246.300480c -6.67  -5.96c
Writing to output.gpw (mode='')

iter: 130 11:37:25  -246.300480c -6.61  -5.90c
iter: 131 11:38:09  -246.300480c -6.70  -5.99c
iter: 132 11:38:51  -246.300480c -6.66  -6.00c
iter: 133 11:39:32  -246.300480c -6.65  -5.95c
iter: 134 11:40:15  -246.300480c -6.83  -6.08c
Writing to output.gpw (mode='')

iter: 135 11:41:02  -246.300480c -6.88  -6.07c
iter: 136 11:41:45  -246.300480c -6.83  -6.11c
iter: 137 11:42:28  -246.300480c -6.89  -6.06c
iter: 138 11:43:10  -246.300480c -6.87  -6.12c
iter: 139 11:43:53  -246.300480c -6.83  -6.07c
Writing to output.gpw (mode='')

iter: 140 11:44:37  -246.300480c -7.07  -6.12c
iter: 141 11:45:20  -246.300480c -7.10  -6.05c
iter: 142 11:46:04  -246.300480c -7.08  -6.01c
iter: 143 11:46:48  -246.300480c -7.19  -6.15c
iter: 144 11:47:32  -246.300480c -7.11  -6.17c
Writing to output.gpw (mode='')

iter: 145 11:48:16  -246.300480c -7.15  -6.27c
iter: 146 11:48:58  -246.300480c -7.27  -6.43c
iter: 147 11:49:43  -246.300480c -7.28  -6.47c
iter: 148 11:50:25  -246.300479c -7.22  -6.58c
iter: 149 11:51:08  -246.300479c -7.42c -6.78c

Converged after 149 iterations.

Dipole moment: (-0.416818, -4.645933, 0.202354) |e|*Ang

Energy contributions relative to reference atoms: (reference = -10418.802594)

Kinetic:       +112.922276
Potential:     -102.124562
External:        +0.000000
XC:            -257.221637
Entropy (-ST):   -0.143878
Local:           +0.195383
--------------------------
Free energy:   -246.372418
Extrapolated:  -246.300479

Dipole-layer corrected work functions: 3.374965, 2.985971 eV

Showing only first 2 kpts
 Kpt  Band  Eigenvalues  Occupancy
  0    23     -3.43425    1.98758
  0    24     -3.33782    1.91758
  0    25     -3.03195    0.09757
  0    26     -2.92994    0.01325

  1    23     -3.24494    1.56811
  1    24     -3.17081    0.90374
  1    25     -3.13713    0.59189
  1    26     -3.09555    0.30934


Fermi level: -3.18047

No gap
Writing to output.gpw (mode='')


Forces in eV/Ang:
  0 Li    0.01893    0.00357   -0.27132
  1 Li   -0.00921    0.00094   -0.27183
  2 Li   -0.00772   -0.00325   -0.27475
  3 Li    0.00033    0.00224   -0.27124
  4 Li   -0.00344   -0.00447   -0.27624
  5 Li    0.00073    0.01483   -0.26922
  6 Li   -0.00374   -0.00570   -0.27008
  7 Li    0.00264    0.00253   -0.27787
  8 Li   -0.00160   -0.01189   -0.27090
  9 Li    0.00114    0.00804    0.29904
 10 Li    0.01120   -0.00191    0.24927
 11 Li   -0.01631   -0.00367    0.26719
 12 Li    0.00212   -0.01068    0.29789
 13 Li    0.00829    0.00702    0.23863
 14 Li   -0.01472   -0.00159    0.27404
 15 Li   -0.00516    0.00165    0.24075
 16 Li   -0.01322   -0.00449    0.27239
 17 Li    0.02156    0.00544    0.25807
 18 Li    0.01945    0.00123   -0.01199
 19 Li   -0.00883    0.00274    0.04150
 20 Li   -0.01783   -0.00129   -0.13259
 21 Li   -0.01819   -0.02262    0.06257
 22 Li    0.01240    0.00338    0.03732
 23 Li    0.00989   -0.02283    0.04847
 24 Li   -0.01228    0.02097    0.05319
 25 Li    0.00411   -0.00490    0.02883
 26 Li    0.01222    0.02661    0.07239
 27 Li   -0.12055   -0.66729   -1.02622
 28 Li    0.04992   -0.01010   -0.05027
 29 Li   -0.06623   -0.05384   -0.13047
 30 Li    0.01399    0.26070   -0.57543
 31 Li    0.04157    0.01381   -0.05579
 32 Li    0.00496   -0.00895    0.05339
 33 Li   -0.01318    0.01178   -0.00317
 34 Li   -0.01833   -0.00323   -0.01113
 35 Li    0.02892    0.02385   -0.00137
 36 O     0.07189    0.45136   -0.10087
 37 C    -0.62713   -0.09364    0.37802
 38 H     0.41320    0.44024    0.84777
 39 H     0.11733   -0.00371   -0.10594
 40 H     0.24267    0.04719    0.42164
 41 H    -0.15159   -0.43641    0.22681

System changes: positions 

Initializing position-dependent things.

Density initialized from wave functions
       .-----------------------.  
      /|                       |  
     / |                       |  
    /  |                       |  
   /   |                       |  
  /    |                       |  
 *     |                       |  
 |     |                       |  
 |     |                       |  
 |     |                       |  
 |     |                       |  
 |     |                       |  
 |     |       Li      Li      Li 
 |H    |                       |  
 | H   |     Li      HO   C  Li|  
 |     |  Li      Li      Li   |  
 |HLi  |   Li      Li          |  
 |     |Li      Li      Li     |  
 |     |                       |  
 |   LLi     LLi     LLi       |  
 |     |  Li      Li      Li   |  
 | Li  |   Li      Li          |  
 |     |Li      Li      Li     |  
 Li    | Li      Li            |  
 |    Li      Li      Li       |  
 |     |                       |  
 |     |                       |  
 |     |                       |  
 |     |                       |  
 |     |                       |  
 |     |                       |  
 |     .-----------------------.  
 |    /                       /   
 |   /                       /    
 |  /                       /     
 | /                       /      
 |/                       /       
 *-----------------------*        

Positions:
   0 Li     1.617037    1.617037   10.000000    ( 0.0000,  0.0000,  0.0000)
   1 Li     4.851111    1.617037   10.000000    ( 0.0000,  0.0000,  0.0000)
   2 Li     8.085185    1.617037   10.000000    ( 0.0000,  0.0000,  0.0000)
   3 Li     1.617037    4.851111   10.000000    ( 0.0000,  0.0000,  0.0000)
   4 Li     4.851111    4.851111   10.000000    ( 0.0000,  0.0000,  0.0000)
   5 Li     8.085185    4.851111   10.000000    ( 0.0000,  0.0000,  0.0000)
   6 Li     1.617037    8.085185   10.000000    ( 0.0000,  0.0000,  0.0000)
   7 Li     4.851111    8.085185   10.000000    ( 0.0000,  0.0000,  0.0000)
   8 Li     8.085185    8.085185   10.000000    ( 0.0000,  0.0000,  0.0000)
   9 Li     0.000000    0.000000   11.617037    ( 0.0000,  0.0000,  0.0000)
  10 Li     3.234074    0.000000   11.617037    ( 0.0000,  0.0000,  0.0000)
  11 Li     6.468148    0.000000   11.617037    ( 0.0000,  0.0000,  0.0000)
  12 Li     0.000000    3.234074   11.617037    ( 0.0000,  0.0000,  0.0000)
  13 Li     3.234074    3.234074   11.617037    ( 0.0000,  0.0000,  0.0000)
  14 Li     6.468148    3.234074   11.617037    ( 0.0000,  0.0000,  0.0000)
  15 Li     0.000000    6.468148   11.617037    ( 0.0000,  0.0000,  0.0000)
  16 Li     3.234074    6.468148   11.617037    ( 0.0000,  0.0000,  0.0000)
  17 Li     6.468148    6.468148   11.617037    ( 0.0000,  0.0000,  0.0000)
  18 Li     1.617316    1.617056   13.469557    ( 0.0000,  0.0000,  0.0000)
  19 Li     4.850985    1.617078   13.470322    ( 0.0000,  0.0000,  0.0000)
  20 Li     8.084929    1.617020   13.467834    ( 0.0000,  0.0000,  0.0000)
  21 Li     1.616779    4.850788   13.470623    ( 0.0000,  0.0000,  0.0000)
  22 Li     4.851288    4.851159   13.470263    ( 0.0000,  0.0000,  0.0000)
  23 Li     8.085325    4.850785   13.470422    ( 0.0000,  0.0000,  0.0000)
  24 Li     1.616863    8.085484   13.470488    ( 0.0000,  0.0000,  0.0000)
  25 Li     4.851170    8.085114   13.470141    ( 0.0000,  0.0000,  0.0000)
  26 Li     8.085358    8.085564   13.470762    ( 0.0000,  0.0000,  0.0000)
  27 Li    -0.001722   -0.009533   15.431279    ( 0.0000,  0.0000,  0.0000)
  28 Li     3.234787   -0.000144   15.445221    ( 0.0000,  0.0000,  0.0000)
  29 Li     6.467202   -0.000769   15.444075    ( 0.0000,  0.0000,  0.0000)
  30 Li     0.000200    3.237798   15.437718    ( 0.0000,  0.0000,  0.0000)
  31 Li     3.234670    3.234274   15.445141    ( 0.0000,  0.0000,  0.0000)
  32 Li     6.468216    3.233949   15.446701    ( 0.0000,  0.0000,  0.0000)
  33 Li    -0.000188    6.468317   15.445894    ( 0.0000,  0.0000,  0.0000)
  34 Li     3.233815    6.468099   15.445779    ( 0.0000,  0.0000,  0.0000)
  35 Li     6.468559    6.468486   15.445918    ( 0.0000,  0.0000,  0.0000)
  36 O      8.086212    1.623485   17.444498    ( 0.0000,  0.0000,  0.0000)
  37 C      9.506189    1.600626   17.456839    ( 0.0000,  0.0000,  0.0000)
  38 H      9.925322    0.858299   16.776400    ( 0.0000,  0.0000,  0.0000)
  39 H      9.920336    1.423501   18.451714    ( 0.0000,  0.0000,  0.0000)
  40 H      9.838058    2.588352   17.124534    ( 0.0000,  0.0000,  0.0000)
  41 H      7.771364    0.747674   17.740184    ( 0.0000,  0.0000,  0.0000)

Unit cell:
           periodic     x           y           z      points  spacing
  1. axis:    yes    9.702222    0.000000    0.000000    60     0.1617
  2. axis:    yes    0.000000    9.702222    0.000000    60     0.1617
  3. axis:    no     0.000000    0.000000   24.851111   156     0.1593

  Lengths:   9.702222   9.702222  24.851111
  Angles:   90.000000  90.000000  90.000000

Effective grid spacing dv^(1/3) = 0.1609

     iter     time        total  log10-change:
                         energy  eigst   dens
iter:   1 11:52:03  -246.366118  -1.40
iter:   2 11:52:49  -246.357966  -1.95  -1.97
iter:   3 11:53:31  -246.356160c -2.81  -2.16
iter:   4 11:54:17  -246.353417c -1.78  -2.32
Writing to output.gpw (mode='')

iter:   5 11:55:01  -246.352723c -2.90  -2.42
iter:   6 11:55:47  -246.352791c -2.28  -2.60
iter:   7 11:56:30  -246.352399c -2.54  -2.64
iter:   8 11:57:12  -246.352305c -3.23  -2.85
iter:   9 11:58:02  -246.352147c -3.36  -2.92
Writing to output.gpw (mode='')

iter:  10 11:58:49  -246.352173c -4.00  -3.25
iter:  11 11:59:34  -246.352153c -4.05  -3.26
iter:  12 12:00:14  -246.352162c -4.12  -3.42
iter:  13 12:00:57  -246.352164c -4.66  -3.54
iter:  14 12:01:39  -246.352162c -4.92  -3.56
Writing to output.gpw (mode='')

iter:  15 12:02:23  -246.352159c -4.64  -3.63
iter:  16 12:03:08  -246.352159c -5.34  -3.87
iter:  17 12:03:51  -246.352160c -5.34  -3.93
iter:  18 12:04:32  -246.352159c -5.72  -4.01c
iter:  19 12:05:16  -246.352159c -5.54  -4.07c
Writing to output.gpw (mode='')

iter:  20 12:06:01  -246.352159c -5.86  -4.31c
iter:  21 12:06:41  -246.352159c -5.88  -4.38c
iter:  22 12:07:25  -246.352159c -5.93  -4.48c
iter:  23 12:08:06  -246.352159c -6.36  -4.58c
iter:  24 12:08:49  -246.352159c -6.40  -4.62c
Writing to output.gpw (mode='')

iter:  25 12:09:35  -246.352160c -6.46  -4.71c
iter:  26 12:10:18  -246.352160c -6.43  -4.86c
iter:  27 12:11:04  -246.352160c -6.81  -5.08c
iter:  28 12:11:45  -246.352160c -6.81  -5.09c
iter:  29 12:12:29  -246.352160c -7.09  -5.24c
Writing to output.gpw (mode='')

iter:  30 12:13:15  -246.352160c -6.86  -5.39c
iter:  31 12:13:57  -246.352160c -7.32  -5.41c
iter:  32 12:14:39  -246.352160c -7.20  -5.40c
iter:  33 12:15:26  -246.352160c -7.43c -5.35c

Converged after 33 iterations.

Dipole moment: (-0.065208, -4.504223, 0.198331) |e|*Ang

Energy contributions relative to reference atoms: (reference = -10418.802594)

Kinetic:       +112.683933
Potential:     -101.997068
External:        +0.000000
XC:            -257.162200
Entropy (-ST):   -0.143858
Local:           +0.195104
--------------------------
Free energy:   -246.424089
Extrapolated:  -246.352160

Dipole-layer corrected work functions: 3.374837, 2.993576 eV

Showing only first 2 kpts
 Kpt  Band  Eigenvalues  Occupancy
  0    23     -3.43856    1.98772
  0    24     -3.34153    1.91754
  0    25     -3.03493    0.09617
  0    26     -2.93421    0.01339

  1    23     -3.24812    1.56432
  1    24     -3.17506    0.90883
  1    25     -3.14081    0.59140
  1    26     -3.09887    0.30716


Fermi level: -3.18421

No gap
Writing to output.gpw (mode='')


Forces in eV/Ang:
  0 Li    0.01879    0.00357   -0.27193
  1 Li   -0.00915    0.00102   -0.27182
  2 Li   -0.00763   -0.00342   -0.27543
  3 Li    0.00030    0.00216   -0.27145
  4 Li   -0.00354   -0.00462   -0.27614
  5 Li    0.00096    0.01467   -0.26925
  6 Li   -0.00396   -0.00562   -0.27038
  7 Li    0.00265    0.00276   -0.27781
  8 Li   -0.00140   -0.01158   -0.27121
  9 Li    0.00137    0.00722    0.29986
 10 Li    0.01113   -0.00215    0.25020
 11 Li   -0.01636   -0.00426    0.26769
 12 Li    0.00241   -0.01008    0.29849
 13 Li    0.00809    0.00755    0.23914
 14 Li   -0.01486   -0.00116    0.27421
 15 Li   -0.00518    0.00218    0.24228
 16 Li   -0.01288   -0.00484    0.27280
 17 Li    0.02124    0.00560    0.25869
 18 Li    0.02052    0.00117   -0.01470
 19 Li   -0.00864    0.00315    0.04015
 20 Li   -0.01936   -0.00069   -0.13199
 21 Li   -0.01604   -0.02004    0.05849
 22 Li    0.01259    0.00323    0.03699
 23 Li    0.00759   -0.02034    0.04456
 24 Li   -0.00835    0.01695    0.04725
 25 Li    0.00355   -0.00548    0.02723
 26 Li    0.00828    0.02213    0.06555
 27 Li   -0.10325   -0.58616   -0.89956
 28 Li    0.04829   -0.01025   -0.04904
 29 Li   -0.06538   -0.05386   -0.12780
 30 Li    0.01461    0.24147   -0.53521
 31 Li    0.04133    0.01404   -0.05456
 32 Li    0.00536   -0.00933    0.05320
 33 Li   -0.01313    0.01047   -0.00322
 34 Li   -0.01820   -0.00309   -0.01122
 35 Li    0.02889    0.02412   -0.00090
 36 O    -0.29697   -0.16523    0.11485
 37 C    -0.27408    0.24600    0.28334
 38 H     0.38021    0.24668    0.60896
 39 H     0.07019   -0.01529    0.03140
 40 H     0.18059   -0.05959    0.43666
 41 H    -0.00389    0.13898    0.02324

System changes: positions 

Initializing position-dependent things.

Density initialized from wave functions
       .-----------------------.  
      /|                       |  
     / |                       |  
    /  |                       |  
   /   |                       |  
  /    |                       |  
 *     |                       |  
 |     |                       |  
 |     |                       |  
 |     |                       |  
 |     |                       |  
 |     |                       |  
 |     |       Li      Li      Li 
 |H    |                       |  
 | H   |     Li      HO  C   Li|  
 |     |  Li      Li      Li   |  
 |HLi  |   Li      Li          |  
 |     |Li      Li      Li     |  
 |     |                       |  
 |   LLi     LLi     LLi       |  
 |     |  Li      Li      Li   |  
 | Li  |   Li      Li          |  
 |     |Li      Li      Li     |  
 Li    | Li      Li            |  
 |    Li      Li      Li       |  
 |     |                       |  
 |     |                       |  
 |     |                       |  
 |     |                       |  
 |     |                       |  
 |     |                       |  
 |     .-----------------------.  
 |    /                       /   
 |   /                       /    
 |  /                       /     
 | /                       /      
 |/                       /       
 *-----------------------*        

Positions:
   0 Li     1.617037    1.617037   10.000000    ( 0.0000,  0.0000,  0.0000)
   1 Li     4.851111    1.617037   10.000000    ( 0.0000,  0.0000,  0.0000)
   2 Li     8.085185    1.617037   10.000000    ( 0.0000,  0.0000,  0.0000)
   3 Li     1.617037    4.851111   10.000000    ( 0.0000,  0.0000,  0.0000)
   4 Li     4.851111    4.851111   10.000000    ( 0.0000,  0.0000,  0.0000)
   5 Li     8.085185    4.851111   10.000000    ( 0.0000,  0.0000,  0.0000)
   6 Li     1.617037    8.085185   10.000000    ( 0.0000,  0.0000,  0.0000)
   7 Li     4.851111    8.085185   10.000000    ( 0.0000,  0.0000,  0.0000)
   8 Li     8.085185    8.085185   10.000000    ( 0.0000,  0.0000,  0.0000)
   9 Li     0.000000    0.000000   11.617037    ( 0.0000,  0.0000,  0.0000)
  10 Li     3.234074    0.000000   11.617037    ( 0.0000,  0.0000,  0.0000)
  11 Li     6.468148    0.000000   11.617037    ( 0.0000,  0.0000,  0.0000)
  12 Li     0.000000    3.234074   11.617037    ( 0.0000,  0.0000,  0.0000)
  13 Li     3.234074    3.234074   11.617037    ( 0.0000,  0.0000,  0.0000)
  14 Li     6.468148    3.234074   11.617037    ( 0.0000,  0.0000,  0.0000)
  15 Li     0.000000    6.468148   11.617037    ( 0.0000,  0.0000,  0.0000)
  16 Li     3.234074    6.468148   11.617037    ( 0.0000,  0.0000,  0.0000)
  17 Li     6.468148    6.468148   11.617037    ( 0.0000,  0.0000,  0.0000)
  18 Li     1.618026    1.617098   13.469073    ( 0.0000,  0.0000,  0.0000)
  19 Li     4.850678    1.617183   13.471756    ( 0.0000,  0.0000,  0.0000)
  20 Li     8.084266    1.616987   13.463170    ( 0.0000,  0.0000,  0.0000)
  21 Li     1.616185    4.850048   13.472739    ( 0.0000,  0.0000,  0.0000)
  22 Li     4.851730    4.851275   13.471573    ( 0.0000,  0.0000,  0.0000)
  23 Li     8.085622    4.850035   13.472044    ( 0.0000,  0.0000,  0.0000)
  24 Li     1.616517    8.086133   13.472231    ( 0.0000,  0.0000,  0.0000)
  25 Li     4.851302    8.084928   13.471122    ( 0.0000,  0.0000,  0.0000)
  26 Li     8.085701    8.086403   13.473163    ( 0.0000,  0.0000,  0.0000)
  27 Li    -0.005587   -0.031255   15.397914    ( 0.0000,  0.0000,  0.0000)
  28 Li     3.236511   -0.000504   15.443475    ( 0.0000,  0.0000,  0.0000)
  29 Li     6.464885   -0.002669   15.439533    ( 0.0000,  0.0000,  0.0000)
  30 Li     0.000707    3.246564   15.418321    ( 0.0000,  0.0000,  0.0000)
  31 Li     3.236131    3.234766   15.443201    ( 0.0000,  0.0000,  0.0000)
  32 Li     6.468400    3.233624   15.448580    ( 0.0000,  0.0000,  0.0000)
  33 Li    -0.000652    6.468703   15.445781    ( 0.0000,  0.0000,  0.0000)
  34 Li     3.233171    6.467989   15.445384    ( 0.0000,  0.0000,  0.0000)
  35 Li     6.469578    6.469334   15.445881    ( 0.0000,  0.0000,  0.0000)
  36 O      8.080494    1.625608   17.445768    ( 0.0000,  0.0000,  0.0000)
  37 C      9.491968    1.604923   17.468054    ( 0.0000,  0.0000,  0.0000)
  38 H      9.939159    0.869496   16.800960    ( 0.0000,  0.0000,  0.0000)
  39 H      9.923420    1.423111   18.451050    ( 0.0000,  0.0000,  0.0000)
  40 H      9.845229    2.587627   17.139743    ( 0.0000,  0.0000,  0.0000)
  41 H      7.769322    0.745155   17.743630    ( 0.0000,  0.0000,  0.0000)

Unit cell:
           periodic     x           y           z      points  spacing
  1. axis:    yes    9.702222    0.000000    0.000000    60     0.1617
  2. axis:    yes    0.000000    9.702222    0.000000    60     0.1617
  3. axis:    no     0.000000    0.000000   24.851111   156     0.1593

  Lengths:   9.702222   9.702222  24.851111
  Angles:   90.000000  90.000000  90.000000

Effective grid spacing dv^(1/3) = 0.1609

     iter     time        total  log10-change:
                         energy  eigst   dens
iter:   1 12:16:24  -246.451415  -1.10
iter:   2 12:17:08  -246.444709  -1.66  -1.95
iter:   3 12:17:52  -246.442519c -2.38  -2.05
iter:   4 12:18:37  -246.434410c -1.89  -2.15
Writing to output.gpw (mode='')

iter:   5 12:19:23  -246.434415c -2.85  -2.48
iter:   6 12:20:07  -246.433752c -2.59  -2.58
iter:   7 12:20:51  -246.434387c -1.92  -2.67
iter:   8 12:21:37  -246.433582c -3.14  -2.56
iter:   9 12:22:21  -246.433520c -3.23  -2.82
Writing to output.gpw (mode='')

iter:  10 12:23:07  -246.433449c -3.53  -2.91
iter:  11 12:23:48  -246.433434c -3.32  -3.04
iter:  12 12:24:33  -246.433426c -4.30  -3.14
iter:  13 12:25:18  -246.433446c -3.67  -3.21
iter:  14 12:26:01  -246.433415c -4.11  -3.24
Writing to output.gpw (mode='')

iter:  15 12:26:43  -246.433414c -4.28  -3.58
iter:  16 12:27:28  -246.433414c -5.20  -3.63
iter:  17 12:28:12  -246.433423c -4.54  -3.70
iter:  18 12:28:55  -246.433416c -4.90  -3.66
iter:  19 12:29:38  -246.433416c -5.25  -4.00
Writing to output.gpw (mode='')

iter:  20 12:30:29  -246.433414c -5.37  -4.08c
iter:  21 12:31:12  -246.433414c -5.42  -4.21c
iter:  22 12:31:57  -246.433415c -5.63  -4.30c
iter:  23 12:32:40  -246.433414c -5.95  -4.35c
iter:  24 12:33:26  -246.433415c -6.05  -4.56c
Writing to output.gpw (mode='')

iter:  25 12:34:09  -246.433415c -6.21  -4.63c
iter:  26 12:34:52  -246.433415c -6.22  -4.82c
iter:  27 12:35:33  -246.433415c -6.41  -4.94c
iter:  28 12:36:14  -246.433415c -6.56  -4.94c
iter:  29 12:36:57  -246.433415c -6.46  -4.95c
Writing to output.gpw (mode='')

iter:  30 12:37:40  -246.433416c -6.69  -4.98c
iter:  31 12:38:24  -246.433416c -6.75  -5.19c
iter:  32 12:39:08  -246.433416c -7.01  -5.31c
iter:  33 12:39:51  -246.433416c -6.97  -5.33c
iter:  34 12:40:33  -246.433416c -7.01  -5.46c
Writing to output.gpw (mode='')

iter:  35 12:41:17  -246.433416c -6.97  -5.63c
iter:  36 12:41:58  -246.433416c -7.24  -5.64c
iter:  37 12:42:41  -246.433416c -7.35  -5.67c
iter:  38 12:43:26  -246.433416c -7.23  -5.92c
iter:  39 12:44:08  -246.433416c -7.40c -6.04c

Converged after 39 iterations.

Dipole moment: (0.459194, -4.151402, 0.193478) |e|*Ang

Energy contributions relative to reference atoms: (reference = -10418.802594)

Kinetic:       +112.863761
Potential:     -102.192572
External:        +0.000000
XC:            -257.227518
Entropy (-ST):   -0.143907
Local:           +0.194867
--------------------------
Free energy:   -246.505369
Extrapolated:  -246.433416

Dipole-layer corrected work functions: 3.374921, 3.002990 eV

Showing only first 2 kpts
 Kpt  Band  Eigenvalues  Occupancy
  0    23     -3.44459    1.98803
  0    24     -3.34623    1.91746
  0    25     -3.03749    0.09224
  0    26     -2.94022    0.01373

  1    23     -3.25056    1.54837
  1    24     -3.18105    0.92106
  1    25     -3.14558    0.59151
  1    26     -3.10349    0.30649


Fermi level: -3.18896

No gap
Writing to output.gpw (mode='')


Forces in eV/Ang:
  0 Li    0.01855    0.00348   -0.27328
  1 Li   -0.00904    0.00105   -0.27170
  2 Li   -0.00747   -0.00366   -0.27686
  3 Li   -0.00007    0.00204   -0.27188
  4 Li   -0.00349   -0.00489   -0.27597
  5 Li    0.00139    0.01446   -0.26938
  6 Li   -0.00450   -0.00536   -0.27117
  7 Li    0.00270    0.00331   -0.27759
  8 Li   -0.00097   -0.01119   -0.27190
  9 Li    0.00195    0.00542    0.30172
 10 Li    0.01088   -0.00267    0.25204
 11 Li   -0.01652   -0.00573    0.26867
 12 Li    0.00315   -0.00848    0.29950
 13 Li    0.00789    0.00842    0.24049
 14 Li   -0.01556    0.00013    0.27437
 15 Li   -0.00523    0.00298    0.24550
 16 Li   -0.01191   -0.00539    0.27420
 17 Li    0.02044    0.00578    0.25941
 18 Li    0.02265    0.00112   -0.01975
 19 Li   -0.00805    0.00387    0.03681
 20 Li   -0.02248    0.00083   -0.12947
 21 Li   -0.01064   -0.01426    0.04913
 22 Li    0.01301    0.00300    0.03560
 23 Li    0.00202   -0.01478    0.03625
 24 Li    0.00065    0.00749    0.03348
 25 Li    0.00269   -0.00664    0.02434
 26 Li   -0.00125    0.01107    0.04910
 27 Li   -0.07133   -0.43721   -0.67551
 28 Li    0.04383   -0.01036   -0.04600
 29 Li   -0.06258   -0.05131   -0.12348
 30 Li    0.01643    0.20423   -0.45774
 31 Li    0.04055    0.01451   -0.05190
 32 Li    0.00591   -0.01088    0.05283
 33 Li   -0.01284    0.00693   -0.00353
 34 Li   -0.01803   -0.00260   -0.01092
 35 Li    0.02865    0.02378   -0.00093
 36 O    -0.45554   -0.34897    0.19470
 37 C     0.16083    0.34303    0.20033
 38 H     0.25966    0.02561    0.26091
 39 H    -0.03627    0.00278    0.25247
 40 H     0.06326   -0.01026    0.37546
 41 H     0.00926    0.29835   -0.03849

System changes: positions 

Initializing position-dependent things.

Density initialized from wave functions
       .-----------------------.  
      /|                       |  
     / |                       |  
    /  |                       |  
   /   |                       |  
  /    |                       |  
 *     |                       |  
 |     |                       |  
 |     |                       |  
 |     |                       |  
 |     |                       |  
 |     |                       |  
 |     |       Li      Li      Li 
 |H    |                       |  
 | H   |     Li      HO  C   Li|  
 |H    |  Li      Li      Li   |  
 | Li  |   Li      Li          |  
 |     |Li      Li      Li     |  
 |     |                       |  
 |   LLi     LLi     LLi       |  
 |     |  Li      Li      Li   |  
 | Li  |   Li      Li          |  
 |     |Li      Li      Li     |  
 Li    | Li      Li            |  
 |    Li      Li      Li       |  
 |     |                       |  
 |     |                       |  
 |     |                       |  
 |     |                       |  
 |     |                       |  
 |     |                       |  
 |     .-----------------------.  
 |    /                       /   
 |   /                       /    
 |  /                       /     
 | /                       /      
 |/                       /       
 *-----------------------*        

Positions:
   0 Li     1.617037    1.617037   10.000000    ( 0.0000,  0.0000,  0.0000)
   1 Li     4.851111    1.617037   10.000000    ( 0.0000,  0.0000,  0.0000)
   2 Li     8.085185    1.617037   10.000000    ( 0.0000,  0.0000,  0.0000)
   3 Li     1.617037    4.851111   10.000000    ( 0.0000,  0.0000,  0.0000)
   4 Li     4.851111    4.851111   10.000000    ( 0.0000,  0.0000,  0.0000)
   5 Li     8.085185    4.851111   10.000000    ( 0.0000,  0.0000,  0.0000)
   6 Li     1.617037    8.085185   10.000000    ( 0.0000,  0.0000,  0.0000)
   7 Li     4.851111    8.085185   10.000000    ( 0.0000,  0.0000,  0.0000)
   8 Li     8.085185    8.085185   10.000000    ( 0.0000,  0.0000,  0.0000)
   9 Li     0.000000    0.000000   11.617037    ( 0.0000,  0.0000,  0.0000)
  10 Li     3.234074    0.000000   11.617037    ( 0.0000,  0.0000,  0.0000)
  11 Li     6.468148    0.000000   11.617037    ( 0.0000,  0.0000,  0.0000)
  12 Li     0.000000    3.234074   11.617037    ( 0.0000,  0.0000,  0.0000)
  13 Li     3.234074    3.234074   11.617037    ( 0.0000,  0.0000,  0.0000)
  14 Li     6.468148    3.234074   11.617037    ( 0.0000,  0.0000,  0.0000)
  15 Li     0.000000    6.468148   11.617037    ( 0.0000,  0.0000,  0.0000)
  16 Li     3.234074    6.468148   11.617037    ( 0.0000,  0.0000,  0.0000)
  17 Li     6.468148    6.468148   11.617037    ( 0.0000,  0.0000,  0.0000)
  18 Li     1.618853    1.617144   13.468448    ( 0.0000,  0.0000,  0.0000)
  19 Li     4.850345    1.617314   13.473297    ( 0.0000,  0.0000,  0.0000)
  20 Li     8.083473    1.616978   13.458015    ( 0.0000,  0.0000,  0.0000)
  21 Li     1.615617    4.849321   13.474937    ( 0.0000,  0.0000,  0.0000)
  22 Li     4.852229    4.851400   13.473008    ( 0.0000,  0.0000,  0.0000)
  23 Li     8.085858    4.849295   13.473711    ( 0.0000,  0.0000,  0.0000)
  24 Li     1.616287    8.086695   13.473938    ( 0.0000,  0.0000,  0.0000)
  25 Li     4.851435    8.084701   13.472167    ( 0.0000,  0.0000,  0.0000)
  26 Li     8.085920    8.087147   13.475556    ( 0.0000,  0.0000,  0.0000)
  27 Li    -0.009354   -0.052942   15.364516    ( 0.0000,  0.0000,  0.0000)
  28 Li     3.238357   -0.000906   15.441581    ( 0.0000,  0.0000,  0.0000)
  29 Li     6.462350   -0.004741   15.434542    ( 0.0000,  0.0000,  0.0000)
  30 Li     0.001304    3.255701   15.398015    ( 0.0000,  0.0000,  0.0000)
  31 Li     3.237746    3.235323   15.441083    ( 0.0000,  0.0000,  0.0000)
  32 Li     6.468615    3.233236   15.450668    ( 0.0000,  0.0000,  0.0000)
  33 Li    -0.001164    6.469072   15.445649    ( 0.0000,  0.0000,  0.0000)
  34 Li     3.232456    6.467874   15.444950    ( 0.0000,  0.0000,  0.0000)
  35 Li     6.470710    6.470272   15.445837    ( 0.0000,  0.0000,  0.0000)
  36 O      8.071893    1.625708   17.448254    ( 0.0000,  0.0000,  0.0000)
  37 C      9.483305    1.610888   17.479230    ( 0.0000,  0.0000,  0.0000)
  38 H      9.952484    0.878347   16.822512    ( 0.0000,  0.0000,  0.0000)
  39 H      9.925032    1.423018   18.454035    ( 0.0000,  0.0000,  0.0000)
  40 H      9.851228    2.587877   17.155579    ( 0.0000,  0.0000,  0.0000)
  41 H      7.767038    0.744249   17.746702    ( 0.0000,  0.0000,  0.0000)

Unit cell:
           periodic     x           y           z      points  spacing
  1. axis:    yes    9.702222    0.000000    0.000000    60     0.1617
  2. axis:    yes    0.000000    9.702222    0.000000    60     0.1617
  3. axis:    no     0.000000    0.000000   24.851111   156     0.1593

  Lengths:   9.702222   9.702222  24.851111
  Angles:   90.000000  90.000000  90.000000

Effective grid spacing dv^(1/3) = 0.1609

     iter     time        total  log10-change:
                         energy  eigst   dens
iter:   1 12:45:08  -246.511541  -1.11
iter:   2 12:45:52  -246.503788  -1.65  -1.93
iter:   3 12:46:34  -246.501288c -2.40  -2.04
iter:   4 12:47:17  -246.492155c -1.76  -2.14
Writing to output.gpw (mode='')

iter:   5 12:48:03  -246.492665c -3.20  -2.47
iter:   6 12:48:46  -246.491744c -2.75  -2.57
iter:   7 12:49:30  -246.492183c -1.92  -2.69
iter:   8 12:50:12  -246.491642c -2.99  -2.55
iter:   9 12:50:57  -246.491457c -3.19  -2.68
Writing to output.gpw (mode='')

iter:  10 12:51:41  -246.491263c -3.28  -2.83
iter:  11 12:52:24  -246.491245c -3.26  -3.02
iter:  12 12:53:06  -246.491244c -3.69  -3.07
iter:  13 12:53:51  -246.491210c -4.25  -3.10
iter:  14 12:54:36  -246.491207c -3.96  -3.26
Writing to output.gpw (mode='')

iter:  15 12:55:24  -246.491211c -4.53  -3.46
iter:  16 12:56:10  -246.491214c -4.68  -3.54
iter:  17 12:56:52  -246.491219c -4.51  -3.64
iter:  18 12:57:36  -246.491218c -4.86  -3.72
iter:  19 12:58:19  -246.491216c -5.23  -3.69
Writing to output.gpw (mode='')

iter:  20 12:59:02  -246.491215c -5.15  -3.76
iter:  21 12:59:47  -246.491215c -5.46  -3.98
iter:  22 13:00:30  -246.491211c -5.41  -4.04c
iter:  23 13:01:12  -246.491211c -5.80  -4.28c
iter:  24 13:01:58  -246.491211c -5.94  -4.35c
Writing to output.gpw (mode='')

iter:  25 13:02:44  -246.491211c -6.15  -4.55c
iter:  26 13:03:28  -246.491211c -6.47  -4.63c
iter:  27 13:04:10  -246.491211c -6.44  -4.73c
iter:  28 13:04:53  -246.491211c -6.71  -4.99c
iter:  29 13:05:40  -246.491211c -6.73  -5.00c
Writing to output.gpw (mode='')

iter:  30 13:06:24  -246.491211c -6.95  -5.04c
iter:  31 13:07:09  -246.491211c -6.93  -5.20c
iter:  32 13:07:52  -246.491211c -6.92  -5.32c
iter:  33 13:08:35  -246.491211c -7.10  -5.39c
iter:  34 13:09:20  -246.491211c -7.27  -5.41c
Writing to output.gpw (mode='')

iter:  35 13:10:07  -246.491211c -7.42c -5.42c

Converged after 35 iterations.

Dipole moment: (0.779981, -3.791151, 0.189266) |e|*Ang

Energy contributions relative to reference atoms: (reference = -10418.802594)

Kinetic:       +112.877231
Potential:     -102.243273
External:        +0.000000
XC:            -257.247431
Entropy (-ST):   -0.143944
Local:           +0.194234
--------------------------
Free energy:   -246.563183
Extrapolated:  -246.491211

Dipole-layer corrected work functions: 3.375088, 3.011253 eV

Showing only first 2 kpts
 Kpt  Band  Eigenvalues  Occupancy
  0    23     -3.45015    1.98835
  0    24     -3.35034    1.91730
  0    25     -3.03955    0.08851
  0    26     -2.94583    0.01411

  1    23     -3.25235    1.53119
  1    24     -3.18647    0.93306
  1    25     -3.14974    0.59112
  1    26     -3.10767    0.30631


Fermi level: -3.19317

No gap

Forces in eV/Ang:
  0 Li    0.01832    0.00333   -0.27464
  1 Li   -0.00892    0.00105   -0.27154
  2 Li   -0.00733   -0.00385   -0.27829
  3 Li   -0.00048    0.00202   -0.27234
  4 Li   -0.00341   -0.00511   -0.27588
  5 Li    0.00182    0.01428   -0.26955
  6 Li   -0.00500   -0.00514   -0.27201
  7 Li    0.00269    0.00385   -0.27741
  8 Li   -0.00054   -0.01086   -0.27259
  9 Li    0.00257    0.00352    0.30357
 10 Li    0.01073   -0.00328    0.25377
 11 Li   -0.01681   -0.00728    0.26971
 12 Li    0.00395   -0.00672    0.30051
 13 Li    0.00778    0.00933    0.24191
 14 Li   -0.01647    0.00159    0.27451
 15 Li   -0.00529    0.00373    0.24879
 16 Li   -0.01085   -0.00593    0.27564
 17 Li    0.01959    0.00587    0.25995
 18 Li    0.02458    0.00088   -0.02436
 19 Li   -0.00749    0.00460    0.03294
 20 Li   -0.02512    0.00232   -0.12578
 21 Li   -0.00478   -0.00811    0.03923
 22 Li    0.01345    0.00279    0.03393
 23 Li   -0.00395   -0.00884    0.02761
 24 Li    0.01021   -0.00244    0.01921
 25 Li    0.00191   -0.00785    0.02142
 26 Li   -0.01159   -0.00099    0.03130
 27 Li   -0.04763   -0.32436   -0.50879
 28 Li    0.03901   -0.01053   -0.04305
 29 Li   -0.05815   -0.04717   -0.11768
 30 Li    0.01794    0.16989   -0.38960
 31 Li    0.03955    0.01498   -0.04926
 32 Li    0.00755   -0.01336    0.05387
 33 Li   -0.01233    0.00306   -0.00371
 34 Li   -0.01787   -0.00204   -0.01041
 35 Li    0.02818    0.02302   -0.00120
 36 O    -0.36520   -0.34172    0.19892
 37 C     0.37347    0.26610    0.12230
 38 H     0.12295   -0.08065    0.04105
 39 H    -0.12533    0.02555    0.41424
 40 H    -0.02403    0.08890    0.30913
 41 H    -0.01495    0.28051   -0.03660

System changes: positions 

Initializing position-dependent things.

Density initialized from wave functions
       .-----------------------.  
      /|                       |  
     / |                       |  
    /  |                       |  
   /   |                       |  
  /    |                       |  
 *     |                       |  
 |     |                       |  
 |     |                       |  
 |     |                       |  
 |     |                       |  
 |     |                       |  
 |     |       Li      Li      Li 
 |H    |                       |  
 | H   |     Li      HO  C   Li|  
 |H    |  Li      Li      Li   |  
 | Li  |   Li      Li          |  
 |     |Li      Li      Li     |  
 |     |                       |  
 |   LLi     LLi     LLi       |  
 |     |  Li      Li      Li   |  
 | Li  |   Li      Li          |  
 |     |Li      Li      Li     |  
 Li    | Li      Li            |  
 |    Li      Li      Li       |  
 |     |                       |  
 |     |                       |  
 |     |                       |  
 |     |                       |  
 |     |                       |  
 |     |                       |  
 |     .-----------------------.  
 |    /                       /   
 |   /                       /    
 |  /                       /     
 | /                       /      
 |/                       /       
 *-----------------------*        

Positions:
   0 Li     1.617037    1.617037   10.000000    ( 0.0000,  0.0000,  0.0000)
   1 Li     4.851111    1.617037   10.000000    ( 0.0000,  0.0000,  0.0000)
   2 Li     8.085185    1.617037   10.000000    ( 0.0000,  0.0000,  0.0000)
   3 Li     1.617037    4.851111   10.000000    ( 0.0000,  0.0000,  0.0000)
   4 Li     4.851111    4.851111   10.000000    ( 0.0000,  0.0000,  0.0000)
   5 Li     8.085185    4.851111   10.000000    ( 0.0000,  0.0000,  0.0000)
   6 Li     1.617037    8.085185   10.000000    ( 0.0000,  0.0000,  0.0000)
   7 Li     4.851111    8.085185   10.000000    ( 0.0000,  0.0000,  0.0000)
   8 Li     8.085185    8.085185   10.000000    ( 0.0000,  0.0000,  0.0000)
   9 Li     0.000000    0.000000   11.617037    ( 0.0000,  0.0000,  0.0000)
  10 Li     3.234074    0.000000   11.617037    ( 0.0000,  0.0000,  0.0000)
  11 Li     6.468148    0.000000   11.617037    ( 0.0000,  0.0000,  0.0000)
  12 Li     0.000000    3.234074   11.617037    ( 0.0000,  0.0000,  0.0000)
  13 Li     3.234074    3.234074   11.617037    ( 0.0000,  0.0000,  0.0000)
  14 Li     6.468148    3.234074   11.617037    ( 0.0000,  0.0000,  0.0000)
  15 Li     0.000000    6.468148   11.617037    ( 0.0000,  0.0000,  0.0000)
  16 Li     3.234074    6.468148   11.617037    ( 0.0000,  0.0000,  0.0000)
  17 Li     6.468148    6.468148   11.617037    ( 0.0000,  0.0000,  0.0000)
  18 Li     1.619815    1.617190   13.467654    ( 0.0000,  0.0000,  0.0000)
  19 Li     4.849988    1.617474   13.474930    ( 0.0000,  0.0000,  0.0000)
  20 Li     8.082535    1.616999   13.452359    ( 0.0000,  0.0000,  0.0000)
  21 Li     1.615106    4.848643   13.477174    ( 0.0000,  0.0000,  0.0000)
  22 Li     4.852794    4.851535   13.474569    ( 0.0000,  0.0000,  0.0000)
  23 Li     8.085996    4.848596   13.475382    ( 0.0000,  0.0000,  0.0000)
  24 Li     1.616230    8.087112   13.475537    ( 0.0000,  0.0000,  0.0000)
  25 Li     4.851566    8.084423   13.473267    ( 0.0000,  0.0000,  0.0000)
  26 Li     8.085947    8.087723   13.477846    ( 0.0000,  0.0000,  0.0000)
  27 Li    -0.013019   -0.074571   15.331067    ( 0.0000,  0.0000,  0.0000)
  28 Li     3.240308   -0.001358   15.439538    ( 0.0000,  0.0000,  0.0000)
  29 Li     6.459621   -0.006962   15.429111    ( 0.0000,  0.0000,  0.0000)
  30 Li     0.002001    3.265128   15.376903    ( 0.0000,  0.0000,  0.0000)
  31 Li     3.239522    3.235952   15.438784    ( 0.0000,  0.0000,  0.0000)
  32 Li     6.468885    3.232754   15.453008    ( 0.0000,  0.0000,  0.0000)
  33 Li    -0.001723    6.469403   15.445499    ( 0.0000,  0.0000,  0.0000)
  34 Li     3.231665    6.467757   15.444477    ( 0.0000,  0.0000,  0.0000)
  35 Li     6.471960    6.471300   15.445784    ( 0.0000,  0.0000,  0.0000)
  36 O      8.063331    1.625015   17.451459    ( 0.0000,  0.0000,  0.0000)
  37 C      9.478869    1.616606   17.489948    ( 0.0000,  0.0000,  0.0000)
  38 H      9.964478    0.885569   16.841437    ( 0.0000,  0.0000,  0.0000)
  39 H      9.924904    1.423366   18.460950    ( 0.0000,  0.0000,  0.0000)
  40 H      9.855972    2.590003   17.171838    ( 0.0000,  0.0000,  0.0000)
  41 H      7.764207    0.743759   17.749841    ( 0.0000,  0.0000,  0.0000)

Unit cell:
           periodic     x           y           z      points  spacing
  1. axis:    yes    9.702222    0.000000    0.000000    60     0.1617
  2. axis:    yes    0.000000    9.702222    0.000000    60     0.1617
  3. axis:    no     0.000000    0.000000   24.851111   156     0.1593

  Lengths:   9.702222   9.702222  24.851111
  Angles:   90.000000  90.000000  90.000000

Effective grid spacing dv^(1/3) = 0.1609

     iter     time        total  log10-change:
                         energy  eigst   dens
iter:   1 13:11:07  -246.558484  -1.10
iter:   2 13:11:51  -246.548526  -1.62  -1.89
iter:   3 13:12:36  -246.545566c -2.39  -2.01
iter:   4 13:13:19  -246.535231c -1.75  -2.12
Writing to output.gpw (mode='')

iter:   5 13:14:03  -246.536359c -3.19  -2.47
iter:   6 13:14:44  -246.535027c -2.77  -2.52
iter:   7 13:15:24  -246.535262c -1.91  -2.68
iter:   8 13:16:10  -246.534835c -2.96  -2.57
iter:   9 13:16:55  -246.534690c -3.22  -2.68
Writing to output.gpw (mode='')

iter:  10 13:17:46  -246.534450c -3.21  -2.80
iter:  11 13:18:32  -246.534433c -3.39  -3.02
iter:  12 13:19:17  -246.534431c -3.49  -3.08
iter:  13 13:20:02  -246.534405c -4.29  -3.11
iter:  14 13:20:45  -246.534392c -4.32  -3.20
Writing to output.gpw (mode='')

iter:  15 13:21:29  -246.534404c -3.83  -3.32
iter:  16 13:22:11  -246.534400c -4.77  -3.48
iter:  17 13:22:54  -246.534399c -4.27  -3.55
iter:  18 13:23:40  -246.534404c -4.54  -3.63
iter:  19 13:24:25  -246.534404c -4.71  -3.69
Writing to output.gpw (mode='')

iter:  20 13:25:10  -246.534395c -5.16  -3.64
iter:  21 13:25:55  -246.534394c -5.14  -4.23c
iter:  22 13:26:39  -246.534395c -5.69  -4.37c
iter:  23 13:27:24  -246.534395c -6.17  -4.43c
iter:  24 13:28:08  -246.534394c -5.65  -4.49c
Writing to output.gpw (mode='')

iter:  25 13:28:56  -246.534394c -6.23  -4.49c
iter:  26 13:29:40  -246.534395c -6.26  -4.60c
iter:  27 13:30:23  -246.534395c -6.67  -4.83c
iter:  28 13:31:07  -246.534395c -6.60  -4.85c
iter:  29 13:31:49  -246.534395c -6.52  -5.03c
Writing to output.gpw (mode='')

iter:  30 13:32:34  -246.534395c -6.91  -5.12c
iter:  31 13:33:18  -246.534396c -6.90  -5.22c
iter:  32 13:34:02  -246.534396c -6.91  -5.25c
iter:  33 13:34:47  -246.534395c -7.04  -5.27c
iter:  34 13:35:29  -246.534395c -7.23  -5.40c
Writing to output.gpw (mode='')

iter:  35 13:36:15  -246.534396c -7.17  -5.57c
iter:  36 13:36:59  -246.534396c -7.34  -5.69c
iter:  37 13:37:46  -246.534396c -7.16  -5.65c
iter:  38 13:38:28  -246.534396c -7.41c -5.53c

Converged after 38 iterations.

Dipole moment: (0.978528, -3.431056, 0.185295) |e|*Ang

Energy contributions relative to reference atoms: (reference = -10418.802594)

Kinetic:       +112.744936
Potential:     -102.173235
External:        +0.000000
XC:            -257.227448
Entropy (-ST):   -0.143954
Local:           +0.193329
--------------------------
Free energy:   -246.606373
Extrapolated:  -246.534396

Dipole-layer corrected work functions: 3.375317, 3.019117 eV

Showing only first 2 kpts
 Kpt  Band  Eigenvalues  Occupancy
  0    23     -3.45563    1.98868
  0    24     -3.35428    1.91713
  0    25     -3.04145    0.08496
  0    26     -2.95142    0.01455

  1    23     -3.25400    1.51380
  1    24     -3.19172    0.94512
  1    25     -3.15361    0.58959
  1    26     -3.11167    0.30611


Fermi level: -3.19722

No gap
Writing to output.gpw (mode='')


Forces in eV/Ang:
  0 Li    0.01811    0.00317   -0.27601
  1 Li   -0.00878    0.00104   -0.27138
  2 Li   -0.00722   -0.00400   -0.27976
  3 Li   -0.00088    0.00208   -0.27286
  4 Li   -0.00332   -0.00528   -0.27586
  5 Li    0.00227    0.01412   -0.26974
  6 Li   -0.00547   -0.00499   -0.27286
  7 Li    0.00264    0.00437   -0.27729
  8 Li   -0.00011   -0.01058   -0.27328
  9 Li    0.00321    0.00148    0.30538
 10 Li    0.01073   -0.00398    0.25541
 11 Li   -0.01726   -0.00893    0.27075
 12 Li    0.00482   -0.00481    0.30152
 13 Li    0.00774    0.01033    0.24339
 14 Li   -0.01755    0.00321    0.27456
 15 Li   -0.00535    0.00445    0.25212
 16 Li   -0.00966   -0.00651    0.27697
 17 Li    0.01860    0.00585    0.26032
 18 Li    0.02630    0.00041   -0.02872
 19 Li   -0.00693    0.00538    0.02872
 20 Li   -0.02733    0.00368   -0.12098
 21 Li    0.00151   -0.00154    0.02876
 22 Li    0.01392    0.00258    0.03208
 23 Li   -0.01027   -0.00253    0.01859
 24 Li    0.02032   -0.01275    0.00452
 25 Li    0.00112   -0.00916    0.01831
 26 Li   -0.02271   -0.01389    0.01236
 27 Li   -0.02888   -0.23633   -0.38039
 28 Li    0.03411   -0.01081   -0.04025
 29 Li   -0.05248   -0.04212   -0.11065
 30 Li    0.01911    0.13795   -0.32907
 31 Li    0.03840    0.01544   -0.04658
 32 Li    0.01005   -0.01641    0.05575
 33 Li   -0.01164   -0.00104   -0.00375
 34 Li   -0.01770   -0.00145   -0.00977
 35 Li    0.02753    0.02199   -0.00149
 36 O    -0.14825   -0.28951    0.16653
 37 C     0.42183    0.15713    0.10129
 38 H     0.00012   -0.13269   -0.10009
 39 H    -0.19689    0.04849    0.50184
 40 H    -0.09348    0.16883    0.25000
 41 H    -0.03738    0.21782   -0.01736

System changes: positions 

Initializing position-dependent things.

Density initialized from wave functions
       .-----------------------.  
      /|                       |  
     / |                       |  
    /  |                       |  
   /   |                       |  
  /    |                       |  
 *     |                       |  
 |     |                       |  
 |     |                       |  
 |     |                       |  
 |     |                       |  
 |     |                       |  
 |     |       Li      Li      Li 
 |H    |                       |  
 | H   |     Li      HO  C   Li|  
 |H    |  Li      Li      Li   |  
 | Li  |   Li      Li          |  
 |     |Li      Li      Li     |  
 |     |                       |  
 |   LLi     LLi     LLi       |  
 |     |  Li      Li      Li   |  
 | Li  |   Li      Li          |  
 |     |Li      Li      Li     |  
 Li    | Li      Li            |  
 |    Li      Li      Li       |  
 |     |                       |  
 |     |                       |  
 |     |                       |  
 |     |                       |  
 |     |                       |  
 |     |                       |  
 |     .-----------------------.  
 |    /                       /   
 |   /                       /    
 |  /                       /     
 | /                       /      
 |/                       /       
 *-----------------------*        

Positions:
   0 Li     1.617037    1.617037   10.000000    ( 0.0000,  0.0000,  0.0000)
   1 Li     4.851111    1.617037   10.000000    ( 0.0000,  0.0000,  0.0000)
   2 Li     8.085185    1.617037   10.000000    ( 0.0000,  0.0000,  0.0000)
   3 Li     1.617037    4.851111   10.000000    ( 0.0000,  0.0000,  0.0000)
   4 Li     4.851111    4.851111   10.000000    ( 0.0000,  0.0000,  0.0000)
   5 Li     8.085185    4.851111   10.000000    ( 0.0000,  0.0000,  0.0000)
   6 Li     1.617037    8.085185   10.000000    ( 0.0000,  0.0000,  0.0000)
   7 Li     4.851111    8.085185   10.000000    ( 0.0000,  0.0000,  0.0000)
   8 Li     8.085185    8.085185   10.000000    ( 0.0000,  0.0000,  0.0000)
   9 Li     0.000000    0.000000   11.617037    ( 0.0000,  0.0000,  0.0000)
  10 Li     3.234074    0.000000   11.617037    ( 0.0000,  0.0000,  0.0000)
  11 Li     6.468148    0.000000   11.617037    ( 0.0000,  0.0000,  0.0000)
  12 Li     0.000000    3.234074   11.617037    ( 0.0000,  0.0000,  0.0000)
  13 Li     3.234074    3.234074   11.617037    ( 0.0000,  0.0000,  0.0000)
  14 Li     6.468148    3.234074   11.617037    ( 0.0000,  0.0000,  0.0000)
  15 Li     0.000000    6.468148   11.617037    ( 0.0000,  0.0000,  0.0000)
  16 Li     3.234074    6.468148   11.617037    ( 0.0000,  0.0000,  0.0000)
  17 Li     6.468148    6.468148   11.617037    ( 0.0000,  0.0000,  0.0000)
  18 Li     1.620922    1.617232   13.466669    ( 0.0000,  0.0000,  0.0000)
  19 Li     4.849605    1.617669   13.476640    ( 0.0000,  0.0000,  0.0000)
  20 Li     8.081440    1.617055   13.446203    ( 0.0000,  0.0000,  0.0000)
  21 Li     1.614688    4.848045   13.479405    ( 0.0000,  0.0000,  0.0000)
  22 Li     4.853430    4.851679   13.476255    ( 0.0000,  0.0000,  0.0000)
  23 Li     8.086001    4.847970   13.477019    ( 0.0000,  0.0000,  0.0000)
  24 Li     1.616404    8.087331   13.476959    ( 0.0000,  0.0000,  0.0000)
  25 Li     4.851692    8.084085   13.474410    ( 0.0000,  0.0000,  0.0000)
  26 Li     8.085719    8.088062   13.479939    ( 0.0000,  0.0000,  0.0000)
  27 Li    -0.016568   -0.096126   15.297559    ( 0.0000,  0.0000,  0.0000)
  28 Li     3.242353   -0.001863   15.437344    ( 0.0000,  0.0000,  0.0000)
  29 Li     6.456724   -0.009313   15.423260    ( 0.0000,  0.0000,  0.0000)
  30 Li     0.002802    3.274769   15.355067    ( 0.0000,  0.0000,  0.0000)
  31 Li     3.241460    3.236660   15.436304    ( 0.0000,  0.0000,  0.0000)
  32 Li     6.469235    3.232155   15.455634    ( 0.0000,  0.0000,  0.0000)
  33 Li    -0.002327    6.469673   15.445331    ( 0.0000,  0.0000,  0.0000)
  34 Li     3.230794    6.467642   15.443967    ( 0.0000,  0.0000,  0.0000)
  35 Li     6.473329    6.472417   15.445720    ( 0.0000,  0.0000,  0.0000)
  36 O      8.057001    1.623657   17.455006    ( 0.0000,  0.0000,  0.0000)
  37 C      9.477015    1.621604   17.500870    ( 0.0000,  0.0000,  0.0000)
  38 H      9.974832    0.891482   16.858018    ( 0.0000,  0.0000,  0.0000)
  39 H      9.922904    1.424246   18.471360    ( 0.0000,  0.0000,  0.0000)
  40 H      9.859353    2.593976   17.188473    ( 0.0000,  0.0000,  0.0000)
  41 H      7.760908    0.743457   17.753153    ( 0.0000,  0.0000,  0.0000)

Unit cell:
           periodic     x           y           z      points  spacing
  1. axis:    yes    9.702222    0.000000    0.000000    60     0.1617
  2. axis:    yes    0.000000    9.702222    0.000000    60     0.1617
  3. axis:    no     0.000000    0.000000   24.851111   156     0.1593

  Lengths:   9.702222   9.702222  24.851111
  Angles:   90.000000  90.000000  90.000000

Effective grid spacing dv^(1/3) = 0.1609

     iter     time        total  log10-change:
                         energy  eigst   dens
iter:   1 13:39:27  -246.594316  -1.10
iter:   2 13:40:11  -246.583067  -1.60  -1.87
iter:   3 13:40:55  -246.579887c -2.39  -2.00
iter:   4 13:41:38  -246.569126c -1.78  -2.11
Writing to output.gpw (mode='')

iter:   5 13:42:20  -246.570670c -3.19  -2.48
iter:   6 13:43:06  -246.569085c -2.77  -2.48
iter:   7 13:43:50  -246.569173c -1.89  -2.65
iter:   8 13:44:34  -246.568747c -2.98  -2.58
iter:   9 13:45:19  -246.568699c -3.20  -2.70
Writing to output.gpw (mode='')

iter:  10 13:46:06  -246.568443c -3.23  -2.77
iter:  11 13:46:48  -246.568425c -3.52  -3.02
iter:  12 13:47:35  -246.568421c -3.32  -3.08
iter:  13 13:48:20  -246.568398c -4.26  -3.11
iter:  14 13:49:00  -246.568377c -4.34  -3.17
Writing to output.gpw (mode='')

iter:  15 13:49:44  -246.568392c -3.71  -3.33
iter:  16 13:50:28  -246.568377c -4.83  -3.36
iter:  17 13:51:11  -246.568393c -4.03  -3.62
iter:  18 13:51:56  -246.568385c -4.67  -3.49
iter:  19 13:52:41  -246.568384c -5.39  -3.90
Writing to output.gpw (mode='')

iter:  20 13:53:24  -246.568380c -5.53  -3.96
iter:  21 13:54:05  -246.568379c -5.35  -4.21c
iter:  22 13:54:50  -246.568379c -5.77  -4.35c
iter:  23 13:55:34  -246.568379c -5.89  -4.46c
iter:  24 13:56:22  -246.568379c -6.13  -4.56c
Writing to output.gpw (mode='')

iter:  25 13:57:08  -246.568379c -6.20  -4.59c
iter:  26 13:57:53  -246.568380c -6.10  -4.69c
iter:  27 13:58:37  -246.568380c -6.60  -4.85c
iter:  28 13:59:20  -246.568380c -6.49  -4.91c
iter:  29 14:00:03  -246.568380c -6.65  -5.09c
Writing to output.gpw (mode='')

iter:  30 14:00:47  -246.568380c -6.91  -5.13c
iter:  31 14:01:31  -246.568380c -6.92  -5.12c
iter:  32 14:02:18  -246.568380c -6.85  -5.13c
iter:  33 14:03:02  -246.568380c -7.12  -5.29c
iter:  34 14:03:48  -246.568380c -7.07  -5.36c
Writing to output.gpw (mode='')

iter:  35 14:04:33  -246.568380c -7.21  -5.51c
iter:  36 14:05:16  -246.568380c -7.24  -5.54c
iter:  37 14:06:00  -246.568380c -7.47c -5.59c

Converged after 37 iterations.

Dipole moment: (1.104699, -3.076072, 0.181743) |e|*Ang

Energy contributions relative to reference atoms: (reference = -10418.802594)

Kinetic:       +112.578352
Potential:     -102.069505
External:        +0.000000
XC:            -257.198142
Entropy (-ST):   -0.143943
Local:           +0.192886
--------------------------
Free energy:   -246.640351
Extrapolated:  -246.568380

Dipole-layer corrected work functions: 3.375564, 3.026191 eV

Showing only first 2 kpts
 Kpt  Band  Eigenvalues  Occupancy
  0    23     -3.46080    1.98901
  0    24     -3.35786    1.91700
  0    25     -3.04297    0.08154
  0    26     -2.95676    0.01505

  1    23     -3.25540    1.49692
  1    24     -3.19662    0.95749
  1    25     -3.15691    0.58660
  1    26     -3.11525    0.30564


Fermi level: -3.20088

No gap
Writing to output.gpw (mode='')


Forces in eV/Ang:
  0 Li    0.01790    0.00301   -0.27740
  1 Li   -0.00862    0.00103   -0.27120
  2 Li   -0.00715   -0.00415   -0.28128
  3 Li   -0.00131    0.00219   -0.27341
  4 Li   -0.00325   -0.00548   -0.27582
  5 Li    0.00275    0.01395   -0.26990
  6 Li   -0.00594   -0.00487   -0.27369
  7 Li    0.00255    0.00495   -0.27718
  8 Li    0.00035   -0.01030   -0.27397
  9 Li    0.00390   -0.00071    0.30707
 10 Li    0.01090   -0.00473    0.25698
 11 Li   -0.01791   -0.01065    0.27172
 12 Li    0.00575   -0.00273    0.30249
 13 Li    0.00777    0.01143    0.24489
 14 Li   -0.01880    0.00495    0.27447
 15 Li   -0.00540    0.00516    0.25548
 16 Li   -0.00828   -0.00720    0.27815
 17 Li    0.01743    0.00574    0.26060
 18 Li    0.02779   -0.00026   -0.03294
 19 Li   -0.00633    0.00622    0.02431
 20 Li   -0.02919    0.00491   -0.11516
 21 Li    0.00821    0.00543    0.01775
 22 Li    0.01441    0.00240    0.03009
 23 Li   -0.01691    0.00406    0.00925
 24 Li    0.03101   -0.02344   -0.01058
 25 Li    0.00026   -0.01061    0.01497
 26 Li   -0.03455   -0.02751   -0.00751
 27 Li   -0.01393   -0.16370   -0.27630
 28 Li    0.02927   -0.01118   -0.03756
 29 Li   -0.04617   -0.03688   -0.10315
 30 Li    0.01997    0.10869   -0.27446
 31 Li    0.03716    0.01591   -0.04384
 32 Li    0.01301   -0.01951    0.05769
 33 Li   -0.01086   -0.00531   -0.00367
 34 Li   -0.01745   -0.00086   -0.00905
 35 Li    0.02671    0.02079   -0.00168
 36 O     0.05187   -0.22123    0.12668
 37 C     0.43740    0.06830    0.08284
 38 H    -0.08720   -0.14832   -0.17261
 39 H    -0.24738    0.06811    0.53820
 40 H    -0.15130    0.20642    0.20219
 41 H    -0.04477    0.15259    0.00364

System changes: positions 

Initializing position-dependent things.

Density initialized from wave functions
       .-----------------------.  
      /|                       |  
     / |                       |  
    /  |                       |  
   /   |                       |  
  /    |                       |  
 *     |                       |  
 |     |                       |  
 |     |                       |  
 |     |                       |  
 |     |                       |  
 |     |                       |  
 |     |       Li      Li      Li 
 |H    |                       |  
 | H   |     Li      HO  C   Li|  
 |H    |  Li      Li      Li   |  
 | Li  |   Li      Li          |  
 |     |Li      Li      Li     |  
 |     |                       |  
 |   LLi     LLi     LLi       |  
 |     |  Li      Li      Li   |  
 | Li  |   Li      Li          |  
 |     |Li      Li      Li     |  
 Li    | Li      Li            |  
 |    Li      Li      Li       |  
 |     |                       |  
 |     |                       |  
 |     |                       |  
 |     |                       |  
 |     |                       |  
 |     |                       |  
 |     .-----------------------.  
 |    /                       /   
 |   /                       /    
 |  /                       /     
 | /                       /      
 |/                       /       
 *-----------------------*        

Positions:
   0 Li     1.617037    1.617037   10.000000    ( 0.0000,  0.0000,  0.0000)
   1 Li     4.851111    1.617037   10.000000    ( 0.0000,  0.0000,  0.0000)
   2 Li     8.085185    1.617037   10.000000    ( 0.0000,  0.0000,  0.0000)
   3 Li     1.617037    4.851111   10.000000    ( 0.0000,  0.0000,  0.0000)
   4 Li     4.851111    4.851111   10.000000    ( 0.0000,  0.0000,  0.0000)
   5 Li     8.085185    4.851111   10.000000    ( 0.0000,  0.0000,  0.0000)
   6 Li     1.617037    8.085185   10.000000    ( 0.0000,  0.0000,  0.0000)
   7 Li     4.851111    8.085185   10.000000    ( 0.0000,  0.0000,  0.0000)
   8 Li     8.085185    8.085185   10.000000    ( 0.0000,  0.0000,  0.0000)
   9 Li     0.000000    0.000000   11.617037    ( 0.0000,  0.0000,  0.0000)
  10 Li     3.234074    0.000000   11.617037    ( 0.0000,  0.0000,  0.0000)
  11 Li     6.468148    0.000000   11.617037    ( 0.0000,  0.0000,  0.0000)
  12 Li     0.000000    3.234074   11.617037    ( 0.0000,  0.0000,  0.0000)
  13 Li     3.234074    3.234074   11.617037    ( 0.0000,  0.0000,  0.0000)
  14 Li     6.468148    3.234074   11.617037    ( 0.0000,  0.0000,  0.0000)
  15 Li     0.000000    6.468148   11.617037    ( 0.0000,  0.0000,  0.0000)
  16 Li     3.234074    6.468148   11.617037    ( 0.0000,  0.0000,  0.0000)
  17 Li     6.468148    6.468148   11.617037    ( 0.0000,  0.0000,  0.0000)
  18 Li     1.622182    1.617265   13.465472    ( 0.0000,  0.0000,  0.0000)
  19 Li     4.849200    1.617906   13.478414    ( 0.0000,  0.0000,  0.0000)
  20 Li     8.080181    1.617149   13.439562    ( 0.0000,  0.0000,  0.0000)
  21 Li     1.614391    4.847560   13.481585    ( 0.0000,  0.0000,  0.0000)
  22 Li     4.854141    4.851832   13.478062    ( 0.0000,  0.0000,  0.0000)
  23 Li     8.085842    4.847445   13.478586    ( 0.0000,  0.0000,  0.0000)
  24 Li     1.616860    8.087306   13.478145    ( 0.0000,  0.0000,  0.0000)
  25 Li     4.851809    8.083678   13.475585    ( 0.0000,  0.0000,  0.0000)
  26 Li     8.085178    8.088100   13.481751    ( 0.0000,  0.0000,  0.0000)
  27 Li    -0.020002   -0.117589   15.263981    ( 0.0000,  0.0000,  0.0000)
  28 Li     3.244479   -0.002427   15.435002    ( 0.0000,  0.0000,  0.0000)
  29 Li     6.453681   -0.011777   15.417003    ( 0.0000,  0.0000,  0.0000)
  30 Li     0.003710    3.284578   15.332573    ( 0.0000,  0.0000,  0.0000)
  31 Li     3.243564    3.237449   15.433646    ( 0.0000,  0.0000,  0.0000)
  32 Li     6.469685    3.231424   15.458562    ( 0.0000,  0.0000,  0.0000)
  33 Li    -0.002974    6.469865   15.445147    ( 0.0000,  0.0000,  0.0000)
  34 Li     3.229841    6.467530   15.443422    ( 0.0000,  0.0000,  0.0000)
  35 Li     6.474817    6.473620   15.445646    ( 0.0000,  0.0000,  0.0000)
  36 O      8.053281    1.621926   17.458718    ( 0.0000,  0.0000,  0.0000)
  37 C      9.477475    1.625953   17.511963    ( 0.0000,  0.0000,  0.0000)
  38 H      9.983733    0.896490   16.872912    ( 0.0000,  0.0000,  0.0000)
  39 H      9.919106    1.425687   18.484776    ( 0.0000,  0.0000,  0.0000)
  40 H      9.861300    2.599325   17.205522    ( 0.0000,  0.0000,  0.0000)
  41 H      7.757359    0.743237   17.756691    ( 0.0000,  0.0000,  0.0000)

Unit cell:
           periodic     x           y           z      points  spacing
  1. axis:    yes    9.702222    0.000000    0.000000    60     0.1617
  2. axis:    yes    0.000000    9.702222    0.000000    60     0.1617
  3. axis:    no     0.000000    0.000000   24.851111   156     0.1593

  Lengths:   9.702222   9.702222  24.851111
  Angles:   90.000000  90.000000  90.000000

Effective grid spacing dv^(1/3) = 0.1609

     iter     time        total  log10-change:
                         energy  eigst   dens
iter:   1 14:06:57  -246.623496  -1.11
iter:   2 14:07:41  -246.611758  -1.60  -1.86
iter:   3 14:08:28  -246.608558c -2.39  -2.00
iter:   4 14:09:10  -246.597929c -1.82  -2.11
Writing to output.gpw (mode='')

iter:   5 14:09:53  -246.599666c -3.21  -2.48
iter:   6 14:10:40  -246.597996c -2.79  -2.45
iter:   7 14:11:26  -246.597997c -1.88  -2.63
iter:   8 14:12:09  -246.597555c -3.01  -2.58
iter:   9 14:12:55  -246.597567c -3.16  -2.72
Writing to output.gpw (mode='')

iter:  10 14:13:41  -246.597348c -3.28  -2.78
iter:  11 14:14:24  -246.597319c -3.56  -3.01
iter:  12 14:15:08  -246.597310c -3.24  -3.07
iter:  13 14:15:53  -246.597285c -4.32  -3.10
iter:  14 14:16:39  -246.597259c -4.19  -3.16
Writing to output.gpw (mode='')

iter:  15 14:17:25  -246.597269c -3.70  -3.33
iter:  16 14:18:11  -246.597259c -4.91  -3.36
iter:  17 14:18:56  -246.597275c -4.09  -3.58
iter:  18 14:19:43  -246.597266c -4.50  -3.50
iter:  19 14:20:26  -246.597266c -5.10  -3.81
Writing to output.gpw (mode='')

iter:  20 14:21:10  -246.597262c -5.21  -3.82
iter:  21 14:21:53  -246.597261c -5.73  -4.13c
iter:  22 14:22:38  -246.597260c -5.78  -4.42c
iter:  23 14:23:23  -246.597260c -6.01  -4.40c
iter:  24 14:24:09  -246.597261c -6.06  -4.44c
Writing to output.gpw (mode='')

iter:  25 14:24:56  -246.597260c -6.09  -4.61c
iter:  26 14:25:42  -246.597261c -6.31  -4.54c
iter:  27 14:26:25  -246.597261c -6.33  -4.77c
iter:  28 14:27:06  -246.597261c -6.39  -4.85c
iter:  29 14:27:48  -246.597262c -6.52  -5.02c
Writing to output.gpw (mode='')

iter:  30 14:28:37  -246.597261c -6.75  -5.04c
iter:  31 14:29:20  -246.597261c -6.67  -5.16c
iter:  32 14:30:04  -246.597261c -6.69  -5.25c
iter:  33 14:30:48  -246.597261c -6.95  -5.28c
iter:  34 14:31:34  -246.597261c -6.99  -5.42c
Writing to output.gpw (mode='')

iter:  35 14:32:20  -246.597261c -7.07  -5.53c
iter:  36 14:33:03  -246.597261c -7.26  -5.64c
iter:  37 14:33:45  -246.597261c -7.36  -5.67c
iter:  38 14:34:27  -246.597261c -7.38  -5.69c
iter:  39 14:35:13  -246.597261c -7.42c -5.66c

Converged after 39 iterations.

Dipole moment: (1.169966, -2.729709, 0.178524) |e|*Ang

Energy contributions relative to reference atoms: (reference = -10418.802594)

Kinetic:       +112.428966
Potential:     -101.973771
External:        +0.000000
XC:            -257.173438
Entropy (-ST):   -0.143907
Local:           +0.192935
--------------------------
Free energy:   -246.669215
Extrapolated:  -246.597261

Dipole-layer corrected work functions: 3.375831, 3.032646 eV

Showing only first 2 kpts
 Kpt  Band  Eigenvalues  Occupancy
  0    23     -3.46577    1.98936
  0    24     -3.36115    1.91688
  0    25     -3.04420    0.07827
  0    26     -2.96196    0.01560

  1    23     -3.25664    1.48081
  1    24     -3.20125    0.97013
  1    25     -3.15972    0.58209
  1    26     -3.11845    0.30482


Fermi level: -3.20424

No gap
Writing to output.gpw (mode='')


Forces in eV/Ang:
  0 Li    0.01772    0.00284   -0.27883
  1 Li   -0.00842    0.00103   -0.27100
  2 Li   -0.00711   -0.00429   -0.28285
  3 Li   -0.00171    0.00236   -0.27400
  4 Li   -0.00319   -0.00568   -0.27580
  5 Li    0.00325    0.01379   -0.27006
  6 Li   -0.00637   -0.00482   -0.27452
  7 Li    0.00243    0.00553   -0.27709
  8 Li    0.00080   -0.01004   -0.27466
  9 Li    0.00461   -0.00308    0.30863
 10 Li    0.01123   -0.00555    0.25850
 11 Li   -0.01874   -0.01245    0.27261
 12 Li    0.00673   -0.00047    0.30341
 13 Li    0.00787    0.01267    0.24642
 14 Li   -0.02021    0.00684    0.27424
 15 Li   -0.00543    0.00585    0.25888
 16 Li   -0.00666   -0.00801    0.27910
 17 Li    0.01598    0.00552    0.26068
 18 Li    0.02904   -0.00112   -0.03694
 19 Li   -0.00567    0.00713    0.01979
 20 Li   -0.03069    0.00598   -0.10840
 21 Li    0.01531    0.01278    0.00624
 22 Li    0.01494    0.00224    0.02796
 23 Li   -0.02386    0.01090   -0.00034
 24 Li    0.04227   -0.03446   -0.02600
 25 Li   -0.00068   -0.01217    0.01137
 26 Li   -0.04711   -0.04175   -0.02820
 27 Li   -0.00248   -0.10202   -0.19049
 28 Li    0.02443   -0.01158   -0.03491
 29 Li   -0.03930   -0.03156   -0.09518
 30 Li    0.02046    0.08141   -0.22413
 31 Li    0.03576    0.01632   -0.04098
 32 Li    0.01642   -0.02263    0.05961
 33 Li   -0.00998   -0.00970   -0.00349
 34 Li   -0.01711   -0.00029   -0.00822
 35 Li    0.02571    0.01940   -0.00171
 36 O     0.19829   -0.14703    0.09027
 37 C     0.41335   -0.00440    0.11467
 38 H    -0.14692   -0.14650   -0.23019
[...]
Writing to output.gpw (mode='')

iter:  10 13:14:04  -247.411532c -3.97  -3.31
iter:  11 13:14:46  -247.411556c -4.10  -3.43
iter:  12 13:15:27  -247.411533c -4.82  -3.56
iter:  13 13:16:11  -247.411532c -4.93  -3.83
iter:  14 13:16:54  -247.411534c -5.44  -3.89
Writing to output.gpw (mode='')

iter:  15 13:17:39  -247.411538c -5.29  -3.98
iter:  16 13:18:23  -247.411535c -5.44  -4.10c
iter:  17 13:19:06  -247.411536c -5.97  -4.27c
iter:  18 13:19:51  -247.411538c -6.05  -4.31c
iter:  19 13:20:35  -247.411538c -6.01  -4.39c
Writing to output.gpw (mode='')

iter:  20 13:21:21  -247.411539c -6.15  -4.49c
iter:  21 13:22:05  -247.411539c -6.31  -4.58c
iter:  22 13:22:49  -247.411538c -6.46  -4.61c
iter:  23 13:23:32  -247.411537c -6.54  -4.70c
iter:  24 13:24:17  -247.411538c -6.79  -4.91c
Writing to output.gpw (mode='')

iter:  25 13:25:07  -247.411538c -6.93  -5.13c
iter:  26 13:25:52  -247.411538c -7.09  -5.25c
iter:  27 13:26:37  -247.411538c -7.18  -5.28c
iter:  28 13:27:22  -247.411538c -7.17  -5.30c
iter:  29 13:28:05  -247.411538c -7.32  -5.45c
Writing to output.gpw (mode='')

iter:  30 13:28:51  -247.411538c -7.33  -5.53c
iter:  31 13:29:32  -247.411538c -7.54c -5.54c

Converged after 31 iterations.

Dipole moment: (-1.124381, -0.905289, 0.272988) |e|*Ang

Energy contributions relative to reference atoms: (reference = -10418.802594)

Kinetic:       +111.073024
Potential:     -101.763116
External:        +0.000000
XC:            -256.847102
Entropy (-ST):   -0.148728
Local:           +0.200019
--------------------------
Free energy:   -247.485902
Extrapolated:  -247.411538

Dipole-layer corrected work functions: 3.370553, 2.845777 eV

Showing only first 2 kpts
 Kpt  Band  Eigenvalues  Occupancy
  0    23     -3.36014    1.98713
  0    24     -3.27674    1.93360
  0    25     -2.94486    0.07351
  0    26     -2.85571    0.01275

  1    23     -3.13124    1.22670
  1    24     -3.11610    1.07920
  1    25     -3.07778    0.70520
  1    26     -3.03400    0.36987


Fermi level: -3.10817

No gap
Writing to output.gpw (mode='')


Forces in eV/Ang:
  0 Li   -0.00401    0.00364   -0.27882
  1 Li    0.00130    0.00161   -0.26936
  2 Li    0.00762   -0.00936   -0.27477
  3 Li    0.00769   -0.00026   -0.27734
  4 Li   -0.00370    0.00562   -0.26880
  5 Li    0.00146    0.00394   -0.27120
  6 Li    0.00600   -0.00106   -0.26707
  7 Li   -0.00101   -0.00502   -0.28192
  8 Li   -0.00255    0.00611   -0.27438
  9 Li   -0.00390   -0.00217    0.27452
 10 Li    0.00381    0.04248    0.28544
 11 Li   -0.02765   -0.00447    0.28096
 12 Li   -0.03093   -0.00193    0.29559
 13 Li   -0.01412    0.01242    0.25885
 14 Li   -0.00315   -0.00531    0.25647
 15 Li   -0.00852   -0.00264    0.26568
 16 Li    0.02398   -0.06279    0.25992
 17 Li   -0.03606    0.00346    0.26240
 18 Li    0.00641   -0.00441    0.00460
 19 Li    0.00318   -0.00250    0.00573
 20 Li   -0.00031    0.00704   -0.00312
 21 Li    0.00135   -0.00578    0.00966
 22 Li    0.00455    0.00473    0.00073
 23 Li   -0.00051   -0.00976    0.00706
 24 Li   -0.01253    0.00476    0.00263
 25 Li    0.00234   -0.00567   -0.00192
 26 Li   -0.00135   -0.00186   -0.00256
 27 Li    0.01451   -0.01072    0.01970
 28 Li   -0.00975    0.00414    0.00361
 29 Li    0.01090    0.01299    0.00459
 30 Li    0.00719    0.01778   -0.00845
 31 Li    0.01510    0.00642   -0.01204
 32 Li    0.01829    0.01067   -0.00908
 33 Li   -0.00197    0.00893    0.00217
 34 Li   -0.01005   -0.00472    0.00680
 35 Li    0.00249    0.00268   -0.01665
 36 O     0.05983   -0.01179   -0.02001
 37 C    -0.00558   -0.01615    0.04642
 38 H     0.02654    0.02509    0.00279
 39 H    -0.02534   -0.00115   -0.01247
 40 H    -0.00768   -0.01373   -0.02032
 41 H    -0.00303   -0.02834    0.03167

System changes: positions 

Initializing position-dependent things.

Density initialized from wave functions
       .-----------------------.  
      /|                       |  
     / |                       |  
    /  |                       |  
   /   |                       |  
  /    |                       |  
 *     |                       |  
 |     |                       |  
 |     |                       |  
 |     |                       |  
 |     |                       |  
 |     |             HH        |  
 |     |       Li     CLiH     Li 
 |     |                       |  
 |   Li|     Li      Oi        |  
 |     |  Li      LLiH    Li   |  
 |     |   Li              Li  |  
 |     |Li      Li      Li     |  
 |     |                       |  
 |   LLi     LLi     LLi       |  
 |     |  Li      Li      Li   |  
 | Li  |   Li      Li          |  
 |     |Li      Li      Li     |  
 Li    | Li      Li            |  
 |    Li      Li      Li       |  
 |     |                       |  
 |     |                       |  
 |     |                       |  
 |     |                       |  
 |     |                       |  
 |     |                       |  
 |     .-----------------------.  
 |    /                       /   
 |   /                       /    
 |  /                       /     
 | /                       /      
 |/                       /       
 *-----------------------*        

Positions:
   0 Li     1.617037    1.617037   10.000000    ( 0.0000,  0.0000,  0.0000)
   1 Li     4.851111    1.617037   10.000000    ( 0.0000,  0.0000,  0.0000)
   2 Li     8.085185    1.617037   10.000000    ( 0.0000,  0.0000,  0.0000)
   3 Li     1.617037    4.851111   10.000000    ( 0.0000,  0.0000,  0.0000)
   4 Li     4.851111    4.851111   10.000000    ( 0.0000,  0.0000,  0.0000)
   5 Li     8.085185    4.851111   10.000000    ( 0.0000,  0.0000,  0.0000)
   6 Li     1.617037    8.085185   10.000000    ( 0.0000,  0.0000,  0.0000)
   7 Li     4.851111    8.085185   10.000000    ( 0.0000,  0.0000,  0.0000)
   8 Li     8.085185    8.085185   10.000000    ( 0.0000,  0.0000,  0.0000)
   9 Li     0.000000    0.000000   11.617037    ( 0.0000,  0.0000,  0.0000)
  10 Li     3.234074    0.000000   11.617037    ( 0.0000,  0.0000,  0.0000)
  11 Li     6.468148    0.000000   11.617037    ( 0.0000,  0.0000,  0.0000)
  12 Li     0.000000    3.234074   11.617037    ( 0.0000,  0.0000,  0.0000)
  13 Li     3.234074    3.234074   11.617037    ( 0.0000,  0.0000,  0.0000)
  14 Li     6.468148    3.234074   11.617037    ( 0.0000,  0.0000,  0.0000)
  15 Li     0.000000    6.468148   11.617037    ( 0.0000,  0.0000,  0.0000)
  16 Li     3.234074    6.468148   11.617037    ( 0.0000,  0.0000,  0.0000)
  17 Li     6.468148    6.468148   11.617037    ( 0.0000,  0.0000,  0.0000)
  18 Li     1.586832    1.619622   13.472408    ( 0.0000,  0.0000,  0.0000)
  19 Li     4.836982    1.664652   13.513894    ( 0.0000,  0.0000,  0.0000)
  20 Li     8.025875    1.610026   13.490146    ( 0.0000,  0.0000,  0.0000)
  21 Li     1.597858    4.855145   13.468990    ( 0.0000,  0.0000,  0.0000)
  22 Li     4.858468    4.803645   13.534103    ( 0.0000,  0.0000,  0.0000)
  23 Li     8.037371    4.855896   13.469309    ( 0.0000,  0.0000,  0.0000)
  24 Li     1.641659    8.065268   13.447060    ( 0.0000,  0.0000,  0.0000)
  25 Li     4.825924    8.076224   13.444391    ( 0.0000,  0.0000,  0.0000)
  26 Li     8.095180    8.071297   13.455237    ( 0.0000,  0.0000,  0.0000)
  27 Li    -0.025906   -0.026292   15.358763    ( 0.0000,  0.0000,  0.0000)
  28 Li     3.206306   -0.024105   15.401566    ( 0.0000,  0.0000,  0.0000)
  29 Li     6.425177   -0.110108   15.346740    ( 0.0000,  0.0000,  0.0000)
  30 Li    -0.070549    3.215500   15.378813    ( 0.0000,  0.0000,  0.0000)
  31 Li     3.072762    3.242613   15.450215    ( 0.0000,  0.0000,  0.0000)
  32 Li     6.325595    3.309892   15.764198    ( 0.0000,  0.0000,  0.0000)
  33 Li     0.034059    6.466515   15.391946    ( 0.0000,  0.0000,  0.0000)
  34 Li     3.274060    6.458730   15.420234    ( 0.0000,  0.0000,  0.0000)
  35 Li     6.461645    6.522918   15.399996    ( 0.0000,  0.0000,  0.0000)
  36 O      7.324494    2.704534   17.292394    ( 0.0000,  0.0000,  0.0000)
  37 C      7.719174    3.108788   18.622574    ( 0.0000,  0.0000,  0.0000)
  38 H      8.807861    3.116464   18.710600    ( 0.0000,  0.0000,  0.0000)
  39 H      7.293359    2.438235   19.371684    ( 0.0000,  0.0000,  0.0000)
  40 H      7.339017    4.117203   18.776381    ( 0.0000,  0.0000,  0.0000)
  41 H      7.785292    1.876638   17.035597    ( 0.0000,  0.0000,  0.0000)

Unit cell:
           periodic     x           y           z      points  spacing
  1. axis:    yes    9.702222    0.000000    0.000000    60     0.1617
  2. axis:    yes    0.000000    9.702222    0.000000    60     0.1617
  3. axis:    no     0.000000    0.000000   24.851111   156     0.1593

  Lengths:   9.702222   9.702222  24.851111
  Angles:   90.000000  90.000000  90.000000

Effective grid spacing dv^(1/3) = 0.1609

     iter     time        total  log10-change:
                         energy  eigst   dens
iter:   1 13:30:29  -247.412099  -2.87
iter:   2 13:31:12  -247.411937  -3.63  -2.77
iter:   3 13:31:55  -247.411918c -4.25  -2.96
iter:   4 13:32:40  -247.411870c -4.11  -3.05
Writing to output.gpw (mode='')

iter:   5 13:33:24  -247.411858c -5.16  -3.32
iter:   6 13:34:09  -247.411855c -4.03  -3.33
iter:   7 13:34:52  -247.411861c -4.37  -3.58
iter:   8 13:35:33  -247.411847c -5.12  -3.67
iter:   9 13:36:15  -247.411851c -5.01  -3.90
Writing to output.gpw (mode='')

iter:  10 13:37:00  -247.411853c -5.40  -4.07c
iter:  11 13:37:43  -247.411849c -6.01  -4.13c
iter:  12 13:38:24  -247.411848c -6.21  -4.18c
iter:  13 13:39:06  -247.411851c -5.83  -4.25c
iter:  14 13:39:49  -247.411850c -6.27  -4.48c
Writing to output.gpw (mode='')

iter:  15 13:40:38  -247.411850c -6.68  -4.59c
iter:  16 13:41:20  -247.411851c -6.56  -4.66c
iter:  17 13:42:03  -247.411851c -7.10  -4.82c
iter:  18 13:42:46  -247.411851c -7.27  -4.86c
iter:  19 13:43:31  -247.411851c -7.08  -4.96c
Writing to output.gpw (mode='')

iter:  20 13:44:16  -247.411851c -7.42c -5.11c

Converged after 20 iterations.

Dipole moment: (-1.132735, -0.878425, 0.273084) |e|*Ang

Energy contributions relative to reference atoms: (reference = -10418.802594)

Kinetic:       +111.018916
Potential:     -101.722831
External:        +0.000000
XC:            -256.833496
Entropy (-ST):   -0.148715
Local:           +0.199918
--------------------------
Free energy:   -247.486208
Extrapolated:  -247.411851

Dipole-layer corrected work functions: 3.370546, 2.845585 eV

Showing only first 2 kpts
 Kpt  Band  Eigenvalues  Occupancy
  0    23     -3.36000    1.98712
  0    24     -3.27665    1.93361
  0    25     -2.94471    0.07343
  0    26     -2.85553    0.01273

  1    23     -3.13101    1.22548
  1    24     -3.11602    1.07940
  1    25     -3.07778    0.70611
  1    26     -3.03394    0.37009


Fermi level: -3.10807

No gap

Forces in eV/Ang:
  0 Li   -0.00405    0.00358   -0.27879
  1 Li    0.00127    0.00157   -0.26942
  2 Li    0.00763   -0.00935   -0.27483
  3 Li    0.00767   -0.00024   -0.27745
  4 Li   -0.00364    0.00571   -0.26860
  5 Li    0.00141    0.00392   -0.27125
  6 Li    0.00593   -0.00107   -0.26695
  7 Li   -0.00093   -0.00513   -0.28209
  8 Li   -0.00243    0.00613   -0.27437
  9 Li   -0.00401   -0.00171    0.27426
 10 Li    0.00327    0.04241    0.28589
 11 Li   -0.02739   -0.00437    0.28136
 12 Li   -0.03070   -0.00205    0.29619
 13 Li   -0.01395    0.01269    0.25934
 14 Li   -0.00326   -0.00526    0.25650
 15 Li   -0.00923   -0.00270    0.26563
 16 Li    0.02338   -0.06230    0.25988
 17 Li   -0.03535    0.00383    0.26213
 18 Li    0.00584   -0.00405    0.00309
 19 Li    0.00306   -0.00309    0.00653
 20 Li    0.00002    0.00728   -0.00356
 21 Li    0.00068   -0.00627    0.01059
 22 Li    0.00353    0.00334   -0.00029
 23 Li    0.00094   -0.00962    0.00714
 24 Li   -0.00981    0.00395    0.00123
 25 Li    0.00184   -0.00455    0.00007
 26 Li   -0.00196   -0.00244   -0.00466
 27 Li    0.01398   -0.00972    0.01976
 28 Li   -0.00740    0.00497    0.00343
 29 Li    0.00871    0.01332    0.00521
 30 Li    0.00654    0.01836   -0.00817
 31 Li    0.01608    0.00601   -0.01185
 32 Li    0.02247    0.00614   -0.00313
 33 Li   -0.00204    0.00745    0.00293
 34 Li   -0.01004   -0.00462    0.00623
 35 Li    0.00229    0.00310   -0.01580
 36 O     0.04780   -0.00021   -0.01156
 37 C     0.00735    0.00102    0.02628
 38 H     0.00670    0.01762    0.01026
 39 H    -0.01811   -0.01567   -0.01499
 40 H    -0.00613   -0.01326   -0.02360
 41 H     0.00134   -0.02877    0.03823

Timing:                                      incl.     excl.
-------------------------------------------------------------------
Density initialized from wave functions:   126.402   126.397   0.0% |
 Symmetrize density:                         0.005     0.005   0.0% |
Forces:                                    751.969   751.969   0.3% |
Hamiltonian:                              4594.356     0.043   0.0% |
 Atomic:                                    17.624     0.216   0.0% |
  XC Correction:                            17.407    17.407   0.0% |
 Calculate atomic Hamiltonians:             15.406    15.406   0.0% |
 Communicate:                               50.565    50.565   0.0% |
 Hartree integrate/restrict:                10.613    10.613   0.0% |
 Initialize Hamiltonian:                     0.000     0.000   0.0% |
 Poisson:                                  356.844   173.022   0.1% |
  Communicate from 1D:                      21.355    21.355   0.0% |
  Communicate from 2D:                      37.000    37.000   0.0% |
  Communicate to 1D:                         7.320     7.320   0.0% |
  Communicate to 2D:                        38.744    38.744   0.0% |
  FFT 1D:                                   37.316    37.316   0.0% |
  FFT 2D:                                   42.088    42.088   0.0% |
 XC 3D grid:                              4139.367   924.537   0.3% |
  VdW-DF integral:                        3214.830    27.193   0.0% |
   Convolution:                            404.935   404.935   0.1% |
   FFT:                                    127.551   127.551   0.0% |
   gather:                                1675.985  1675.985   0.6% |
   hmm1:                                    82.512    82.512   0.0% |
   hmm2:                                   128.689   128.689   0.0% |
   iFFT:                                   124.697   124.697   0.0% |
   potential:                              634.544    14.375   0.0% |
    collect:                                51.815    51.815   0.0% |
    p1:                                    272.467   272.467   0.1% |
    p2:                                    185.919   185.919   0.1% |
    sum:                                   109.967   109.967   0.0% |
   splines:                                  8.725     8.725   0.0% |
 vbar:                                       3.895     3.895   0.0% |
LCAO initialization:                         6.421     0.305   0.0% |
 LCAO eigensolver:                           2.326     0.001   0.0% |
  Calculate projections:                     0.000     0.000   0.0% |
  DenseAtomicCorrection:                     0.000     0.000   0.0% |
  Distribute overlap matrix:                 2.241     2.241   0.0% |
  Orbital Layouts:                           0.035     0.035   0.0% |
  Potential matrix:                          0.047     0.047   0.0% |
  Sum over cells:                            0.002     0.002   0.0% |
 LCAO to grid:                               2.550     2.550   0.0% |
 Set positions (LCAO WFS):                   1.241     0.984   0.0% |
  Basic WFS set positions:                   0.003     0.003   0.0% |
  Basis functions set positions:             0.001     0.001   0.0% |
  P tci:                                     0.000     0.000   0.0% |
  ST tci:                                    0.160     0.160   0.0% |
  mktci:                                     0.092     0.092   0.0% |
Redistribute:                                0.142     0.142   0.0% |
SCF-cycle:                               265663.564  5653.029   2.1% ||
 Davidson:                               94471.140 34153.790  12.5% |----|
  Apply hamiltonian:                      5710.834  5710.834   2.1% ||
  Subspace diag:                         15093.638     1.422   0.0% |
   calc_h_matrix:                         8765.293  2783.462   1.0% |
    Apply hamiltonian:                    5981.830  5981.830   2.2% ||
   diagonalize:                            400.646   400.646   0.1% |
   rotate_psi:                            5926.277  5926.277   2.2% ||
  calc. matrices:                        28854.534 19014.996   7.0% |--|
   Apply hamiltonian:                     9839.538  9839.538   3.6% ||
  diagonalize:                              46.689    46.689   0.0% |
  rotate_psi:                            10611.655 10611.655   3.9% |-|
 Density:                                 1996.450     0.331   0.0% |
  Atomic density matrices:                 198.722   198.722   0.1% |
  Mix:                                    1024.116  1024.116   0.4% |
  Multipole moments:                        11.875    11.875   0.0% |
  Pseudo density:                          761.405   761.200   0.3% |
   Symmetrize density:                       0.205     0.205   0.0% |
 Hamiltonian:                            163358.281     1.720   0.0% |
  Atomic:                                  621.801     8.025   0.0% |
   XC Correction:                          613.776   613.776   0.2% |
  Calculate atomic Hamiltonians:           558.702   558.702   0.2% |
  Communicate:                            1858.559  1858.559   0.7% |
  Hartree integrate/restrict:              391.150   391.150   0.1% |
  Poisson:                               12632.064  6112.114   2.2% ||
   Communicate from 1D:                    755.590   755.590   0.3% |
   Communicate from 2D:                   1330.654  1330.654   0.5% |
   Communicate to 1D:                      259.038   259.038   0.1% |
   Communicate to 2D:                     1356.323  1356.323   0.5% |
   FFT 1D:                                1303.180  1303.180   0.5% |
   FFT 2D:                                1515.164  1515.164   0.6% |
  XC 3D grid:                            147162.899 32741.138  12.0% |----|
   VdW-DF integral:                      114421.760   962.124   0.4% |
    Convolution:                         14434.448 14434.448   5.3% |-|
    FFT:                                  4602.940  4602.940   1.7% ||
    gather:                              59943.424 59943.424  22.0% |--------|
    hmm1:                                 2928.144  2928.144   1.1% |
    hmm2:                                 4577.951  4577.951   1.7% ||
    iFFT:                                 4543.242  4543.242   1.7% ||
    potential:                           22429.407   532.803   0.2% |
     collect:                             1766.093  1766.093   0.6% |
     p1:                                  9699.657  9699.657   3.6% ||
     p2:                                  6740.991  6740.991   2.5% ||
     sum:                                 3689.863  3689.863   1.4% ||
    splines:                                 0.080     0.080   0.0% |
  vbar:                                    131.387   131.387   0.0% |
 Orthonormalize:                           184.665     0.049   0.0% |
  calc_s_matrix:                            40.384    40.384   0.0% |
  inverse-cholesky:                          5.950     5.950   0.0% |
  projections:                              50.486    50.486   0.0% |
  rotate_psi_s:                             87.796    87.796   0.0% |
Set symmetry:                                0.002     0.002   0.0% |
Other:                                    1396.918  1396.918   0.5% |
-------------------------------------------------------------------
Total:                                             272539.774 100.0%

Memory usage: 1.49 GiB
Date: Sat Mar 11 13:44:20 2023
