
  ___ ___ ___ _ _ _  
 |   |   |_  | | | | 
 | | | | | . | | | | 
 |__ |  _|___|_____|  22.8.0
 |___|_|             

User:   vazumah@r383.ib.bridges2.psc.edu
Date:   Fri Mar 10 21:51:26 2023
Arch:   x86_64
Pid:    38867
CWD:    /jet/home/vazumah/Calcs/LiMEAS/proton_donors/propanediol13_x/ontop/9.702_9.702/N2_z
Python: 3.11.0
gpaw:   /jet/home/vazumah/.conda/envs/GPAW_mpich/lib/python3.11/site-packages/gpaw
_gpaw:  /jet/home/vazumah/.conda/envs/GPAW_mpich/lib/python3.11/site-packages/
        _gpaw.cpython-311-x86_64-linux-gnu.so
ase:    /jet/home/vazumah/.conda/envs/GPAW_mpich/lib/python3.11/site-packages/ase (version 3.22.1)
numpy:  /jet/home/vazumah/.conda/envs/GPAW_mpich/lib/python3.11/site-packages/numpy (version 1.24.2)
scipy:  /jet/home/vazumah/.conda/envs/GPAW_mpich/lib/python3.11/site-packages/scipy (version 1.10.1)
libxc:  5.2.3
units:  Angstrom and eV
cores: 128
OpenMP: True
OMP_NUM_THREADS: 1

Input parameters:
  h: 0.16
  kpts: {size: [4, 4, 1]}
  occupations: {name: fermi-dirac,
                width: 0.05}
  poissonsolver: {dipolelayer: xy}
  xc: BEEF-vdW

System changes: positions, numbers, cell, pbc, initial_charges, initial_magmoms 

Initialize ...

species:
  Li:
    name: Lithium
    id: 830b4218f175192f93f959cfc0aad614
    Z: 3.0
    valence: 1
    core: 2
    charge: 0.0
    file: /jet/home/vazumah/datasets/gpaw-setups-0.9.20000/Li.PBE.gz
    compensation charges: {type: gauss,
                           rc: 0.33,
                           lmax: 2}
    cutoffs: {filter: 1.91,
              core: 2.55}
    valence states:
      #              energy  rcut
      - 2s(1.00)    -2.874   1.058
      - 2p(0.00)    -1.090   1.058
      -  s          24.337   1.058
  
    # Using partial waves for Li as LCAO basis

  O:
    name: Oxygen
    id: 32ecd46bf208036f09c70b0ec9a88b78
    Z: 8.0
    valence: 6
    core: 2
    charge: 0.0
    file: /jet/home/vazumah/datasets/gpaw-setups-0.9.20000/O.PBE.gz
    compensation charges: {type: gauss,
                           rc: 0.21,
                           lmax: 2}
    cutoffs: {filter: 1.17,
              core: 0.83}
    valence states:
      #              energy  rcut
      - 2s(2.00)   -23.961   0.688
      - 2p(4.00)    -9.029   0.598
      -  s           3.251   0.688
      -  p          18.182   0.598
      -  d           0.000   0.619
  
    # Using partial waves for O as LCAO basis

  C:
    name: Carbon
    id: 4aa54d4b901d75f77cc0ea3eec22967b
    Z: 6.0
    valence: 4
    core: 2
    charge: 0.0
    file: /jet/home/vazumah/datasets/gpaw-setups-0.9.20000/C.PBE.gz
    compensation charges: {type: gauss,
                           rc: 0.20,
                           lmax: 2}
    cutoffs: {filter: 1.14,
              core: 1.14}
    valence states:
      #              energy  rcut
      - 2s(2.00)   -13.751   0.635
      - 2p(2.00)    -5.284   0.635
      -  s          13.461   0.635
      -  p          21.927   0.635
      -  d           0.000   0.635
  
    # Using partial waves for C as LCAO basis

  H:
    name: Hydrogen
    id: d65de229564ff8ea4db303e23b6d1ecf
    Z: 1.0
    valence: 1
    core: 0
    charge: 0.0
    file: /jet/home/vazumah/datasets/gpaw-setups-0.9.20000/H.PBE.gz
    compensation charges: {type: gauss,
                           rc: 0.15,
                           lmax: 2}
    cutoffs: {filter: 0.85,
              core: 0.53}
    valence states:
      #              energy  rcut
      - 1s(1.00)    -6.494   0.476
      -  s          20.717   0.476
      -  p           0.000   0.476
  
    # Using partial waves for H as LCAO basis

  N:
    name: Nitrogen
    id: f7500608b86eaa90eef8b1d9a670dc53
    Z: 7.0
    valence: 5
    core: 2
    charge: 0.0
    file: /jet/home/vazumah/datasets/gpaw-setups-0.9.20000/N.PBE.gz
    compensation charges: {type: gauss,
                           rc: 0.18,
                           lmax: 2}
    cutoffs: {filter: 1.11,
              core: 0.96}
    valence states:
      #              energy  rcut
      - 2s(2.00)   -18.583   0.603
      - 2p(3.00)    -7.089   0.529
      -  s           8.629   0.603
      -  p          20.123   0.529
      -  d           0.000   0.577
  
    # Using partial waves for N as LCAO basis

Reference energy: -17528.314784  # eV

Spin-paired calculation

Convergence criteria:
 Maximum [total energy] change in last 3 cyles: 0.0005 eV / electron
 Maximum integral of absolute [dens]ity change: 0.0001 electrons / valence electron
 Maximum integral of absolute [eigenst]ate change: 4e-08 eV^2 / valence electron
 Maximum number of scf [iter]ations: 333
 (Square brackets indicate name in SCF output, whereas a 'c' in
 the SCF output indicates the quantity has converged.)

Symmetries present (total): 1

  ( 1  0  0)
  ( 0  1  0)
  ( 0  0  1)

16 k-points: 4 x 4 x 1 Monkhorst-Pack grid
8 k-points in the irreducible part of the Brillouin zone
       k-points in crystal coordinates                weights
   0:     0.12500000   -0.37500000    0.00000000          2/16
   1:     0.12500000   -0.12500000    0.00000000          2/16
   2:     0.12500000    0.12500000    0.00000000          2/16
   3:     0.12500000    0.37500000    0.00000000          2/16
   4:     0.37500000   -0.37500000    0.00000000          2/16
   5:     0.37500000   -0.12500000    0.00000000          2/16
   6:     0.37500000    0.12500000    0.00000000          2/16
   7:     0.37500000    0.37500000    0.00000000          2/16

Wave functions: Uniform real-space grid
  Kinetic energy operator: 6*3+1=19 point O(h^6) finite-difference Laplacian
  ScaLapack parameters: grid=1x1, blocksize=None
  Wavefunction extrapolation:
    Improved wavefunction reuse through dual PAW basis 

Occupation numbers: Fermi-Dirac:
  width: 0.0500  # eV
 

Eigensolver
   Davidson(niter=2) 

Densities:
  Coarse grid: 60*60*180 grid
  Fine grid: 120*120*360 grid
  Total Charge: 0.000000 

Density mixing:
  Method: separate
  Backend: pulay
  Linear mixing parameter: 0.05
  old densities: 5
  Damping of long wavelength oscillations: 50 

Hamiltonian:
  XC and Coulomb potentials evaluated on a 120*120*360 grid
  Using the BEEF-vdW Exchange-Correlation functional
  Interpolation: tri-quintic (5. degree polynomial)
  Poisson solver: FastPoissonSolver using
    Stencil: 6*3+1=19 point O(h^6) finite-difference Laplacian
    FFT axes: [0, 1]
    FST axes: [2]

Dipole correction along z-axis 

XC parameters: BEEF-vdW with 2 nearest neighbor stencil

Memory estimate:
  Process memory now: 129.61 MiB
  Calculator: 95.77 MiB
    Density: 23.82 MiB
      Arrays: 7.94 MiB
      Localized functions: 12.86 MiB
      Mixer: 3.02 MiB
    Hamiltonian: 6.21 MiB
      Arrays: 5.19 MiB
      XC: 0.00 MiB
      Poisson: 0.00 MiB
      vbar: 1.02 MiB
    Wavefunctions: 65.74 MiB
      Arrays psit_nG: 30.82 MiB
      Eigensolver: 34.24 MiB
      Projections: 0.02 MiB
      Projectors: 0.67 MiB

Total number of cores used: 128
Parallelization over k-points: 8
Domain decomposition: 2 x 2 x 4

Number of atoms: 51
Number of atomic orbitals: 180
Number of bands in calculation: 51
Number of valence electrons: 78
Bands to converge: occupied

... initialized

Initializing position-dependent things.

Density initialized from atomic densities
Creating initial wave functions:
  51 bands from LCAO basis set

       .-----------------------.  
      /|                       |  
     / |                       |  
    /  |                       |  
   /   |                       |  
  /    |                       |  
 *     |                       |  
 |     |                       |  
 |     |                       |  
 |     |                       |  
 |     |                       |  
 |     | H   C HC  O         H |  
 |     |                       |  
 |     | H     H               N  
 |     |                       N  
 |     H                       |  
 |     |                       |  
 |     |                 O     |  
 |   LiH     Hi      Li        |  
 |     |                       |  
 | Li  |  LLi     LLi     Li   |  
 |     |                       |  
 Li    |LLi     LLi     Li     |  
 |   Li|     Li      Li        |  
 |    Li  Li  Li  Li  Li  Li   |  
 | Li  |   Li      Li          |  
 |     |Li      Li      Li     |  
 Li    | Li      Li            |  
 |    Li      Li      Li       |  
 |     |                       |  
 |     |                       |  
 |     |                       |  
 |     |                       |  
 |     |                       |  
 |     |                       |  
 |     .-----------------------.  
 |    /                       /   
 |   /                       /    
 |  /                       /     
 | /                       /      
 |/                       /       
 *-----------------------*        

Positions:
   0 Li     1.617037    1.617037   10.000000    ( 0.0000,  0.0000,  0.0000)
   1 Li     4.851111    1.617037   10.000000    ( 0.0000,  0.0000,  0.0000)
   2 Li     8.085185    1.617037   10.000000    ( 0.0000,  0.0000,  0.0000)
   3 Li     1.617037    4.851111   10.000000    ( 0.0000,  0.0000,  0.0000)
   4 Li     4.851111    4.851111   10.000000    ( 0.0000,  0.0000,  0.0000)
   5 Li     8.085185    4.851111   10.000000    ( 0.0000,  0.0000,  0.0000)
   6 Li     1.617037    8.085185   10.000000    ( 0.0000,  0.0000,  0.0000)
   7 Li     4.851111    8.085185   10.000000    ( 0.0000,  0.0000,  0.0000)
   8 Li     8.085185    8.085185   10.000000    ( 0.0000,  0.0000,  0.0000)
   9 Li     0.000000    0.000000   11.617037    ( 0.0000,  0.0000,  0.0000)
  10 Li     3.234074    0.000000   11.617037    ( 0.0000,  0.0000,  0.0000)
  11 Li     6.468148    0.000000   11.617037    ( 0.0000,  0.0000,  0.0000)
  12 Li     0.000000    3.234074   11.617037    ( 0.0000,  0.0000,  0.0000)
  13 Li     3.234074    3.234074   11.617037    ( 0.0000,  0.0000,  0.0000)
  14 Li     6.468148    3.234074   11.617037    ( 0.0000,  0.0000,  0.0000)
  15 Li     0.000000    6.468148   11.617037    ( 0.0000,  0.0000,  0.0000)
  16 Li     3.234074    6.468148   11.617037    ( 0.0000,  0.0000,  0.0000)
  17 Li     6.468148    6.468148   11.617037    ( 0.0000,  0.0000,  0.0000)
  18 Li     1.617038    1.617038   13.469728    ( 0.0000,  0.0000,  0.0000)
  19 Li     4.851111    1.617038   13.469729    ( 0.0000,  0.0000,  0.0000)
  20 Li     8.085184    1.617038   13.469728    ( 0.0000,  0.0000,  0.0000)
  21 Li     1.617038    4.851111   13.469729    ( 0.0000,  0.0000,  0.0000)
  22 Li     4.851111    4.851111   13.469730    ( 0.0000,  0.0000,  0.0000)
  23 Li     8.085184    4.851111   13.469729    ( 0.0000,  0.0000,  0.0000)
  24 Li     1.617038    8.085184   13.469728    ( 0.0000,  0.0000,  0.0000)
  25 Li     4.851111    8.085184   13.469729    ( 0.0000,  0.0000,  0.0000)
  26 Li     8.085184    8.085184   13.469728    ( 0.0000,  0.0000,  0.0000)
  27 Li    -0.000000   -0.000000   15.445939    ( 0.0000,  0.0000,  0.0000)
  28 Li     3.234074    0.000000   15.445939    ( 0.0000,  0.0000,  0.0000)
  29 Li     6.468148    0.000000   15.445939    ( 0.0000,  0.0000,  0.0000)
  30 Li     0.000000    3.234074   15.445939    ( 0.0000,  0.0000,  0.0000)
  31 Li     3.234076    3.234076   15.445938    ( 0.0000,  0.0000,  0.0000)
  32 Li     6.468146    3.234076   15.445938    ( 0.0000,  0.0000,  0.0000)
  33 Li     0.000000    6.468148   15.445939    ( 0.0000,  0.0000,  0.0000)
  34 Li     3.234076    6.468146   15.445938    ( 0.0000,  0.0000,  0.0000)
  35 Li     6.468146    6.468146   15.445938    ( 0.0000,  0.0000,  0.0000)
  36 O      9.702222    9.702222   19.645939    ( 0.0000,  0.0000,  0.0000)
  37 O     14.564564    9.681893   19.639829    ( 0.0000,  0.0000,  0.0000)
  38 C     12.098137    9.700677   19.660386    ( 0.0000,  0.0000,  0.0000)
  39 C     10.847092    8.834403   19.648818    ( 0.0000,  0.0000,  0.0000)
  40 C     13.380753    8.870410   19.636457    ( 0.0000,  0.0000,  0.0000)
  41 H     12.076054   10.361184   18.785726    ( 0.0000,  0.0000,  0.0000)
  42 H     12.097995   10.337788   20.548391    ( 0.0000,  0.0000,  0.0000)
  43 H     10.842162    8.194144   18.755271    ( 0.0000,  0.0000,  0.0000)
  44 H     10.833550    8.185725   20.535503    ( 0.0000,  0.0000,  0.0000)
  45 H     13.381454    8.194844   18.769134    ( 0.0000,  0.0000,  0.0000)
  46 H     13.457602    8.254319   20.536560    ( 0.0000,  0.0000,  0.0000)
  47 H      8.906697    9.157865   19.641073    ( 0.0000,  0.0000,  0.0000)
  48 H     14.531981   10.256933   18.865312    ( 0.0000,  0.0000,  0.0000)
  49 N      9.702000    9.702000   17.195939    ( 0.0000,  0.0000,  0.0000)
  50 N      9.702000    9.702000   18.292561    ( 0.0000,  0.0000,  0.0000)

Unit cell:
           periodic     x           y           z      points  spacing
  1. axis:    yes    9.702222    0.000000    0.000000    60     0.1617
  2. axis:    yes    0.000000    9.702222    0.000000    60     0.1617
  3. axis:    no     0.000000    0.000000   28.601111   180     0.1589

  Lengths:   9.702222   9.702222  28.601111
  Angles:   90.000000  90.000000  90.000000

Effective grid spacing dv^(1/3) = 0.1608

     iter     time        total  log10-change:
                         energy  eigst   dens
iter:   1 21:51:41  -794.561065
iter:   2 21:51:49   106.424963  +2.71  +0.05
iter:   3 21:51:57   141.714464  +3.29  -0.12
iter:   4 21:52:05  -200.887641  +3.32  -0.20
Writing to output.gpw (mode='')

iter:   5 21:52:13  -276.547924  +2.90  -0.22
iter:   6 21:52:27  -358.057449  +2.62  -0.49
iter:   7 21:52:35  -373.264621  +2.25  -0.51
iter:   8 21:52:43  -390.499258  +1.94  -0.51
iter:   9 21:52:51  -437.820111  +2.08  -0.48
Writing to output.gpw (mode='')

iter:  10 21:52:59  -415.308986  +1.68  -0.42
iter:  11 21:53:07  -366.917053  +1.45  -0.44
iter:  12 21:53:15  -375.161425  +1.35  -0.65
iter:  13 21:53:23  -353.992609  +1.19  -0.63
iter:  14 21:53:31  -349.719692  +0.77  -0.69
Writing to output.gpw (mode='')

iter:  15 21:53:39  -348.980779  +0.66  -0.73
iter:  16 21:53:47  -345.934159  +0.94  -0.74
iter:  17 21:53:55  -346.160247  +0.92  -0.78
iter:  18 21:54:03  -343.012326  +0.56  -0.81
iter:  19 21:54:11  -342.684113  -0.08  -0.95
Writing to output.gpw (mode='')

iter:  20 21:54:19  -343.225097  -0.05  -0.99
iter:  21 21:54:27  -342.415929  -0.04  -0.98
iter:  22 21:54:35  -342.513842  +0.17  -1.02
iter:  23 21:54:43  -342.227787  -0.12  -1.02
iter:  24 21:54:51  -341.775436  -0.30  -1.04
Writing to output.gpw (mode='')

iter:  25 21:54:59  -341.779385  +0.11  -1.23
iter:  26 21:55:07  -341.781714c +0.22  -1.18
iter:  27 21:55:15  -341.614369  -0.62  -1.26
iter:  28 21:55:23  -341.431071  -0.77  -1.31
iter:  29 21:55:31  -341.379335  -0.92  -1.41
Writing to output.gpw (mode='')

iter:  30 21:55:39  -341.385262  -0.74  -1.49
iter:  31 21:55:47  -341.587083  -0.53  -1.64
iter:  32 21:55:55  -341.441905  -1.30  -1.44
iter:  33 21:56:03  -341.391022  -1.19  -1.58
iter:  34 21:56:11  -341.451513  -1.34  -1.79
Writing to output.gpw (mode='')

iter:  35 21:56:19  -341.377039  -1.50  -1.68
iter:  36 21:56:27  -341.378782  -1.54  -2.18
iter:  37 21:56:35  -341.381418c -1.73  -2.31
iter:  38 21:56:43  -341.383159c -2.00  -2.34
iter:  39 21:56:51  -341.384802c -2.00  -2.32
Writing to output.gpw (mode='')

iter:  40 21:56:59  -341.385715c -2.31  -2.25
iter:  41 21:57:07  -341.386601c -2.38  -2.21
iter:  42 21:57:23  -341.387711c -2.30  -2.21
iter:  43 21:57:31  -341.388759c -2.24  -2.19
iter:  44 21:57:40  -341.389244c -2.53  -2.14
Writing to output.gpw (mode='')

iter:  45 21:57:48  -341.388793c -2.53  -2.17
iter:  46 21:57:56  -341.388896c -2.68  -2.20
iter:  47 21:58:04  -341.389836c -2.45  -2.23
iter:  48 21:58:12  -341.387909c -2.67  -2.39
iter:  49 21:58:20  -341.388108c -2.87  -2.33
Writing to output.gpw (mode='')

iter:  50 21:58:28  -341.389049c -2.96  -2.41
iter:  51 21:58:36  -341.389012c -2.93  -2.35
iter:  52 21:58:44  -341.388713c -3.21  -2.48
iter:  53 21:58:52  -341.388526c -2.99  -2.59
iter:  54 21:59:00  -341.388380c -2.89  -2.81
Writing to output.gpw (mode='')

iter:  55 21:59:08  -341.388426c -3.30  -2.91
iter:  56 21:59:16  -341.388541c -3.34  -3.01
iter:  57 21:59:24  -341.388718c -3.46  -3.19
iter:  58 21:59:33  -341.388638c -3.58  -3.26
iter:  59 21:59:41  -341.388684c -3.87  -3.39
Writing to output.gpw (mode='')

iter:  60 21:59:49  -341.388731c -3.68  -3.46
iter:  61 21:59:57  -341.388747c -3.89  -3.51
iter:  62 22:00:05  -341.388735c -3.96  -3.64
iter:  63 22:00:13  -341.388754c -3.99  -3.76
iter:  64 22:00:21  -341.388756c -4.20  -3.89
Writing to output.gpw (mode='')

iter:  65 22:00:29  -341.388772c -4.09  -4.00c
iter:  66 22:00:37  -341.388782c -4.36  -4.02c
iter:  67 22:00:45  -341.388798c -4.46  -4.15c
iter:  68 22:00:53  -341.388801c -4.47  -4.18c
iter:  69 22:01:01  -341.388806c -4.55  -4.20c
Writing to output.gpw (mode='')

iter:  70 22:01:09  -341.388805c -4.53  -4.22c
iter:  71 22:01:17  -341.388812c -4.56  -4.21c
iter:  72 22:01:26  -341.388819c -4.51  -4.24c
iter:  73 22:01:34  -341.388824c -4.78  -4.27c
iter:  74 22:01:42  -341.388825c -4.94  -4.51c
Writing to output.gpw (mode='')

iter:  75 22:01:50  -341.388832c -4.94  -4.58c
iter:  76 22:01:58  -341.388828c -4.90  -4.65c
iter:  77 22:02:06  -341.388831c -5.04  -4.64c
iter:  78 22:02:19  -341.388832c -5.06  -4.73c
iter:  79 22:02:29  -341.388835c -5.12  -4.74c
Writing to output.gpw (mode='')

iter:  80 22:02:37  -341.388834c -4.97  -4.84c
iter:  81 22:02:45  -341.388833c -5.10  -4.98c
iter:  82 22:02:53  -341.388834c -5.23  -4.96c
iter:  83 22:03:01  -341.388835c -5.44  -4.93c
iter:  84 22:03:09  -341.388837c -5.32  -4.92c
Writing to output.gpw (mode='')

iter:  85 22:03:17  -341.388835c -5.38  -4.94c
iter:  86 22:03:25  -341.388834c -5.53  -4.93c
iter:  87 22:03:33  -341.388836c -5.61  -4.77c
iter:  88 22:03:42  -341.388834c -5.63  -4.91c
iter:  89 22:03:52  -341.388835c -5.56  -4.81c
Writing to output.gpw (mode='')

iter:  90 22:04:00  -341.388835c -5.78  -4.79c
iter:  91 22:04:08  -341.388836c -5.62  -4.77c
iter:  92 22:04:16  -341.388836c -5.83  -4.78c
iter:  93 22:04:24  -341.388836c -5.98  -4.85c
iter:  94 22:04:32  -341.388836c -5.95  -4.83c
Writing to output.gpw (mode='')

iter:  95 22:04:40  -341.388835c -6.04  -4.83c
iter:  96 22:04:48  -341.388836c -5.98  -4.83c
iter:  97 22:04:56  -341.388836c -5.97  -4.84c
iter:  98 22:05:05  -341.388837c -6.13  -4.82c
iter:  99 22:05:13  -341.388835c -6.07  -4.95c
Writing to output.gpw (mode='')

iter: 100 22:05:21  -341.388837c -6.15  -4.80c
iter: 101 22:05:29  -341.388837c -6.05  -4.87c
iter: 102 22:05:37  -341.388838c -6.19  -4.92c
iter: 103 22:05:45  -341.388838c -6.43  -5.01c
iter: 104 22:05:53  -341.388838c -6.19  -5.01c
Writing to output.gpw (mode='')

iter: 105 22:06:01  -341.388838c -6.35  -5.08c
iter: 106 22:06:09  -341.388838c -6.47  -5.11c
iter: 107 22:06:17  -341.388837c -6.43  -5.13c
iter: 108 22:06:25  -341.388837c -6.67  -5.31c
iter: 109 22:06:33  -341.388837c -6.57  -5.44c
Writing to output.gpw (mode='')

iter: 110 22:06:42  -341.388837c -6.62  -5.51c
iter: 111 22:06:50  -341.388837c -6.66  -5.55c
iter: 112 22:06:58  -341.388837c -6.60  -5.71c
iter: 113 22:07:06  -341.388837c -6.66  -5.84c
iter: 114 22:07:17  -341.388837c -6.83  -5.88c
Writing to output.gpw (mode='')

iter: 115 22:07:29  -341.388837c -6.88  -5.89c
iter: 116 22:07:37  -341.388837c -6.86  -5.88c
iter: 117 22:07:45  -341.388837c -6.96  -5.85c
iter: 118 22:07:53  -341.388837c -6.95  -5.84c
iter: 119 22:08:01  -341.388837c -7.13  -5.76c
Writing to output.gpw (mode='')

iter: 120 22:08:09  -341.388837c -7.13  -5.73c
iter: 121 22:08:17  -341.388837c -6.89  -5.75c
iter: 122 22:08:26  -341.388837c -6.90  -5.70c
iter: 123 22:08:34  -341.388837c -7.19  -5.70c
iter: 124 22:08:42  -341.388837c -7.23  -5.65c
Writing to output.gpw (mode='')

iter: 125 22:08:50  -341.388837c -7.36  -5.76c
iter: 126 22:08:58  -341.388837c -7.37  -5.70c
iter: 127 22:09:06  -341.388837c -7.30  -5.86c
iter: 128 22:09:14  -341.388837c -7.39  -5.99c
iter: 129 22:09:22  -341.388837c -7.56c -6.05c

Converged after 129 iterations.

Dipole moment: (-15.583348, -15.164772, 0.261543) |e|*Ang

Energy contributions relative to reference atoms: (reference = -17528.314784)

Kinetic:       +209.976277
Potential:     -192.468056
External:        +0.000000
XC:            -359.931169
Entropy (-ST):   -0.191714
Local:           +1.129968
--------------------------
Free energy:   -341.484694
Extrapolated:  -341.388837

Dipole-layer corrected work functions: 3.371355, 2.868579 eV

Showing only first 2 kpts
 Kpt  Band  Eigenvalues  Occupancy
  0    37     -3.31797    1.96259
  0    38     -3.16020    1.38191
  0    39     -3.03251    0.29631
  0    40     -2.93534    0.04861

  1    37     -3.23646    1.82265
  1    38     -3.13380    1.13746
  1    39     -3.10418    0.84339
  1    40     -3.02849    0.27661


Fermi level: -3.11997

No gap
Writing to output.gpw (mode='')


Forces in eV/Ang:
  0 Li    0.01377    0.00319   -0.26694
  1 Li   -0.00374    0.00202   -0.27513
  2 Li   -0.01035    0.00949   -0.26495
  3 Li    0.00223    0.00535   -0.27580
  4 Li    0.00130    0.00007   -0.28762
  5 Li   -0.00330    0.00440   -0.27425
  6 Li    0.01018   -0.00817   -0.27002
  7 Li   -0.00476   -0.00100   -0.27699
  8 Li   -0.00553   -0.01311   -0.26821
  9 Li    0.00185    0.00092    0.31589
 10 Li    0.00669    0.00029    0.26129
 11 Li   -0.00822    0.00140    0.27428
 12 Li    0.00090    0.01131    0.27487
 13 Li    0.00060   -0.00209    0.26340
 14 Li   -0.00080    0.00017    0.25714
 15 Li    0.00049   -0.01175    0.26306
 16 Li   -0.00424    0.00185    0.25739
 17 Li    0.00362   -0.00288    0.25748
 18 Li   -0.00088    0.00082    0.01251
 19 Li    0.00192   -0.00420    0.04027
 20 Li   -0.00121    0.00248   -0.00262
 21 Li    0.00061   -0.00108    0.02530
 22 Li   -0.00061    0.00287    0.04164
 23 Li   -0.00031   -0.00346    0.03218
 24 Li   -0.00062   -0.00180    0.02359
 25 Li   -0.00035   -0.00018    0.02561
 26 Li    0.00175   -0.00036    0.00785
 27 Li    0.02892   -0.01666   -1.42107
 28 Li   -0.04460    0.00109   -0.02137
 29 Li    0.03363   -0.00119    0.03905
 30 Li    0.00592   -0.02705    0.01936
 31 Li    0.01126   -0.01318   -0.00084
 32 Li   -0.01655   -0.00789   -0.00182
 33 Li    0.00712    0.02344    0.00902
 34 Li   -0.01252    0.00917   -0.01158
 35 Li    0.00096    0.00623    0.00074
 36 O     0.03337    1.07238   12.69602
 37 O    -0.26883   -0.14904    0.18873
 38 C    -0.07524    0.41660    0.05602
 39 C     3.89121   -2.39461    2.26819
 40 C     0.26784   -0.20075   -0.03879
 41 H     0.09572    0.00239    0.01248
 42 H    -0.00160    0.00678   -0.01653
 43 H    -0.20306   -0.07622    0.37178
 44 H    -0.38565    0.27972   -0.01296
 45 H    -0.00233    0.02244   -0.01057
 46 H    -0.02577    0.01321   -0.02192
 47 H    -1.84221   -0.96865    1.71639
 48 H     0.07407    0.06397   -0.22267
 49 N     0.03619    1.29334   -8.44814
 50 N    -1.59350    0.59573   -7.30456

System changes: positions 

Initializing position-dependent things.

Density initialized from wave functions
       .-----------------------.  
      /|                       |  
     / |                       |  
    /  |                       |  
   /   |                       |  
  /    |                       |  
 *     |                       |  
 |     |                       |  
 |     |                       |  
 |     |                       |  
 |     |                       |  
 |     | H   C HC  O         H |  
 |     |                       |  
 |     | H     H               |  
 |     |                       |  
 |     H                       |  
 |     Li              Li      |  
 O     |                       |  
 |   LiH     Hi      Li        |  
 |     |                 N     |  
 | Li  |  LLi     LLi    NLi   |  
 |     |                       |  
 |     |LLi     Li      Li     |  
 |   Li|     Li      Li        |  
 |    Li  Li  Li  Li  Li  Li   |  
 | Li  |   Li      Li          |  
 |     |Li      Li      Li     |  
 Li    | Li      Li            |  
 |    Li      Li      Li       |  
 |     |                       |  
 |     |                       |  
 |     |                       |  
 |     |                       |  
 |     |                       |  
 |     |                       |  
 |     .-----------------------.  
 |    /                       /   
 |   /                       /    
 |  /                       /     
 | /                       /      
 |/                       /       
 *-----------------------*        

Positions:
   0 Li     1.617037    1.617037   10.000000    ( 0.0000,  0.0000,  0.0000)
   1 Li     4.851111    1.617037   10.000000    ( 0.0000,  0.0000,  0.0000)
   2 Li     8.085185    1.617037   10.000000    ( 0.0000,  0.0000,  0.0000)
   3 Li     1.617037    4.851111   10.000000    ( 0.0000,  0.0000,  0.0000)
   4 Li     4.851111    4.851111   10.000000    ( 0.0000,  0.0000,  0.0000)
   5 Li     8.085185    4.851111   10.000000    ( 0.0000,  0.0000,  0.0000)
   6 Li     1.617037    8.085185   10.000000    ( 0.0000,  0.0000,  0.0000)
   7 Li     4.851111    8.085185   10.000000    ( 0.0000,  0.0000,  0.0000)
   8 Li     8.085185    8.085185   10.000000    ( 0.0000,  0.0000,  0.0000)
   9 Li     0.000000    0.000000   11.617037    ( 0.0000,  0.0000,  0.0000)
  10 Li     3.234074    0.000000   11.617037    ( 0.0000,  0.0000,  0.0000)
  11 Li     6.468148    0.000000   11.617037    ( 0.0000,  0.0000,  0.0000)
  12 Li     0.000000    3.234074   11.617037    ( 0.0000,  0.0000,  0.0000)
  13 Li     3.234074    3.234074   11.617037    ( 0.0000,  0.0000,  0.0000)
  14 Li     6.468148    3.234074   11.617037    ( 0.0000,  0.0000,  0.0000)
  15 Li     0.000000    6.468148   11.617037    ( 0.0000,  0.0000,  0.0000)
  16 Li     3.234074    6.468148   11.617037    ( 0.0000,  0.0000,  0.0000)
  17 Li     6.468148    6.468148   11.617037    ( 0.0000,  0.0000,  0.0000)
  18 Li     1.617035    1.617041   13.469767    ( 0.0000,  0.0000,  0.0000)
  19 Li     4.851117    1.617025   13.469856    ( 0.0000,  0.0000,  0.0000)
  20 Li     8.085180    1.617046   13.469720    ( 0.0000,  0.0000,  0.0000)
  21 Li     1.617040    4.851108   13.469809    ( 0.0000,  0.0000,  0.0000)
  22 Li     4.851109    4.851120   13.469861    ( 0.0000,  0.0000,  0.0000)
  23 Li     8.085183    4.851100   13.469830    ( 0.0000,  0.0000,  0.0000)
  24 Li     1.617036    8.085178   13.469802    ( 0.0000,  0.0000,  0.0000)
  25 Li     4.851110    8.085183   13.469810    ( 0.0000,  0.0000,  0.0000)
  26 Li     8.085189    8.085183   13.469753    ( 0.0000,  0.0000,  0.0000)
  27 Li     0.000091   -0.000052   15.441478    ( 0.0000,  0.0000,  0.0000)
  28 Li     3.233934    0.000003   15.445872    ( 0.0000,  0.0000,  0.0000)
  29 Li     6.468254   -0.000004   15.446061    ( 0.0000,  0.0000,  0.0000)
  30 Li     0.000019    3.233989   15.446000    ( 0.0000,  0.0000,  0.0000)
  31 Li     3.234112    3.234035   15.445935    ( 0.0000,  0.0000,  0.0000)
  32 Li     6.468094    3.234052   15.445932    ( 0.0000,  0.0000,  0.0000)
  33 Li     0.000022    6.468222   15.445967    ( 0.0000,  0.0000,  0.0000)
  34 Li     3.234037    6.468174   15.445902    ( 0.0000,  0.0000,  0.0000)
  35 Li     6.468149    6.468165   15.445940    ( 0.0000,  0.0000,  0.0000)
  36 O      9.702327    9.705589   19.685797    ( 0.0000,  0.0000,  0.0000)
  37 O     14.563720    9.681425   19.640422    ( 0.0000,  0.0000,  0.0000)
  38 C     12.097900    9.701985   19.660562    ( 0.0000,  0.0000,  0.0000)
  39 C     10.859308    8.826885   19.655939    ( 0.0000,  0.0000,  0.0000)
  40 C     13.381594    8.869780   19.636335    ( 0.0000,  0.0000,  0.0000)
  41 H     12.076354   10.361191   18.785765    ( 0.0000,  0.0000,  0.0000)
  42 H     12.097990   10.337810   20.548339    ( 0.0000,  0.0000,  0.0000)
  43 H     10.841524    8.193905   18.756438    ( 0.0000,  0.0000,  0.0000)
  44 H     10.832339    8.186603   20.535463    ( 0.0000,  0.0000,  0.0000)
  45 H     13.381447    8.194915   18.769101    ( 0.0000,  0.0000,  0.0000)
  46 H     13.457521    8.254361   20.536491    ( 0.0000,  0.0000,  0.0000)
  47 H      8.900913    9.154824   19.646461    ( 0.0000,  0.0000,  0.0000)
  48 H     14.532214   10.257134   18.864613    ( 0.0000,  0.0000,  0.0000)
  49 N      9.702114    9.706060   17.169417    ( 0.0000,  0.0000,  0.0000)
  50 N      9.696997    9.703870   18.269629    ( 0.0000,  0.0000,  0.0000)

Unit cell:
           periodic     x           y           z      points  spacing
  1. axis:    yes    9.702222    0.000000    0.000000    60     0.1617
  2. axis:    yes    0.000000    9.702222    0.000000    60     0.1617
  3. axis:    no     0.000000    0.000000   28.601111   180     0.1589

  Lengths:   9.702222   9.702222  28.601111
  Angles:   90.000000  90.000000  90.000000

Effective grid spacing dv^(1/3) = 0.1608

     iter     time        total  log10-change:
                         energy  eigst   dens
iter:   1 22:09:32  -343.494081  -0.29
iter:   2 22:09:40  -343.206440  -0.60  -1.41
iter:   3 22:09:48  -342.804496  -0.60  -1.27
iter:   4 22:09:56  -342.633551  -1.02  -1.60
Writing to output.gpw (mode='')

iter:   5 22:10:05  -342.555067  -1.02  -1.78
iter:   6 22:10:13  -342.742494  -0.98  -1.93
iter:   7 22:10:21  -342.751520  -1.53  -1.74
iter:   8 22:10:29  -342.582114  -1.83  -1.74
iter:   9 22:10:37  -342.553752  -1.47  -1.99
Writing to output.gpw (mode='')

iter:  10 22:10:45  -342.565768c -1.38  -2.02
iter:  11 22:10:53  -342.596766  -1.65  -1.90
iter:  12 22:11:01  -342.578874c -1.90  -1.94
iter:  13 22:11:10  -342.537470  -1.53  -2.08
iter:  14 22:11:18  -342.536732  -2.26  -2.39
Writing to output.gpw (mode='')

iter:  15 22:11:26  -342.534703c -2.49  -2.40
iter:  16 22:11:34  -342.533037c -2.56  -2.62
iter:  17 22:11:42  -342.534265c -3.01  -2.66
iter:  18 22:11:50  -342.533065c -3.13  -2.88
iter:  19 22:11:58  -342.533307c -3.37  -3.01
Writing to output.gpw (mode='')

iter:  20 22:12:07  -342.533146c -3.79  -3.11
iter:  21 22:12:21  -342.533687c -3.66  -3.17
iter:  22 22:12:30  -342.533285c -4.10  -3.19
iter:  23 22:12:38  -342.533398c -4.30  -3.59
iter:  24 22:12:46  -342.533367c -4.60  -3.53
Writing to output.gpw (mode='')

iter:  25 22:12:55  -342.533315c -4.45  -3.59
iter:  26 22:13:03  -342.533324c -4.63  -3.72
iter:  27 22:13:11  -342.533337c -4.97  -3.89
iter:  28 22:13:19  -342.533357c -4.85  -3.93
iter:  29 22:13:27  -342.533338c -5.15  -3.98
Writing to output.gpw (mode='')

iter:  30 22:13:35  -342.533355c -5.11  -3.98
iter:  31 22:13:43  -342.533380c -5.39  -4.03c
iter:  32 22:13:51  -342.533408c -5.43  -4.08c
iter:  33 22:14:00  -342.533342c -5.70  -3.99
iter:  34 22:14:08  -342.533357c -5.79  -4.13c
Writing to output.gpw (mode='')

iter:  35 22:14:16  -342.533380c -5.72  -4.27c
iter:  36 22:14:24  -342.533370c -5.99  -4.34c
iter:  37 22:14:32  -342.533373c -5.99  -4.40c
iter:  38 22:14:40  -342.533368c -6.39  -4.55c
iter:  39 22:14:48  -342.533368c -6.25  -4.58c
Writing to output.gpw (mode='')

iter:  40 22:14:56  -342.533370c -6.25  -4.83c
iter:  41 22:15:05  -342.533372c -6.30  -4.91c
iter:  42 22:15:13  -342.533376c -6.30  -4.95c
iter:  43 22:15:21  -342.533374c -6.80  -5.19c
iter:  44 22:15:29  -342.533374c -6.88  -5.27c
Writing to output.gpw (mode='')

iter:  45 22:15:37  -342.533374c -6.93  -5.29c
iter:  46 22:15:45  -342.533373c -6.94  -5.28c
iter:  47 22:15:53  -342.533375c -6.95  -5.24c
iter:  48 22:16:03  -342.533375c -7.22  -5.28c
iter:  49 22:16:17  -342.533374c -7.10  -5.27c
Writing to output.gpw (mode='')

iter:  50 22:16:29  -342.533373c -7.04  -5.25c
iter:  51 22:16:37  -342.533373c -7.22  -5.22c
iter:  52 22:16:45  -342.533372c -7.44c -5.20c

Converged after 52 iterations.

Dipole moment: (-14.972821, -16.084051, 0.167677) |e|*Ang

Energy contributions relative to reference atoms: (reference = -17528.314784)

Kinetic:       +212.840131
Potential:     -195.974617
External:        +0.000000
XC:            -360.431993
Entropy (-ST):   -0.173303
Local:           +1.119758
--------------------------
Free energy:   -342.620024
Extrapolated:  -342.533372

Dipole-layer corrected work functions: 3.381884, 3.059551 eV

Showing only first 2 kpts
 Kpt  Band  Eigenvalues  Occupancy
  0    37     -3.41132    1.95675
  0    38     -3.30319    1.67766
  0    39     -3.09303    0.14435
  0    40     -3.00149    0.02463

  1    37     -3.31772    1.74872
  1    38     -3.22424    1.03521
  1    39     -3.20160    0.81116
  1    40     -3.12142    0.24136


Fermi level: -3.22072

No gap
Writing to output.gpw (mode='')


Forces in eV/Ang:
  0 Li    0.01297    0.00412   -0.26799
  1 Li   -0.00249    0.00119   -0.27185
  2 Li   -0.01081    0.00936   -0.26645
  3 Li    0.00050    0.00548   -0.27306
  4 Li    0.00155    0.00001   -0.29050
  5 Li   -0.00209    0.00467   -0.27244
  6 Li    0.00906   -0.00924   -0.27064
  7 Li   -0.00337   -0.00026   -0.27409
  8 Li   -0.00568   -0.01321   -0.26917
  9 Li    0.00191    0.00109    0.31710
 10 Li    0.01137    0.00023    0.25889
 11 Li   -0.01337    0.00139    0.26758
 12 Li    0.00050    0.01236    0.27180
 13 Li    0.00304    0.00153    0.26158
 14 Li   -0.00281    0.00219    0.25591
 15 Li   -0.00007   -0.01305    0.25753
 16 Li   -0.00244   -0.00173    0.25603
 17 Li    0.00230   -0.00484    0.25529
 18 Li    0.00254    0.00231    0.00627
 19 Li    0.00156   -0.00227    0.04688
 20 Li   -0.00439    0.00198   -0.00561
 21 Li   -0.00116   -0.00135    0.03313
 22 Li   -0.00010    0.00244    0.03560
 23 Li    0.00125   -0.00344    0.03844
 24 Li    0.00037   -0.00296    0.02016
 25 Li   -0.00011   -0.00149    0.03252
 26 Li    0.00003   -0.00026    0.00797
 27 Li    0.03179   -0.01323   -1.88483
 28 Li   -0.01799    0.00121   -0.03541
 29 Li    0.00722   -0.00097    0.01734
 30 Li    0.00520   -0.01025    0.00844
 31 Li    0.01338   -0.01046   -0.00622
 32 Li   -0.01792   -0.00557   -0.00722
 33 Li    0.00617    0.00415   -0.00817
 34 Li   -0.00959    0.00651   -0.01644
 35 Li   -0.00015    0.00413   -0.00731
 36 O     0.33935    0.31720   16.73414
 37 O    -0.16471   -0.09366    0.09795
 38 C     0.10953    0.23798    0.11292
 39 C     2.38704   -1.42618    2.02450
 40 C     0.17891   -0.08329   -0.02492
 41 H     0.05601    0.00978   -0.00097
 42 H    -0.00497    0.02309   -0.00522
 43 H    -0.18881   -0.03439    0.35577
 44 H    -0.18175    0.02694    0.12844
 45 H     0.00544    0.00177   -0.02443
 46 H    -0.02663    0.00588   -0.01726
 47 H    -0.63438   -0.26318    1.28141
 48 H     0.06162    0.01818   -0.14015
 49 N     0.35406    1.60058   -5.26485
 50 N    -2.33977   -0.34550  -13.44854

System changes: positions 

Initializing position-dependent things.

Density initialized from wave functions
       .-----------------------.  
      /|                       |  
     / |                       |  
    /  |                       |  
   /   |                       |  
  /    |                       |  
 *     |                       |  
 |     |                       |  
 |     |                       |  
 |     |                       |  
 |     |                       |  
 |     | H     HC  O         H |  
 |     |                       |  
 |     | H     H               |  
 |     |                       |  
 |     H                       |  
 |     Li              Li      |  
 |     C                 O     |  
 |   LiH     Hi      Li        |  
 |     |                 N     |  
 | Li  |  LLi     LLi    NLi   |  
 |     |                       |  
 |     |LLi     Li      Li     |  
 |   Li|     Li      Li        |  
 |    Li  Li  Li  Li  Li  Li   |  
 | Li  |   Li      Li          |  
 |     |Li      Li      Li     |  
 Li    | Li      Li            |  
 |    Li      Li      Li       |  
 |     |                       |  
 |     |                       |  
 |     |                       |  
 |     |                       |  
 |     |                       |  
 |     |                       |  
 |     .-----------------------.  
 |    /                       /   
 |   /                       /    
 |  /                       /     
 | /                       /      
 |/                       /       
 *-----------------------*        

Positions:
   0 Li     1.617037    1.617037   10.000000    ( 0.0000,  0.0000,  0.0000)
   1 Li     4.851111    1.617037   10.000000    ( 0.0000,  0.0000,  0.0000)
   2 Li     8.085185    1.617037   10.000000    ( 0.0000,  0.0000,  0.0000)
   3 Li     1.617037    4.851111   10.000000    ( 0.0000,  0.0000,  0.0000)
   4 Li     4.851111    4.851111   10.000000    ( 0.0000,  0.0000,  0.0000)
   5 Li     8.085185    4.851111   10.000000    ( 0.0000,  0.0000,  0.0000)
   6 Li     1.617037    8.085185   10.000000    ( 0.0000,  0.0000,  0.0000)
   7 Li     4.851111    8.085185   10.000000    ( 0.0000,  0.0000,  0.0000)
   8 Li     8.085185    8.085185   10.000000    ( 0.0000,  0.0000,  0.0000)
   9 Li     0.000000    0.000000   11.617037    ( 0.0000,  0.0000,  0.0000)
  10 Li     3.234074    0.000000   11.617037    ( 0.0000,  0.0000,  0.0000)
  11 Li     6.468148    0.000000   11.617037    ( 0.0000,  0.0000,  0.0000)
  12 Li     0.000000    3.234074   11.617037    ( 0.0000,  0.0000,  0.0000)
  13 Li     3.234074    3.234074   11.617037    ( 0.0000,  0.0000,  0.0000)
  14 Li     6.468148    3.234074   11.617037    ( 0.0000,  0.0000,  0.0000)
  15 Li     0.000000    6.468148   11.617037    ( 0.0000,  0.0000,  0.0000)
  16 Li     3.234074    6.468148   11.617037    ( 0.0000,  0.0000,  0.0000)
  17 Li     6.468148    6.468148   11.617037    ( 0.0000,  0.0000,  0.0000)
  18 Li     1.617022    1.617039   13.469831    ( 0.0000,  0.0000,  0.0000)
  19 Li     4.851125    1.617004   13.469979    ( 0.0000,  0.0000,  0.0000)
  20 Li     8.085186    1.617056   13.469719    ( 0.0000,  0.0000,  0.0000)
  21 Li     1.617048    4.851105   13.469875    ( 0.0000,  0.0000,  0.0000)
  22 Li     4.851105    4.851132   13.470028    ( 0.0000,  0.0000,  0.0000)
  23 Li     8.085177    4.851088   13.469926    ( 0.0000,  0.0000,  0.0000)
  24 Li     1.617031    8.085175   13.469896    ( 0.0000,  0.0000,  0.0000)
  25 Li     4.851108    8.085186   13.469880    ( 0.0000,  0.0000,  0.0000)
  26 Li     8.085201    8.085181   13.469780    ( 0.0000,  0.0000,  0.0000)
  27 Li     0.000185   -0.000122   15.437839    ( 0.0000,  0.0000,  0.0000)
  28 Li     3.233693    0.000007   15.445839    ( 0.0000,  0.0000,  0.0000)
  29 Li     6.468454   -0.000009   15.446267    ( 0.0000,  0.0000,  0.0000)
  30 Li     0.000042    3.233841   15.446102    ( 0.0000,  0.0000,  0.0000)
  31 Li     3.234145    3.233980   15.445949    ( 0.0000,  0.0000,  0.0000)
  32 Li     6.468039    3.234016   15.445942    ( 0.0000,  0.0000,  0.0000)
  33 Li     0.000051    6.468364   15.446052    ( 0.0000,  0.0000,  0.0000)
  34 Li     3.233984    6.468215   15.445875    ( 0.0000,  0.0000,  0.0000)
  35 Li     6.468155    6.468194   15.445968    ( 0.0000,  0.0000,  0.0000)
  36 O      9.701509    9.711719   19.718628    ( 0.0000,  0.0000,  0.0000)
  37 O     14.562444    9.680725   19.641372    ( 0.0000,  0.0000,  0.0000)
  38 C     12.097067    9.704015   19.660587    ( 0.0000,  0.0000,  0.0000)
  39 C     10.877767    8.815395   19.664760    ( 0.0000,  0.0000,  0.0000)
  40 C     13.382820    8.868706   19.636155    ( 0.0000,  0.0000,  0.0000)
  41 H     12.076817   10.361177   18.785851    ( 0.0000,  0.0000,  0.0000)
  42 H     12.097995   10.337784   20.548246    ( 0.0000,  0.0000,  0.0000)
  43 H     10.840758    8.193505   18.757810    ( 0.0000,  0.0000,  0.0000)
  44 H     10.830342    8.188373   20.534984    ( 0.0000,  0.0000,  0.0000)
  45 H     13.381415    8.195058   18.769106    ( 0.0000,  0.0000,  0.0000)
  46 H     13.457432    8.254430   20.536399    ( 0.0000,  0.0000,  0.0000)
  47 H      8.890656    9.149215   19.653903    ( 0.0000,  0.0000,  0.0000)
  48 H     14.532516   10.257501   18.863568    ( 0.0000,  0.0000,  0.0000)
  49 N      9.701269    9.709724   17.129594    ( 0.0000,  0.0000,  0.0000)
  50 N      9.693610    9.708873   18.262440    ( 0.0000,  0.0000,  0.0000)

Unit cell:
           periodic     x           y           z      points  spacing
  1. axis:    yes    9.702222    0.000000    0.000000    60     0.1617
  2. axis:    yes    0.000000    9.702222    0.000000    60     0.1617
  3. axis:    no     0.000000    0.000000   28.601111   180     0.1589

  Lengths:   9.702222   9.702222  28.601111
  Angles:   90.000000  90.000000  90.000000

Effective grid spacing dv^(1/3) = 0.1608

     iter     time        total  log10-change:
                         energy  eigst   dens
iter:   1 22:16:55  -345.042690  -0.19
iter:   2 22:17:03  -345.221043  -0.12  -1.18
iter:   3 22:17:11  -343.647136  -0.53  -1.02
iter:   4 22:17:23  -343.517252  -1.11  -1.62
Writing to output.gpw (mode='')

iter:   5 22:17:32  -343.489632  -1.26  -1.78
iter:   6 22:17:40  -343.404929  -1.32  -1.81
iter:   7 22:17:48  -343.410022  -1.61  -2.15
iter:   8 22:17:56  -343.395341c -1.41  -2.09
iter:   9 22:18:04  -343.400435c -2.01  -2.33
Writing to output.gpw (mode='')

iter:  10 22:18:12  -343.395552c -2.23  -2.31
iter:  11 22:18:21  -343.393663c -2.13  -2.54
iter:  12 22:18:29  -343.396626c -2.36  -2.73
iter:  13 22:18:37  -343.394795c -2.52  -2.73
iter:  14 22:18:45  -343.395029c -2.78  -2.88
Writing to output.gpw (mode='')

iter:  15 22:18:53  -343.395573c -2.92  -2.91
iter:  16 22:19:01  -343.395928c -3.11  -3.05
iter:  17 22:19:09  -343.395969c -3.30  -3.02
iter:  18 22:19:17  -343.396461c -3.31  -3.01
iter:  19 22:19:25  -343.396453c -3.28  -2.98
Writing to output.gpw (mode='')

iter:  20 22:19:33  -343.396490c -3.35  -3.04
iter:  21 22:19:44  -343.396256c -3.75  -2.94
iter:  22 22:19:52  -343.396488c -3.73  -2.99
iter:  23 22:20:00  -343.396293c -3.88  -2.97
iter:  24 22:20:08  -343.396437c -3.94  -3.02
Writing to output.gpw (mode='')

iter:  25 22:20:17  -343.396255c -3.90  -3.11
iter:  26 22:20:25  -343.396453c -4.15  -3.07
iter:  27 22:20:33  -343.396417c -4.35  -3.11
iter:  28 22:20:41  -343.396302c -3.84  -3.22
iter:  29 22:20:49  -343.396373c -3.88  -3.32
Writing to output.gpw (mode='')

iter:  30 22:20:57  -343.396164c -4.69  -3.37
iter:  31 22:21:05  -343.396220c -4.66  -3.38
iter:  32 22:21:13  -343.396271c -4.60  -3.51
iter:  33 22:21:21  -343.396424c -4.69  -3.60
iter:  34 22:21:29  -343.396365c -4.85  -3.56
Writing to output.gpw (mode='')

iter:  35 22:21:37  -343.396311c -4.90  -3.87
iter:  36 22:21:45  -343.396273c -5.39  -3.94
iter:  37 22:21:53  -343.396305c -5.45  -4.04c
iter:  38 22:22:02  -343.396278c -5.63  -4.22c
iter:  39 22:22:10  -343.396311c -5.67  -4.32c
Writing to output.gpw (mode='')

iter:  40 22:22:22  -343.396276c -5.68  -4.40c
iter:  41 22:22:32  -343.396295c -5.94  -4.52c
iter:  42 22:22:40  -343.396290c -6.08  -4.77c
iter:  43 22:22:48  -343.396290c -6.28  -4.84c
iter:  44 22:22:56  -343.396293c -6.12  -4.88c
Writing to output.gpw (mode='')

iter:  45 22:23:04  -343.396294c -6.20  -5.01c
iter:  46 22:23:12  -343.396291c -6.51  -5.03c
iter:  47 22:23:20  -343.396295c -6.48  -5.13c
iter:  48 22:23:28  -343.396292c -6.47  -5.13c
iter:  49 22:23:36  -343.396292c -6.59  -5.32c
Writing to output.gpw (mode='')

iter:  50 22:23:45  -343.396292c -6.64  -5.41c
iter:  51 22:23:53  -343.396292c -6.77  -5.35c
iter:  52 22:24:01  -343.396293c -6.88  -5.29c
iter:  53 22:24:09  -343.396293c -6.97  -5.19c
iter:  54 22:24:17  -343.396292c -7.04  -5.18c
Writing to output.gpw (mode='')

iter:  55 22:24:25  -343.396293c -7.09  -5.27c
iter:  56 22:24:33  -343.396290c -7.16  -5.14c
iter:  57 22:24:41  -343.396290c -7.28  -5.29c
iter:  58 22:24:49  -343.396291c -7.21  -5.26c
iter:  59 22:24:57  -343.396291c -7.34  -5.21c
Writing to output.gpw (mode='')

iter:  60 22:25:05  -343.396293c -7.29  -5.24c
iter:  61 22:25:13  -343.396293c -7.65c -5.13c

Converged after 61 iterations.

Dipole moment: (-14.427243, -17.600827, 0.105774) |e|*Ang

Energy contributions relative to reference atoms: (reference = -17528.314784)

Kinetic:       +208.283569
Potential:     -192.935216
External:        +0.000000
XC:            -359.779206
Entropy (-ST):   -0.167402
Local:           +1.118262
--------------------------
Free energy:   -343.479994
Extrapolated:  -343.396293

Dipole-layer corrected work functions: 3.385650, 3.182316 eV

Showing only first 2 kpts
 Kpt  Band  Eigenvalues  Occupancy
  0    37     -3.47353    1.95584
  0    38     -3.38442    1.76343
  0    39     -3.14479    0.11640
  0    40     -3.05995    0.02240

  1    37     -3.36787    1.68522
  1    38     -3.28426    1.00273
  1    39     -3.26365    0.79943
  1    40     -3.17932    0.21950


Fermi level: -3.28398

No gap
Writing to output.gpw (mode='')


Forces in eV/Ang:
  0 Li    0.01273    0.00453   -0.26901
  1 Li   -0.00214    0.00047   -0.27082
  2 Li   -0.01094    0.00911   -0.26754
  3 Li   -0.00035    0.00526   -0.27203
  4 Li    0.00145   -0.00004   -0.29096
  5 Li   -0.00123    0.00475   -0.27175
  6 Li    0.00871   -0.00949   -0.27139
  7 Li   -0.00275    0.00046   -0.27311
  8 Li   -0.00587   -0.01299   -0.27010
  9 Li    0.00188    0.00118    0.31789
 10 Li    0.01202    0.00022    0.25877
 11 Li   -0.01411    0.00122    0.26576
 12 Li    0.00046    0.01236    0.27099
 13 Li    0.00402    0.00263    0.26108
 14 Li   -0.00366    0.00255    0.25573
 15 Li   -0.00027   -0.01317    0.25620
 16 Li   -0.00177   -0.00274    0.25567
 17 Li    0.00174   -0.00514    0.25518
 18 Li    0.00452    0.00383   -0.00070
 19 Li    0.00167   -0.00262    0.05078
 20 Li   -0.00656    0.00308   -0.01208
 21 Li   -0.00206   -0.00122    0.03743
 22 Li    0.00002    0.00243    0.03299
 23 Li    0.00211   -0.00362    0.04191
 24 Li    0.00183   -0.00472    0.01305
 25 Li   -0.00022   -0.00103    0.03647
 26 Li   -0.00139   -0.00131    0.00312
 27 Li    0.03275   -0.01997   -2.38587
 28 Li   -0.01423    0.00145   -0.03511
 29 Li    0.00404   -0.00118    0.01505
 30 Li    0.00513   -0.00965    0.00959
 31 Li    0.01631   -0.00693   -0.00945
 32 Li   -0.02069   -0.00215   -0.01042
 33 Li    0.00536    0.00180   -0.01015
 34 Li   -0.00583    0.00288   -0.01959
 35 Li   -0.00295    0.00111   -0.01127
 36 O     0.21236   -0.51118   16.50883
 37 O    -0.07474   -0.01658   -0.00783
 38 C     0.35215    0.04825    0.17311
 39 C     1.19875   -0.52337    1.43981
 40 C     0.11298    0.04619   -0.00370
 41 H     0.00442    0.00775   -0.02891
 42 H    -0.00189    0.04303    0.02325
 43 H    -0.14817   -0.02271    0.37309
 44 H    -0.03228   -0.30314    0.48997
 45 H     0.00972   -0.02054   -0.04606
 46 H    -0.02495   -0.00774   -0.00637
 47 H     0.22798    0.26845    1.15304
 48 H     0.05595   -0.04883   -0.03977
 49 N     0.37739    1.47973   -0.45045
 50 N    -2.30992   -0.50390  -17.34959

System changes: positions 

Initializing position-dependent things.

Density initialized from wave functions
       .-----------------------.  
      /|                       |  
     / |                       |  
    /  |                       |  
   /   |                       |  
  /    |                       |  
 *     |                       |  
 |     |                       |  
 |     |                       |  
 |     |                       |  
 |     |                       |  
 |     | H     HC  O         H |  
 |     |                       |  
 |     | H     H               |  
 |     |                       |  
 |     H                       |  
 |     Li              Li      |  
 |     C                 O     |  
 |   LiH     Hi      Li        |  
 |     |                 N     |  
 | Li  |  LLi     LLi    NLi   |  
 |     |                       |  
 |     |LLi     Li      Li     |  
 |   Li|     Li      Li        |  
 |    Li  Li  Li  Li  Li  Li   |  
 | Li  |   Li      Li          |  
 |     |Li      Li      Li     |  
 Li    | Li      Li            |  
 |    Li      Li      Li       |  
 |     |                       |  
 |     |                       |  
 |     |                       |  
 |     |                       |  
 |     |                       |  
 |     |                       |  
 |     .-----------------------.  
 |    /                       /   
 |   /                       /    
 |  /                       /     
 | /                       /      
 |/                       /       
 *-----------------------*        

Positions:
   0 Li     1.617037    1.617037   10.000000    ( 0.0000,  0.0000,  0.0000)
   1 Li     4.851111    1.617037   10.000000    ( 0.0000,  0.0000,  0.0000)
   2 Li     8.085185    1.617037   10.000000    ( 0.0000,  0.0000,  0.0000)
   3 Li     1.617037    4.851111   10.000000    ( 0.0000,  0.0000,  0.0000)
   4 Li     4.851111    4.851111   10.000000    ( 0.0000,  0.0000,  0.0000)
   5 Li     8.085185    4.851111   10.000000    ( 0.0000,  0.0000,  0.0000)
   6 Li     1.617037    8.085185   10.000000    ( 0.0000,  0.0000,  0.0000)
   7 Li     4.851111    8.085185   10.000000    ( 0.0000,  0.0000,  0.0000)
   8 Li     8.085185    8.085185   10.000000    ( 0.0000,  0.0000,  0.0000)
   9 Li     0.000000    0.000000   11.617037    ( 0.0000,  0.0000,  0.0000)
  10 Li     3.234074    0.000000   11.617037    ( 0.0000,  0.0000,  0.0000)
  11 Li     6.468148    0.000000   11.617037    ( 0.0000,  0.0000,  0.0000)
  12 Li     0.000000    3.234074   11.617037    ( 0.0000,  0.0000,  0.0000)
  13 Li     3.234074    3.234074   11.617037    ( 0.0000,  0.0000,  0.0000)
  14 Li     6.468148    3.234074   11.617037    ( 0.0000,  0.0000,  0.0000)
  15 Li     0.000000    6.468148   11.617037    ( 0.0000,  0.0000,  0.0000)
  16 Li     3.234074    6.468148   11.617037    ( 0.0000,  0.0000,  0.0000)
  17 Li     6.468148    6.468148   11.617037    ( 0.0000,  0.0000,  0.0000)
  18 Li     1.617001    1.617052   13.469888    ( 0.0000,  0.0000,  0.0000)
  19 Li     4.851148    1.616936   13.470262    ( 0.0000,  0.0000,  0.0000)
  20 Li     8.085183    1.617104   13.469620    ( 0.0000,  0.0000,  0.0000)
  21 Li     1.617063    4.851103   13.470032    ( 0.0000,  0.0000,  0.0000)
  22 Li     4.851095    4.851160   13.470390    ( 0.0000,  0.0000,  0.0000)
  23 Li     8.085167    4.851057   13.470143    ( 0.0000,  0.0000,  0.0000)
  24 Li     1.617039    8.085145   13.469993    ( 0.0000,  0.0000,  0.0000)
  25 Li     4.851099    8.085214   13.470046    ( 0.0000,  0.0000,  0.0000)
  26 Li     8.085213    8.085157   13.469744    ( 0.0000,  0.0000,  0.0000)
  27 Li     0.000381   -0.000434   15.424374    ( 0.0000,  0.0000,  0.0000)
  28 Li     3.233011    0.000018   15.445898    ( 0.0000,  0.0000,  0.0000)
  29 Li     6.469061   -0.000025   15.446860    ( 0.0000,  0.0000,  0.0000)
  30 Li     0.000097    3.233384   15.446443    ( 0.0000,  0.0000,  0.0000)
  31 Li     3.234256    3.233905   15.445963    ( 0.0000,  0.0000,  0.0000)
  32 Li     6.467879    3.233986   15.445950    ( 0.0000,  0.0000,  0.0000)
  33 Li     0.000104    6.468798   15.446349    ( 0.0000,  0.0000,  0.0000)
  34 Li     3.233915    6.468256   15.445801    ( 0.0000,  0.0000,  0.0000)
  35 Li     6.468125    6.468215   15.446021    ( 0.0000,  0.0000,  0.0000)
  36 O      9.694539    9.715557   19.749020    ( 0.0000,  0.0000,  0.0000)
  37 O     14.560514    9.680221   19.642172    ( 0.0000,  0.0000,  0.0000)
  38 C     12.098342    9.706296   19.661306    ( 0.0000,  0.0000,  0.0000)
  39 C     10.907881    8.799538   19.674581    ( 0.0000,  0.0000,  0.0000)
  40 C     13.384975    8.867860   19.636055    ( 0.0000,  0.0000,  0.0000)
  41 H     12.077164   10.361041   18.785611    ( 0.0000,  0.0000,  0.0000)
  42 H     12.098095   10.337971   20.548498    ( 0.0000,  0.0000,  0.0000)
  43 H     10.839768    8.192498   18.761251    ( 0.0000,  0.0000,  0.0000)
  44 H     10.827123    8.188022   20.539726    ( 0.0000,  0.0000,  0.0000)
  45 H     13.381359    8.195117   18.768819    ( 0.0000,  0.0000,  0.0000)
  46 H     13.457280    8.254381   20.536370    ( 0.0000,  0.0000,  0.0000)
  47 H      8.874536    9.141168   19.671343    ( 0.0000,  0.0000,  0.0000)
  48 H     14.533168   10.257399   18.862530    ( 0.0000,  0.0000,  0.0000)
  49 N      9.697064    9.712531   17.108998    ( 0.0000,  0.0000,  0.0000)
  50 N      9.693546    9.724985   18.225829    ( 0.0000,  0.0000,  0.0000)

Unit cell:
           periodic     x           y           z      points  spacing
  1. axis:    yes    9.702222    0.000000    0.000000    60     0.1617
  2. axis:    yes    0.000000    9.702222    0.000000    60     0.1617
  3. axis:    no     0.000000    0.000000   28.601111   180     0.1589

  Lengths:   9.702222   9.702222  28.601111
  Angles:   90.000000  90.000000  90.000000

Effective grid spacing dv^(1/3) = 0.1608

     iter     time        total  log10-change:
                         energy  eigst   dens
iter:   1 22:25:23  -344.880585  -0.66
iter:   2 22:25:31  -344.797661  -0.92  -1.62
iter:   3 22:25:40  -344.736645  -1.20  -1.74
iter:   4 22:25:48  -344.711757  -0.92  -1.83
Writing to output.gpw (mode='')

iter:   5 22:25:56  -344.642298  -1.16  -1.64
iter:   6 22:26:04  -344.761555  -0.71  -2.06
iter:   7 22:26:12  -344.717238  -1.36  -2.04
iter:   8 22:26:20  -344.621005  -1.32  -2.03
iter:   9 22:26:29  -344.623627  -2.08  -2.17
Writing to output.gpw (mode='')

iter:  10 22:26:37  -344.612746c -1.55  -2.36
iter:  11 22:26:45  -344.630238c -2.02  -2.35
iter:  12 22:26:53  -344.625792c -2.40  -2.33
iter:  13 22:27:01  -344.608476c -2.23  -2.41
iter:  14 22:27:09  -344.607520c -2.77  -2.58
Writing to output.gpw (mode='')

iter:  15 22:27:23  -344.607488c -2.91  -2.72
iter:  16 22:27:32  -344.606760c -2.93  -2.85
iter:  17 22:27:40  -344.608616c -3.22  -2.86
iter:  18 22:27:48  -344.607949c -3.58  -2.97
iter:  19 22:27:56  -344.607404c -3.68  -3.08
Writing to output.gpw (mode='')

iter:  20 22:28:05  -344.607517c -3.87  -3.23
iter:  21 22:28:13  -344.607411c -3.88  -3.31
iter:  22 22:28:21  -344.607636c -4.22  -3.39
iter:  23 22:28:29  -344.607563c -4.41  -3.53
iter:  24 22:28:37  -344.607574c -4.34  -3.67
Writing to output.gpw (mode='')

iter:  25 22:28:45  -344.607556c -4.61  -3.69
iter:  26 22:28:53  -344.607600c -4.68  -3.78
iter:  27 22:29:02  -344.607612c -5.01  -3.98
iter:  28 22:29:10  -344.607619c -5.07  -4.02c
iter:  29 22:29:18  -344.607634c -5.11  -4.12c
Writing to output.gpw (mode='')

iter:  30 22:29:26  -344.607623c -5.47  -4.20c
iter:  31 22:29:34  -344.607640c -5.61  -4.24c
iter:  32 22:29:42  -344.607643c -5.76  -4.38c
iter:  33 22:29:51  -344.607633c -5.68  -4.47c
iter:  34 22:29:59  -344.607630c -5.89  -4.58c
Writing to output.gpw (mode='')

iter:  35 22:30:07  -344.607632c -5.93  -4.71c
iter:  36 22:30:15  -344.607638c -6.18  -4.81c
iter:  37 22:30:23  -344.607638c -6.43  -4.90c
iter:  38 22:30:31  -344.607639c -6.33  -4.92c
iter:  39 22:30:39  -344.607642c -6.54  -4.95c
Writing to output.gpw (mode='')

iter:  40 22:30:48  -344.607640c -6.45  -5.04c
iter:  41 22:30:56  -344.607640c -6.63  -5.09c
iter:  42 22:31:04  -344.607644c -6.79  -5.16c
iter:  43 22:31:12  -344.607642c -6.99  -5.41c
iter:  44 22:31:20  -344.607642c -7.05  -5.48c
Writing to output.gpw (mode='')

iter:  45 22:31:28  -344.607643c -7.08  -5.51c
iter:  46 22:31:36  -344.607643c -7.11  -5.65c
iter:  47 22:31:45  -344.607643c -6.92  -5.65c
iter:  48 22:31:53  -344.607643c -7.32  -5.63c
iter:  49 22:32:01  -344.607643c -7.53c -5.55c

Converged after 49 iterations.

Dipole moment: (-13.235150, -19.760400, 0.006397) |e|*Ang

Energy contributions relative to reference atoms: (reference = -17528.314784)

Kinetic:       +209.660999
Potential:     -195.065793
External:        +0.000000
XC:            -360.242005
Entropy (-ST):   -0.152289
Local:           +1.115300
--------------------------
Free energy:   -344.683788
Extrapolated:  -344.607643

Dipole-layer corrected work functions: 3.390672, 3.378375 eV

Showing only first 2 kpts
 Kpt  Band  Eigenvalues  Occupancy
  0    37     -3.57809    1.95919
  0    38     -3.54446    1.92158
  0    39     -3.21985    0.07159
  0    40     -3.14469    0.01638

  1    37     -3.44602    1.54764
  1    38     -3.37699    0.92483
  1    39     -3.36291    0.78714
  1    40     -3.27973    0.21900


Fermi level: -3.38452

No gap
Writing to output.gpw (mode='')


Forces in eV/Ang:
  0 Li    0.01221    0.00558   -0.27003
  1 Li   -0.00265   -0.00030   -0.26982
  2 Li   -0.01009    0.00947   -0.26863
  3 Li   -0.00151    0.00329   -0.27069
  4 Li    0.00110   -0.00062   -0.29104
  5 Li    0.00020    0.00345   -0.26987
  6 Li    0.00851   -0.00889   -0.27153
  7 Li   -0.00257    0.00158   -0.27078
  8 Li   -0.00588   -0.01223   -0.27066
  9 Li    0.00083    0.00021    0.31900
 10 Li    0.01373    0.00008    0.25585
 11 Li   -0.01481    0.00099    0.26415
 12 Li    0.00045    0.01385    0.26524
 13 Li    0.00490    0.00290    0.25901
 14 Li   -0.00441    0.00414    0.25550
 15 Li   -0.00022   -0.01379    0.25525
 16 Li    0.00075   -0.00262    0.25574
 17 Li   -0.00070   -0.00615    0.25546
 18 Li    0.00621    0.00576   -0.00243
 19 Li    0.00209   -0.00220    0.05502
 20 Li   -0.00773    0.00698   -0.01587
 21 Li   -0.00188   -0.00084    0.04191
 22 Li    0.00013    0.00245    0.02768
 23 Li    0.00197   -0.00281    0.04545
 24 Li    0.00528   -0.00583    0.00757
 25 Li    0.00065   -0.00106    0.04144
 26 Li   -0.00577   -0.00570   -0.00408
 27 Li    0.02776   -0.03025   -2.61428
 28 Li    0.01195    0.00222   -0.05092
 29 Li   -0.01853   -0.00116   -0.00121
 30 Li    0.00545    0.01229   -0.00557
 31 Li    0.01456   -0.00669   -0.01285
 32 Li   -0.02025    0.00053   -0.01388
 33 Li    0.00476   -0.01509   -0.02241
 34 Li   -0.00238    0.00088   -0.02274
 35 Li   -0.00509   -0.00166   -0.01532
 36 O    -0.14608   -1.79801   16.42231
 37 O     0.07151    0.05418   -0.09787
 38 C     0.62166   -0.13019    0.20311
 39 C    -0.52681    0.49334    0.88626
 40 C     0.06137    0.17523    0.01514
 41 H    -0.03495    0.00205   -0.03606
 42 H    -0.00294    0.06648    0.05712
 43 H    -0.01515   -0.07078    0.32266
 44 H     0.15793   -0.58404    0.73600
 45 H     0.01641   -0.03739   -0.05901
 46 H    -0.01917   -0.01820    0.00047
 47 H     1.01403    0.70279    1.05873
 48 H     0.04322   -0.10080    0.04434
 49 N    -0.04168    0.84080   -0.46255
 50 N    -1.21637    0.45591  -16.49563

System changes: positions 

Initializing position-dependent things.

Density initialized from wave functions
       .-----------------------.  
      /|                       |  
     / |                       |  
    /  |                       |  
   /   |                       |  
  /    |                       |  
 *     |                       |  
 |     |                       |  
 |     |                       |  
 |     |                       |  
 |     |                       |  
 |     | H     HC  O         H |  
 |     |                       |  
 |     | H     H               |  
 |     |                       |  
 |     H                       |  
 |     Li              Li      |  
 |     C                 O     |  
 |   LiH     Hi      Li        |  
 |     |                 N     |  
 | Li  |  LLi     LLi    NLi   |  
 |     |                       |  
 |     |LLi     Li      Li     |  
 |   Li|     Li      Li        |  
 |    Li  Li  Li  Li  Li  Li   |  
 | Li  |   Li      Li          |  
 |     |Li      Li      Li     |  
 Li    | Li      Li            |  
 |    Li      Li      Li       |  
 |     |                       |  
 |     |                       |  
 |     |                       |  
 |     |                       |  
 |     |                       |  
 |     |                       |  
 |     .-----------------------.  
 |    /                       /   
 |   /                       /    
 |  /                       /     
 | /                       /      
 |/                       /       
 *-----------------------*        

Positions:
   0 Li     1.617037    1.617037   10.000000    ( 0.0000,  0.0000,  0.0000)
   1 Li     4.851111    1.617037   10.000000    ( 0.0000,  0.0000,  0.0000)
   2 Li     8.085185    1.617037   10.000000    ( 0.0000,  0.0000,  0.0000)
   3 Li     1.617037    4.851111   10.000000    ( 0.0000,  0.0000,  0.0000)
   4 Li     4.851111    4.851111   10.000000    ( 0.0000,  0.0000,  0.0000)
   5 Li     8.085185    4.851111   10.000000    ( 0.0000,  0.0000,  0.0000)
   6 Li     1.617037    8.085185   10.000000    ( 0.0000,  0.0000,  0.0000)
   7 Li     4.851111    8.085185   10.000000    ( 0.0000,  0.0000,  0.0000)
   8 Li     8.085185    8.085185   10.000000    ( 0.0000,  0.0000,  0.0000)
   9 Li     0.000000    0.000000   11.617037    ( 0.0000,  0.0000,  0.0000)
  10 Li     3.234074    0.000000   11.617037    ( 0.0000,  0.0000,  0.0000)
  11 Li     6.468148    0.000000   11.617037    ( 0.0000,  0.0000,  0.0000)
  12 Li     0.000000    3.234074   11.617037    ( 0.0000,  0.0000,  0.0000)
  13 Li     3.234074    3.234074   11.617037    ( 0.0000,  0.0000,  0.0000)
  14 Li     6.468148    3.234074   11.617037    ( 0.0000,  0.0000,  0.0000)
  15 Li     0.000000    6.468148   11.617037    ( 0.0000,  0.0000,  0.0000)
  16 Li     3.234074    6.468148   11.617037    ( 0.0000,  0.0000,  0.0000)
  17 Li     6.468148    6.468148   11.617037    ( 0.0000,  0.0000,  0.0000)
  18 Li     1.616989    1.617077   13.469938    ( 0.0000,  0.0000,  0.0000)
  19 Li     4.851174    1.616867   13.470583    ( 0.0000,  0.0000,  0.0000)
  20 Li     8.085174    1.617179   13.469493    ( 0.0000,  0.0000,  0.0000)
  21 Li     1.617079    4.851104   13.470223    ( 0.0000,  0.0000,  0.0000)
  22 Li     4.851085    4.851190   13.470735    ( 0.0000,  0.0000,  0.0000)
  23 Li     8.085155    4.851031   13.470392    ( 0.0000,  0.0000,  0.0000)
  24 Li     1.617070    8.085107   13.470059    ( 0.0000,  0.0000,  0.0000)
  25 Li     4.851096    8.085243   13.470250    ( 0.0000,  0.0000,  0.0000)
  26 Li     8.085198    8.085103   13.469661    ( 0.0000,  0.0000,  0.0000)
  27 Li     0.000553   -0.000825   15.408960    ( 0.0000,  0.0000,  0.0000)
  28 Li     3.232469    0.000034   15.445858    ( 0.0000,  0.0000,  0.0000)
  29 Li     6.469547   -0.000042   15.447372    ( 0.0000,  0.0000,  0.0000)
  30 Li     0.000157    3.233050   15.446699    ( 0.0000,  0.0000,  0.0000)
  31 Li     3.234360    3.233827   15.445957    ( 0.0000,  0.0000,  0.0000)
  32 Li     6.467717    3.233971   15.445936    ( 0.0000,  0.0000,  0.0000)
  33 Li     0.000157    6.469141   15.446580    ( 0.0000,  0.0000,  0.0000)
  34 Li     3.233865    6.468287   15.445703    ( 0.0000,  0.0000,  0.0000)
  35 Li     6.468081    6.468220   15.446051    ( 0.0000,  0.0000,  0.0000)
  36 O      9.685003    9.711422   19.780411    ( 0.0000,  0.0000,  0.0000)
  37 O     14.559428    9.680136   19.642447    ( 0.0000,  0.0000,  0.0000)
  38 C     12.101361    9.707560   19.662236    ( 0.0000,  0.0000,  0.0000)
  39 C     10.928369    8.789388   19.681384    ( 0.0000,  0.0000,  0.0000)
  40 C     13.386901    8.867785   19.636067    ( 0.0000,  0.0000,  0.0000)
  41 H     12.077284   10.360864   18.785322    ( 0.0000,  0.0000,  0.0000)
  42 H     12.098191   10.338313   20.548972    ( 0.0000,  0.0000,  0.0000)
  43 H     10.839586    8.191135   18.764509    ( 0.0000,  0.0000,  0.0000)
  44 H     10.824966    8.185912   20.546177    ( 0.0000,  0.0000,  0.0000)
  45 H     13.381344    8.195074   18.768441    ( 0.0000,  0.0000,  0.0000)
  46 H     13.457158    8.254264   20.536381    ( 0.0000,  0.0000,  0.0000)
  47 H      8.862642    9.135481   19.688932    ( 0.0000,  0.0000,  0.0000)
  48 H     14.533766   10.256972   18.861970    ( 0.0000,  0.0000,  0.0000)
  49 N      9.689981    9.711378   17.086380    ( 0.0000,  0.0000,  0.0000)
  50 N      9.700497    9.747981   18.193846    ( 0.0000,  0.0000,  0.0000)

Unit cell:
           periodic     x           y           z      points  spacing
  1. axis:    yes    9.702222    0.000000    0.000000    60     0.1617
  2. axis:    yes    0.000000    9.702222    0.000000    60     0.1617
  3. axis:    no     0.000000    0.000000   28.601111   180     0.1589

  Lengths:   9.702222   9.702222  28.601111
  Angles:   90.000000  90.000000  90.000000

Effective grid spacing dv^(1/3) = 0.1608

     iter     time        total  log10-change:
                         energy  eigst   dens
iter:   1 22:32:11  -345.780595  -0.77
iter:   2 22:32:23  -345.736554  -1.02  -1.69
iter:   3 22:32:32  -345.711265  -1.53  -1.81
iter:   4 22:32:40  -345.682479  -1.25  -2.07
Writing to output.gpw (mode='')

iter:   5 22:32:48  -345.681635c -2.03  -2.13
iter:   6 22:32:56  -345.681673c -2.13  -2.38
iter:   7 22:33:04  -345.681013c -1.87  -2.38
iter:   8 22:33:12  -345.677841c -1.86  -2.46
iter:   9 22:33:20  -345.676872c -2.58  -2.67
Writing to output.gpw (mode='')

iter:  10 22:33:28  -345.677967c -2.32  -2.80
iter:  11 22:33:36  -345.677550c -2.37  -2.75
iter:  12 22:33:44  -345.676713c -3.04  -3.06
iter:  13 22:33:53  -345.676679c -3.38  -3.17
iter:  14 22:34:01  -345.676727c -3.38  -3.26
Writing to output.gpw (mode='')

iter:  15 22:34:09  -345.676869c -3.56  -3.31
iter:  16 22:34:17  -345.676842c -4.06  -3.37
iter:  17 22:34:25  -345.676783c -3.98  -3.39
iter:  18 22:34:33  -345.676823c -4.14  -3.53
iter:  19 22:34:41  -345.676833c -4.18  -3.57
Writing to output.gpw (mode='')

iter:  20 22:34:49  -345.676830c -4.33  -3.75
iter:  21 22:34:57  -345.676833c -4.65  -3.80
iter:  22 22:35:05  -345.676827c -4.65  -3.82
iter:  23 22:35:13  -345.676832c -5.07  -3.81
iter:  24 22:35:21  -345.676830c -4.84  -3.79
Writing to output.gpw (mode='')

iter:  25 22:35:29  -345.676841c -5.18  -3.75
iter:  26 22:35:37  -345.676838c -5.27  -3.83
iter:  27 22:35:49  -345.676839c -5.03  -3.92
iter:  28 22:35:57  -345.676842c -5.45  -4.00
iter:  29 22:36:05  -345.676842c -5.39  -4.08c
Writing to output.gpw (mode='')

iter:  30 22:36:13  -345.676838c -5.54  -4.06c
iter:  31 22:36:21  -345.676838c -5.67  -4.12c
iter:  32 22:36:29  -345.676838c -5.82  -4.41c
iter:  33 22:36:37  -345.676838c -6.14  -4.50c
iter:  34 22:36:45  -345.676839c -5.81  -4.58c
Writing to output.gpw (mode='')

iter:  35 22:36:53  -345.676839c -6.47  -4.74c
iter:  36 22:37:01  -345.676840c -6.45  -4.74c
iter:  37 22:37:09  -345.676840c -6.55  -4.81c
iter:  38 22:37:21  -345.676840c -6.60  -4.89c
iter:  39 22:37:31  -345.676839c -6.79  -4.93c
Writing to output.gpw (mode='')

iter:  40 22:37:39  -345.676839c -6.90  -5.30c
iter:  41 22:37:47  -345.676840c -7.11  -5.33c
iter:  42 22:37:55  -345.676840c -6.85  -5.52c
iter:  43 22:38:03  -345.676840c -7.31  -5.52c
iter:  44 22:38:11  -345.676840c -7.18  -5.62c
Writing to output.gpw (mode='')

iter:  45 22:38:19  -345.676840c -7.40c -5.63c

Converged after 45 iterations.

Dipole moment: (-12.245814, -21.193370, -0.060250) |e|*Ang

Energy contributions relative to reference atoms: (reference = -17528.314784)

Kinetic:       +208.985772
Potential:     -195.210349
External:        +0.000000
XC:            -360.498289
Entropy (-ST):   -0.144631
Local:           +1.118342
--------------------------
Free energy:   -345.749155
Extrapolated:  -345.676840

Dipole-layer corrected work functions: 3.391758, 3.507579 eV

Showing only first 2 kpts
 Kpt  Band  Eigenvalues  Occupancy
  0    37     -3.69054    1.98396
  0    38     -3.62562    1.94245
  0    39     -3.27489    0.05888
  0    40     -3.20462    0.01477

  1    37     -3.49779    1.44719
  1    38     -3.43985    0.90212
  1    39     -3.42740    0.78089
  1    40     -3.34720    0.22823


Fermi level: -3.44967

No gap

Forces in eV/Ang:
  0 Li    0.01116    0.00570   -0.27030
  1 Li   -0.00264   -0.00088   -0.26944
  2 Li   -0.00913    0.00938   -0.26935
  3 Li   -0.00226    0.00219   -0.26991
  4 Li    0.00102   -0.00081   -0.28979
  5 Li    0.00113    0.00224   -0.26879
  6 Li    0.00809   -0.00806   -0.27164
  7 Li   -0.00266    0.00234   -0.26938
  8 Li   -0.00556   -0.01121   -0.27107
  9 Li   -0.00042   -0.00094    0.31870
 10 Li    0.01413    0.00029    0.25411
 11 Li   -0.01370    0.00108    0.26376
 12 Li    0.00077    0.01459    0.26132
 13 Li    0.00434    0.00200    0.25850
 14 Li   -0.00419    0.00533    0.25566
 15 Li    0.00021   -0.01320    0.25571
 16 Li    0.00258   -0.00186    0.25621
 17 Li   -0.00274   -0.00709    0.25577
 18 Li    0.00698    0.00729   -0.00381
 19 Li    0.00293   -0.00184    0.05704
 20 Li   -0.00872    0.01142   -0.01965
 21 Li   -0.00112   -0.00025    0.04406
 22 Li   -0.00044    0.00209    0.02427
 23 Li    0.00170   -0.00152    0.04776
 24 Li    0.00929   -0.00725    0.00202
 25 Li    0.00204   -0.00097    0.04452
 26 Li   -0.01072   -0.01074   -0.01339
 27 Li    0.02411   -0.04295   -2.75512
 28 Li    0.02773    0.00229   -0.06052
 29 Li   -0.03159   -0.00032   -0.01207
 30 Li    0.00532    0.02688   -0.01612
 31 Li    0.01371   -0.00605   -0.01499
 32 Li   -0.01992    0.00268   -0.01627
 33 Li    0.00534   -0.02533   -0.03056
 34 Li    0.00021   -0.00044   -0.02438
 35 Li   -0.00850   -0.00539   -0.01901
 36 O    -0.56624   -2.73026   14.76125
 37 O     0.18344    0.08674   -0.13250
 38 C     0.69270   -0.20600    0.19343
 39 C    -1.58946    0.93284    0.56071
 40 C     0.04109    0.22126    0.02762
 41 H    -0.05285   -0.01164   -0.02262
 42 H     0.00479    0.07942    0.08370
 43 H     0.08647   -0.09249    0.31830
 44 H     0.31340   -0.69610    0.79191
 45 H     0.02219   -0.03760   -0.05609
 46 H    -0.00936   -0.02071   -0.00079
 47 H     1.27260    0.76542    1.03158
 48 H     0.03289   -0.11519    0.07512
 49 N    -0.62718    0.00800   -0.55799
 50 N     0.14966    1.80446  -14.29281

System changes: positions 

Initializing position-dependent things.

Density initialized from wave functions
       .-----------------------.  
      /|                       |  
     / |                       |  
    /  |                       |  
   /   |                       |  
  /    |                       |  
 *     |                       |  
 |     |                       |  
 |     |                       |  
 |     |                       |  
 |     |                       |  
 |     | H     HC  O         H |  
 |     |                       |  
 |     | H     H               |  
 |     |                       |  
 |     H                       |  
 |     Li              Li      |  
 |     C                 O     |  
 |   LiH     Hi      Li        |  
 N     |                       |  
 | Li  |  LLi     LLi    NLi   |  
 |     |                       |  
 |     |LLi     Li      Li     |  
 |   Li|     Li      Li        |  
 |    Li  Li  Li  Li  Li  Li   |  
 | Li  |   Li      Li          |  
 |     |Li      Li      Li     |  
 Li    | Li      Li            |  
 |    Li      Li      Li       |  
 |     |                       |  
 |     |                       |  
 |     |                       |  
 |     |                       |  
 |     |                       |  
 |     |                       |  
 |     .-----------------------.  
 |    /                       /   
 |   /                       /    
 |  /                       /     
 | /                       /      
 |/                       /       
 *-----------------------*        

Positions:
   0 Li     1.617037    1.617037   10.000000    ( 0.0000,  0.0000,  0.0000)
   1 Li     4.851111    1.617037   10.000000    ( 0.0000,  0.0000,  0.0000)
   2 Li     8.085185    1.617037   10.000000    ( 0.0000,  0.0000,  0.0000)
   3 Li     1.617037    4.851111   10.000000    ( 0.0000,  0.0000,  0.0000)
   4 Li     4.851111    4.851111   10.000000    ( 0.0000,  0.0000,  0.0000)
   5 Li     8.085185    4.851111   10.000000    ( 0.0000,  0.0000,  0.0000)
   6 Li     1.617037    8.085185   10.000000    ( 0.0000,  0.0000,  0.0000)
   7 Li     4.851111    8.085185   10.000000    ( 0.0000,  0.0000,  0.0000)
   8 Li     8.085185    8.085185   10.000000    ( 0.0000,  0.0000,  0.0000)
   9 Li     0.000000    0.000000   11.617037    ( 0.0000,  0.0000,  0.0000)
  10 Li     3.234074    0.000000   11.617037    ( 0.0000,  0.0000,  0.0000)
  11 Li     6.468148    0.000000   11.617037    ( 0.0000,  0.0000,  0.0000)
  12 Li     0.000000    3.234074   11.617037    ( 0.0000,  0.0000,  0.0000)
  13 Li     3.234074    3.234074   11.617037    ( 0.0000,  0.0000,  0.0000)
  14 Li     6.468148    3.234074   11.617037    ( 0.0000,  0.0000,  0.0000)
  15 Li     0.000000    6.468148   11.617037    ( 0.0000,  0.0000,  0.0000)
  16 Li     3.234074    6.468148   11.617037    ( 0.0000,  0.0000,  0.0000)
  17 Li     6.468148    6.468148   11.617037    ( 0.0000,  0.0000,  0.0000)
  18 Li     1.616986    1.617109   13.469972    ( 0.0000,  0.0000,  0.0000)
  19 Li     4.851203    1.616810   13.470901    ( 0.0000,  0.0000,  0.0000)
  20 Li     8.085155    1.617270   13.469357    ( 0.0000,  0.0000,  0.0000)
  21 Li     1.617097    4.851107   13.470423    ( 0.0000,  0.0000,  0.0000)
  22 Li     4.851072    4.851213   13.471033    ( 0.0000,  0.0000,  0.0000)
  23 Li     8.085146    4.851015   13.470647    ( 0.0000,  0.0000,  0.0000)
  24 Li     1.617121    8.085063   13.470096    ( 0.0000,  0.0000,  0.0000)
  25 Li     4.851103    8.085266   13.470465    ( 0.0000,  0.0000,  0.0000)
  26 Li     8.085155    8.085028   13.469539    ( 0.0000,  0.0000,  0.0000)
  27 Li     0.000710   -0.001239   15.393523    ( 0.0000,  0.0000,  0.0000)
  28 Li     3.232076    0.000047   15.445751    ( 0.0000,  0.0000,  0.0000)
  29 Li     6.469896   -0.000050   15.447755    ( 0.0000,  0.0000,  0.0000)
  30 Li     0.000209    3.232832   15.446869    ( 0.0000,  0.0000,  0.0000)
  31 Li     3.234458    3.233762   15.445934    ( 0.0000,  0.0000,  0.0000)
  32 Li     6.467565    3.233967   15.445904    ( 0.0000,  0.0000,  0.0000)
  33 Li     0.000212    6.469380   15.446721    ( 0.0000,  0.0000,  0.0000)
  34 Li     3.233830    6.468310   15.445598    ( 0.0000,  0.0000,  0.0000)
  35 Li     6.468019    6.468202   15.446044    ( 0.0000,  0.0000,  0.0000)
  36 O      9.674999    9.703394   19.809307    ( 0.0000,  0.0000,  0.0000)
  37 O     14.558998    9.680110   19.642642    ( 0.0000,  0.0000,  0.0000)
  38 C     12.103948    9.708529   19.662989    ( 0.0000,  0.0000,  0.0000)
  39 C     10.942209    8.781324   19.687310    ( 0.0000,  0.0000,  0.0000)
  40 C     13.388558    8.867772   19.636122    ( 0.0000,  0.0000,  0.0000)
  41 H     12.077354   10.360627   18.785200    ( 0.0000,  0.0000,  0.0000)
  42 H     12.098337   10.338674   20.549505    ( 0.0000,  0.0000,  0.0000)
  43 H     10.839761    8.189969   18.767641    ( 0.0000,  0.0000,  0.0000)
  44 H     10.823961    8.183799   20.551593    ( 0.0000,  0.0000,  0.0000)
  45 H     13.381372    8.195069   18.768154    ( 0.0000,  0.0000,  0.0000)
  46 H     13.457101    8.254174   20.536351    ( 0.0000,  0.0000,  0.0000)
  47 H      8.853107    9.130372   19.704382    ( 0.0000,  0.0000,  0.0000)
  48 H     14.534257   10.256615   18.861479    ( 0.0000,  0.0000,  0.0000)
  49 N      9.680849    9.706728   17.066217    ( 0.0000,  0.0000,  0.0000)
  50 N      9.712207    9.774813   18.166590    ( 0.0000,  0.0000,  0.0000)

Unit cell:
           periodic     x           y           z      points  spacing
  1. axis:    yes    9.702222    0.000000    0.000000    60     0.1617
  2. axis:    yes    0.000000    9.702222    0.000000    60     0.1617
  3. axis:    no     0.000000    0.000000   28.601111   180     0.1589

  Lengths:   9.702222   9.702222  28.601111
  Angles:   90.000000  90.000000  90.000000

Effective grid spacing dv^(1/3) = 0.1608

     iter     time        total  log10-change:
                         energy  eigst   dens
iter:   1 22:38:29  -346.635414  -0.85
iter:   2 22:38:37  -346.597260  -1.10  -1.75
iter:   3 22:38:45  -346.578739  -1.69  -1.86
iter:   4 22:38:53  -346.571664c -1.33  -2.20
Writing to output.gpw (mode='')

iter:   5 22:39:02  -346.570357c -2.07  -2.26
iter:   6 22:39:10  -346.570797c -2.10  -2.50
iter:   7 22:39:18  -346.573073c -1.99  -2.51
iter:   8 22:39:26  -346.571249c -2.18  -2.50
iter:   9 22:39:34  -346.571080c -2.84  -2.69
Writing to output.gpw (mode='')

iter:  10 22:39:42  -346.571144c -2.67  -2.81
iter:  11 22:39:50  -346.571162c -3.14  -3.03
iter:  12 22:39:58  -346.571211c -3.20  -3.18
iter:  13 22:40:07  -346.571264c -3.54  -3.23
iter:  14 22:40:15  -346.571245c -3.65  -3.25
Writing to output.gpw (mode='')

iter:  15 22:40:23  -346.571269c -3.70  -3.43
iter:  16 22:40:31  -346.571272c -3.79  -3.44
iter:  17 22:40:39  -346.571295c -4.00  -3.53
iter:  18 22:40:47  -346.571321c -3.98  -3.58
iter:  19 22:40:55  -346.571337c -4.29  -3.71
Writing to output.gpw (mode='')

iter:  20 22:41:03  -346.571353c -4.39  -3.77
iter:  21 22:41:12  -346.571353c -4.59  -3.78
iter:  22 22:41:20  -346.571348c -4.70  -3.87
iter:  23 22:41:28  -346.571351c -4.97  -4.04c
iter:  24 22:41:36  -346.571353c -5.03  -4.18c
Writing to output.gpw (mode='')

iter:  25 22:41:44  -346.571353c -5.23  -4.30c
iter:  26 22:41:52  -346.571354c -5.23  -4.41c
iter:  27 22:42:01  -346.571357c -5.34  -4.48c
iter:  28 22:42:09  -346.571358c -5.45  -4.49c
iter:  29 22:42:21  -346.571358c -5.57  -4.64c
Writing to output.gpw (mode='')

iter:  30 22:42:30  -346.571359c -5.69  -4.75c
iter:  31 22:42:39  -346.571360c -5.77  -4.78c
iter:  32 22:42:47  -346.571360c -5.88  -4.85c
iter:  33 22:42:55  -346.571360c -5.85  -5.07c
iter:  34 22:43:03  -346.571360c -5.88  -5.11c
Writing to output.gpw (mode='')

iter:  35 22:43:11  -346.571360c -6.24  -5.07c
iter:  36 22:43:19  -346.571360c -6.17  -5.02c
iter:  37 22:43:27  -346.571361c -6.29  -4.93c
iter:  38 22:43:35  -346.571361c -6.29  -5.05c
iter:  39 22:43:43  -346.571361c -6.53  -5.01c
Writing to output.gpw (mode='')

iter:  40 22:43:52  -346.571361c -6.95  -4.92c
iter:  41 22:44:00  -346.571361c -6.74  -4.96c
iter:  42 22:44:08  -346.571361c -6.87  -4.68c
iter:  43 22:44:16  -346.571361c -7.00  -5.19c
iter:  44 22:44:24  -346.571361c -7.02  -5.32c
Writing to output.gpw (mode='')

iter:  45 22:44:32  -346.571361c -7.23  -5.43c
iter:  46 22:44:41  -346.571361c -7.34  -5.58c
iter:  47 22:44:49  -346.571361c -7.42c -5.78c

Converged after 47 iterations.

Dipole moment: (-11.475480, -21.867764, -0.077578) |e|*Ang

Energy contributions relative to reference atoms: (reference = -17528.314784)

Kinetic:       +207.216247
Potential:     -194.311798
External:        +0.000000
XC:            -360.527957
Entropy (-ST):   -0.143345
Local:           +1.123820
--------------------------
Free energy:   -346.643034
Extrapolated:  -346.571361

Dipole-layer corrected work functions: 3.390140, 3.539272 eV

Showing only first 2 kpts
 Kpt  Band  Eigenvalues  Occupancy
  0    37     -3.71207    1.98590
  0    38     -3.64152    1.94341
  0    39     -3.28688    0.05549
  0    40     -3.21872    0.01450

  1    37     -3.50656    1.39567
  1    38     -3.45458    0.89907
  1    39     -3.44197    0.77644
  1    40     -3.36502    0.23972


Fermi level: -3.46471

No gap
Writing to output.gpw (mode='')


Forces in eV/Ang:
  0 Li    0.01010    0.00521   -0.27003
  1 Li   -0.00192   -0.00129   -0.26914
  2 Li   -0.00865    0.00890   -0.26980
  3 Li   -0.00273    0.00235   -0.26936
  4 Li    0.00109   -0.00074   -0.28833
  5 Li    0.00175    0.00155   -0.26827
  6 Li    0.00748   -0.00765   -0.27184
  7 Li   -0.00278    0.00290   -0.26869
  8 Li   -0.00507   -0.01035   -0.27144
  9 Li   -0.00116   -0.00174    0.31807
 10 Li    0.01404    0.00055    0.25380
 11 Li   -0.01250    0.00134    0.26353
 12 Li    0.00108    0.01476    0.25976
 13 Li    0.00352    0.00108    0.25906
 14 Li   -0.00403    0.00599    0.25613
 15 Li    0.00067   -0.01217    0.25603
 16 Li    0.00361   -0.00154    0.25680
 17 Li   -0.00391   -0.00765    0.25572
 18 Li    0.00795    0.00889   -0.00582
 19 Li    0.00326   -0.00135    0.05762
 20 Li   -0.01015    0.01495   -0.02191
 21 Li   -0.00040   -0.00008    0.04480
 22 Li   -0.00114    0.00157    0.02217
 23 Li    0.00142   -0.00013    0.04901
 24 Li    0.01285   -0.00914   -0.00172
 25 Li    0.00348   -0.00115    0.04604
 26 Li   -0.01519   -0.01502   -0.02169
 27 Li    0.02196   -0.05562   -2.81442
[...]
  0    39     -3.38756    0.07001
  0    40     -3.30443    0.01366

  1    37     -3.59484    1.39228
  1    38     -3.53838    0.85097
  1    39     -3.52617    0.73429
  1    40     -3.48278    0.39173


Fermi level: -3.55339

No gap
Writing to output.gpw (mode='')


Forces in eV/Ang:
  0 Li    0.01309    0.00127   -0.26983
  1 Li   -0.00349   -0.00209   -0.27395
  2 Li   -0.00912    0.00199   -0.26454
  3 Li   -0.00021    0.00362   -0.27611
  4 Li    0.00132   -0.00381   -0.27538
  5 Li    0.00150    0.00755   -0.27953
  6 Li    0.00012   -0.00632   -0.26977
  7 Li    0.00035   -0.00088   -0.28362
  8 Li    0.00104   -0.01064   -0.26470
  9 Li   -0.00629   -0.00020    0.27639
 10 Li    0.00678   -0.01044    0.28829
 11 Li   -0.01030   -0.01497    0.27144
 12 Li   -0.00918    0.00985    0.30039
 13 Li    0.01094   -0.00534    0.28367
 14 Li   -0.00936    0.00853    0.27821
 15 Li   -0.01248    0.00875    0.26690
 16 Li   -0.03264    0.02964    0.28436
 17 Li    0.03580    0.01944    0.27414
 18 Li   -0.00850   -0.00606   -0.00038
 19 Li   -0.00178   -0.00325   -0.00394
 20 Li    0.00852   -0.00521    0.00666
 21 Li    0.00313    0.00517   -0.00032
 22 Li   -0.00212   -0.00257    0.00028
 23 Li   -0.00039    0.00632   -0.00039
 24 Li   -0.00088    0.00772   -0.00686
 25 Li   -0.00124    0.00377    0.00424
 26 Li    0.00160    0.00769   -0.00715
 27 Li    0.00074    0.00343   -0.02105
 28 Li   -0.00372    0.00509   -0.00219
 29 Li    0.00101    0.00560   -0.00155
 30 Li    0.00008   -0.00889   -0.00170
 31 Li    0.00241   -0.00158    0.00429
 32 Li   -0.00268   -0.00140    0.00466
 33 Li    0.00051    0.00018   -0.00331
 34 Li    0.00153   -0.00195   -0.00245
 35 Li   -0.00250   -0.00378   -0.00064
 36 O     0.02164    0.02369    0.02223
 37 O    -0.01221    0.01023    0.00917
 38 C     0.01173   -0.01388   -0.00542
 39 C     0.05040   -0.03084   -0.00231
 40 C     0.02198   -0.00619    0.00302
 41 H    -0.03284   -0.02383    0.01449
 42 H     0.02010    0.00202   -0.02375
 43 H    -0.00207   -0.00488   -0.03813
 44 H    -0.01125    0.04035    0.00347
 45 H    -0.01137    0.01311   -0.01090
 46 H     0.01503   -0.02693   -0.01062
 47 H    -0.04180   -0.01532    0.01407
 48 H     0.00180    0.00779   -0.01085
 49 N    -0.01736    0.00126    0.05580
 50 N    -0.00135   -0.02786   -0.00589

System changes: positions 

Initializing position-dependent things.

Density initialized from wave functions
       .-----------------------.  
      /|                       |  
     / |                       |  
    /  |                       |  
   /   |                       |  
  /    |                       |  
 *     |                       |  
 |     |                       |  
 |     |                       |  
 |     |                       |  
 |     |O                    H |  
 |     |  H  C  H              |  
 |     |        C  O           |  
 |     | H     H               |  
 |     |                       |  
 |     |H                      |  
 |     |       Li      Li      |  
 |     H                 N     |  
 |     |     Hi      Li      Li|  
 |     |  Li             NLi   |  
 | Li  |   Li     LLi          |  
 |     |Li      Li      Li     |  
 |     |                 Li    |  
 |   LLi     LLi     LLi       |  
 |     |  Li      Li      Li   |  
 | Li  |   Li      Li          |  
 |     |Li      Li      Li     |  
 Li    | Li      Li            |  
 |    Li      Li      Li       |  
 |     |                       |  
 |     |                       |  
 |     |                       |  
 |     |                       |  
 |     |                       |  
 |     |                       |  
 |     .-----------------------.  
 |    /                       /   
 |   /                       /    
 |  /                       /     
 | /                       /      
 |/                       /       
 *-----------------------*        

Positions:
   0 Li     1.617037    1.617037   10.000000    ( 0.0000,  0.0000,  0.0000)
   1 Li     4.851111    1.617037   10.000000    ( 0.0000,  0.0000,  0.0000)
   2 Li     8.085185    1.617037   10.000000    ( 0.0000,  0.0000,  0.0000)
   3 Li     1.617037    4.851111   10.000000    ( 0.0000,  0.0000,  0.0000)
   4 Li     4.851111    4.851111   10.000000    ( 0.0000,  0.0000,  0.0000)
   5 Li     8.085185    4.851111   10.000000    ( 0.0000,  0.0000,  0.0000)
   6 Li     1.617037    8.085185   10.000000    ( 0.0000,  0.0000,  0.0000)
   7 Li     4.851111    8.085185   10.000000    ( 0.0000,  0.0000,  0.0000)
   8 Li     8.085185    8.085185   10.000000    ( 0.0000,  0.0000,  0.0000)
   9 Li     0.000000    0.000000   11.617037    ( 0.0000,  0.0000,  0.0000)
  10 Li     3.234074    0.000000   11.617037    ( 0.0000,  0.0000,  0.0000)
  11 Li     6.468148    0.000000   11.617037    ( 0.0000,  0.0000,  0.0000)
  12 Li     0.000000    3.234074   11.617037    ( 0.0000,  0.0000,  0.0000)
  13 Li     3.234074    3.234074   11.617037    ( 0.0000,  0.0000,  0.0000)
  14 Li     6.468148    3.234074   11.617037    ( 0.0000,  0.0000,  0.0000)
  15 Li     0.000000    6.468148   11.617037    ( 0.0000,  0.0000,  0.0000)
  16 Li     3.234074    6.468148   11.617037    ( 0.0000,  0.0000,  0.0000)
  17 Li     6.468148    6.468148   11.617037    ( 0.0000,  0.0000,  0.0000)
  18 Li     1.595856    1.618242   13.485777    ( 0.0000,  0.0000,  0.0000)
  19 Li     4.860727    1.614017   13.491466    ( 0.0000,  0.0000,  0.0000)
  20 Li     8.076386    1.605959   13.489341    ( 0.0000,  0.0000,  0.0000)
  21 Li     1.623599    4.872473   13.479042    ( 0.0000,  0.0000,  0.0000)
  22 Li     4.849666    4.867638   13.487849    ( 0.0000,  0.0000,  0.0000)
  23 Li     8.075381    4.871611   13.483603    ( 0.0000,  0.0000,  0.0000)
  24 Li     1.570971    8.112112   13.526437    ( 0.0000,  0.0000,  0.0000)
  25 Li     4.858621    8.059278   13.476883    ( 0.0000,  0.0000,  0.0000)
  26 Li     8.099275    8.125138   13.544779    ( 0.0000,  0.0000,  0.0000)
  27 Li    -0.009296    0.105549   15.668623    ( 0.0000,  0.0000,  0.0000)
  28 Li     3.234220   -0.011960   15.367289    ( 0.0000,  0.0000,  0.0000)
  29 Li     6.389263   -0.030185   15.489223    ( 0.0000,  0.0000,  0.0000)
  30 Li     0.005888    3.353866   15.377880    ( 0.0000,  0.0000,  0.0000)
  31 Li     3.238545    3.214542   15.420829    ( 0.0000,  0.0000,  0.0000)
  32 Li     6.441350    3.240813   15.410379    ( 0.0000,  0.0000,  0.0000)
  33 Li    -0.002069    6.511203   15.464470    ( 0.0000,  0.0000,  0.0000)
  34 Li     3.218848    6.468838   15.452106    ( 0.0000,  0.0000,  0.0000)
  35 Li     6.481363    6.458817   15.470473    ( 0.0000,  0.0000,  0.0000)
  36 O     10.058011    9.147624   20.800433    ( 0.0000,  0.0000,  0.0000)
  37 O     14.634712    9.615630   19.210360    ( 0.0000,  0.0000,  0.0000)
  38 C     12.299450    9.411523   20.000070    ( 0.0000,  0.0000,  0.0000)
  39 C     11.132966    8.443528   20.164572    ( 0.0000,  0.0000,  0.0000)
  40 C     13.560089    8.708694   19.497372    ( 0.0000,  0.0000,  0.0000)
  41 H     12.021434   10.204863   19.296535    ( 0.0000,  0.0000,  0.0000)
  42 H     12.504267    9.888937   20.962361    ( 0.0000,  0.0000,  0.0000)
  43 H     10.815459    8.061381   19.183643    ( 0.0000,  0.0000,  0.0000)
  44 H     11.441103    7.578163   20.770475    ( 0.0000,  0.0000,  0.0000)
  45 H     13.330817    8.095913   18.611723    ( 0.0000,  0.0000,  0.0000)
  46 H     13.948484    8.039538   20.268427    ( 0.0000,  0.0000,  0.0000)
  47 H      9.299886    8.555752   20.863775    ( 0.0000,  0.0000,  0.0000)
  48 H     14.338792   10.214500   18.509865    ( 0.0000,  0.0000,  0.0000)
  49 N      9.458011   10.702603   17.491398    ( 0.0000,  0.0000,  0.0000)
  50 N      9.301916   11.213878   18.464648    ( 0.0000,  0.0000,  0.0000)

Unit cell:
           periodic     x           y           z      points  spacing
  1. axis:    yes    9.702222    0.000000    0.000000    60     0.1617
  2. axis:    yes    0.000000    9.702222    0.000000    60     0.1617
  3. axis:    no     0.000000    0.000000   28.601111   180     0.1589

  Lengths:   9.702222   9.702222  28.601111
  Angles:   90.000000  90.000000  90.000000

Effective grid spacing dv^(1/3) = 0.1608

     iter     time        total  log10-change:
                         energy  eigst   dens
iter:   1 06:55:15  -352.590115  -2.18
iter:   2 06:55:23  -352.585994  -2.65  -2.22
iter:   3 06:55:31  -352.583719c -3.59  -2.41
iter:   4 06:55:40  -352.583431c -3.83  -2.81
Writing to output.gpw (mode='')

iter:   5 06:55:48  -352.583354c -3.66  -3.02
iter:   6 06:55:56  -352.583299c -3.43  -3.15
iter:   7 06:56:04  -352.583310c -3.86  -3.37
iter:   8 06:56:12  -352.583266c -4.41  -3.48
iter:   9 06:56:20  -352.583265c -4.63  -3.62
Writing to output.gpw (mode='')

iter:  10 06:56:28  -352.583276c -4.70  -3.72
iter:  11 06:56:36  -352.583265c -5.24  -3.88
iter:  12 06:56:44  -352.583267c -5.53  -3.96
iter:  13 06:56:52  -352.583265c -5.88  -4.04c
iter:  14 06:57:00  -352.583274c -5.41  -4.15c
Writing to output.gpw (mode='')

iter:  15 06:57:09  -352.583270c -6.04  -4.27c
iter:  16 06:57:21  -352.583267c -6.19  -4.38c
iter:  17 06:57:31  -352.583265c -6.22  -4.46c
iter:  18 06:57:39  -352.583264c -6.57  -4.55c
iter:  19 06:57:47  -352.583264c -6.49  -4.62c
Writing to output.gpw (mode='')

iter:  20 06:57:55  -352.583263c -6.68  -4.74c
iter:  21 06:58:03  -352.583265c -7.07  -4.73c
iter:  22 06:58:11  -352.583265c -6.88  -4.89c
iter:  23 06:58:19  -352.583265c -7.29  -5.10c
iter:  24 06:58:27  -352.583265c -7.40  -5.29c
Writing to output.gpw (mode='')

iter:  25 06:58:35  -352.583265c -7.47c -5.36c

Converged after 25 iterations.

Dipole moment: (13.201920, 13.443094, -0.161295) |e|*Ang

Energy contributions relative to reference atoms: (reference = -17528.314784)

Kinetic:       +178.139174
Potential:     -175.112905
External:        +0.000000
XC:            -356.698748
Entropy (-ST):   -0.149430
Local:           +1.163930
--------------------------
Free energy:   -352.657980
Extrapolated:  -352.583265

Dipole-layer corrected work functions: 3.398318, 3.708382 eV

Showing only first 2 kpts
 Kpt  Band  Eigenvalues  Occupancy
  0    37     -3.79188    1.98319
  0    38     -3.72358    1.93569
  0    39     -3.38738    0.06983
  0    40     -3.30421    0.01362

  1    37     -3.59441    1.38895
  1    38     -3.53842    0.85183
  1    39     -3.52592    0.73240
  1    40     -3.48262    0.39102


Fermi level: -3.55335

No gap

Forces in eV/Ang:
  0 Li    0.01312    0.00139   -0.26967
  1 Li   -0.00348   -0.00204   -0.27467
  2 Li   -0.00909    0.00210   -0.26436
  3 Li   -0.00032    0.00357   -0.27646
  4 Li    0.00135   -0.00397   -0.27479
  5 Li    0.00155    0.00748   -0.27975
  6 Li    0.00020   -0.00638   -0.26967
  7 Li    0.00036   -0.00096   -0.28360
  8 Li    0.00104   -0.01063   -0.26455
  9 Li   -0.00623    0.00062    0.27536
 10 Li    0.00736   -0.00885    0.28911
 11 Li   -0.01172   -0.01341    0.27223
 12 Li   -0.00921    0.00981    0.29918
 13 Li    0.01155   -0.00470    0.28331
 14 Li   -0.01001    0.00866    0.27735
 15 Li   -0.01269    0.00770    0.26715
 16 Li   -0.03212    0.02822    0.28325
 17 Li    0.03533    0.01844    0.27268
 18 Li   -0.00778   -0.00718   -0.00144
 19 Li   -0.00154   -0.00591   -0.00493
 20 Li    0.00775   -0.00622    0.00642
 21 Li    0.00400    0.00615   -0.00022
 22 Li   -0.00300   -0.00252   -0.00244
 23 Li   -0.00093    0.00790   -0.00035
 24 Li   -0.00174    0.00786   -0.00504
 25 Li   -0.00079    0.00437    0.00554
 26 Li    0.00265    0.00774   -0.00430
 27 Li    0.00219    0.00423   -0.02385
 28 Li   -0.00438    0.00592   -0.00088
 29 Li    0.00250    0.00662   -0.00012
 30 Li    0.00058   -0.01138   -0.00014
 31 Li    0.00249   -0.00163    0.00498
 32 Li   -0.00326   -0.00179    0.00510
 33 Li    0.00082    0.00250   -0.00024
 34 Li    0.00329   -0.00214   -0.00363
 35 Li   -0.00468   -0.00387   -0.00251
 36 O     0.01672    0.00296    0.01352
 37 O    -0.01591   -0.00403    0.00593
 38 C     0.01073   -0.02263    0.00352
 39 C     0.02576   -0.01352   -0.00500
 40 C     0.00758   -0.01093   -0.00255
 41 H    -0.03026   -0.02865    0.02145
 42 H     0.00752    0.00875   -0.02754
 43 H     0.00365    0.00403   -0.02883
 44 H    -0.00735    0.03438    0.00557
 45 H     0.00455    0.01873   -0.01678
 46 H     0.02401   -0.02098   -0.02137
 47 H    -0.02582   -0.00718    0.01364
 48 H     0.00527    0.00857   -0.01072
 49 N    -0.02198   -0.02494    0.02455
 50 N    -0.00297   -0.00270    0.03043

Timing:                                      incl.     excl.
-------------------------------------------------------------------
Density initialized from wave functions:     6.611     6.609   0.0% |
 Symmetrize density:                         0.003     0.003   0.0% |
Forces:                                     63.522    63.522   0.2% |
Hamiltonian:                               710.691     0.016   0.0% |
 Atomic:                                     0.025     0.025   0.0% |
  XC Correction:                             0.000     0.000   0.0% |
 Calculate atomic Hamiltonians:              0.044     0.044   0.0% |
 Communicate:                                8.951     8.951   0.0% |
 Hartree integrate/restrict:                 3.104     3.104   0.0% |
 Initialize Hamiltonian:                     0.000     0.000   0.0% |
 Poisson:                                   36.564    13.623   0.0% |
  Communicate from 1D:                       3.864     3.864   0.0% |
  Communicate from 2D:                       3.660     3.660   0.0% |
  Communicate to 1D:                         1.970     1.970   0.0% |
  Communicate to 2D:                         3.962     3.962   0.0% |
  FFT 1D:                                    4.568     4.568   0.0% |
  FFT 2D:                                    4.917     4.917   0.0% |
 XC 3D grid:                               661.388   106.546   0.3% |
  VdW-DF integral:                         554.842     4.400   0.0% |
   Convolution:                             49.732    49.732   0.2% |
   FFT:                                     21.227    21.227   0.1% |
   gather:                                 182.966   182.966   0.6% |
   hmm1:                                    19.169    19.169   0.1% |
   hmm2:                                    25.186    25.186   0.1% |
   iFFT:                                    22.026    22.026   0.1% |
   potential:                              226.556     6.276   0.0% |
    collect:                                35.268    35.268   0.1% |
    p1:                                    102.980   102.980   0.3% |
    p2:                                     38.673    38.673   0.1% |
    sum:                                    43.360    43.360   0.1% |
   splines:                                  3.579     3.579   0.0% |
 vbar:                                       0.600     0.600   0.0% |
LCAO initialization:                         1.267     0.183   0.0% |
 LCAO eigensolver:                           0.229     0.000   0.0% |
  Calculate projections:                     0.000     0.000   0.0% |
  DenseAtomicCorrection:                     0.000     0.000   0.0% |
  Distribute overlap matrix:                 0.191     0.191   0.0% |
  Orbital Layouts:                           0.035     0.035   0.0% |
  Potential matrix:                          0.002     0.002   0.0% |
  Sum over cells:                            0.001     0.001   0.0% |
 LCAO to grid:                               0.741     0.741   0.0% |
 Set positions (LCAO WFS):                   0.114     0.066   0.0% |
  Basic WFS set positions:                   0.001     0.001   0.0% |
  Basis functions set positions:             0.000     0.000   0.0% |
  P tci:                                     0.000     0.000   0.0% |
  ST tci:                                    0.015     0.015   0.0% |
  mktci:                                     0.032     0.032   0.0% |
Redistribute:                                0.071     0.071   0.0% |
SCF-cycle:                               31914.042   568.736   1.7% ||
 Davidson:                                9424.251  2780.841   8.5% |--|
  Apply hamiltonian:                       606.630   606.630   1.8% ||
  Subspace diag:                          1763.965     0.444   0.0% |
   calc_h_matrix:                          915.106   304.962   0.9% |
    Apply hamiltonian:                     610.144   610.144   1.9% ||
   diagonalize:                             71.899    71.899   0.2% |
   rotate_psi:                             776.516   776.516   2.4% ||
  calc. matrices:                         2999.736  1540.869   4.7% |-|
   Apply hamiltonian:                     1458.867  1458.867   4.4% |-|
  diagonalize:                              27.444    27.444   0.1% |
  rotate_psi:                             1245.635  1245.635   3.8% |-|
 Density:                                  164.743     0.101   0.0% |
  Atomic density matrices:                  19.101    19.101   0.1% |
  Mix:                                      71.281    71.281   0.2% |
  Multipole moments:                         6.954     6.954   0.0% |
  Pseudo density:                           67.306    67.219   0.2% |
   Symmetrize density:                       0.087     0.087   0.0% |
 Hamiltonian:                            21730.354     0.477   0.0% |
  Atomic:                                    0.898     0.888   0.0% |
   XC Correction:                            0.010     0.010   0.0% |
  Calculate atomic Hamiltonians:             1.441     1.441   0.0% |
  Communicate:                             301.536   301.536   0.9% |
  Hartree integrate/restrict:               81.694    81.694   0.2% |
  Poisson:                                1094.337   409.034   1.2% |
   Communicate from 1D:                    106.685   106.685   0.3% |
   Communicate from 2D:                    105.177   105.177   0.3% |
   Communicate to 1D:                       61.218    61.218   0.2% |
   Communicate to 2D:                      122.763   122.763   0.4% |
   FFT 1D:                                 139.882   139.882   0.4% |
   FFT 2D:                                 149.578   149.578   0.5% |
  XC 3D grid:                            20230.930  3280.768  10.0% |---|
   VdW-DF integral:                      16950.162   134.880   0.4% |
    Convolution:                          1524.525  1524.525   4.6% |-|
    FFT:                                   648.063   648.063   2.0% ||
    gather:                               5669.992  5669.992  17.3% |------|
    hmm1:                                  582.445   582.445   1.8% ||
    hmm2:                                  770.090   770.090   2.3% ||
    iFFT:                                  674.342   674.342   2.1% ||
    potential:                            6945.787   191.872   0.6% |
     collect:                             1088.208  1088.208   3.3% ||
     p1:                                  3156.021  3156.021   9.6% |---|
     p2:                                  1185.598  1185.598   3.6% ||
     sum:                                 1324.087  1324.087   4.0% |-|
    splines:                                 0.038     0.038   0.0% |
  vbar:                                     19.040    19.040   0.1% |
 Orthonormalize:                            25.958     0.017   0.0% |
  calc_s_matrix:                             4.019     4.019   0.0% |
  inverse-cholesky:                          6.877     6.877   0.0% |
  projections:                               0.003     0.003   0.0% |
  rotate_psi_s:                             15.042    15.042   0.0% |
Set symmetry:                                0.002     0.002   0.0% |
Other:                                     133.989   133.989   0.4% |
-------------------------------------------------------------------
Total:                                             32830.196 100.0%

Memory usage: 1.21 GiB
Date: Sat Mar 11 06:58:36 2023
