
  ___ ___ ___ _ _ _  
 |   |   |_  | | | | 
 | | | | | . | | | | 
 |__ |  _|___|_____|  22.8.0
 |___|_|             

User:   vazumah@d013
Date:   Thu Mar  9 14:14:26 2023
Arch:   x86_64
Pid:    2539
CWD:    /home/vazumah/Research_Projects/LiMEAS/LiNRR_proton_donors/N2_with_proton_donor/Li_BCC_100/adsorbates/CH3CH2OH_z/bridge/8.085_1.617/N2_z/barrier/9.63_1.41_15.54
Python: 3.10.6
gpaw:   /home/vazumah/anaconda3/envs/NAME/lib/python3.10/site-packages/gpaw
_gpaw:  /home/vazumah/anaconda3/envs/NAME/lib/python3.10/site-packages/
        _gpaw.cpython-310-x86_64-linux-gnu.so
ase:    /home/vazumah/anaconda3/envs/NAME/lib/python3.10/site-packages/ase (version 3.22.1)
numpy:  /home/vazumah/anaconda3/envs/NAME/lib/python3.10/site-packages/numpy (version 1.23.3)
scipy:  /home/vazumah/anaconda3/envs/NAME/lib/python3.10/site-packages/scipy (version 1.9.1)
libxc:  5.2.3
units:  Angstrom and eV
cores: 32
OpenMP: True
OMP_NUM_THREADS: 1

Reading from output.gpw
Reading input parameters:
  h: 0.16
  kpts: {size: [4, 4, 1]}
  occupations: {name: fermi-dirac,
                width: 0.05}
  poissonsolver: {dipolelayer: xy}
  xc: BEEF-vdW

Initialize ...

species:
  Li:
    name: Lithium
    id: 830b4218f175192f93f959cfc0aad614
    Z: 3.0
    valence: 1
    core: 2
    charge: 0.0
    file: /home/vazumah/anaconda3/envs/NAME/share/gpaw/Li.PBE.gz
    compensation charges: {type: gauss,
                           rc: 0.33,
                           lmax: 2}
    cutoffs: {filter: 1.91,
              core: 2.55}
    valence states:
      #              energy  rcut
      - 2s(1.00)    -2.874   1.058
      - 2p(0.00)    -1.090   1.058
      -  s          24.337   1.058
  
    # Using partial waves for Li as LCAO basis

  O:
    name: Oxygen
    id: 32ecd46bf208036f09c70b0ec9a88b78
    Z: 8.0
    valence: 6
    core: 2
    charge: 0.0
    file: /home/vazumah/anaconda3/envs/NAME/share/gpaw/O.PBE.gz
    compensation charges: {type: gauss,
                           rc: 0.21,
                           lmax: 2}
    cutoffs: {filter: 1.17,
              core: 0.83}
    valence states:
      #              energy  rcut
      - 2s(2.00)   -23.961   0.688
      - 2p(4.00)    -9.029   0.598
      -  s           3.251   0.688
      -  p          18.182   0.598
      -  d           0.000   0.619
  
    # Using partial waves for O as LCAO basis

  C:
    name: Carbon
    id: 4aa54d4b901d75f77cc0ea3eec22967b
    Z: 6.0
    valence: 4
    core: 2
    charge: 0.0
    file: /home/vazumah/anaconda3/envs/NAME/share/gpaw/C.PBE.gz
    compensation charges: {type: gauss,
                           rc: 0.20,
                           lmax: 2}
    cutoffs: {filter: 1.14,
              core: 1.14}
    valence states:
      #              energy  rcut
      - 2s(2.00)   -13.751   0.635
      - 2p(2.00)    -5.284   0.635
      -  s          13.461   0.635
      -  p          21.927   0.635
      -  d           0.000   0.635
  
    # Using partial waves for C as LCAO basis

  H:
    name: Hydrogen
    id: d65de229564ff8ea4db303e23b6d1ecf
    Z: 1.0
    valence: 1
    core: 0
    charge: 0.0
    file: /home/vazumah/anaconda3/envs/NAME/share/gpaw/H.PBE.gz
    compensation charges: {type: gauss,
                           rc: 0.15,
                           lmax: 2}
    cutoffs: {filter: 0.85,
              core: 0.53}
    valence states:
      #              energy  rcut
      - 1s(1.00)    -6.494   0.476
      -  s          20.717   0.476
      -  p           0.000   0.476
  
    # Using partial waves for H as LCAO basis

  N:
    name: Nitrogen
    id: f7500608b86eaa90eef8b1d9a670dc53
    Z: 7.0
    valence: 5
    core: 2
    charge: 0.0
    file: /home/vazumah/anaconda3/envs/NAME/share/gpaw/N.PBE.gz
    compensation charges: {type: gauss,
                           rc: 0.18,
                           lmax: 2}
    cutoffs: {filter: 1.11,
              core: 0.96}
    valence states:
      #              energy  rcut
      - 2s(2.00)   -18.583   0.603
      - 2p(3.00)    -7.089   0.529
      -  s           8.629   0.603
      -  p          20.123   0.529
      -  d           0.000   0.577
  
    # Using partial waves for N as LCAO basis

Reference energy: -14434.854043  # eV

Spin-paired calculation

Convergence criteria:
 Maximum [total energy] change in last 3 cyles: 0.0005 eV / electron
 Maximum integral of absolute [dens]ity change: 0.0001 electrons / valence electron
 Maximum integral of absolute [eigenst]ate change: 4e-08 eV^2 / valence electron
 Maximum number of scf [iter]ations: 333
 (Square brackets indicate name in SCF output, whereas a 'c' in
 the SCF output indicates the quantity has converged.)

Symmetries present (total): 1

  ( 1  0  0)
  ( 0  1  0)
  ( 0  0  1)

16 k-points: 4 x 4 x 1 Monkhorst-Pack grid
8 k-points in the irreducible part of the Brillouin zone
       k-points in crystal coordinates                weights
   0:     0.12500000   -0.37500000    0.00000000          2/16
   1:     0.12500000   -0.12500000    0.00000000          2/16
   2:     0.12500000    0.12500000    0.00000000          2/16
   3:     0.12500000    0.37500000    0.00000000          2/16
   4:     0.37500000   -0.37500000    0.00000000          2/16
   5:     0.37500000   -0.12500000    0.00000000          2/16
   6:     0.37500000    0.12500000    0.00000000          2/16
   7:     0.37500000    0.37500000    0.00000000          2/16

Wave functions: Uniform real-space grid
  Kinetic energy operator: 6*3+1=19 point O(h^6) finite-difference Laplacian
  ScaLapack parameters: grid=1x1, blocksize=None
  Wavefunction extrapolation:
    Improved wavefunction reuse through dual PAW basis 

Occupation numbers: Fermi-Dirac:
  width: 0.0500  # eV
 

Eigensolver
   Davidson(niter=2) 

Densities:
  Coarse grid: 60*60*156 grid
  Fine grid: 120*120*312 grid
  Total Charge: 0.000000 

Density mixing:
  Method: separate
  Backend: pulay
  Linear mixing parameter: 0.05
  old densities: 5
  Damping of long wavelength oscillations: 50 

Hamiltonian:
  XC and Coulomb potentials evaluated on a 120*120*312 grid
  Using the BEEF-vdW Exchange-Correlation functional
  Interpolation: tri-quintic (5. degree polynomial)
  Poisson solver: FastPoissonSolver using
    Stencil: 6*3+1=19 point O(h^6) finite-difference Laplacian
    FFT axes: [0, 1]
    FST axes: [2]

Dipole correction along z-axis 

XC parameters: BEEF-vdW with 2 nearest neighbor stencil

Memory estimate:
  Process memory now: 214.00 MiB
  Calculator: 307.36 MiB
    Density: 88.33 MiB
      Arrays: 27.47 MiB
      Localized functions: 50.43 MiB
      Mixer: 10.44 MiB
    Hamiltonian: 21.95 MiB
      Arrays: 17.96 MiB
      XC: 0.00 MiB
      Poisson: 0.00 MiB
      vbar: 3.99 MiB
    Wavefunctions: 197.08 MiB
      Arrays psit_nG: 91.85 MiB
      Eigensolver: 102.58 MiB
      Projections: 0.05 MiB
      Projectors: 2.60 MiB

Total number of cores used: 32
Parallelization over k-points: 8
Domain decomposition: 1 x 1 x 4

Number of atoms: 47
Number of atomic orbitals: 170
Number of bands in calculation: 44
Number of valence electrons: 66
Bands to converge: occupied

... initialized

Initializing position-dependent things.

Creating initial wave functions:
  44 bands from LCAO basis set

       .-----------------------.  
      /|                       |  
     / |                       |  
    /  |                       |  
   /   |                       |  
  /    |                       |  
 *     |                       |  
 |     |                       |  
 |     |                       |  
 |     |            H H  H     |  
 |     |              C        |  
 |     |                       |  
 |     Li          H  CH       |  
 |     |            HLO        |  
 |   Li|     Li                |  
 |     |  Li      Li      LLi  |  
 |     |   Li      Li N        |  
 |     |Li      Li Li   Ni     |  
 |     |  Li                   |  
 |   Li|     LLi     LLi       |  
 |     |  Li      Li      Li   |  
 | Li  |   Li      Li          |  
 |     |Li      Li      Li     |  
 Li    | Li      Li            |  
 |    Li      Li      Li       |  
 |     |                       |  
 |     |                       |  
 |     |                       |  
 |     |                       |  
 |     |                       |  
 |     |                       |  
 |     .-----------------------.  
 |    /                       /   
 |   /                       /    
 |  /                       /     
 | /                       /      
 |/                       /       
 *-----------------------*        

Positions:
   0 Li     1.617037    1.617037   10.000000    ( 0.0000,  0.0000,  0.0000)
   1 Li     4.851111    1.617037   10.000000    ( 0.0000,  0.0000,  0.0000)
   2 Li     8.085185    1.617037   10.000000    ( 0.0000,  0.0000,  0.0000)
   3 Li     1.617037    4.851111   10.000000    ( 0.0000,  0.0000,  0.0000)
   4 Li     4.851111    4.851111   10.000000    ( 0.0000,  0.0000,  0.0000)
   5 Li     8.085185    4.851111   10.000000    ( 0.0000,  0.0000,  0.0000)
   6 Li     1.617037    8.085185   10.000000    ( 0.0000,  0.0000,  0.0000)
   7 Li     4.851111    8.085185   10.000000    ( 0.0000,  0.0000,  0.0000)
   8 Li     8.085185    8.085185   10.000000    ( 0.0000,  0.0000,  0.0000)
   9 Li     0.000000    0.000000   11.617037    ( 0.0000,  0.0000,  0.0000)
  10 Li     3.234074    0.000000   11.617037    ( 0.0000,  0.0000,  0.0000)
  11 Li     6.468148    0.000000   11.617037    ( 0.0000,  0.0000,  0.0000)
  12 Li     0.000000    3.234074   11.617037    ( 0.0000,  0.0000,  0.0000)
  13 Li     3.234074    3.234074   11.617037    ( 0.0000,  0.0000,  0.0000)
  14 Li     6.468148    3.234074   11.617037    ( 0.0000,  0.0000,  0.0000)
  15 Li     0.000000    6.468148   11.617037    ( 0.0000,  0.0000,  0.0000)
  16 Li     3.234074    6.468148   11.617037    ( 0.0000,  0.0000,  0.0000)
  17 Li     6.468148    6.468148   11.617037    ( 0.0000,  0.0000,  0.0000)
  18 Li     1.099400    1.581974   13.965263    ( 0.0000,  0.0000,  0.0000)
  19 Li     4.810733    1.678436   13.529039    ( 0.0000,  0.0000,  0.0000)
  20 Li     8.009098    1.611777   13.464804    ( 0.0000,  0.0000,  0.0000)
  21 Li     1.623419    4.852177   13.551295    ( 0.0000,  0.0000,  0.0000)
  22 Li     4.867668    4.962000   13.549503    ( 0.0000,  0.0000,  0.0000)
  23 Li     8.127541    4.734551   13.676240    ( 0.0000,  0.0000,  0.0000)
  24 Li     1.788164    8.057292   13.559372    ( 0.0000,  0.0000,  0.0000)
  25 Li     5.019352    8.174158   13.599815    ( 0.0000,  0.0000,  0.0000)
  26 Li     8.238498    8.071482   13.590126    ( 0.0000,  0.0000,  0.0000)
  27 Li     0.237778   -0.208118   15.716520    ( 0.0000,  0.0000,  0.0000)
  28 Li     3.525620    0.060907   15.591498    ( 0.0000,  0.0000,  0.0000)
  29 Li     7.139408    0.370889   15.830640    ( 0.0000,  0.0000,  0.0000)
  30 Li    -0.132249    3.112103   15.977782    ( 0.0000,  0.0000,  0.0000)
  31 Li     3.161593    3.392539   15.545403    ( 0.0000,  0.0000,  0.0000)
  32 Li     6.453522    3.229352   15.472739    ( 0.0000,  0.0000,  0.0000)
  33 Li     0.201980    6.334981   15.597126    ( 0.0000,  0.0000,  0.0000)
  34 Li     3.324495    6.569580   15.568588    ( 0.0000,  0.0000,  0.0000)
  35 Li     6.576429    6.609029   15.567424    ( 0.0000,  0.0000,  0.0000)
  36 O      8.148986    1.371872   18.598596    ( 0.0000,  0.0000,  0.0000)
  37 C      8.129531    0.663015   19.852755    ( 0.0000,  0.0000,  0.0000)
  38 C      8.170449    1.582453   21.065419    ( 0.0000,  0.0000,  0.0000)
  39 H      7.248261    0.008496   19.901268    ( 0.0000,  0.0000,  0.0000)
  40 H      9.019954    0.029769   19.820071    ( 0.0000,  0.0000,  0.0000)
  41 H      8.126924    0.987531   21.982283    ( 0.0000,  0.0000,  0.0000)
  42 H      9.080666    2.186716   21.070120    ( 0.0000,  0.0000,  0.0000)
  43 H      7.312386    2.259874   21.072178    ( 0.0000,  0.0000,  0.0000)
  44 H      7.388775    1.968861   18.564467    ( 0.0000,  0.0000,  0.0000)
  45 N      8.916148    1.296767   15.284031    ( 0.0000,  0.0000,  0.0000)
  46 N      7.943300    2.152209   15.382958    ( 0.0000,  0.0000,  0.0000)

Unit cell:
           periodic     x           y           z      points  spacing
  1. axis:    yes    9.702222    0.000000    0.000000    60     0.1617
  2. axis:    yes    0.000000    9.702222    0.000000    60     0.1617
  3. axis:    no     0.000000    0.000000   24.851111   156     0.1593

  Lengths:   9.702222   9.702222  24.851111
  Angles:   90.000000  90.000000  90.000000

Effective grid spacing dv^(1/3) = 0.1609

     iter     time        total  log10-change:
                         energy  eigst   dens
iter:   1 14:16:00  -308.896245  +1.08
iter:   2 14:17:35  -309.524529  +0.38  -1.71
iter:   3 14:18:47  -309.675129  -0.11  -2.00
iter:   4 14:21:06  -309.733782  -0.49  -2.25
Writing to output.gpw (mode='')

iter:   5 14:22:23  -309.760772  -0.82  -2.47
iter:   6 14:23:22  -309.774272  -1.12  -2.59
iter:   7 14:25:30  -309.780811c -1.39  -2.68
iter:   8 14:27:01  -309.785197c -1.61  -2.97
iter:   9 14:28:03  -309.787996c -1.82  -3.14
Writing to output.gpw (mode='')

iter:  10 14:29:04  -309.789877c -2.00  -3.16
iter:  11 14:30:03  -309.791330c -2.08  -3.16
iter:  12 14:32:41  -309.792485c -2.18  -3.10
iter:  13 14:34:45  -309.793083c -2.40  -3.00
iter:  14 14:35:56  -309.793905c -2.46  -3.05
Writing to output.gpw (mode='')

iter:  15 14:37:24  -309.794145c -2.67  -2.90
iter:  16 14:39:41  -309.794995c -2.56  -2.92
iter:  17 14:41:47  -309.796050c -2.52  -2.77
iter:  18 14:43:30  -309.794654c -3.15  -2.64
iter:  19 14:45:14  -309.794252c -2.83  -2.90
Writing to output.gpw (mode='')

iter:  20 14:47:18  -309.794322c -3.24  -3.33
iter:  21 14:49:02  -309.794367c -3.38  -3.36
iter:  22 14:50:51  -309.794389c -3.77  -3.45
iter:  23 14:52:44  -309.794419c -3.86  -3.59
iter:  24 14:55:28  -309.794451c -3.95  -3.67
Writing to output.gpw (mode='')

iter:  25 14:57:46  -309.794455c -4.27  -3.78
iter:  26 15:01:34  -309.794440c -4.36  -3.81
iter:  27 15:06:11  -309.794438c -4.44  -3.91
iter:  28 15:09:22  -309.794438c -4.57  -3.98
iter:  29 15:12:41  -309.794443c -4.89  -4.02c
Writing to output.gpw (mode='')

iter:  30 15:15:44  -309.794446c -5.04  -4.11c
iter:  31 15:18:11  -309.794450c -5.08  -4.39c
iter:  32 15:21:01  -309.794451c -5.25  -4.38c
iter:  33 15:23:12  -309.794450c -5.27  -4.43c
iter:  34 15:25:29  -309.794450c -5.43  -4.58c
Writing to output.gpw (mode='')

iter:  35 15:27:51  -309.794450c -5.50  -4.60c
iter:  36 15:30:38  -309.794450c -5.62  -4.64c
iter:  37 15:33:12  -309.794451c -5.72  -4.73c
iter:  38 15:35:44  -309.794452c -5.90  -5.00c
iter:  39 15:37:34  -309.794452c -5.94  -5.01c
Writing to output.gpw (mode='')

iter:  40 15:45:05  -309.794452c -5.99  -5.01c
iter:  41 15:49:20  -309.794453c -6.14  -5.01c
iter:  42 15:55:40  -309.794454c -6.00  -4.92c
iter:  43 16:00:46  -309.794453c -6.25  -4.99c
iter:  44 16:09:04  -309.794453c -6.34  -5.02c
Writing to output.gpw (mode='')

iter:  45 16:15:50  -309.794453c -6.39  -5.00c
iter:  46 16:26:42  -309.794453c -6.44  -4.95c
iter:  47 16:34:49  -309.794453c -6.66  -4.72c
iter:  48 16:44:36  -309.794453c -6.79  -5.05c
iter:  49 16:55:37  -309.794454c -6.79  -4.89c
Writing to output.gpw (mode='')

iter:  50 17:04:53  -309.794454c -6.94  -5.15c
iter:  51 17:12:09  -309.794454c -6.90  -5.02c
iter:  52 17:19:55  -309.794453c -6.92  -5.27c
iter:  53 17:27:47  -309.794453c -7.04  -5.33c
iter:  54 17:36:18  -309.794453c -7.03  -5.38c
Writing to output.gpw (mode='')

iter:  55 17:45:14  -309.794453c -7.24  -5.42c
iter:  56 17:53:38  -309.794453c -7.22  -5.54c
iter:  57 17:58:04  -309.794453c -7.30  -5.62c
iter:  58 18:03:20  -309.794453c -7.38  -5.69c
iter:  59 18:06:47  -309.794453c -7.47c -5.88c

Converged after 59 iterations.

Dipole moment: (-2.652248, -8.982633, 0.313760) |e|*Ang

Energy contributions relative to reference atoms: (reference = -14434.854043)

Kinetic:       +141.321796
Potential:     -135.213969
External:        +0.000000
XC:            -316.606986
Entropy (-ST):   -0.167765
Local:           +0.788588
--------------------------
Free energy:   -309.878336
Extrapolated:  -309.794453

Dipole-layer corrected work functions: 3.387212, 2.784058 eV

Showing only first 2 kpts
 Kpt  Band  Eigenvalues  Occupancy
  0    31     -3.23101    1.89643
  0    32     -3.12513    1.37562
  0    33     -3.03005    0.49507
  0    34     -2.98378    0.23070

  1    31     -3.36139    1.99198
  1    32     -3.13337    1.44412
  1    33     -3.02817    0.48120
  1    34     -3.00172    0.31464


Fermi level: -3.08564

No gap
Writing to output.gpw (mode='')


Forces in eV/Ang:
  0 Li   -0.02262   -0.01124   -0.31388
  1 Li    0.02813    0.00650   -0.29302
  2 Li    0.00460   -0.00347   -0.23623
  3 Li    0.00048    0.01994   -0.29587
  4 Li   -0.02074    0.00120   -0.28646
  5 Li   -0.01067   -0.01714   -0.28950
  6 Li   -0.01267   -0.02115   -0.29655
  7 Li   -0.01788   -0.00968   -0.27251
  8 Li    0.00594    0.01493   -0.29529
  9 Li    0.02124    0.02049    0.30894
 10 Li   -0.04657    0.06769    0.38924
 11 Li    0.00644   -0.00537    0.23982
 12 Li    0.04352    0.00879    0.19872
 13 Li   -0.08580   -0.03521    0.39565
 14 Li   -0.01148    0.02686    0.32304
 15 Li    0.00847   -0.03105    0.34591
 16 Li    0.06197    0.02071    0.30318
 17 Li    0.09555    0.00619    0.34179
 18 Li    0.01938    0.00597   -0.02206
 19 Li    0.02501   -0.00378    0.00982
 20 Li   -0.00374   -0.00767   -0.02873
 21 Li   -0.00236   -0.01560   -0.00431
 22 Li    0.01031   -0.01885    0.00976
 23 Li    0.00246    0.00567   -0.02603
 24 Li   -0.02693    0.01225    0.00853
 25 Li    0.00686   -0.00053   -0.01792
 26 Li   -0.00284    0.02394    0.01357
 27 Li    0.00761    0.01439   -0.01854
 28 Li   -0.00429   -0.01569   -0.00651
 29 Li    0.00814    0.02983    0.00638
 30 Li   -0.02234   -0.00107   -0.02888
 31 Li    0.00608   -0.01892   -0.01939
 32 Li    0.05410   -0.02005   -0.02715
 33 Li   -0.02473    0.01387   -0.03431
 34 Li   -0.01028   -0.01591   -0.00370
 35 Li   -0.01438    0.00185    0.01066
 36 O    -0.02897   -0.05983   -0.02871
 37 C    -0.00327    0.04109   -0.07380
 38 C    -0.01011   -0.00603   -0.02068
 39 H     0.04076    0.00798   -0.01123
 40 H    -0.05234   -0.02569    0.01013
 41 H     0.05657    0.03992   -0.00900
 42 H    -0.03282   -0.04244    0.01937
 43 H    -0.03276   -0.00657   -0.00936
 44 H    -0.02774   -0.01746    0.01973
 45 N    -0.00504   -0.02879    0.01167
 46 N     0.02446    0.02711   -0.02456

System changes: positions 

Initializing position-dependent things.

Density initialized from wave functions
       .-----------------------.  
      /|                       |  
     / |                       |  
    /  |                       |  
   /   |                       |  
  /    |                       |  
 *     |                       |  
 |     |                       |  
 |     |                       |  
 |     |            H H  H     |  
 |     |              C        |  
 |     |                       |  
 |     Li          H  CH       |  
 |     |            HLO        |  
 |   Li|     Li                |  
 |     |  Li      Li      LLi  |  
 |     |   Li      Li N        |  
 |     |Li      Li Li   Ni     |  
 |     |  Li                   |  
 |   Li|     LLi     LLi       |  
 |     |  Li      Li      Li   |  
 | Li  |   Li      Li          |  
 |     |Li      Li      Li     |  
 Li    | Li      Li            |  
 |    Li      Li      Li       |  
 |     |                       |  
 |     |                       |  
 |     |                       |  
 |     |                       |  
 |     |                       |  
 |     |                       |  
 |     .-----------------------.  
 |    /                       /   
 |   /                       /    
 |  /                       /     
 | /                       /      
 |/                       /       
 *-----------------------*        

Positions:
   0 Li     1.617037    1.617037   10.000000    ( 0.0000,  0.0000,  0.0000)
   1 Li     4.851111    1.617037   10.000000    ( 0.0000,  0.0000,  0.0000)
   2 Li     8.085185    1.617037   10.000000    ( 0.0000,  0.0000,  0.0000)
   3 Li     1.617037    4.851111   10.000000    ( 0.0000,  0.0000,  0.0000)
   4 Li     4.851111    4.851111   10.000000    ( 0.0000,  0.0000,  0.0000)
   5 Li     8.085185    4.851111   10.000000    ( 0.0000,  0.0000,  0.0000)
   6 Li     1.617037    8.085185   10.000000    ( 0.0000,  0.0000,  0.0000)
   7 Li     4.851111    8.085185   10.000000    ( 0.0000,  0.0000,  0.0000)
   8 Li     8.085185    8.085185   10.000000    ( 0.0000,  0.0000,  0.0000)
   9 Li     0.000000    0.000000   11.617037    ( 0.0000,  0.0000,  0.0000)
  10 Li     3.234074    0.000000   11.617037    ( 0.0000,  0.0000,  0.0000)
  11 Li     6.468148    0.000000   11.617037    ( 0.0000,  0.0000,  0.0000)
  12 Li     0.000000    3.234074   11.617037    ( 0.0000,  0.0000,  0.0000)
  13 Li     3.234074    3.234074   11.617037    ( 0.0000,  0.0000,  0.0000)
  14 Li     6.468148    3.234074   11.617037    ( 0.0000,  0.0000,  0.0000)
  15 Li     0.000000    6.468148   11.617037    ( 0.0000,  0.0000,  0.0000)
  16 Li     3.234074    6.468148   11.617037    ( 0.0000,  0.0000,  0.0000)
  17 Li     6.468148    6.468148   11.617037    ( 0.0000,  0.0000,  0.0000)
  18 Li     1.096318    1.573131   13.966548    ( 0.0000,  0.0000,  0.0000)
  19 Li     4.814716    1.676963   13.533956    ( 0.0000,  0.0000,  0.0000)
  20 Li     8.005892    1.602175   13.468956    ( 0.0000,  0.0000,  0.0000)
  21 Li     1.624687    4.852829   13.550461    ( 0.0000,  0.0000,  0.0000)
  22 Li     4.869599    4.960105   13.550489    ( 0.0000,  0.0000,  0.0000)
  23 Li     8.125221    4.753526   13.657856    ( 0.0000,  0.0000,  0.0000)
  24 Li     1.791499    8.055327   13.558726    ( 0.0000,  0.0000,  0.0000)
  25 Li     5.019478    8.170372   13.600033    ( 0.0000,  0.0000,  0.0000)
  26 Li     8.236749    8.079204   13.598381    ( 0.0000,  0.0000,  0.0000)
  27 Li     0.250049   -0.211433   15.720587    ( 0.0000,  0.0000,  0.0000)
  28 Li     3.525391    0.060926   15.592159    ( 0.0000,  0.0000,  0.0000)
  29 Li     7.144366    0.354266   15.833822    ( 0.0000,  0.0000,  0.0000)
  30 Li    -0.137261    3.105025   15.978558    ( 0.0000,  0.0000,  0.0000)
  31 Li     3.164965    3.393778   15.547086    ( 0.0000,  0.0000,  0.0000)
  32 Li     6.462416    3.229536   15.469980    ( 0.0000,  0.0000,  0.0000)
  33 Li     0.205781    6.332032   15.596208    ( 0.0000,  0.0000,  0.0000)
  34 Li     3.328201    6.573221   15.569161    ( 0.0000,  0.0000,  0.0000)
  35 Li     6.577930    6.602060   15.574806    ( 0.0000,  0.0000,  0.0000)
  36 O      8.130999    1.375445   18.577816    ( 0.0000,  0.0000,  0.0000)
  37 C      8.121777    0.665957   19.828925    ( 0.0000,  0.0000,  0.0000)
  38 C      8.172600    1.583627   21.040009    ( 0.0000,  0.0000,  0.0000)
  39 H      7.241496    0.011347   19.886631    ( 0.0000,  0.0000,  0.0000)
  40 H      9.014020    0.036577   19.788002    ( 0.0000,  0.0000,  0.0000)
  41 H      8.140479    0.987079   21.956673    ( 0.0000,  0.0000,  0.0000)
  42 H      9.079812    2.192686   21.030577    ( 0.0000,  0.0000,  0.0000)
  43 H      7.311718    2.256685   21.057499    ( 0.0000,  0.0000,  0.0000)
  44 H      7.367008    1.967636   18.542841    ( 0.0000,  0.0000,  0.0000)
  45 N      8.914821    1.288152   15.292155    ( 0.0000,  0.0000,  0.0000)
  46 N      7.941483    2.141882   15.387288    ( 0.0000,  0.0000,  0.0000)

Unit cell:
           periodic     x           y           z      points  spacing
  1. axis:    yes    9.702222    0.000000    0.000000    60     0.1617
  2. axis:    yes    0.000000    9.702222    0.000000    60     0.1617
  3. axis:    no     0.000000    0.000000   24.851111   156     0.1593

  Lengths:   9.702222   9.702222  24.851111
  Angles:   90.000000  90.000000  90.000000

Effective grid spacing dv^(1/3) = 0.1609

     iter     time        total  log10-change:
                         energy  eigst   dens
iter:   1 18:09:51  -309.811588  -0.79
iter:   2 18:13:08  -309.810194  -1.68  -2.02
iter:   3 18:18:18  -309.807800c -2.32  -2.11
iter:   4 18:21:42  -309.804302c -2.83  -2.21
Writing to output.gpw (mode='')

iter:   5 18:25:57  -309.798161c -2.09  -2.31
iter:   6 18:30:53  -309.797345c -2.11  -2.58
iter:   7 18:36:48  -309.797459c -2.70  -2.68
iter:   8 18:43:23  -309.797130c -3.52  -2.80
iter:   9 18:48:21  -309.797182c -3.18  -2.93
Writing to output.gpw (mode='')

iter:  10 18:52:13  -309.797105c -3.86  -3.00
iter:  11 18:55:48  -309.797098c -4.26  -3.16
iter:  12 19:00:02  -309.797061c -4.12  -3.25
iter:  13 19:05:49  -309.797063c -4.27  -3.40
iter:  14 19:10:43  -309.797033c -4.37  -3.39
Writing to output.gpw (mode='')

iter:  15 19:16:51  -309.797036c -4.88  -3.63
iter:  16 19:21:23  -309.797056c -5.00  -3.70
iter:  17 19:25:46  -309.797056c -5.57  -3.84
iter:  18 19:32:40  -309.797060c -5.60  -3.84
iter:  19 19:38:28  -309.797067c -5.58  -3.91
Writing to output.gpw (mode='')

iter:  20 19:45:33  -309.797058c -5.58  -3.97
iter:  21 19:50:44  -309.797056c -6.04  -4.14c
iter:  22 19:56:03  -309.797051c -5.89  -4.19c
iter:  23 20:00:43  -309.797049c -6.10  -4.22c
iter:  24 20:05:49  -309.797050c -6.15  -4.32c
Writing to output.gpw (mode='')

iter:  25 20:11:32  -309.797050c -6.92  -4.51c
iter:  26 20:16:31  -309.797052c -6.82  -4.58c
iter:  27 20:22:20  -309.797052c -6.89  -4.74c
iter:  28 20:28:13  -309.797052c -7.12  -4.75c
iter:  29 20:33:34  -309.797052c -7.16  -4.90c
Writing to output.gpw (mode='')

iter:  30 20:38:23  -309.797052c -7.60c -5.14c

Converged after 30 iterations.

Dipole moment: (-2.715757, -9.140988, 0.310505) |e|*Ang

Energy contributions relative to reference atoms: (reference = -14434.854043)

Kinetic:       +141.588566
Potential:     -135.428716
External:        +0.000000
XC:            -316.661706
Entropy (-ST):   -0.167931
Local:           +0.788770
--------------------------
Free energy:   -309.881017
Extrapolated:  -309.797052

Dipole-layer corrected work functions: 3.386615, 2.789718 eV

Showing only first 2 kpts
 Kpt  Band  Eigenvalues  Occupancy
  0    31     -3.23318    1.89572
  0    32     -3.12701    1.36997
  0    33     -3.03187    0.48982
  0    34     -2.98754    0.23580

  1    31     -3.36376    1.99196
  1    32     -3.13515    1.43803
  1    33     -3.03029    0.47819
  1    34     -3.00421    0.31444


Fermi level: -3.08817

No gap

Forces in eV/Ang:
  0 Li   -0.02280   -0.01141   -0.31421
  1 Li    0.02818    0.00672   -0.29332
  2 Li    0.00454   -0.00419   -0.23620
  3 Li    0.00016    0.02033   -0.29497
  4 Li   -0.02039    0.00161   -0.28578
  5 Li   -0.01096   -0.01657   -0.28886
  6 Li   -0.01232   -0.02076   -0.29741
  7 Li   -0.01848   -0.00962   -0.27296
  8 Li    0.00573    0.01469   -0.29530
  9 Li    0.02058    0.01781    0.30839
 10 Li   -0.04492    0.06824    0.39128
 11 Li    0.00479   -0.00658    0.23907
 12 Li    0.04129    0.00520    0.20445
 13 Li   -0.08373   -0.03781    0.39750
 14 Li   -0.01054    0.02361    0.32497
 15 Li    0.00949   -0.02357    0.34461
 16 Li    0.06387    0.01883    0.30202
 17 Li    0.09388    0.01081    0.33781
 18 Li    0.02685    0.01643   -0.02536
 19 Li    0.02359   -0.00415    0.00438
 20 Li    0.00081    0.00546   -0.02622
 21 Li   -0.00189   -0.01952   -0.00313
 22 Li    0.00793   -0.01763    0.00941
 23 Li    0.00516   -0.00247   -0.01515
 24 Li   -0.03163    0.01287    0.00913
 25 Li    0.01157    0.00093   -0.01610
 26 Li    0.00336    0.01597    0.00656
 27 Li   -0.01225    0.02392   -0.01642
 28 Li   -0.00243   -0.01686   -0.00668
 29 Li    0.00044    0.04454    0.01678
 30 Li   -0.01542    0.01132   -0.02774
 31 Li    0.00228   -0.01907   -0.02042
 32 Li    0.03835   -0.01422   -0.02882
 33 Li   -0.02802    0.01388   -0.03356
 34 Li   -0.01264   -0.01815   -0.00275
 35 Li   -0.01416    0.00368    0.00513
 36 O     0.01004   -0.02782   -0.09544
 37 C    -0.00469    0.03744   -0.04141
 38 C    -0.00987    0.00345    0.01555
 39 H     0.03875   -0.00663   -0.02076
 40 H    -0.04824   -0.04670    0.03625
 41 H     0.07944    0.06492   -0.00928
 42 H    -0.02658   -0.05321    0.04275
 43 H    -0.04263    0.00500   -0.02602
 44 H    -0.02828   -0.01991    0.04257
 45 N    -0.01130   -0.04671    0.00262
 46 N     0.01372   -0.01703   -0.03243

System changes: positions 

Initializing position-dependent things.

Density initialized from wave functions
       .-----------------------.  
      /|                       |  
     / |                       |  
    /  |                       |  
   /   |                       |  
  /    |                       |  
 *     |                       |  
 |     |                       |  
 |     |                       |  
 |     |            H H  H     |  
 |     |              C        |  
 |     |                       |  
 |     Li          H  CH       |  
 |     |            HLO        |  
 |   Li|     Li                |  
 |     |  Li      Li      LLi  |  
 |     |   Li      Li N        |  
 |     |Li      Li Li   Ni     |  
 |     |  Li                   |  
 |   Li|     LLi     LLi       |  
 |     |  Li      Li      Li   |  
 | Li  |   Li      Li          |  
 |     |Li      Li      Li     |  
 Li    | Li      Li            |  
 |    Li      Li      Li       |  
 |     |                       |  
 |     |                       |  
 |     |                       |  
 |     |                       |  
 |     |                       |  
 |     |                       |  
 |     .-----------------------.  
 |    /                       /   
 |   /                       /    
 |  /                       /     
 | /                       /      
 |/                       /       
 *-----------------------*        

Positions:
   0 Li     1.617037    1.617037   10.000000    ( 0.0000,  0.0000,  0.0000)
   1 Li     4.851111    1.617037   10.000000    ( 0.0000,  0.0000,  0.0000)
   2 Li     8.085185    1.617037   10.000000    ( 0.0000,  0.0000,  0.0000)
   3 Li     1.617037    4.851111   10.000000    ( 0.0000,  0.0000,  0.0000)
   4 Li     4.851111    4.851111   10.000000    ( 0.0000,  0.0000,  0.0000)
   5 Li     8.085185    4.851111   10.000000    ( 0.0000,  0.0000,  0.0000)
   6 Li     1.617037    8.085185   10.000000    ( 0.0000,  0.0000,  0.0000)
   7 Li     4.851111    8.085185   10.000000    ( 0.0000,  0.0000,  0.0000)
   8 Li     8.085185    8.085185   10.000000    ( 0.0000,  0.0000,  0.0000)
   9 Li     0.000000    0.000000   11.617037    ( 0.0000,  0.0000,  0.0000)
  10 Li     3.234074    0.000000   11.617037    ( 0.0000,  0.0000,  0.0000)
  11 Li     6.468148    0.000000   11.617037    ( 0.0000,  0.0000,  0.0000)
  12 Li     0.000000    3.234074   11.617037    ( 0.0000,  0.0000,  0.0000)
  13 Li     3.234074    3.234074   11.617037    ( 0.0000,  0.0000,  0.0000)
  14 Li     6.468148    3.234074   11.617037    ( 0.0000,  0.0000,  0.0000)
  15 Li     0.000000    6.468148   11.617037    ( 0.0000,  0.0000,  0.0000)
  16 Li     3.234074    6.468148   11.617037    ( 0.0000,  0.0000,  0.0000)
  17 Li     6.468148    6.468148   11.617037    ( 0.0000,  0.0000,  0.0000)
  18 Li     1.096834    1.573318   13.965240    ( 0.0000,  0.0000,  0.0000)
  19 Li     4.815994    1.676691   13.534146    ( 0.0000,  0.0000,  0.0000)
  20 Li     8.005290    1.600772   13.468455    ( 0.0000,  0.0000,  0.0000)
  21 Li     1.623523    4.850719   13.550475    ( 0.0000,  0.0000,  0.0000)
  22 Li     4.874206    4.960260   13.551437    ( 0.0000,  0.0000,  0.0000)
  23 Li     8.124874    4.757731   13.654020    ( 0.0000,  0.0000,  0.0000)
  24 Li     1.792055    8.059335   13.559267    ( 0.0000,  0.0000,  0.0000)
  25 Li     5.018436    8.168159   13.598546    ( 0.0000,  0.0000,  0.0000)
  26 Li     8.235753    8.080679   13.598736    ( 0.0000,  0.0000,  0.0000)
  27 Li     0.253637   -0.206737   15.722487    ( 0.0000,  0.0000,  0.0000)
  28 Li     3.524553    0.059476   15.591581    ( 0.0000,  0.0000,  0.0000)
  29 Li     7.144589    0.353277   15.838789    ( 0.0000,  0.0000,  0.0000)
  30 Li    -0.142738    3.100789   15.977957    ( 0.0000,  0.0000,  0.0000)
  31 Li     3.170334    3.393940   15.544614    ( 0.0000,  0.0000,  0.0000)
  32 Li     6.467694    3.232502   15.471526    ( 0.0000,  0.0000,  0.0000)
  33 Li     0.206501    6.336676   15.592204    ( 0.0000,  0.0000,  0.0000)
  34 Li     3.326615    6.570901   15.569402    ( 0.0000,  0.0000,  0.0000)
  35 Li     6.576273    6.600888   15.576674    ( 0.0000,  0.0000,  0.0000)
  36 O      8.130007    1.375499   18.574620    ( 0.0000,  0.0000,  0.0000)
  37 C      8.120785    0.666855   19.825473    ( 0.0000,  0.0000,  0.0000)
  38 C      8.172079    1.583116   21.036738    ( 0.0000,  0.0000,  0.0000)
  39 H      7.241175    0.012671   19.883603    ( 0.0000,  0.0000,  0.0000)
  40 H      9.011567    0.036086   19.785419    ( 0.0000,  0.0000,  0.0000)
  41 H      8.143958    0.987296   21.952882    ( 0.0000,  0.0000,  0.0000)
  42 H      9.077977    2.192754   21.025739    ( 0.0000,  0.0000,  0.0000)
  43 H      7.310274    2.255111   21.056110    ( 0.0000,  0.0000,  0.0000)
  44 H      7.364982    1.965756   18.539610    ( 0.0000,  0.0000,  0.0000)
  45 N      8.910959    1.284146   15.292995    ( 0.0000,  0.0000,  0.0000)
  46 N      7.938249    2.138390   15.386738    ( 0.0000,  0.0000,  0.0000)

Unit cell:
           periodic     x           y           z      points  spacing
  1. axis:    yes    9.702222    0.000000    0.000000    60     0.1617
  2. axis:    yes    0.000000    9.702222    0.000000    60     0.1617
  3. axis:    no     0.000000    0.000000   24.851111   156     0.1593

  Lengths:   9.702222   9.702222  24.851111
  Angles:   90.000000  90.000000  90.000000

Effective grid spacing dv^(1/3) = 0.1609

     iter     time        total  log10-change:
                         energy  eigst   dens
iter:   1 20:43:32  -309.799413  -2.07
iter:   2 20:50:30  -309.799035  -2.85  -2.59
iter:   3 20:55:56  -309.799031c -3.37  -2.71
iter:   4 21:02:21  -309.798871c -3.74  -2.77
Writing to output.gpw (mode='')

iter:   5 21:06:06  -309.798758c -3.67  -2.92
iter:   6 21:10:01  -309.798766c -3.49  -3.12
iter:   7 21:16:57  -309.798763c -4.10  -3.26
iter:   8 21:23:07  -309.798772c -3.97  -3.45
iter:   9 21:29:01  -309.798781c -4.40  -3.44
Writing to output.gpw (mode='')

iter:  10 21:33:52  -309.798738c -4.51  -3.48
iter:  11 21:40:49  -309.798735c -5.05  -3.78
iter:  12 21:46:55  -309.798740c -5.25  -3.83
iter:  13 21:50:58  -309.798744c -5.38  -4.08c
iter:  14 21:55:25  -309.798745c -5.83  -4.26c
Writing to output.gpw (mode='')

iter:  15 21:59:44  -309.798744c -6.10  -4.28c
iter:  16 22:04:03  -309.798739c -5.97  -4.32c
iter:  17 22:08:23  -309.798740c -6.40  -4.43c
iter:  18 22:12:18  -309.798742c -6.51  -4.51c
iter:  19 22:17:31  -309.798742c -6.61  -4.64c
Writing to output.gpw (mode='')

iter:  20 22:23:53  -309.798742c -6.72  -4.71c
iter:  21 22:28:45  -309.798742c -7.11  -5.01c
iter:  22 22:33:51  -309.798742c -7.23  -5.04c
iter:  23 22:37:48  -309.798742c -7.26  -5.06c
iter:  24 22:42:45  -309.798742c -7.39  -5.27c
Writing to output.gpw (mode='')

iter:  25 22:48:45  -309.798742c -7.62c -5.48c

Converged after 25 iterations.

Dipole moment: (-2.717958, -9.177926, 0.311056) |e|*Ang

Energy contributions relative to reference atoms: (reference = -14434.854043)

Kinetic:       +141.885327
Potential:     -135.648146
External:        +0.000000
XC:            -316.741058
Entropy (-ST):   -0.167776
Local:           +0.789023
--------------------------
Free energy:   -309.882630
Extrapolated:  -309.798742

Dipole-layer corrected work functions: 3.386658, 2.788701 eV

Showing only first 2 kpts
 Kpt  Band  Eigenvalues  Occupancy
  0    31     -3.23286    1.89605
  0    32     -3.12647    1.36951
  0    33     -3.03111    0.48782
  0    34     -2.98741    0.23726

  1    31     -3.36272    1.99187
  1    32     -3.13471    1.43844
  1    33     -3.02918    0.47370
  1    34     -3.00396    0.31569


Fermi level: -3.08768

No gap

Forces in eV/Ang:
  0 Li   -0.02279   -0.01148   -0.31402
  1 Li    0.02818    0.00682   -0.29330
  2 Li    0.00458   -0.00427   -0.23593
  3 Li   -0.00001    0.02012   -0.29528
  4 Li   -0.02025    0.00178   -0.28548
  5 Li   -0.01112   -0.01646   -0.28868
  6 Li   -0.01211   -0.02057   -0.29743
  7 Li   -0.01878   -0.00981   -0.27303
  8 Li    0.00569    0.01461   -0.29510
  9 Li    0.02043    0.01781    0.30748
 10 Li   -0.04381    0.06921    0.39055
 11 Li    0.00382   -0.00747    0.23747
 12 Li    0.04022    0.00464    0.20428
 13 Li   -0.08253   -0.03763    0.39847
 14 Li   -0.01004    0.02335    0.32400
 15 Li    0.01061   -0.02163    0.34508
 16 Li    0.06304    0.01785    0.30411
 17 Li    0.09435    0.01203    0.33552
 18 Li    0.02809    0.01737   -0.02686
 19 Li    0.02474   -0.00430    0.00537
 20 Li    0.00077    0.00695   -0.02412
 21 Li    0.00028   -0.01727   -0.00373
 22 Li    0.00284   -0.01794    0.00763
 23 Li    0.00607   -0.00356   -0.01338
 24 Li   -0.03222    0.00854    0.00799
 25 Li    0.01219    0.00201   -0.01427
 26 Li    0.00400    0.01726    0.00814
 27 Li   -0.01257    0.01239   -0.01511
 28 Li   -0.00170   -0.01712   -0.00672
 29 Li   -0.00625    0.03675    0.01686
 30 Li   -0.00424    0.02040   -0.02565
 31 Li   -0.00184   -0.02093   -0.01877
 32 Li    0.02068   -0.00846   -0.03147
 33 Li   -0.03072    0.01009   -0.03124
 34 Li   -0.01111   -0.01599   -0.00428
 35 Li   -0.01326    0.00419    0.00403
 36 O     0.02154   -0.02964   -0.09478
 37 C    -0.00333    0.01690   -0.02725
 38 C    -0.01986    0.02364   -0.00031
 39 H     0.01510   -0.01701   -0.02276
 40 H    -0.02954   -0.05071    0.03028
 41 H     0.07097    0.04287    0.01071
 42 H    -0.00668   -0.03478    0.04207
 43 H    -0.03977    0.00384   -0.02286
 44 H    -0.03936   -0.00569    0.03715
 45 N     0.00436   -0.05376   -0.00234
 46 N     0.01131   -0.02408   -0.02699

System changes: positions 

Initializing position-dependent things.

Density initialized from wave functions
       .-----------------------.  
      /|                       |  
     / |                       |  
    /  |                       |  
   /   |                       |  
  /    |                       |  
 *     |                       |  
 |     |                       |  
 |     |                       |  
 |     |            H H  H     |  
 |     |              C        |  
 |     |                       |  
 |     |Li         H C H       |  
 |     |            HLO        |  
 |   Li|     Li                |  
 |     |  Li      Li      LLi  |  
 |     |   Li      Li N        |  
 |     |Li      Li Li   Ni     |  
 |     |  Li                   |  
 |   Li|     LLi     LLi       |  
 |     |  Li      Li      Li   |  
 | Li  |   Li      Li          |  
 |     |Li      Li      Li     |  
 Li    | Li      Li            |  
 |    Li      Li      Li       |  
 |     |                       |  
 |     |                       |  
 |     |                       |  
 |     |                       |  
 |     |                       |  
 |     |                       |  
 |     .-----------------------.  
 |    /                       /   
 |   /                       /    
 |  /                       /     
 | /                       /      
 |/                       /       
 *-----------------------*        

Positions:
   0 Li     1.617037    1.617037   10.000000    ( 0.0000,  0.0000,  0.0000)
   1 Li     4.851111    1.617037   10.000000    ( 0.0000,  0.0000,  0.0000)
   2 Li     8.085185    1.617037   10.000000    ( 0.0000,  0.0000,  0.0000)
   3 Li     1.617037    4.851111   10.000000    ( 0.0000,  0.0000,  0.0000)
   4 Li     4.851111    4.851111   10.000000    ( 0.0000,  0.0000,  0.0000)
   5 Li     8.085185    4.851111   10.000000    ( 0.0000,  0.0000,  0.0000)
   6 Li     1.617037    8.085185   10.000000    ( 0.0000,  0.0000,  0.0000)
   7 Li     4.851111    8.085185   10.000000    ( 0.0000,  0.0000,  0.0000)
   8 Li     8.085185    8.085185   10.000000    ( 0.0000,  0.0000,  0.0000)
   9 Li     0.000000    0.000000   11.617037    ( 0.0000,  0.0000,  0.0000)
  10 Li     3.234074    0.000000   11.617037    ( 0.0000,  0.0000,  0.0000)
  11 Li     6.468148    0.000000   11.617037    ( 0.0000,  0.0000,  0.0000)
  12 Li     0.000000    3.234074   11.617037    ( 0.0000,  0.0000,  0.0000)
  13 Li     3.234074    3.234074   11.617037    ( 0.0000,  0.0000,  0.0000)
  14 Li     6.468148    3.234074   11.617037    ( 0.0000,  0.0000,  0.0000)
  15 Li     0.000000    6.468148   11.617037    ( 0.0000,  0.0000,  0.0000)
  16 Li     3.234074    6.468148   11.617037    ( 0.0000,  0.0000,  0.0000)
  17 Li     6.468148    6.468148   11.617037    ( 0.0000,  0.0000,  0.0000)
  18 Li     1.098648    1.574886   13.961001    ( 0.0000,  0.0000,  0.0000)
  19 Li     4.819983    1.675845   13.534582    ( 0.0000,  0.0000,  0.0000)
  20 Li     8.004866    1.597643   13.466543    ( 0.0000,  0.0000,  0.0000)
  21 Li     1.620370    4.844810   13.550225    ( 0.0000,  0.0000,  0.0000)
  22 Li     4.886694    4.960273   13.554075    ( 0.0000,  0.0000,  0.0000)
  23 Li     8.124186    4.766478   13.645195    ( 0.0000,  0.0000,  0.0000)
  24 Li     1.792473    8.070694   13.560858    ( 0.0000,  0.0000,  0.0000)
  25 Li     5.015512    8.162511   13.593888    ( 0.0000,  0.0000,  0.0000)
  26 Li     8.232704    8.085076   13.599309    ( 0.0000,  0.0000,  0.0000)
  27 Li     0.262466   -0.192622   15.726936    ( 0.0000,  0.0000,  0.0000)
  28 Li     3.522170    0.054788   15.589601    ( 0.0000,  0.0000,  0.0000)
  29 Li     7.144150    0.352521   15.852535    ( 0.0000,  0.0000,  0.0000)
  30 Li    -0.156077    3.091166   15.976435    ( 0.0000,  0.0000,  0.0000)
  31 Li     3.184922    3.393378   15.536944    ( 0.0000,  0.0000,  0.0000)
  32 Li     6.479789    3.242765   15.475567    ( 0.0000,  0.0000,  0.0000)
  33 Li     0.207012    6.350143   15.580077    ( 0.0000,  0.0000,  0.0000)
  34 Li     3.321381    6.563574   15.569533    ( 0.0000,  0.0000,  0.0000)
  35 Li     6.570878    6.598722   15.581319    ( 0.0000,  0.0000,  0.0000)
  36 O      8.130187    1.374399   18.567826    ( 0.0000,  0.0000,  0.0000)
  37 C      8.118962    0.668194   19.819421    ( 0.0000,  0.0000,  0.0000)
  38 C      8.169860    1.582630   21.030723    ( 0.0000,  0.0000,  0.0000)
  39 H      7.240244    0.015068   19.876484    ( 0.0000,  0.0000,  0.0000)
  40 H      9.005803    0.032814   19.783199    ( 0.0000,  0.0000,  0.0000)
  41 H      8.152703    0.987930   21.946899    ( 0.0000,  0.0000,  0.0000)
  42 H      9.073731    2.192486   21.018391    ( 0.0000,  0.0000,  0.0000)
  43 H      7.305533    2.250815   21.054305    ( 0.0000,  0.0000,  0.0000)
  44 H      7.361690    1.960965   18.533872    ( 0.0000,  0.0000,  0.0000)
  45 N      8.900148    1.272722   15.292780    ( 0.0000,  0.0000,  0.0000)
  46 N      7.929930    2.130144   15.384184    ( 0.0000,  0.0000,  0.0000)

Unit cell:
           periodic     x           y           z      points  spacing
  1. axis:    yes    9.702222    0.000000    0.000000    60     0.1617
  2. axis:    yes    0.000000    9.702222    0.000000    60     0.1617
  3. axis:    no     0.000000    0.000000   24.851111   156     0.1593

  Lengths:   9.702222   9.702222  24.851111
  Angles:   90.000000  90.000000  90.000000

Effective grid spacing dv^(1/3) = 0.1609

     iter     time        total  log10-change:
                         energy  eigst   dens
iter:   1 22:53:44  -309.811892  -1.29
iter:   2 22:58:55  -309.804917  -1.98  -2.05
iter:   3 23:04:31  -309.803647c -2.54  -2.23
iter:   4 23:08:54  -309.802152c -2.90  -2.36
Writing to output.gpw (mode='')

iter:   5 23:14:03  -309.801450c -2.85  -2.54
iter:   6 23:19:00  -309.801444c -2.70  -2.75
iter:   7 23:25:52  -309.801302c -3.30  -2.87
iter:   8 23:32:34  -309.801333c -3.27  -3.09
iter:   9 23:39:47  -309.801335c -3.71  -3.11
Writing to output.gpw (mode='')

iter:  10 23:45:06  -309.801248c -3.90  -3.19
iter:  11 23:50:25  -309.801245c -4.56  -3.40
iter:  12 23:56:43  -309.801245c -4.67  -3.48
iter:  13 00:02:32  -309.801258c -4.71  -3.55
iter:  14 00:08:21  -309.801273c -4.91  -3.76
Writing to output.gpw (mode='')

iter:  15 00:14:51  -309.801272c -5.14  -3.93
iter:  16 00:21:32  -309.801267c -5.23  -3.97
iter:  17 00:26:32  -309.801273c -5.30  -4.04c
iter:  18 00:32:29  -309.801263c -5.70  -4.11c
iter:  19 00:40:01  -309.801261c -5.81  -4.26c
Writing to output.gpw (mode='')

iter:  20 00:46:27  -309.801266c -5.99  -4.31c
iter:  21 00:51:56  -309.801267c -6.17  -4.58c
iter:  22 00:58:08  -309.801263c -6.21  -4.67c
iter:  23 01:05:58  -309.801263c -6.42  -4.85c
iter:  24 01:12:56  -309.801263c -6.58  -4.91c
Writing to output.gpw (mode='')

iter:  25 01:20:45  -309.801264c -6.76  -4.93c
iter:  26 01:27:08  -309.801264c -6.90  -5.01c
iter:  27 01:33:40  -309.801264c -7.00  -5.28c
iter:  28 01:40:21  -309.801264c -7.13  -5.45c
iter:  29 01:46:28  -309.801264c -7.17  -5.49c
Writing to output.gpw (mode='')

iter:  30 01:54:30  -309.801264c -7.21  -5.55c
iter:  31 02:02:33  -309.801264c -7.31  -5.61c
iter:  32 02:11:47  -309.801264c -7.58c -5.70c

Converged after 32 iterations.

Dipole moment: (-2.726317, -9.231234, 0.313423) |e|*Ang

Energy contributions relative to reference atoms: (reference = -14434.854043)

Kinetic:       +142.365925
Potential:     -136.001184
External:        +0.000000
XC:            -316.871707
Entropy (-ST):   -0.167280
Local:           +0.789342
--------------------------
Free energy:   -309.884904
Extrapolated:  -309.801264

Dipole-layer corrected work functions: 3.386837, 2.784330 eV

Showing only first 2 kpts
 Kpt  Band  Eigenvalues  Occupancy
  0    31     -3.23137    1.89724
  0    32     -3.12428    1.36876
  0    33     -3.02817    0.48161
  0    34     -2.98608    0.24051

  1    31     -3.35912    1.99162
  1    32     -3.13310    1.44233
  1    33     -3.02549    0.46226
  1    34     -3.00250    0.31910


Fermi level: -3.08558

No gap
Writing to output.gpw (mode='')


Forces in eV/Ang:
  0 Li   -0.02283   -0.01163   -0.31336
  1 Li    0.02817    0.00706   -0.29333
  2 Li    0.00468   -0.00443   -0.23514
  3 Li   -0.00046    0.01942   -0.29611
  4 Li   -0.01993    0.00220   -0.28472
  5 Li   -0.01151   -0.01625   -0.28832
  6 Li   -0.01152   -0.02008   -0.29743
  7 Li   -0.01950   -0.01030   -0.27322
  8 Li    0.00557    0.01449   -0.29457
  9 Li    0.02012    0.01790    0.30445
 10 Li   -0.04091    0.07200    0.38854
 11 Li    0.00138   -0.00967    0.23268
 12 Li    0.03769    0.00362    0.20260
 13 Li   -0.07920   -0.03729    0.40117
 14 Li   -0.00857    0.02265    0.32106
 15 Li    0.01316   -0.01683    0.34693
 16 Li    0.06053    0.01542    0.31010
 17 Li    0.09589    0.01475    0.32985
 18 Li    0.03083    0.01865   -0.03088
 19 Li    0.02762   -0.00481    0.00793
 20 Li   -0.00272    0.01085   -0.02212
 21 Li    0.00586   -0.01088   -0.00508
 22 Li   -0.01122   -0.01766    0.00193
 23 Li    0.00844   -0.00508   -0.00929
 24 Li   -0.03242   -0.00353    0.00408
 25 Li    0.01287    0.00444   -0.00896
 26 Li    0.00507    0.02124    0.01272
 27 Li   -0.00889   -0.02524   -0.01027
 28 Li    0.00008   -0.01747   -0.00674
 29 Li   -0.02312    0.01600    0.01602
 30 Li    0.01877    0.03311   -0.02409
 31 Li   -0.01272   -0.02575   -0.01395
 32 Li   -0.01011   -0.00539   -0.03774
 33 Li   -0.03719    0.00045   -0.02449
 34 Li   -0.00671   -0.01004   -0.00848
 35 Li   -0.01071    0.00554    0.00103
 36 O    -0.01349   -0.00561   -0.07624
 37 C    -0.00338   -0.03186   -0.01558
 38 C    -0.01416    0.02410    0.00008
 39 H    -0.03182   -0.03127   -0.02416
 40 H     0.00519   -0.04621    0.00855
 41 H     0.03963    0.00871    0.02282
 42 H     0.02685    0.01672    0.02836
 43 H    -0.03714    0.01358   -0.01302
 44 H    -0.01585   -0.00845    0.01418
 45 N     0.01044   -0.01005   -0.00261
 46 N     0.02687    0.00942   -0.00477

System changes: positions 

Initializing position-dependent things.

Density initialized from wave functions
       .-----------------------.  
      /|                       |  
     / |                       |  
    /  |                       |  
   /   |                       |  
  /    |                       |  
 *     |                       |  
 |     |                       |  
 |     |                       |  
 |     |            H H  H     |  
 |     |              C        |  
 |     |                       |  
 |     |Li         H C H       |  
 |     |            HLO        |  
 |   Li|     Li                |  
 |     |  Li      Li      LLi  |  
 |     |   Li      Li N        |  
 |     |Li      Li Li   Ni     |  
 |     |  Li                   |  
 |   Li|     LLi     LLi       |  
 |     |  Li      Li      Li   |  
 | Li  |   Li      Li          |  
 |     |Li      Li      Li     |  
 Li    | Li      Li            |  
 |    Li      Li      Li       |  
 |     |                       |  
 |     |                       |  
 |     |                       |  
 |     |                       |  
 |     |                       |  
 |     |                       |  
 |     .-----------------------.  
 |    /                       /   
 |   /                       /    
 |  /                       /     
 | /                       /      
 |/                       /       
 *-----------------------*        

Positions:
   0 Li     1.617037    1.617037   10.000000    ( 0.0000,  0.0000,  0.0000)
   1 Li     4.851111    1.617037   10.000000    ( 0.0000,  0.0000,  0.0000)
   2 Li     8.085185    1.617037   10.000000    ( 0.0000,  0.0000,  0.0000)
   3 Li     1.617037    4.851111   10.000000    ( 0.0000,  0.0000,  0.0000)
   4 Li     4.851111    4.851111   10.000000    ( 0.0000,  0.0000,  0.0000)
   5 Li     8.085185    4.851111   10.000000    ( 0.0000,  0.0000,  0.0000)
   6 Li     1.617037    8.085185   10.000000    ( 0.0000,  0.0000,  0.0000)
   7 Li     4.851111    8.085185   10.000000    ( 0.0000,  0.0000,  0.0000)
   8 Li     8.085185    8.085185   10.000000    ( 0.0000,  0.0000,  0.0000)
   9 Li     0.000000    0.000000   11.617037    ( 0.0000,  0.0000,  0.0000)
  10 Li     3.234074    0.000000   11.617037    ( 0.0000,  0.0000,  0.0000)
  11 Li     6.468148    0.000000   11.617037    ( 0.0000,  0.0000,  0.0000)
  12 Li     0.000000    3.234074   11.617037    ( 0.0000,  0.0000,  0.0000)
  13 Li     3.234074    3.234074   11.617037    ( 0.0000,  0.0000,  0.0000)
  14 Li     6.468148    3.234074   11.617037    ( 0.0000,  0.0000,  0.0000)
  15 Li     0.000000    6.468148   11.617037    ( 0.0000,  0.0000,  0.0000)
  16 Li     3.234074    6.468148   11.617037    ( 0.0000,  0.0000,  0.0000)
  17 Li     6.468148    6.468148   11.617037    ( 0.0000,  0.0000,  0.0000)
  18 Li     1.098367    1.574413   13.960387    ( 0.0000,  0.0000,  0.0000)
  19 Li     4.821930    1.675455   13.535790    ( 0.0000,  0.0000,  0.0000)
  20 Li     8.005893    1.596176   13.465961    ( 0.0000,  0.0000,  0.0000)
  21 Li     1.620557    4.844555   13.549438    ( 0.0000,  0.0000,  0.0000)
  22 Li     4.887177    4.958743   13.554621    ( 0.0000,  0.0000,  0.0000)
  23 Li     8.124025    4.765722   13.644175    ( 0.0000,  0.0000,  0.0000)
  24 Li     1.790934    8.071135   13.561159    ( 0.0000,  0.0000,  0.0000)
  25 Li     5.015410    8.162482   13.592429    ( 0.0000,  0.0000,  0.0000)
  26 Li     8.231685    8.087789   13.600786    ( 0.0000,  0.0000,  0.0000)
  27 Li     0.263496   -0.190964   15.725644    ( 0.0000,  0.0000,  0.0000)
  28 Li     3.521877    0.053398   15.588975    ( 0.0000,  0.0000,  0.0000)
  29 Li     7.144631    0.353131   15.852556    ( 0.0000,  0.0000,  0.0000)
  30 Li    -0.155144    3.092156   15.975579    ( 0.0000,  0.0000,  0.0000)
  31 Li     3.185743    3.391666   15.535442    ( 0.0000,  0.0000,  0.0000)
  32 Li     6.480788    3.244549   15.473839    ( 0.0000,  0.0000,  0.0000)
  33 Li     0.205032    6.351108   15.577287    ( 0.0000,  0.0000,  0.0000)
  34 Li     3.320423    6.562401   15.568828    ( 0.0000,  0.0000,  0.0000)
  35 Li     6.569550    6.599055   15.582320    ( 0.0000,  0.0000,  0.0000)
  36 O      8.130817    1.373753   18.567264    ( 0.0000,  0.0000,  0.0000)
  37 C      8.118640    0.667542   19.819652    ( 0.0000,  0.0000,  0.0000)
  38 C      8.169473    1.582708   21.031230    ( 0.0000,  0.0000,  0.0000)
  39 H      7.239554    0.014469   19.876225    ( 0.0000,  0.0000,  0.0000)
  40 H      9.005283    0.031661   19.785149    ( 0.0000,  0.0000,  0.0000)
  41 H      8.154007    0.988708   21.947921    ( 0.0000,  0.0000,  0.0000)
  42 H      9.073869    2.192267   21.019113    ( 0.0000,  0.0000,  0.0000)
  43 H      7.304205    2.249914   21.054447    ( 0.0000,  0.0000,  0.0000)
  44 H      7.361934    1.960168   18.534748    ( 0.0000,  0.0000,  0.0000)
  45 N      8.897835    1.272093   15.291912    ( 0.0000,  0.0000,  0.0000)
  46 N      7.930001    2.132225   15.383675    ( 0.0000,  0.0000,  0.0000)

Unit cell:
           periodic     x           y           z      points  spacing
  1. axis:    yes    9.702222    0.000000    0.000000    60     0.1617
  2. axis:    yes    0.000000    9.702222    0.000000    60     0.1617
  3. axis:    no     0.000000    0.000000   24.851111   156     0.1593

  Lengths:   9.702222   9.702222  24.851111
  Angles:   90.000000  90.000000  90.000000

Effective grid spacing dv^(1/3) = 0.1609

     iter     time        total  log10-change:
                         energy  eigst   dens
iter:   1 02:19:53  -309.802862  -2.70
iter:   2 02:24:38  -309.802172  -3.21  -2.61
iter:   3 02:30:41  -309.802104c -3.85  -2.82
iter:   4 02:38:12  -309.802117c -4.13  -2.97
Writing to output.gpw (mode='')

iter:   5 02:46:07  -309.802117c -3.99  -3.19
iter:   6 02:54:01  -309.802158c -3.77  -3.41
iter:   7 03:00:59  -309.802093c -4.75  -3.49
iter:   8 03:06:24  -309.802106c -4.24  -3.64
iter:   9 03:13:15  -309.802094c -5.06  -3.80
Writing to output.gpw (mode='')

iter:  10 03:20:45  -309.802088c -5.39  -3.88
iter:  11 03:26:41  -309.802090c -5.31  -3.91
iter:  12 03:30:37  -309.802104c -5.27  -4.06c
iter:  13 03:36:06  -309.802101c -5.86  -4.22c
iter:  14 03:42:16  -309.802097c -6.04  -4.28c
Writing to output.gpw (mode='')

iter:  15 03:48:25  -309.802105c -5.87  -4.34c
iter:  16 03:55:12  -309.802100c -6.28  -4.43c
iter:  17 04:01:26  -309.802101c -6.82  -4.57c
iter:  18 04:06:14  -309.802101c -6.64  -4.63c
iter:  19 04:11:06  -309.802098c -6.87  -4.70c
Writing to output.gpw (mode='')

iter:  20 04:14:23  -309.802098c -6.95  -4.78c
iter:  21 04:20:49  -309.802098c -7.31  -5.07c
iter:  22 04:30:35  -309.802098c -7.54c -5.16c

Converged after 22 iterations.

Dipole moment: (-2.752201, -9.201297, 0.314141) |e|*Ang

Energy contributions relative to reference atoms: (reference = -14434.854043)

Kinetic:       +142.289365
Potential:     -135.943828
External:        +0.000000
XC:            -316.853280
Entropy (-ST):   -0.167221
Local:           +0.789256
--------------------------
Free energy:   -309.885709
Extrapolated:  -309.802098

Dipole-layer corrected work functions: 3.386845, 2.782959 eV

Showing only first 2 kpts
 Kpt  Band  Eigenvalues  Occupancy
  0    31     -3.23093    1.89770
  0    32     -3.12339    1.36697
  0    33     -3.02753    0.48190
  0    34     -2.98542    0.24061

  1    31     -3.35853    1.99163
  1    32     -3.13248    1.44284
  1    33     -3.02467    0.46127
  1    34     -3.00192    0.31964


Fermi level: -3.08490

No gap
Writing to output.gpw (mode='')


Forces in eV/Ang:
  0 Li   -0.02298   -0.01167   -0.31325
  1 Li    0.02811    0.00705   -0.29338
  2 Li    0.00469   -0.00445   -0.23504
  3 Li   -0.00049    0.01939   -0.29605
  4 Li   -0.01992    0.00220   -0.28458
  5 Li   -0.01155   -0.01629   -0.28839
  6 Li   -0.01143   -0.02004   -0.29750
  7 Li   -0.01949   -0.01024   -0.27322
  8 Li    0.00556    0.01459   -0.29454
  9 Li    0.02021    0.01723    0.30344
 10 Li   -0.04086    0.07237    0.38907
 11 Li    0.00139   -0.00961    0.23163
 12 Li    0.03779    0.00357    0.20198
 13 Li   -0.07848   -0.03820    0.40171
 14 Li   -0.00817    0.02194    0.32104
 15 Li    0.01220   -0.01597    0.34797
 16 Li    0.06057    0.01549    0.31079
 17 Li    0.09610    0.01452    0.33007
 18 Li    0.03243    0.02012   -0.03267
 19 Li    0.02685   -0.00506    0.00622
 20 Li   -0.00671    0.01487   -0.02223
 21 Li    0.00581   -0.01105   -0.00440
 22 Li   -0.01202   -0.01523    0.00026
 23 Li    0.00882   -0.00414   -0.00878
 24 Li   -0.03067   -0.00407    0.00251
 25 Li    0.01219    0.00354   -0.00723
 26 Li    0.00533    0.01924    0.01083
 27 Li   -0.01383   -0.02511   -0.00840
 28 Li    0.00006   -0.01739   -0.00698
 29 Li   -0.02728    0.01827    0.01771
 30 Li    0.01705    0.02732   -0.02596
 31 Li   -0.01349   -0.02547   -0.01339
 32 Li   -0.01493   -0.00185   -0.03467
 33 Li   -0.03651    0.00044   -0.02323
 34 Li   -0.00688   -0.01011   -0.00897
 35 Li   -0.01056    0.00568   -0.00059
 36 O    -0.02550   -0.01242   -0.05092
 37 C     0.00296   -0.02928   -0.01089
 38 C    -0.01001    0.01824   -0.01047
 39 H    -0.02643   -0.02333   -0.02407
 40 H     0.00464   -0.04117    0.00051
 41 H     0.03145    0.00368    0.01926
 42 H     0.01502    0.01791    0.02128
 43 H    -0.02788    0.01518   -0.00854
 44 H    -0.00770   -0.00953    0.00657
 45 N     0.02258   -0.00149    0.00577
 46 N     0.02357   -0.00722   -0.01519

System changes: positions 

Initializing position-dependent things.

Density initialized from wave functions
       .-----------------------.  
      /|                       |  
     / |                       |  
    /  |                       |  
   /   |                       |  
  /    |                       |  
 *     |                       |  
 |     |                       |  
 |     |                       |  
 |     |            H H  H     |  
 |     |              C        |  
 |     |                       |  
 |     |Li         H C H       |  
 |     |            HLO        |  
 |   Li|     Li                |  
 |     |  Li      Li      LLi  |  
 |     |   Li      Li N        |  
 |     |Li      Li Li   Ni     |  
 |     |  Li                   |  
 |   Li|     LLi     LLi       |  
 |     |  Li      Li      Li   |  
 | Li  |   Li      Li          |  
 |     |Li      Li      Li     |  
 Li    | Li      Li            |  
 |    Li      Li      Li       |  
 |     |                       |  
 |     |                       |  
 |     |                       |  
 |     |                       |  
 |     |                       |  
 |     |                       |  
 |     .-----------------------.  
 |    /                       /   
 |   /                       /    
 |  /                       /     
 | /                       /      
 |/                       /       
 *-----------------------*        

Positions:
   0 Li     1.617037    1.617037   10.000000    ( 0.0000,  0.0000,  0.0000)
   1 Li     4.851111    1.617037   10.000000    ( 0.0000,  0.0000,  0.0000)
   2 Li     8.085185    1.617037   10.000000    ( 0.0000,  0.0000,  0.0000)
   3 Li     1.617037    4.851111   10.000000    ( 0.0000,  0.0000,  0.0000)
   4 Li     4.851111    4.851111   10.000000    ( 0.0000,  0.0000,  0.0000)
   5 Li     8.085185    4.851111   10.000000    ( 0.0000,  0.0000,  0.0000)
   6 Li     1.617037    8.085185   10.000000    ( 0.0000,  0.0000,  0.0000)
   7 Li     4.851111    8.085185   10.000000    ( 0.0000,  0.0000,  0.0000)
   8 Li     8.085185    8.085185   10.000000    ( 0.0000,  0.0000,  0.0000)
   9 Li     0.000000    0.000000   11.617037    ( 0.0000,  0.0000,  0.0000)
  10 Li     3.234074    0.000000   11.617037    ( 0.0000,  0.0000,  0.0000)
  11 Li     6.468148    0.000000   11.617037    ( 0.0000,  0.0000,  0.0000)
  12 Li     0.000000    3.234074   11.617037    ( 0.0000,  0.0000,  0.0000)
  13 Li     3.234074    3.234074   11.617037    ( 0.0000,  0.0000,  0.0000)
  14 Li     6.468148    3.234074   11.617037    ( 0.0000,  0.0000,  0.0000)
  15 Li     0.000000    6.468148   11.617037    ( 0.0000,  0.0000,  0.0000)
  16 Li     3.234074    6.468148   11.617037    ( 0.0000,  0.0000,  0.0000)
  17 Li     6.468148    6.468148   11.617037    ( 0.0000,  0.0000,  0.0000)
  18 Li     1.097127    1.572993   13.957297    ( 0.0000,  0.0000,  0.0000)
  19 Li     4.830815    1.673566   13.541340    ( 0.0000,  0.0000,  0.0000)
  20 Li     8.007736    1.590598   13.463784    ( 0.0000,  0.0000,  0.0000)
  21 Li     1.622101    4.844325   13.546673    ( 0.0000,  0.0000,  0.0000)
  22 Li     4.887636    4.953198   13.556079    ( 0.0000,  0.0000,  0.0000)
  23 Li     8.124281    4.763669   13.638070    ( 0.0000,  0.0000,  0.0000)
  24 Li     1.785324    8.071680   13.561958    ( 0.0000,  0.0000,  0.0000)
  25 Li     5.015636    8.162482   13.587847    ( 0.0000,  0.0000,  0.0000)
  26 Li     8.227916    8.099772   13.607971    ( 0.0000,  0.0000,  0.0000)
  27 Li     0.268768   -0.186684   15.722011    ( 0.0000,  0.0000,  0.0000)
  28 Li     3.521494    0.048338   15.587352    ( 0.0000,  0.0000,  0.0000)
  29 Li     7.145454    0.353753   15.853606    ( 0.0000,  0.0000,  0.0000)
  30 Li    -0.151899    3.095316   15.973971    ( 0.0000,  0.0000,  0.0000)
  31 Li     3.187385    3.384621   15.530567    ( 0.0000,  0.0000,  0.0000)
  32 Li     6.483807    3.251641   15.466852    ( 0.0000,  0.0000,  0.0000)
  33 Li     0.197035    6.353248   15.567742    ( 0.0000,  0.0000,  0.0000)
  34 Li     3.318033    6.559109   15.565756    ( 0.0000,  0.0000,  0.0000)
  35 Li     6.565018    6.600342   15.587010    ( 0.0000,  0.0000,  0.0000)
  36 O      8.130063    1.371520   18.563034    ( 0.0000,  0.0000,  0.0000)
  37 C      8.116792    0.665248   19.817760    ( 0.0000,  0.0000,  0.0000)
  38 C      8.168389    1.583530   21.029396    ( 0.0000,  0.0000,  0.0000)
  39 H      7.236050    0.012654   19.873781    ( 0.0000,  0.0000,  0.0000)
  40 H      9.003148    0.027906   19.787928    ( 0.0000,  0.0000,  0.0000)
  41 H      8.160688    0.991349   21.948278    ( 0.0000,  0.0000,  0.0000)
  42 H      9.074378    2.192461   21.016615    ( 0.0000,  0.0000,  0.0000)
  43 H      7.299314    2.247198   21.052713    ( 0.0000,  0.0000,  0.0000)
  44 H      7.360162    1.957487   18.535889    ( 0.0000,  0.0000,  0.0000)
  45 N      8.891798    1.269120   15.290761    ( 0.0000,  0.0000,  0.0000)
  46 N      7.931055    2.137772   15.379421    ( 0.0000,  0.0000,  0.0000)

Unit cell:
           periodic     x           y           z      points  spacing
  1. axis:    yes    9.702222    0.000000    0.000000    60     0.1617
  2. axis:    yes    0.000000    9.702222    0.000000    60     0.1617
  3. axis:    no     0.000000    0.000000   24.851111   156     0.1593

  Lengths:   9.702222   9.702222  24.851111
  Angles:   90.000000  90.000000  90.000000

Effective grid spacing dv^(1/3) = 0.1609

     iter     time        total  log10-change:
                         energy  eigst   dens
iter:   1 04:38:31  -309.815815  -1.63
iter:   2 04:45:51  -309.807701  -2.16  -2.06
iter:   3 04:55:09  -309.806018c -2.80  -2.28
iter:   4 05:02:06  -309.804777c -3.07  -2.44
Writing to output.gpw (mode='')

iter:   5 05:06:37  -309.804297c -2.93  -2.66
iter:   6 05:13:04  -309.804373c -2.72  -2.90
iter:   7 05:18:50  -309.804123c -3.61  -2.97
iter:   8 05:23:58  -309.804108c -3.28  -3.16
iter:   9 05:30:04  -309.804142c -3.65  -3.29
Writing to output.gpw (mode='')

iter:  10 05:36:28  -309.804100c -4.16  -3.27
iter:  11 05:41:10  -309.804134c -4.23  -3.49
iter:  12 05:46:24  -309.804136c -4.60  -3.62
iter:  13 05:51:25  -309.804131c -4.57  -3.69
iter:  14 05:55:22  -309.804125c -5.04  -3.80
Writing to output.gpw (mode='')

iter:  15 06:01:40  -309.804127c -5.28  -3.87
iter:  16 06:11:02  -309.804133c -5.23  -3.94
iter:  17 06:16:49  -309.804130c -5.73  -4.12c
iter:  18 06:22:25  -309.804129c -5.71  -4.23c
iter:  19 06:28:23  -309.804129c -5.89  -4.37c
Writing to output.gpw (mode='')

iter:  20 06:33:44  -309.804127c -6.16  -4.44c
iter:  21 06:39:58  -309.804122c -6.13  -4.50c
iter:  22 06:45:31  -309.804123c -6.60  -4.59c
iter:  23 06:52:11  -309.804125c -6.60  -4.69c
iter:  24 06:59:25  -309.804125c -6.67  -4.80c
Writing to output.gpw (mode='')

iter:  25 07:05:47  -309.804125c -6.79  -4.87c
iter:  26 07:10:25  -309.804125c -6.90  -4.92c
iter:  27 07:16:33  -309.804125c -7.22  -5.00c
iter:  28 07:19:59  -309.804126c -7.43c -5.04c

Converged after 28 iterations.

Dipole moment: (-2.819414, -9.088914, 0.316783) |e|*Ang

Energy contributions relative to reference atoms: (reference = -14434.854043)

Kinetic:       +141.931004
Potential:     -135.679670
External:        +0.000000
XC:            -316.760726
Entropy (-ST):   -0.167040
Local:           +0.788787
--------------------------
Free energy:   -309.887646
Extrapolated:  -309.804126

Dipole-layer corrected work functions: 3.387050, 2.778085 eV

Showing only first 2 kpts
 Kpt  Band  Eigenvalues  Occupancy
  0    31     -3.22941    1.89928
  0    32     -3.12017    1.35922
  0    33     -3.02515    0.48160
  0    34     -2.98304    0.24041

  1    31     -3.35681    1.99174
  1    32     -3.13057    1.44628
  1    33     -3.02210    0.45965
  1    34     -2.99987    0.32113


Fermi level: -3.08257

No gap
Writing to output.gpw (mode='')


Forces in eV/Ang:
  0 Li   -0.02351   -0.01185   -0.31317
  1 Li    0.02803    0.00707   -0.29380
  2 Li    0.00463   -0.00464   -0.23463
  3 Li   -0.00045    0.01939   -0.29578
  4 Li   -0.02007    0.00231   -0.28434
  5 Li   -0.01173   -0.01645   -0.28885
  6 Li   -0.01111   -0.01991   -0.29810
  7 Li   -0.01951   -0.01007   -0.27355
  8 Li    0.00550    0.01495   -0.29477
  9 Li    0.02016    0.01474    0.30015
 10 Li   -0.04041    0.07375    0.39180
 11 Li    0.00123   -0.00981    0.22730
 12 Li    0.03837    0.00316    0.19960
 13 Li   -0.07553   -0.04236    0.40430
 14 Li   -0.00735    0.01964    0.32038
 15 Li    0.00858   -0.01178    0.35184
 16 Li    0.06099    0.01620    0.31249
 17 Li    0.09687    0.01426    0.33142
 18 Li    0.03777    0.02416   -0.03650
 19 Li    0.02191   -0.00585   -0.00124
 20 Li   -0.01378    0.02472   -0.02379
 21 Li    0.00470   -0.01236   -0.00206
 22 Li   -0.01340   -0.00679   -0.00517
 23 Li    0.00921   -0.00063   -0.00448
 24 Li   -0.02467   -0.00505   -0.00274
 25 Li    0.00989    0.00038   -0.00167
 26 Li    0.00729    0.00983    0.00237
 27 Li   -0.03168   -0.02140   -0.00195
 28 Li    0.00021   -0.01686   -0.00790
 29 Li   -0.03545    0.03102    0.02272
 30 Li    0.00778    0.00648   -0.03397
 31 Li   -0.01500   -0.02375   -0.01164
 32 Li   -0.01664   -0.00082   -0.02630
 33 Li   -0.03318    0.00077   -0.01869
 34 Li   -0.00919   -0.01128   -0.00957
 35 Li   -0.00954    0.00562   -0.00731
 36 O    -0.05335   -0.03960    0.00964
 37 C     0.00954   -0.02071   -0.00002
 38 C     0.00336   -0.00834   -0.02111
 39 H    -0.00251    0.00215   -0.02418
 40 H    -0.00864   -0.02529   -0.02572
 41 H     0.00373    0.00015   -0.00713
 42 H    -0.02802    0.02341   -0.00053
 43 H     0.01331    0.01333    0.00371
 44 H     0.01245   -0.00861   -0.01616
 45 N     0.06186    0.02648    0.01259
 46 N     0.00610   -0.05723   -0.02418

System changes: positions 

Initializing position-dependent things.

Density initialized from wave functions
       .-----------------------.  
      /|                       |  
     / |                       |  
    /  |                       |  
   /   |                       |  
  /    |                       |  
 *     |                       |  
 |     |                       |  
 |     |                       |  
 |     |            H H  H     |  
 |     |              C        |  
 |     |                       |  
 |     |Li         H C H       |  
 |     |            HLO        |  
 |   Li|     Li                |  
 |     |  Li      Li      LLi  |  
 |     |   Li      Li N        |  
 |     |Li      Li Li   Ni     |  
 |     |  Li                   |  
 |   Li|     LLi     LLi       |  
 |     |  Li      Li      Li   |  
 | Li  |   Li      Li          |  
 |     |Li      Li      Li     |  
 Li    | Li      Li            |  
 |    Li      Li      Li       |  
 |     |                       |  
 |     |                       |  
 |     |                       |  
 |     |                       |  
 |     |                       |  
 |     |                       |  
 |     .-----------------------.  
 |    /                       /   
 |   /                       /    
 |  /                       /     
 | /                       /      
 |/                       /       
 *-----------------------*        

Positions:
   0 Li     1.617037    1.617037   10.000000    ( 0.0000,  0.0000,  0.0000)
   1 Li     4.851111    1.617037   10.000000    ( 0.0000,  0.0000,  0.0000)
   2 Li     8.085185    1.617037   10.000000    ( 0.0000,  0.0000,  0.0000)
   3 Li     1.617037    4.851111   10.000000    ( 0.0000,  0.0000,  0.0000)
   4 Li     4.851111    4.851111   10.000000    ( 0.0000,  0.0000,  0.0000)
   5 Li     8.085185    4.851111   10.000000    ( 0.0000,  0.0000,  0.0000)
   6 Li     1.617037    8.085185   10.000000    ( 0.0000,  0.0000,  0.0000)
   7 Li     4.851111    8.085185   10.000000    ( 0.0000,  0.0000,  0.0000)
   8 Li     8.085185    8.085185   10.000000    ( 0.0000,  0.0000,  0.0000)
   9 Li     0.000000    0.000000   11.617037    ( 0.0000,  0.0000,  0.0000)
  10 Li     3.234074    0.000000   11.617037    ( 0.0000,  0.0000,  0.0000)
  11 Li     6.468148    0.000000   11.617037    ( 0.0000,  0.0000,  0.0000)
  12 Li     0.000000    3.234074   11.617037    ( 0.0000,  0.0000,  0.0000)
  13 Li     3.234074    3.234074   11.617037    ( 0.0000,  0.0000,  0.0000)
  14 Li     6.468148    3.234074   11.617037    ( 0.0000,  0.0000,  0.0000)
  15 Li     0.000000    6.468148   11.617037    ( 0.0000,  0.0000,  0.0000)
  16 Li     3.234074    6.468148   11.617037    ( 0.0000,  0.0000,  0.0000)
  17 Li     6.468148    6.468148   11.617037    ( 0.0000,  0.0000,  0.0000)
  18 Li     1.096657    1.571023   13.955683    ( 0.0000,  0.0000,  0.0000)
  19 Li     4.836179    1.672114   13.544784    ( 0.0000,  0.0000,  0.0000)
  20 Li     8.007466    1.587823   13.463062    ( 0.0000,  0.0000,  0.0000)
  21 Li     1.623476    4.844055   13.545212    ( 0.0000,  0.0000,  0.0000)
  22 Li     4.887606    4.950190   13.556787    ( 0.0000,  0.0000,  0.0000)
  23 Li     8.124096    4.767381   13.630802    ( 0.0000,  0.0000,  0.0000)
  24 Li     1.782988    8.070978   13.562076    ( 0.0000,  0.0000,  0.0000)
  25 Li     5.016416    8.161547   13.586180    ( 0.0000,  0.0000,  0.0000)
  26 Li     8.226321    8.106780   13.613130    ( 0.0000,  0.0000,  0.0000)
  27 Li     0.273592   -0.186912   15.722148    ( 0.0000,  0.0000,  0.0000)
  28 Li     3.521430    0.045767   15.586708    ( 0.0000,  0.0000,  0.0000)
  29 Li     7.145891    0.350618   15.856599    ( 0.0000,  0.0000,  0.0000)
  30 Li    -0.151517    3.095483   15.972840    ( 0.0000,  0.0000,  0.0000)
  31 Li     3.188256    3.381489   15.528736    ( 0.0000,  0.0000,  0.0000)
  32 Li     6.486596    3.254508   15.462646    ( 0.0000,  0.0000,  0.0000)
  33 Li     0.193803    6.353136   15.563181    ( 0.0000,  0.0000,  0.0000)
  34 Li     3.317877    6.558455   15.564425    ( 0.0000,  0.0000,  0.0000)
  35 Li     6.563354    6.599149   15.590680    ( 0.0000,  0.0000,  0.0000)
  36 O      8.123988    1.370713   18.554100    ( 0.0000,  0.0000,  0.0000)
  37 C      8.113752    0.664672   19.809539    ( 0.0000,  0.0000,  0.0000)
  38 C      8.168303    1.584616   21.020682    ( 0.0000,  0.0000,  0.0000)
  39 H      7.232613    0.012222   19.867511    ( 0.0000,  0.0000,  0.0000)
  40 H      9.000044    0.026968   19.779633    ( 0.0000,  0.0000,  0.0000)
  41 H      8.168635    0.993021   21.940758    ( 0.0000,  0.0000,  0.0000)
  42 H      9.074236    2.194501   21.005124    ( 0.0000,  0.0000,  0.0000)
  43 H      7.296548    2.245783   21.047285    ( 0.0000,  0.0000,  0.0000)
  44 H      7.352931    1.955725   18.530399    ( 0.0000,  0.0000,  0.0000)
  45 N      8.890761    1.265198   15.292428    ( 0.0000,  0.0000,  0.0000)
  46 N      7.931478    2.135900   15.377373    ( 0.0000,  0.0000,  0.0000)

Unit cell:
           periodic     x           y           z      points  spacing
  1. axis:    yes    9.702222    0.000000    0.000000    60     0.1617
  2. axis:    yes    0.000000    9.702222    0.000000    60     0.1617
  3. axis:    no     0.000000    0.000000   24.851111   156     0.1593

  Lengths:   9.702222   9.702222  24.851111
  Angles:   90.000000  90.000000  90.000000

Effective grid spacing dv^(1/3) = 0.1609

     iter     time        total  log10-change:
                         energy  eigst   dens
iter:   1 07:27:17  -309.809026  -1.66
iter:   2 07:31:38  -309.807038  -2.47  -2.30
iter:   3 07:36:19  -309.806701c -3.07  -2.47
iter:   4 07:40:21  -309.806370c -3.55  -2.59
Writing to output.gpw (mode='')

iter:   5 07:44:16  -309.805838c -3.11  -2.69
iter:   6 07:50:36  -309.805841c -2.94  -3.00
iter:   7 07:55:52  -309.805584c -3.59  -2.98
iter:   8 08:00:42  -309.805525c -3.78  -3.28
iter:   9 08:06:54  -309.805652c -3.82  -3.30
Writing to output.gpw (mode='')

iter:  10 08:11:44  -309.805555c -4.29  -3.31
iter:  11 08:16:24  -309.805536c -4.57  -3.56
iter:  12 08:21:55  -309.805544c -5.04  -3.62
iter:  13 08:26:25  -309.805549c -5.05  -3.91
iter:  14 08:30:59  -309.805549c -5.56  -3.95
Writing to output.gpw (mode='')

iter:  15 08:36:40  -309.805546c -5.68  -3.99
iter:  16 08:40:32  -309.805541c -5.62  -4.12c
iter:  17 08:45:37  -309.805537c -6.01  -4.21c
iter:  18 08:49:55  -309.805530c -5.89  -4.27c
iter:  19 08:55:37  -309.805533c -6.39  -4.42c
Writing to output.gpw (mode='')

iter:  20 09:00:23  -309.805534c -6.68  -4.59c
iter:  21 09:07:13  -309.805537c -6.70  -4.64c
iter:  22 09:12:10  -309.805538c -6.86  -4.82c
iter:  23 09:14:52  -309.805538c -7.16  -4.88c
iter:  24 09:17:32  -309.805537c -7.28  -4.97c
Writing to output.gpw (mode='')

iter:  25 09:20:18  -309.805537c -7.40c -5.03c

Converged after 25 iterations.

Dipole moment: (-2.835721, -9.032670, 0.317627) |e|*Ang

Energy contributions relative to reference atoms: (reference = -14434.854043)

Kinetic:       +141.740177
Potential:     -135.543828
External:        +0.000000
XC:            -316.706872
Entropy (-ST):   -0.166982
Local:           +0.788477
--------------------------
Free energy:   -309.889028
Extrapolated:  -309.805537

Dipole-layer corrected work functions: 3.387024, 2.776437 eV

Showing only first 2 kpts
 Kpt  Band  Eigenvalues  Occupancy
  0    31     -3.22879    1.89970
  0    32     -3.11884    1.35491
  0    33     -3.02406    0.47971
  0    34     -2.98236    0.24108

  1    31     -3.35627    1.99178
  1    32     -3.12991    1.44771
  1    33     -3.02122    0.45930
  1    34     -2.99896    0.32075


Fermi level: -3.08173

No gap

Forces in eV/Ang:
  0 Li   -0.02375   -0.01192   -0.31318
  1 Li    0.02809    0.00720   -0.29401
  2 Li    0.00454   -0.00488   -0.23441
  3 Li   -0.00042    0.01950   -0.29539
  4 Li   -0.02011    0.00249   -0.28413
  5 Li   -0.01191   -0.01645   -0.28888
  6 Li   -0.01097   -0.01974   -0.29854
  7 Li   -0.01962   -0.00999   -0.27382
  8 Li    0.00543    0.01501   -0.29479
  9 Li    0.01979    0.01334    0.29883
 10 Li   -0.03978    0.07419    0.39382
 11 Li    0.00105   -0.01025    0.22504
 12 Li    0.03837    0.00250    0.19942
 13 Li   -0.07364   -0.04510    0.40568
 14 Li   -0.00738    0.01856    0.31976
 15 Li    0.00753   -0.00828    0.35275
 16 Li    0.06155    0.01629    0.31291
 17 Li    0.09668    0.01531    0.33112
 18 Li    0.04028    0.02563   -0.03700
 19 Li    0.01848   -0.00632   -0.00551
 20 Li   -0.01170    0.02655   -0.02230
 21 Li    0.00347   -0.01332   -0.00079
 22 Li   -0.01363   -0.00298   -0.00755
 23 Li    0.00949   -0.00064    0.00013
 24 Li   -0.02224   -0.00510   -0.00491
 25 Li    0.00908   -0.00068    0.00092
 26 Li    0.00886    0.00461   -0.00254
 27 Li   -0.03990   -0.01825    0.00078
 28 Li    0.00084   -0.01671   -0.00842
 29 Li   -0.03504    0.03876    0.02538
 30 Li    0.00192   -0.00168   -0.03800
 31 Li   -0.01557   -0.02308   -0.01098
 32 Li   -0.01047   -0.00667   -0.02433
 33 Li   -0.03189    0.00052   -0.01647
 34 Li   -0.01115   -0.01211   -0.00954
 35 Li   -0.00877    0.00590   -0.01137
 36 O    -0.07044   -0.03805    0.00319
 37 C     0.00470   -0.01937    0.01556
 38 C     0.00689   -0.01712   -0.01401
 39 H     0.00422    0.00826   -0.02724
 40 H    -0.01382   -0.02279   -0.03328
 41 H    -0.01084    0.00337   -0.02739
 42 H    -0.05179    0.02480   -0.01239
 43 H     0.03792    0.00775    0.00736
 44 H     0.02601   -0.01109   -0.02300
 45 N     0.06511    0.03605    0.00468
 46 N     0.02062   -0.07085   -0.00936

System changes: positions 

Initializing position-dependent things.

Density initialized from wave functions
       .-----------------------.  
      /|                       |  
     / |                       |  
    /  |                       |  
   /   |                       |  
  /    |                       |  
 *     |                       |  
 |     |                       |  
 |     |                       |  
 |     |            H H  H     |  
 |     |              C        |  
 |     |                       |  
 |     |Li         H C H       |  
 |     |            HLO        |  
 |   Li|     Li                |  
 |     |  Li      Li      LLi  |  
 |     |   Li      Li          |  
 |     |Li      Li Li N Ni     |  
 |     |  Li                   |  
 |   Li|     LLi     LLi       |  
 |     |  Li      Li      Li   |  
 | Li  |   Li      Li          |  
 |     |Li      Li      Li     |  
 Li    | Li      Li            |  
 |    Li      Li      Li       |  
 |     |                       |  
 |     |                       |  
 |     |                       |  
 |     |                       |  
 |     |                       |  
 |     |                       |  
 |     .-----------------------.  
 |    /                       /   
 |   /                       /    
 |  /                       /     
 | /                       /      
 |/                       /       
 *-----------------------*        

Positions:
   0 Li     1.617037    1.617037   10.000000    ( 0.0000,  0.0000,  0.0000)
   1 Li     4.851111    1.617037   10.000000    ( 0.0000,  0.0000,  0.0000)
   2 Li     8.085185    1.617037   10.000000    ( 0.0000,  0.0000,  0.0000)
   3 Li     1.617037    4.851111   10.000000    ( 0.0000,  0.0000,  0.0000)
   4 Li     4.851111    4.851111   10.000000    ( 0.0000,  0.0000,  0.0000)
   5 Li     8.085185    4.851111   10.000000    ( 0.0000,  0.0000,  0.0000)
   6 Li     1.617037    8.085185   10.000000    ( 0.0000,  0.0000,  0.0000)
   7 Li     4.851111    8.085185   10.000000    ( 0.0000,  0.0000,  0.0000)
   8 Li     8.085185    8.085185   10.000000    ( 0.0000,  0.0000,  0.0000)
   9 Li     0.000000    0.000000   11.617037    ( 0.0000,  0.0000,  0.0000)
  10 Li     3.234074    0.000000   11.617037    ( 0.0000,  0.0000,  0.0000)
  11 Li     6.468148    0.000000   11.617037    ( 0.0000,  0.0000,  0.0000)
  12 Li     0.000000    3.234074   11.617037    ( 0.0000,  0.0000,  0.0000)
  13 Li     3.234074    3.234074   11.617037    ( 0.0000,  0.0000,  0.0000)
  14 Li     6.468148    3.234074   11.617037    ( 0.0000,  0.0000,  0.0000)
  15 Li     0.000000    6.468148   11.617037    ( 0.0000,  0.0000,  0.0000)
  16 Li     3.234074    6.468148   11.617037    ( 0.0000,  0.0000,  0.0000)
  17 Li     6.468148    6.468148   11.617037    ( 0.0000,  0.0000,  0.0000)
  18 Li     1.095641    1.564215   13.952514    ( 0.0000,  0.0000,  0.0000)
  19 Li     4.849095    1.668312   13.553449    ( 0.0000,  0.0000,  0.0000)
  20 Li     8.006118    1.580916   13.462564    ( 0.0000,  0.0000,  0.0000)
  21 Li     1.627235    4.843186   13.541718    ( 0.0000,  0.0000,  0.0000)
[...]
 17 Li    0.08528    0.02904    0.31767
 18 Li    0.01289   -0.04445   -0.00685
 19 Li   -0.04736   -0.01376   -0.03687
 20 Li    0.01577   -0.01591    0.07272
 21 Li   -0.02337    0.01370    0.00806
 22 Li    0.00111    0.04251   -0.03231
 23 Li   -0.01525   -0.00979    0.02299
 24 Li    0.05751   -0.00721   -0.03671
 25 Li   -0.03962   -0.01645    0.01937
 26 Li   -0.02766   -0.00867   -0.03516
 27 Li   -0.00048    0.04767   -0.03038
 28 Li    0.00734   -0.00258   -0.00961
 29 Li    0.07369    0.04411    0.03916
 30 Li    0.06927   -0.00232   -0.02990
 31 Li    0.01434   -0.01406    0.00923
 32 Li    0.01250    0.01868    0.04610
 33 Li    0.01612   -0.00817    0.03018
 34 Li   -0.03446   -0.01571   -0.01595
 35 Li    0.00070    0.00899   -0.04119
 36 O    -0.13410   -0.09273    0.09706
 37 C     0.03647    0.03748    0.06350
 38 C    -0.00819   -0.02008   -0.01285
 39 H     0.03685    0.03808   -0.00506
 40 H    -0.00431   -0.03336    0.00273
 41 H     0.03965    0.04627   -0.11542
 42 H    -0.04893   -0.12352   -0.00674
 43 H    -0.01340    0.00028   -0.04413
 44 H     0.01904    0.05278   -0.02347
 45 N     0.02144    0.11281    0.02355
 46 N    -0.04877   -0.07799   -0.11890

System changes: positions 

Initializing position-dependent things.

Density initialized from wave functions
       .-----------------------.  
      /|                       |  
     / |                       |  
    /  |                       |  
   /   |                       |  
  /    |                       |  
 *     |                 H     |  
 |     |                     H |  
 |     |                       |  
 |     |              H        |  
 |     |            H C  H     |  
 |     |                       |  
 |     |Li      Li   C         |  
 |     |            HOi        |  
 |   Li|     Li                |  
 |     |  Li       Li     LLi  |  
 |     |   Li      Li          |  
 |     |Li      Li Li N Ni     |  
 |     |                       |  
 |   Li|     LLi     LLi       |  
 |     |  Li      Li      Li   |  
 | Li  |   Li      Li          |  
 |     |Li      Li      Li     |  
 Li    | Li      Li            |  
 |    Li      Li      Li       |  
 |     |                       |  
 |     |                       |  
 |     |                       |  
 |     |                       |  
 |     |                       |  
 |     |                       |  
 |     .-----------------------.  
 |    /                       /   
 |   /                       /    
 |  /                       /     
 | /                       /      
 |/                       /       
 *-----------------------*        

Positions:
   0 Li     1.617037    1.617037   10.000000    ( 0.0000,  0.0000,  0.0000)
   1 Li     4.851111    1.617037   10.000000    ( 0.0000,  0.0000,  0.0000)
   2 Li     8.085185    1.617037   10.000000    ( 0.0000,  0.0000,  0.0000)
   3 Li     1.617037    4.851111   10.000000    ( 0.0000,  0.0000,  0.0000)
   4 Li     4.851111    4.851111   10.000000    ( 0.0000,  0.0000,  0.0000)
   5 Li     8.085185    4.851111   10.000000    ( 0.0000,  0.0000,  0.0000)
   6 Li     1.617037    8.085185   10.000000    ( 0.0000,  0.0000,  0.0000)
   7 Li     4.851111    8.085185   10.000000    ( 0.0000,  0.0000,  0.0000)
   8 Li     8.085185    8.085185   10.000000    ( 0.0000,  0.0000,  0.0000)
   9 Li     0.000000    0.000000   11.617037    ( 0.0000,  0.0000,  0.0000)
  10 Li     3.234074    0.000000   11.617037    ( 0.0000,  0.0000,  0.0000)
  11 Li     6.468148    0.000000   11.617037    ( 0.0000,  0.0000,  0.0000)
  12 Li     0.000000    3.234074   11.617037    ( 0.0000,  0.0000,  0.0000)
  13 Li     3.234074    3.234074   11.617037    ( 0.0000,  0.0000,  0.0000)
  14 Li     6.468148    3.234074   11.617037    ( 0.0000,  0.0000,  0.0000)
  15 Li     0.000000    6.468148   11.617037    ( 0.0000,  0.0000,  0.0000)
  16 Li     3.234074    6.468148   11.617037    ( 0.0000,  0.0000,  0.0000)
  17 Li     6.468148    6.468148   11.617037    ( 0.0000,  0.0000,  0.0000)
  18 Li     1.183217    1.556607   13.880622    ( 0.0000,  0.0000,  0.0000)
  19 Li     4.925190    1.627301   13.559025    ( 0.0000,  0.0000,  0.0000)
  20 Li     8.045648    1.614355   13.406746    ( 0.0000,  0.0000,  0.0000)
  21 Li     1.636417    4.795220   13.519056    ( 0.0000,  0.0000,  0.0000)
  22 Li     4.873706    4.893383   13.555317    ( 0.0000,  0.0000,  0.0000)
  23 Li     8.125417    4.832656   13.532518    ( 0.0000,  0.0000,  0.0000)
  24 Li     1.704090    8.047472   13.549554    ( 0.0000,  0.0000,  0.0000)
  25 Li     5.048877    8.133891   13.566216    ( 0.0000,  0.0000,  0.0000)
  26 Li     8.223220    8.201883   13.665980    ( 0.0000,  0.0000,  0.0000)
  27 Li     0.290048   -0.230087   15.724012    ( 0.0000,  0.0000,  0.0000)
  28 Li     3.522694   -0.037549   15.546277    ( 0.0000,  0.0000,  0.0000)
  29 Li     7.154449    0.394609   16.017575    ( 0.0000,  0.0000,  0.0000)
  30 Li    -0.145327    3.124193   15.820004    ( 0.0000,  0.0000,  0.0000)
  31 Li     3.187477    3.285451   15.473505    ( 0.0000,  0.0000,  0.0000)
  32 Li     6.548083    3.248890   15.341191    ( 0.0000,  0.0000,  0.0000)
  33 Li     0.087751    6.344471   15.451446    ( 0.0000,  0.0000,  0.0000)
  34 Li     3.268145    6.510820   15.529694    ( 0.0000,  0.0000,  0.0000)
  35 Li     6.522475    6.575177   15.609039    ( 0.0000,  0.0000,  0.0000)
  36 O      7.938899    1.287409   18.336660    ( 0.0000,  0.0000,  0.0000)
  37 C      8.023194    0.623821   19.616262    ( 0.0000,  0.0000,  0.0000)
  38 C      8.168919    1.591085   20.790383    ( 0.0000,  0.0000,  0.0000)
  39 H      7.151721   -0.028009   19.768740    ( 0.0000,  0.0000,  0.0000)
  40 H      8.906788   -0.012021   19.530811    ( 0.0000,  0.0000,  0.0000)
  41 H      8.303597    1.027296   21.720471    ( 0.0000,  0.0000,  0.0000)
  42 H      9.027006    2.258657   20.655757    ( 0.0000,  0.0000,  0.0000)
  43 H      7.270970    2.204346   20.916152    ( 0.0000,  0.0000,  0.0000)
  44 H      7.203021    1.915855   18.373208    ( 0.0000,  0.0000,  0.0000)
  45 N      8.917507    1.219541   15.252332    ( 0.0000,  0.0000,  0.0000)
  46 N      7.968641    2.089619   15.346970    ( 0.0000,  0.0000,  0.0000)

Unit cell:
           periodic     x           y           z      points  spacing
  1. axis:    yes    9.702222    0.000000    0.000000    60     0.1617
  2. axis:    yes    0.000000    9.702222    0.000000    60     0.1617
  3. axis:    no     0.000000    0.000000   24.851111   156     0.1593

  Lengths:   9.702222   9.702222  24.851111
  Angles:   90.000000  90.000000  90.000000

Effective grid spacing dv^(1/3) = 0.1609

     iter     time        total  log10-change:
                         energy  eigst   dens
iter:   1 12:02:38  -310.050359  -0.67
iter:   2 12:07:23  -309.895339  -1.21  -1.46
iter:   3 12:10:59  -309.868367  -2.10  -1.78
iter:   4 12:16:06  -309.858409  -2.41  -2.02
Writing to output.gpw (mode='')

iter:   5 12:21:20  -309.855848c -1.85  -2.23
iter:   6 12:24:42  -309.855355c -2.17  -2.50
iter:   7 12:28:17  -309.856291c -2.00  -2.61
iter:   8 12:33:07  -309.855152c -3.07  -2.62
iter:   9 12:37:33  -309.854967c -3.37  -2.91
Writing to output.gpw (mode='')

iter:  10 12:43:48  -309.855035c -3.53  -3.00
iter:  11 12:48:37  -309.855038c -3.85  -3.17
iter:  12 12:54:01  -309.855108c -3.94  -3.24
iter:  13 12:58:47  -309.855107c -4.08  -3.38
iter:  14 13:04:12  -309.855084c -4.47  -3.40
Writing to output.gpw (mode='')

iter:  15 13:08:44  -309.855058c -4.67  -3.42
iter:  16 13:13:44  -309.855045c -4.54  -3.61
iter:  17 13:19:33  -309.855071c -4.86  -3.85
iter:  18 13:25:45  -309.855070c -5.11  -3.94
iter:  19 13:30:26  -309.855057c -5.17  -3.98
Writing to output.gpw (mode='')

iter:  20 13:35:24  -309.855063c -5.39  -4.19c
iter:  21 13:41:21  -309.855065c -5.51  -4.27c
iter:  22 13:47:54  -309.855068c -5.58  -4.32c
iter:  23 13:54:36  -309.855062c -5.70  -4.38c
iter:  24 13:59:30  -309.855062c -6.07  -4.50c
Writing to output.gpw (mode='')

iter:  25 14:03:28  -309.855062c -6.14  -4.56c
iter:  26 14:07:39  -309.855065c -6.21  -4.62c
iter:  27 14:11:42  -309.855066c -6.51  -4.88c
iter:  28 14:16:07  -309.855066c -6.59  -4.90c
iter:  29 14:20:46  -309.855065c -6.63  -4.91c
Writing to output.gpw (mode='')

iter:  30 14:26:05  -309.855064c -6.66  -4.98c
iter:  31 14:31:49  -309.855066c -6.86  -5.09c
iter:  32 14:36:26  -309.855065c -7.05  -5.06c
iter:  33 14:40:48  -309.855064c -6.99  -5.20c
iter:  34 14:44:57  -309.855064c -7.09  -5.33c
Writing to output.gpw (mode='')

iter:  35 14:49:24  -309.855065c -7.13  -5.46c
iter:  36 14:55:29  -309.855065c -7.36  -5.54c
iter:  37 14:59:46  -309.855065c -7.59c -5.61c

Converged after 37 iterations.

Dipole moment: (-1.631413, -6.075031, 0.358562) |e|*Ang

Energy contributions relative to reference atoms: (reference = -14434.854043)

Kinetic:       +142.405921
Potential:     -136.120536
External:        +0.000000
XC:            -316.843608
Entropy (-ST):   -0.163870
Local:           +0.785094
--------------------------
Free energy:   -309.937000
Extrapolated:  -309.855065

Dipole-layer corrected work functions: 3.390099, 2.700819 eV

Showing only first 2 kpts
 Kpt  Band  Eigenvalues  Occupancy
  0    31     -3.19886    1.91110
  0    32     -3.08501    1.37614
  0    33     -2.98767    0.47889
  0    34     -2.94646    0.24262

  1    31     -3.31681    1.99125
  1    32     -3.09894    1.48905
  1    33     -2.97633    0.40118
  1    34     -2.95484    0.28071


Fermi level: -3.04546

Gap: 0.034 eV
Transition (v -> c):
  (s=0, k=7, n=32, [0.38, 0.38, 0.00]) -> (s=0, k=5, n=33, [0.38, -0.12, 0.00])
Writing to output.gpw (mode='')


Forces in eV/Ang:
  0 Li   -0.02705   -0.01270   -0.30404
  1 Li    0.02800    0.00855   -0.29812
  2 Li    0.00349   -0.00661   -0.23243
  3 Li    0.00078    0.02008   -0.28958
  4 Li   -0.02018    0.00655   -0.28223
  5 Li   -0.01474   -0.01936   -0.29045
  6 Li   -0.00905   -0.01509   -0.30472
  7 Li   -0.02016   -0.00759   -0.27864
  8 Li    0.00575    0.01517   -0.28937
  9 Li    0.02237    0.00211    0.25671
 10 Li   -0.03188    0.06063    0.42635
 11 Li    0.01364   -0.01995    0.17932
 12 Li    0.05054    0.01043    0.17392
 13 Li   -0.04210   -0.08953    0.40653
 14 Li   -0.01236    0.01987    0.30005
 15 Li    0.00168    0.02500    0.34828
 16 Li    0.06105    0.01430    0.32856
 17 Li    0.08887    0.02662    0.32084
 18 Li   -0.00031   -0.05641   -0.00008
 19 Li   -0.05086   -0.01116   -0.03232
 20 Li    0.00510   -0.01093    0.10429
 21 Li   -0.02101    0.02284    0.00537
 22 Li   -0.00294    0.04668   -0.03409
 23 Li   -0.02378    0.00179    0.01017
 24 Li    0.06913   -0.01071   -0.03834
 25 Li   -0.04759   -0.01825    0.01514
 26 Li   -0.03628   -0.00901   -0.03352
 27 Li    0.01560    0.05042   -0.03807
 28 Li    0.00522    0.00074   -0.00777
 29 Li    0.09703    0.02735    0.03523
 30 Li    0.07991    0.00524   -0.02853
 31 Li    0.02086   -0.00869    0.01287
 32 Li    0.01580    0.01095    0.05680
 33 Li    0.02670   -0.00781    0.04014
 34 Li   -0.03288   -0.01497   -0.01576
 35 Li    0.00137    0.00760   -0.03993
 36 O    -0.20733   -0.12052    0.03247
 37 C     0.06904    0.06082    0.09431
 38 C     0.00978   -0.03806   -0.02178
 39 H     0.02871    0.04239   -0.04483
 40 H    -0.00852   -0.03010    0.02598
 41 H     0.03064    0.03932   -0.08873
 42 H    -0.08051   -0.11879   -0.01666
 43 H     0.02138   -0.01340   -0.06839
 44 H     0.02372    0.05257   -0.02561
 45 N    -0.03349    0.10224    0.10009
 46 N    -0.01371   -0.06037   -0.17480

System changes: positions 

Initializing position-dependent things.

Density initialized from wave functions
       .-----------------------.  
      /|                       |  
     / |                       |  
    /  |                       |  
   /   |                       |  
  /    |                       |  
 *     |                 H     |  
 |     |                     H |  
 |     |                       |  
 |     |              H        |  
 |     |            H C  H     |  
 |     |                       |  
 |     |Li      Li   C         |  
 |     |            HOi        |  
 |   Li|     Li                |  
 |     |  Li       Li     LLi  |  
 |     |   Li      Li          |  
 |     |Li      Li Li N Ni     |  
 |     |                       |  
 |   Li|     LLi     LLi       |  
 |     |  Li      Li      Li   |  
 | Li  |   Li      Li          |  
 |     |Li      Li      Li     |  
 Li    | Li      Li            |  
 |    Li      Li      Li       |  
 |     |                       |  
 |     |                       |  
 |     |                       |  
 |     |                       |  
 |     |                       |  
 |     |                       |  
 |     .-----------------------.  
 |    /                       /   
 |   /                       /    
 |  /                       /     
 | /                       /      
 |/                       /       
 *-----------------------*        

Positions:
   0 Li     1.617037    1.617037   10.000000    ( 0.0000,  0.0000,  0.0000)
   1 Li     4.851111    1.617037   10.000000    ( 0.0000,  0.0000,  0.0000)
   2 Li     8.085185    1.617037   10.000000    ( 0.0000,  0.0000,  0.0000)
   3 Li     1.617037    4.851111   10.000000    ( 0.0000,  0.0000,  0.0000)
   4 Li     4.851111    4.851111   10.000000    ( 0.0000,  0.0000,  0.0000)
   5 Li     8.085185    4.851111   10.000000    ( 0.0000,  0.0000,  0.0000)
   6 Li     1.617037    8.085185   10.000000    ( 0.0000,  0.0000,  0.0000)
   7 Li     4.851111    8.085185   10.000000    ( 0.0000,  0.0000,  0.0000)
   8 Li     8.085185    8.085185   10.000000    ( 0.0000,  0.0000,  0.0000)
   9 Li     0.000000    0.000000   11.617037    ( 0.0000,  0.0000,  0.0000)
  10 Li     3.234074    0.000000   11.617037    ( 0.0000,  0.0000,  0.0000)
  11 Li     6.468148    0.000000   11.617037    ( 0.0000,  0.0000,  0.0000)
  12 Li     0.000000    3.234074   11.617037    ( 0.0000,  0.0000,  0.0000)
  13 Li     3.234074    3.234074   11.617037    ( 0.0000,  0.0000,  0.0000)
  14 Li     6.468148    3.234074   11.617037    ( 0.0000,  0.0000,  0.0000)
  15 Li     0.000000    6.468148   11.617037    ( 0.0000,  0.0000,  0.0000)
  16 Li     3.234074    6.468148   11.617037    ( 0.0000,  0.0000,  0.0000)
  17 Li     6.468148    6.468148   11.617037    ( 0.0000,  0.0000,  0.0000)
  18 Li     1.202003    1.557609   13.862513    ( 0.0000,  0.0000,  0.0000)
  19 Li     4.938490    1.618780   13.557557    ( 0.0000,  0.0000,  0.0000)
  20 Li     8.055879    1.614849   13.393138    ( 0.0000,  0.0000,  0.0000)
  21 Li     1.635090    4.787212   13.515725    ( 0.0000,  0.0000,  0.0000)
  22 Li     4.872077    4.886969   13.551902    ( 0.0000,  0.0000,  0.0000)
  23 Li     8.128524    4.826302   13.528261    ( 0.0000,  0.0000,  0.0000)
  24 Li     1.691001    8.046653   13.545150    ( 0.0000,  0.0000,  0.0000)
  25 Li     5.050291    8.130788   13.562617    ( 0.0000,  0.0000,  0.0000)
  26 Li     8.219513    8.219148   13.669457    ( 0.0000,  0.0000,  0.0000)
  27 Li     0.286608   -0.226335   15.716789    ( 0.0000,  0.0000,  0.0000)
  28 Li     3.524260   -0.054304   15.538056    ( 0.0000,  0.0000,  0.0000)
  29 Li     7.159148    0.419118   16.045082    ( 0.0000,  0.0000,  0.0000)
  30 Li    -0.138825    3.131956   15.791071    ( 0.0000,  0.0000,  0.0000)
  31 Li     3.187347    3.262102   15.461028    ( 0.0000,  0.0000,  0.0000)
  32 Li     6.553315    3.256021   15.322442    ( 0.0000,  0.0000,  0.0000)
  33 Li     0.063222    6.346420   15.430769    ( 0.0000,  0.0000,  0.0000)
  34 Li     3.252588    6.497148   15.519943    ( 0.0000,  0.0000,  0.0000)
  35 Li     6.512143    6.579240   15.605963    ( 0.0000,  0.0000,  0.0000)
  36 O      7.919460    1.267172   18.320706    ( 0.0000,  0.0000,  0.0000)
  37 C      8.011906    0.612367   19.604629    ( 0.0000,  0.0000,  0.0000)
  38 C      8.165076    1.589871   20.769092    ( 0.0000,  0.0000,  0.0000)
  39 H      7.141642   -0.037835   19.775353    ( 0.0000,  0.0000,  0.0000)
  40 H      8.896219   -0.022602   19.514548    ( 0.0000,  0.0000,  0.0000)
  41 H      8.314524    1.030999   21.699810    ( 0.0000,  0.0000,  0.0000)
  42 H      9.019733    2.259669   20.616437    ( 0.0000,  0.0000,  0.0000)
  43 H      7.264140    2.198149   20.904100    ( 0.0000,  0.0000,  0.0000)
  44 H      7.197918    1.912825   18.364240    ( 0.0000,  0.0000,  0.0000)
  45 N      8.921344    1.224727   15.238479    ( 0.0000,  0.0000,  0.0000)
  46 N      7.973599    2.095354   15.333895    ( 0.0000,  0.0000,  0.0000)

Unit cell:
           periodic     x           y           z      points  spacing
  1. axis:    yes    9.702222    0.000000    0.000000    60     0.1617
  2. axis:    yes    0.000000    9.702222    0.000000    60     0.1617
  3. axis:    no     0.000000    0.000000   24.851111   156     0.1593

  Lengths:   9.702222   9.702222  24.851111
  Angles:   90.000000  90.000000  90.000000

Effective grid spacing dv^(1/3) = 0.1609

     iter     time        total  log10-change:
                         energy  eigst   dens
iter:   1 15:05:40  -310.074025  -0.56
iter:   2 15:10:45  -309.907358  -1.14  -1.44
iter:   3 15:14:49  -309.878816  -2.00  -1.74
iter:   4 15:21:40  -309.866584  -2.35  -1.95
Writing to output.gpw (mode='')

iter:   5 15:27:09  -309.862312c -1.76  -2.15
iter:   6 15:35:27  -309.861736c -1.89  -2.41
iter:   7 15:39:23  -309.861189c -2.16  -2.49
iter:   8 15:43:23  -309.860409c -2.88  -2.63
iter:   9 15:49:48  -309.860306c -3.29  -2.86
Writing to output.gpw (mode='')

iter:  10 15:55:39  -309.860277c -3.49  -2.93
iter:  11 16:01:41  -309.860291c -3.77  -3.13
iter:  12 16:06:07  -309.860390c -3.81  -3.18
iter:  13 16:11:20  -309.860426c -4.04  -3.41
iter:  14 16:16:57  -309.860407c -4.26  -3.38
Writing to output.gpw (mode='')

iter:  15 16:21:28  -309.860376c -4.46  -3.38
iter:  16 16:26:21  -309.860376c -4.62  -3.41
iter:  17 16:33:18  -309.860367c -4.61  -3.48
iter:  18 16:40:25  -309.860353c -4.91  -3.56
iter:  19 16:48:57  -309.860342c -4.94  -3.74
Writing to output.gpw (mode='')

iter:  20 16:56:51  -309.860337c -4.97  -3.84
iter:  21 17:05:45  -309.860335c -5.31  -4.02c
iter:  22 17:12:02  -309.860334c -5.47  -4.08c
iter:  23 17:17:51  -309.860334c -5.72  -4.17c
iter:  24 17:24:24  -309.860336c -5.86  -4.22c
Writing to output.gpw (mode='')

iter:  25 17:29:22  -309.860336c -5.98  -4.42c
iter:  26 17:35:09  -309.860337c -6.00  -4.47c
iter:  27 17:40:22  -309.860340c -6.00  -4.58c
iter:  28 17:48:27  -309.860340c -6.46  -4.77c
iter:  29 17:55:39  -309.860339c -6.54  -4.85c
Writing to output.gpw (mode='')

iter:  30 18:00:27  -309.860338c -6.61  -4.90c
iter:  31 18:05:22  -309.860338c -6.71  -5.00c
iter:  32 18:09:36  -309.860338c -7.00  -5.10c
iter:  33 18:14:27  -309.860338c -7.11  -5.16c
iter:  34 18:19:28  -309.860338c -7.28  -5.32c
Writing to output.gpw (mode='')

iter:  35 18:24:20  -309.860338c -7.20  -5.39c
iter:  36 18:28:48  -309.860338c -7.43c -5.46c

Converged after 36 iterations.

Dipole moment: (-1.335589, -5.457457, 0.369286) |e|*Ang

Energy contributions relative to reference atoms: (reference = -14434.854043)

Kinetic:       +142.569488
Potential:     -136.232406
External:        +0.000000
XC:            -316.900569
Entropy (-ST):   -0.162983
Local:           +0.784641
--------------------------
Free energy:   -309.941829
Extrapolated:  -309.860338

Dipole-layer corrected work functions: 3.391278, 2.681384 eV

Showing only first 2 kpts
 Kpt  Band  Eigenvalues  Occupancy
  0    31     -3.19188    1.91469
  0    32     -3.07781    1.39255
  0    33     -2.97792    0.47439
  0    34     -2.93704    0.24138

  1    31     -3.30629    1.99100
  1    32     -3.09136    1.50076
  1    33     -2.96527    0.38892
  1    34     -2.94477    0.27618


Fermi level: -3.03633

Gap: 0.039 eV
Transition (v -> c):
  (s=0, k=7, n=32, [0.38, 0.38, 0.00]) -> (s=0, k=5, n=33, [0.38, -0.12, 0.00])
