
  ___ ___ ___ _ _ _  
 |   |   |_  | | | | 
 | | | | | . | | | | 
 |__ |  _|___|_____|  22.8.0
 |___|_|             

User:   vazumah@d012
Date:   Tue Mar 14 21:40:26 2023
Arch:   x86_64
Pid:    51724
CWD:    /home/vazumah/Research_Projects/LiMEAS/LiNRR_proton_donors/N2_with_proton_donor/Li_BCC_100/adsorbates/CH3CH2OH_z/bridge/8.085_1.617/N2_z/barrier/9.63_1.41_15.54
Python: 3.10.6
gpaw:   /home/vazumah/anaconda3/envs/NAME/lib/python3.10/site-packages/gpaw
_gpaw:  /home/vazumah/anaconda3/envs/NAME/lib/python3.10/site-packages/
        _gpaw.cpython-310-x86_64-linux-gnu.so
ase:    /home/vazumah/anaconda3/envs/NAME/lib/python3.10/site-packages/ase (version 3.22.1)
numpy:  /home/vazumah/anaconda3/envs/NAME/lib/python3.10/site-packages/numpy (version 1.23.3)
scipy:  /home/vazumah/anaconda3/envs/NAME/lib/python3.10/site-packages/scipy (version 1.9.1)
libxc:  5.2.3
units:  Angstrom and eV
cores: 32
OpenMP: True
OMP_NUM_THREADS: 1

Input parameters:
  convergence: {bands: -10}
  h: 0.16
  kpts: {size: [4, 4, 1]}
  occupations: {name: fermi-dirac,
                width: 0.05}
  poissonsolver: {dipolelayer: xy}
  xc: BEEF-vdW

System changes: positions, numbers, cell, pbc, initial_charges, initial_magmoms 

Initialize ...

species:
  Li:
    name: Lithium
    id: 830b4218f175192f93f959cfc0aad614
    Z: 3.0
    valence: 1
    core: 2
    charge: 0.0
    file: /home/vazumah/anaconda3/envs/NAME/share/gpaw/Li.PBE.gz
    compensation charges: {type: gauss,
                           rc: 0.33,
                           lmax: 2}
    cutoffs: {filter: 1.91,
              core: 2.55}
    valence states:
      #              energy  rcut
      - 2s(1.00)    -2.874   1.058
      - 2p(0.00)    -1.090   1.058
      -  s          24.337   1.058
  
    # Using partial waves for Li as LCAO basis

  O:
    name: Oxygen
    id: 32ecd46bf208036f09c70b0ec9a88b78
    Z: 8.0
    valence: 6
    core: 2
    charge: 0.0
    file: /home/vazumah/anaconda3/envs/NAME/share/gpaw/O.PBE.gz
    compensation charges: {type: gauss,
                           rc: 0.21,
                           lmax: 2}
    cutoffs: {filter: 1.17,
              core: 0.83}
    valence states:
      #              energy  rcut
      - 2s(2.00)   -23.961   0.688
      - 2p(4.00)    -9.029   0.598
      -  s           3.251   0.688
      -  p          18.182   0.598
      -  d           0.000   0.619
  
    # Using partial waves for O as LCAO basis

  C:
    name: Carbon
    id: 4aa54d4b901d75f77cc0ea3eec22967b
    Z: 6.0
    valence: 4
    core: 2
    charge: 0.0
    file: /home/vazumah/anaconda3/envs/NAME/share/gpaw/C.PBE.gz
    compensation charges: {type: gauss,
                           rc: 0.20,
                           lmax: 2}
    cutoffs: {filter: 1.14,
              core: 1.14}
    valence states:
      #              energy  rcut
      - 2s(2.00)   -13.751   0.635
      - 2p(2.00)    -5.284   0.635
      -  s          13.461   0.635
      -  p          21.927   0.635
      -  d           0.000   0.635
  
    # Using partial waves for C as LCAO basis

  H:
    name: Hydrogen
    id: d65de229564ff8ea4db303e23b6d1ecf
    Z: 1.0
    valence: 1
    core: 0
    charge: 0.0
    file: /home/vazumah/anaconda3/envs/NAME/share/gpaw/H.PBE.gz
    compensation charges: {type: gauss,
                           rc: 0.15,
                           lmax: 2}
    cutoffs: {filter: 0.85,
              core: 0.53}
    valence states:
      #              energy  rcut
      - 1s(1.00)    -6.494   0.476
      -  s          20.717   0.476
      -  p           0.000   0.476
  
    # Using partial waves for H as LCAO basis

  N:
    name: Nitrogen
    id: f7500608b86eaa90eef8b1d9a670dc53
    Z: 7.0
    valence: 5
    core: 2
    charge: 0.0
    file: /home/vazumah/anaconda3/envs/NAME/share/gpaw/N.PBE.gz
    compensation charges: {type: gauss,
                           rc: 0.18,
                           lmax: 2}
    cutoffs: {filter: 1.11,
              core: 0.96}
    valence states:
      #              energy  rcut
      - 2s(2.00)   -18.583   0.603
      - 2p(3.00)    -7.089   0.529
      -  s           8.629   0.603
      -  p          20.123   0.529
      -  d           0.000   0.577
  
    # Using partial waves for N as LCAO basis

Reference energy: -14434.854043  # eV

Spin-paired calculation

Convergence criteria:
 Maximum [total energy] change in last 3 cyles: 0.0005 eV / electron
 Maximum integral of absolute [dens]ity change: 0.0001 electrons / valence electron
 Maximum integral of absolute [eigenst]ate change: 4e-08 eV^2 / valence electron
 Maximum number of scf [iter]ations: 333
 (Square brackets indicate name in SCF output, whereas a 'c' in
 the SCF output indicates the quantity has converged.)

Symmetries present (total): 1

  ( 1  0  0)
  ( 0  1  0)
  ( 0  0  1)

16 k-points: 4 x 4 x 1 Monkhorst-Pack grid
8 k-points in the irreducible part of the Brillouin zone
       k-points in crystal coordinates                weights
   0:     0.12500000   -0.37500000    0.00000000          2/16
   1:     0.12500000   -0.12500000    0.00000000          2/16
   2:     0.12500000    0.12500000    0.00000000          2/16
   3:     0.12500000    0.37500000    0.00000000          2/16
   4:     0.37500000   -0.37500000    0.00000000          2/16
   5:     0.37500000   -0.12500000    0.00000000          2/16
   6:     0.37500000    0.12500000    0.00000000          2/16
   7:     0.37500000    0.37500000    0.00000000          2/16

Wave functions: Uniform real-space grid
  Kinetic energy operator: 6*3+1=19 point O(h^6) finite-difference Laplacian
  ScaLapack parameters: grid=1x1, blocksize=None
  Wavefunction extrapolation:
    Improved wavefunction reuse through dual PAW basis 

Occupation numbers: Fermi-Dirac:
  width: 0.0500  # eV
 

Eigensolver
   Davidson(niter=2) 

Densities:
  Coarse grid: 60*60*156 grid
  Fine grid: 120*120*312 grid
  Total Charge: 0.000000 

Density mixing:
  Method: separate
  Backend: pulay
  Linear mixing parameter: 0.05
  old densities: 5
  Damping of long wavelength oscillations: 50 

Hamiltonian:
  XC and Coulomb potentials evaluated on a 120*120*312 grid
  Using the BEEF-vdW Exchange-Correlation functional
  Interpolation: tri-quintic (5. degree polynomial)
  Poisson solver: FastPoissonSolver using
    Stencil: 6*3+1=19 point O(h^6) finite-difference Laplacian
    FFT axes: [0, 1]
    FST axes: [2]

Dipole correction along z-axis 

XC parameters: BEEF-vdW with 2 nearest neighbor stencil

Memory estimate:
  Process memory now: 234.64 MiB
  Calculator: 307.36 MiB
    Density: 88.33 MiB
      Arrays: 27.47 MiB
      Localized functions: 50.43 MiB
      Mixer: 10.44 MiB
    Hamiltonian: 21.95 MiB
      Arrays: 17.96 MiB
      XC: 0.00 MiB
      Poisson: 0.00 MiB
      vbar: 3.99 MiB
    Wavefunctions: 197.08 MiB
      Arrays psit_nG: 91.85 MiB
      Eigensolver: 102.58 MiB
      Projections: 0.05 MiB
      Projectors: 2.60 MiB

Total number of cores used: 32
Parallelization over k-points: 8
Domain decomposition: 1 x 1 x 4

Number of atoms: 47
Number of atomic orbitals: 170
Number of bands in calculation: 44
Number of valence electrons: 66
Bands to converge: 34

... initialized

Initializing position-dependent things.

Density initialized from atomic densities
Creating initial wave functions:
  44 bands from LCAO basis set

       .-----------------------.  
      /|                       |  
     / |                       |  
    /  |                       |  
   /   |                       |  
  /    |                       |  
 *     |                       |  
 |     |                H      |  
 |     |                   H   |  
 |     |                       |  
 |     |            H          |  
 |     |              CH       |  
 |     |Li      Li      H      |  
 |     |            C          |  
 |   Li|     Li   O  Li        |  
 |     |  Li      Li      Li   |  
 |     |   Li      Li N    Li  |  
 |     |Li      LiLi   NLi     |  
 |     |                       |  
 |   LLi     LLi     LLi       |  
 |     |  Li      Li      Li   |  
 | Li  |   Li      Li          |  
 |     |Li      Li      Li     |  
 Li    | Li      Li            |  
 |    Li      Li      Li       |  
 |     |                       |  
 |     |                       |  
 |     |                       |  
 |     |                       |  
 |     |                       |  
 |     |                       |  
 |     .-----------------------.  
 |    /                       /   
 |   /                       /    
 |  /                       /     
 | /                       /      
 |/                       /       
 *-----------------------*        

Positions:
   0 Li     1.617037    1.617037   10.000000    ( 0.0000,  0.0000,  0.0000)
   1 Li     4.851111    1.617037   10.000000    ( 0.0000,  0.0000,  0.0000)
   2 Li     8.085185    1.617037   10.000000    ( 0.0000,  0.0000,  0.0000)
   3 Li     1.617037    4.851111   10.000000    ( 0.0000,  0.0000,  0.0000)
   4 Li     4.851111    4.851111   10.000000    ( 0.0000,  0.0000,  0.0000)
   5 Li     8.085185    4.851111   10.000000    ( 0.0000,  0.0000,  0.0000)
   6 Li     1.617037    8.085185   10.000000    ( 0.0000,  0.0000,  0.0000)
   7 Li     4.851111    8.085185   10.000000    ( 0.0000,  0.0000,  0.0000)
   8 Li     8.085185    8.085185   10.000000    ( 0.0000,  0.0000,  0.0000)
   9 Li     0.000000    0.000000   11.617037    ( 0.0000,  0.0000,  0.0000)
  10 Li     3.234074    0.000000   11.617037    ( 0.0000,  0.0000,  0.0000)
  11 Li     6.468148    0.000000   11.617037    ( 0.0000,  0.0000,  0.0000)
  12 Li     0.000000    3.234074   11.617037    ( 0.0000,  0.0000,  0.0000)
  13 Li     3.234074    3.234074   11.617037    ( 0.0000,  0.0000,  0.0000)
  14 Li     6.468148    3.234074   11.617037    ( 0.0000,  0.0000,  0.0000)
  15 Li     0.000000    6.468148   11.617037    ( 0.0000,  0.0000,  0.0000)
  16 Li     3.234074    6.468148   11.617037    ( 0.0000,  0.0000,  0.0000)
  17 Li     6.468148    6.468148   11.617037    ( 0.0000,  0.0000,  0.0000)
  18 Li     1.720681    1.581352   13.519861    ( 0.0000,  0.0000,  0.0000)
  19 Li     4.934252    1.666637   13.519064    ( 0.0000,  0.0000,  0.0000)
  20 Li     8.104640    1.545726   13.591748    ( 0.0000,  0.0000,  0.0000)
  21 Li     1.591212    4.800036   13.482656    ( 0.0000,  0.0000,  0.0000)
  22 Li     4.809099    4.913748   13.509309    ( 0.0000,  0.0000,  0.0000)
  23 Li     8.069484    4.936033   13.434999    ( 0.0000,  0.0000,  0.0000)
  24 Li     1.707515    8.053242   13.495594    ( 0.0000,  0.0000,  0.0000)
  25 Li     4.936986    8.165806   13.476861    ( 0.0000,  0.0000,  0.0000)
  26 Li     8.167714    8.125115   13.546750    ( 0.0000,  0.0000,  0.0000)
  27 Li     0.281906   -0.089167   15.509716    ( 0.0000,  0.0000,  0.0000)
  28 Li     3.511321   -0.016524   15.484327    ( 0.0000,  0.0000,  0.0000)
  29 Li     6.915123    0.307957   16.046126    ( 0.0000,  0.0000,  0.0000)
  30 Li    -0.085390    3.067291   15.430966    ( 0.0000,  0.0000,  0.0000)
  31 Li     3.261785    3.310363   15.468146    ( 0.0000,  0.0000,  0.0000)
  32 Li     6.507017    3.382818   15.359497    ( 0.0000,  0.0000,  0.0000)
  33 Li     0.066376    6.409395   15.454616    ( 0.0000,  0.0000,  0.0000)
  34 Li     3.231752    6.506329   15.433767    ( 0.0000,  0.0000,  0.0000)
  35 Li     6.472756    6.606921   15.448411    ( 0.0000,  0.0000,  0.0000)
  36 O      6.631250    0.663950   18.013748    ( 0.0000,  0.0000,  0.0000)
  37 C      7.539740    0.284653   19.081910    ( 0.0000,  0.0000,  0.0000)
  38 C      8.134369    1.485910   19.793396    ( 0.0000,  0.0000,  0.0000)
  39 H      6.972126   -0.340468   19.773995    ( 0.0000,  0.0000,  0.0000)
  40 H      8.334055   -0.322275   18.639914    ( 0.0000,  0.0000,  0.0000)
  41 H      8.770499    1.149774   20.617812    ( 0.0000,  0.0000,  0.0000)
  42 H      8.748541    2.080596   19.110574    ( 0.0000,  0.0000,  0.0000)
  43 H      7.346566    2.117987   20.213155    ( 0.0000,  0.0000,  0.0000)
  44 H      6.628950    1.631149   17.953598    ( 0.0000,  0.0000,  0.0000)
  45 N      8.722039    1.238212   15.596565    ( 0.0000,  0.0000,  0.0000)
  46 N      7.835930    2.128386   15.581021    ( 0.0000,  0.0000,  0.0000)

Unit cell:
           periodic     x           y           z      points  spacing
  1. axis:    yes    9.702222    0.000000    0.000000    60     0.1617
  2. axis:    yes    0.000000    9.702222    0.000000    60     0.1617
  3. axis:    no     0.000000    0.000000   24.851111   156     0.1593

  Lengths:   9.702222   9.702222  24.851111
  Angles:   90.000000  90.000000  90.000000

Effective grid spacing dv^(1/3) = 0.1609

     iter     time        total  log10-change:
                         energy  eigst   dens
iter:   1 21:41:11  -469.476683  +1.20
iter:   2 21:41:36  -168.066923  +2.28  -0.11
iter:   3 21:42:02  -135.137599  +3.21  -0.23
iter:   4 21:42:28  -195.689496  +2.67  -0.28
iter:   5 21:42:53  -267.086741  +2.66  -0.46
iter:   6 21:43:19  -280.838374  +2.56  -0.47
iter:   7 21:43:45  -365.659857  +2.83  -0.72
iter:   8 21:44:10  -366.965776  +2.20  -0.44
iter:   9 21:44:36  -328.222249  +1.55  -0.46
iter:  10 21:45:02  -333.676753  +1.30  -0.64
iter:  11 21:45:27  -384.851672  +2.05  -0.61
iter:  12 21:45:53  -378.813867  +1.62  -0.42
iter:  13 21:46:19  -314.858794  +1.51  -0.37
iter:  14 21:46:44  -317.792169  +1.26  -0.75
iter:  15 21:47:10  -314.174254  +0.53  -0.69
iter:  16 21:47:36  -313.140063  +0.42  -0.81
iter:  17 21:48:01  -312.049290  +0.79  -0.86
iter:  18 21:48:27  -311.497834  +0.63  -0.94
iter:  19 21:48:53  -311.481074  +0.43  -1.00
iter:  20 21:49:19  -310.348563  +0.18  -1.03
iter:  21 21:49:45  -310.605711  +0.08  -1.33
iter:  22 21:50:10  -310.294031  -0.33  -1.29
iter:  23 21:50:36  -310.308203  -0.23  -1.46
iter:  24 21:51:01  -310.287308c -0.33  -1.54
iter:  25 21:51:27  -310.275379c -0.87  -1.64
iter:  26 21:51:53  -310.292914c -1.01  -1.70
iter:  27 21:52:18  -310.332841  -0.81  -1.69
iter:  28 21:52:44  -310.275758  -0.76  -1.66
iter:  29 21:53:10  -310.267307  -0.91  -1.82
iter:  30 21:53:35  -310.261840c -1.37  -1.87
iter:  31 21:54:01  -310.243436c -1.07  -1.92
iter:  32 21:54:27  -310.245210c -1.45  -2.08
iter:  33 21:54:53  -310.245694c -1.58  -2.16
iter:  34 21:55:18  -310.248404c -1.74  -2.27
iter:  35 21:55:44  -310.249909c -1.62  -2.21
iter:  36 21:56:09  -310.250491c -1.99  -2.19
iter:  37 21:56:35  -310.255640c -1.77  -2.24
iter:  38 21:57:01  -310.251539c -2.09  -2.12
iter:  39 21:57:26  -310.251689c -2.30  -2.22
iter:  40 21:57:52  -310.251315c -2.07  -2.25
iter:  41 21:58:18  -310.250227c -2.40  -2.32
iter:  42 21:58:43  -310.249276c -2.16  -2.40
iter:  43 21:59:09  -310.249203c -2.83  -2.53
iter:  44 21:59:35  -310.249659c -2.43  -2.63
iter:  45 22:00:00  -310.249472c -3.04  -2.75
iter:  46 22:00:26  -310.249527c -3.18  -2.92
iter:  47 22:00:52  -310.249646c -2.91  -2.97
iter:  48 22:01:17  -310.249700c -3.21  -3.09
iter:  49 22:01:43  -310.249747c -3.58  -3.18
iter:  50 22:02:09  -310.249777c -3.54  -3.28
iter:  51 22:02:34  -310.249793c -3.58  -3.32
iter:  52 22:03:00  -310.249804c -3.66  -3.38
iter:  53 22:03:26  -310.249827c -3.78  -3.46
iter:  54 22:03:52  -310.249843c -3.75  -3.53
iter:  55 22:04:17  -310.249868c -4.05  -3.60
iter:  56 22:04:43  -310.249867c -4.15  -3.83
iter:  57 22:05:08  -310.249875c -4.28  -3.91
iter:  58 22:05:34  -310.249883c -4.31  -4.03c
iter:  59 22:06:00  -310.249896c -4.32  -4.05c
iter:  60 22:06:25  -310.249896c -4.36  -4.26c
iter:  61 22:06:51  -310.249902c -4.40  -4.27c
iter:  62 22:07:17  -310.249906c -4.51  -4.31c
iter:  63 22:07:43  -310.249909c -4.63  -4.38c
iter:  64 22:08:08  -310.249912c -4.64  -4.44c
iter:  65 22:08:34  -310.249915c -4.72  -4.46c
iter:  66 22:09:00  -310.249918c -4.75  -4.52c
iter:  67 22:09:26  -310.249919c -4.88  -4.63c
iter:  68 22:09:51  -310.249920c -5.00  -4.63c
iter:  69 22:10:17  -310.249920c -5.01  -4.58c
iter:  70 22:10:42  -310.249920c -5.06  -4.51c
iter:  71 22:11:08  -310.249921c -5.14  -4.50c
iter:  72 22:11:34  -310.249921c -5.26  -4.49c
iter:  73 22:11:59  -310.249921c -5.24  -4.47c
iter:  74 22:12:25  -310.249921c -5.25  -4.46c
iter:  75 22:12:51  -310.249924c -5.19  -4.40c
iter:  76 22:13:16  -310.249925c -5.27  -4.48c
iter:  77 22:13:42  -310.249925c -5.56  -4.47c
iter:  78 22:14:08  -310.249925c -5.62  -4.46c
iter:  79 22:14:33  -310.249926c -5.69  -4.41c
iter:  80 22:14:59  -310.249924c -5.76  -4.46c
iter:  81 22:15:25  -310.249924c -5.80  -4.40c
iter:  82 22:15:51  -310.249925c -5.79  -4.44c
iter:  83 22:16:16  -310.249926c -5.92  -4.39c
iter:  84 22:16:42  -310.249927c -5.88  -4.43c
iter:  85 22:17:07  -310.249927c -5.96  -4.45c
iter:  86 22:17:33  -310.249926c -5.98  -4.48c
iter:  87 22:17:59  -310.249926c -6.06  -4.66c
iter:  88 22:18:24  -310.249926c -6.20  -4.86c
iter:  89 22:18:50  -310.249926c -6.28  -4.90c
iter:  90 22:19:16  -310.249926c -6.27  -4.90c
iter:  91 22:19:41  -310.249926c -6.38  -5.01c
iter:  92 22:20:07  -310.249926c -6.44  -5.13c
iter:  93 22:20:33  -310.249926c -6.60  -5.24c
iter:  94 22:20:59  -310.249926c -6.56  -5.29c
iter:  95 22:21:24  -310.249927c -6.66  -5.36c
iter:  96 22:21:50  -310.249927c -6.69  -5.47c
iter:  97 22:22:15  -310.249927c -6.66  -5.47c
iter:  98 22:22:41  -310.249927c -6.78  -5.64c
iter:  99 22:23:07  -310.249927c -6.84  -5.70c
iter: 100 22:23:32  -310.249926c -6.85  -5.73c
iter: 101 22:23:58  -310.249926c -6.87  -5.78c
iter: 102 22:24:24  -310.249926c -7.05  -5.91c
iter: 103 22:24:50  -310.249926c -7.07  -5.88c
iter: 104 22:25:16  -310.249926c -7.19  -5.89c
iter: 105 22:25:41  -310.249926c -7.36  -5.89c
iter: 106 22:26:07  -310.249926c -7.44c -5.85c

Converged after 106 iterations.

Dipole moment: (-3.087155, -10.970189, 0.341034) |e|*Ang

Energy contributions relative to reference atoms: (reference = -14434.854043)

Kinetic:       +147.715947
Potential:     -140.428248
External:        +0.000000
XC:            -318.234565
Entropy (-ST):   -0.163997
Local:           +0.778938
--------------------------
Free energy:   -310.331925
Extrapolated:  -310.249926

Dipole-layer corrected work functions: 3.393093, 2.737508 eV

Showing only first 2 kpts
 Kpt  Band  Eigenvalues  Occupancy
  0    31     -3.26150    1.96125
  0    32     -3.09176    1.25863
  0    33     -3.04102    0.76189
  0    34     -2.97059    0.26155

  1    31     -3.34541    1.99265
  1    32     -3.05076    0.85557
  1    33     -2.96574    0.24025
  1    34     -2.92966    0.12443


Fermi level: -3.06530

No gap
Writing to top.gpw (mode='all')

Timing:                              incl.     excl.
-----------------------------------------------------------
Hamiltonian:                        21.455     0.000   0.0% |
 Atomic:                             0.076     0.001   0.0% |
  XC Correction:                     0.075     0.075   0.0% |
 Calculate atomic Hamiltonians:      0.077     0.077   0.0% |
 Communicate:                        0.100     0.100   0.0% |
 Hartree integrate/restrict:         0.084     0.084   0.0% |
 Initialize Hamiltonian:             0.000     0.000   0.0% |
 Poisson:                            1.437     0.684   0.0% |
  Communicate from 1D:               0.105     0.105   0.0% |
  Communicate from 2D:               0.156     0.156   0.0% |
  Communicate to 1D:                 0.032     0.032   0.0% |
  Communicate to 2D:                 0.168     0.168   0.0% |
  FFT 1D:                            0.139     0.139   0.0% |
  FFT 2D:                            0.152     0.152   0.0% |
 XC 3D grid:                        19.675     3.222   0.1% |
  VdW-DF integral:                  16.452     0.106   0.0% |
   Convolution:                      1.499     1.499   0.1% |
   FFT:                              0.524     0.524   0.0% |
   gather:                           3.489     3.489   0.1% |
   hmm1:                             0.326     0.326   0.0% |
   hmm2:                             0.283     0.283   0.0% |
   iFFT:                             0.549     0.549   0.0% |
   potential:                        2.691     0.058   0.0% |
    collect:                         0.212     0.212   0.0% |
    p1:                              1.293     1.293   0.0% |
    p2:                              0.716     0.716   0.0% |
    sum:                             0.412     0.412   0.0% |
   splines:                          6.986     6.986   0.2% |
 vbar:                               0.006     0.006   0.0% |
LCAO initialization:                 5.216     0.399   0.0% |
 LCAO eigensolver:                   1.599     0.001   0.0% |
  Calculate projections:             0.000     0.000   0.0% |
  DenseAtomicCorrection:             0.000     0.000   0.0% |
  Distribute overlap matrix:         1.531     1.531   0.1% |
  Orbital Layouts:                   0.065     0.065   0.0% |
  Potential matrix:                  0.001     0.001   0.0% |
  Sum over cells:                    0.001     0.001   0.0% |
 LCAO to grid:                       2.559     2.559   0.1% |
 Set positions (LCAO WFS):           0.659     0.490   0.0% |
  Basic WFS set positions:           0.002     0.002   0.0% |
  Basis functions set positions:     0.000     0.000   0.0% |
  P tci:                             0.001     0.001   0.0% |
  ST tci:                            0.099     0.099   0.0% |
  mktci:                             0.067     0.067   0.0% |
SCF-cycle:                        2708.339    34.817   1.2% |
 Davidson:                        1154.761   435.056  15.0% |-----|
  Apply hamiltonian:                94.959    94.959   3.3% ||
  Subspace diag:                   181.352     0.025   0.0% |
   calc_h_matrix:                  115.147    17.353   0.6% |
    Apply hamiltonian:              97.793    97.793   3.4% ||
   diagonalize:                      1.576     1.576   0.1% |
   rotate_psi:                      64.605    64.605   2.2% ||
  calc. matrices:                  341.149   136.051   4.7% |-|
   Apply hamiltonian:              205.098   205.098   7.1% |--|
  diagonalize:                       0.822     0.822   0.0% |
  rotate_psi:                      101.423   101.423   3.5% ||
 Density:                           20.860     0.004   0.0% |
  Atomic density matrices:           1.103     1.103   0.0% |
  Mix:                              10.555    10.555   0.4% |
  Multipole moments:                 0.091     0.091   0.0% |
  Pseudo density:                    9.108     9.102   0.3% |
   Symmetrize density:               0.006     0.006   0.0% |
 Hamiltonian:                     1497.010     0.023   0.0% |
  Atomic:                            7.917     0.102   0.0% |
   XC Correction:                    7.815     7.815   0.3% |
  Calculate atomic Hamiltonians:     8.426     8.426   0.3% |
  Communicate:                      18.112    18.112   0.6% |
  Hartree integrate/restrict:        8.208     8.208   0.3% |
  Poisson:                         138.010    68.168   2.4% ||
   Communicate from 1D:              7.677     7.677   0.3% |
   Communicate from 2D:             14.037    14.037   0.5% |
   Communicate to 1D:                3.067     3.067   0.1% |
   Communicate to 2D:               15.922    15.922   0.5% |
   FFT 1D:                          13.892    13.892   0.5% |
   FFT 2D:                          15.245    15.245   0.5% |
  XC 3D grid:                     1315.026   344.882  11.9% |----|
   VdW-DF integral:                970.144    11.255   0.4% |
    Convolution:                   158.089   158.089   5.5% |-|
    FFT:                            54.210    54.210   1.9% ||
    gather:                        308.020   308.020  10.6% |---|
    hmm1:                           41.480    41.480   1.4% ||
    hmm2:                           58.261    58.261   2.0% ||
    iFFT:                           57.824    57.824   2.0% ||
    potential:                     281.005     6.732   0.2% |
     collect:                       21.186    21.186   0.7% |
     p1:                           136.011   136.011   4.7% |-|
     p2:                            74.656    74.656   2.6% ||
     sum:                           42.420    42.420   1.5% ||
    splines:                         0.001     0.001   0.0% |
  vbar:                              1.288     1.288   0.0% |
 Orthonormalize:                     0.891     0.000   0.0% |
  calc_s_matrix:                     0.097     0.097   0.0% |
  inverse-cholesky:                  0.421     0.421   0.0% |
  projections:                       0.000     0.000   0.0% |
  rotate_psi_s:                      0.372     0.372   0.0% |
Set symmetry:                        0.006     0.006   0.0% |
Other:                             161.997   161.997   5.6% |-|
-----------------------------------------------------------
Total:                                      2897.013 100.0%

Memory usage: 1.43 GiB
Date: Tue Mar 14 22:28:43 2023
