
  ___ ___ ___ _ _ _  
 |   |   |_  | | | | 
 | | | | | . | | | | 
 |__ |  _|___|_____|  22.8.0
 |___|_|             

User:   vazumah@r400.ib.bridges2.psc.edu
Date:   Fri Mar 10 10:03:24 2023
Arch:   x86_64
Pid:    67042
CWD:    /jet/home/vazumah/Calcs/LiMEAS/proton_donors/butanol_y/bridge/8.085_1.617/N2_y
Python: 3.11.0
gpaw:   /jet/home/vazumah/.conda/envs/GPAW_mpich/lib/python3.11/site-packages/gpaw
_gpaw:  /jet/home/vazumah/.conda/envs/GPAW_mpich/lib/python3.11/site-packages/
        _gpaw.cpython-311-x86_64-linux-gnu.so
ase:    /jet/home/vazumah/.conda/envs/GPAW_mpich/lib/python3.11/site-packages/ase (version 3.22.1)
numpy:  /jet/home/vazumah/.conda/envs/GPAW_mpich/lib/python3.11/site-packages/numpy (version 1.24.2)
scipy:  /jet/home/vazumah/.conda/envs/GPAW_mpich/lib/python3.11/site-packages/scipy (version 1.10.1)
libxc:  5.2.3
units:  Angstrom and eV
cores: 128
OpenMP: True
OMP_NUM_THREADS: 1

Input parameters:
  h: 0.16
  kpts: {size: [4, 4, 1]}
  occupations: {name: fermi-dirac,
                width: 0.05}
  poissonsolver: {dipolelayer: xy}
  xc: BEEF-vdW

System changes: positions, numbers, cell, pbc, initial_charges, initial_magmoms 

Initialize ...

species:
  Li:
    name: Lithium
    id: 830b4218f175192f93f959cfc0aad614
    Z: 3.0
    valence: 1
    core: 2
    charge: 0.0
    file: /jet/home/vazumah/datasets/gpaw-setups-0.9.20000/Li.PBE.gz
    compensation charges: {type: gauss,
                           rc: 0.33,
                           lmax: 2}
    cutoffs: {filter: 1.91,
              core: 2.55}
    valence states:
      #              energy  rcut
      - 2s(1.00)    -2.874   1.058
      - 2p(0.00)    -1.090   1.058
      -  s          24.337   1.058
  
    # Using partial waves for Li as LCAO basis

  O:
    name: Oxygen
    id: 32ecd46bf208036f09c70b0ec9a88b78
    Z: 8.0
    valence: 6
    core: 2
    charge: 0.0
    file: /jet/home/vazumah/datasets/gpaw-setups-0.9.20000/O.PBE.gz
    compensation charges: {type: gauss,
                           rc: 0.21,
                           lmax: 2}
    cutoffs: {filter: 1.17,
              core: 0.83}
    valence states:
      #              energy  rcut
      - 2s(2.00)   -23.961   0.688
      - 2p(4.00)    -9.029   0.598
      -  s           3.251   0.688
      -  p          18.182   0.598
      -  d           0.000   0.619
  
    # Using partial waves for O as LCAO basis

  C:
    name: Carbon
    id: 4aa54d4b901d75f77cc0ea3eec22967b
    Z: 6.0
    valence: 4
    core: 2
    charge: 0.0
    file: /jet/home/vazumah/datasets/gpaw-setups-0.9.20000/C.PBE.gz
    compensation charges: {type: gauss,
                           rc: 0.20,
                           lmax: 2}
    cutoffs: {filter: 1.14,
              core: 1.14}
    valence states:
      #              energy  rcut
      - 2s(2.00)   -13.751   0.635
      - 2p(2.00)    -5.284   0.635
      -  s          13.461   0.635
      -  p          21.927   0.635
      -  d           0.000   0.635
  
    # Using partial waves for C as LCAO basis

  H:
    name: Hydrogen
    id: d65de229564ff8ea4db303e23b6d1ecf
    Z: 1.0
    valence: 1
    core: 0
    charge: 0.0
    file: /jet/home/vazumah/datasets/gpaw-setups-0.9.20000/H.PBE.gz
    compensation charges: {type: gauss,
                           rc: 0.15,
                           lmax: 2}
    cutoffs: {filter: 0.85,
              core: 0.53}
    valence states:
      #              energy  rcut
      - 1s(1.00)    -6.494   0.476
      -  s          20.717   0.476
      -  p           0.000   0.476
  
    # Using partial waves for H as LCAO basis

  N:
    name: Nitrogen
    id: f7500608b86eaa90eef8b1d9a670dc53
    Z: 7.0
    valence: 5
    core: 2
    charge: 0.0
    file: /jet/home/vazumah/datasets/gpaw-setups-0.9.20000/N.PBE.gz
    compensation charges: {type: gauss,
                           rc: 0.18,
                           lmax: 2}
    cutoffs: {filter: 1.11,
              core: 0.96}
    valence states:
      #              energy  rcut
      - 2s(2.00)   -18.583   0.603
      - 2p(3.00)    -7.089   0.529
      -  s           8.629   0.603
      -  p          20.123   0.529
      -  d           0.000   0.577
  
    # Using partial waves for N as LCAO basis

Reference energy: -16540.070923  # eV

Spin-paired calculation

Convergence criteria:
 Maximum [total energy] change in last 3 cyles: 0.0005 eV / electron
 Maximum integral of absolute [dens]ity change: 0.0001 electrons / valence electron
 Maximum integral of absolute [eigenst]ate change: 4e-08 eV^2 / valence electron
 Maximum number of scf [iter]ations: 333
 (Square brackets indicate name in SCF output, whereas a 'c' in
 the SCF output indicates the quantity has converged.)

Symmetries present (total): 1

  ( 1  0  0)
  ( 0  1  0)
  ( 0  0  1)

16 k-points: 4 x 4 x 1 Monkhorst-Pack grid
8 k-points in the irreducible part of the Brillouin zone
       k-points in crystal coordinates                weights
   0:     0.12500000   -0.37500000    0.00000000          2/16
   1:     0.12500000   -0.12500000    0.00000000          2/16
   2:     0.12500000    0.12500000    0.00000000          2/16
   3:     0.12500000    0.37500000    0.00000000          2/16
   4:     0.37500000   -0.37500000    0.00000000          2/16
   5:     0.37500000   -0.12500000    0.00000000          2/16
   6:     0.37500000    0.12500000    0.00000000          2/16
   7:     0.37500000    0.37500000    0.00000000          2/16

Wave functions: Uniform real-space grid
  Kinetic energy operator: 6*3+1=19 point O(h^6) finite-difference Laplacian
  ScaLapack parameters: grid=1x1, blocksize=None
  Wavefunction extrapolation:
    Improved wavefunction reuse through dual PAW basis 

Occupation numbers: Fermi-Dirac:
  width: 0.0500  # eV
 

Eigensolver
   Davidson(niter=2) 

Densities:
  Coarse grid: 60*60*164 grid
  Fine grid: 120*120*328 grid
  Total Charge: 0.000000 

Density mixing:
  Method: separate
  Backend: pulay
  Linear mixing parameter: 0.05
  old densities: 5
  Damping of long wavelength oscillations: 50 

Hamiltonian:
  XC and Coulomb potentials evaluated on a 120*120*328 grid
  Using the BEEF-vdW Exchange-Correlation functional
  Interpolation: tri-quintic (5. degree polynomial)
  Poisson solver: FastPoissonSolver using
    Stencil: 6*3+1=19 point O(h^6) finite-difference Laplacian
    FFT axes: [0, 1]
    FST axes: [2]

Dipole correction along z-axis 

XC parameters: BEEF-vdW with 2 nearest neighbor stencil

Memory estimate:
  Process memory now: 127.85 MiB
  Calculator: 88.32 MiB
    Density: 22.73 MiB
      Arrays: 7.22 MiB
      Localized functions: 12.76 MiB
      Mixer: 2.75 MiB
    Hamiltonian: 5.73 MiB
      Arrays: 4.72 MiB
      XC: 0.00 MiB
      Poisson: 0.00 MiB
      vbar: 1.01 MiB
    Wavefunctions: 59.86 MiB
      Arrays psit_nG: 28.02 MiB
      Eigensolver: 31.16 MiB
      Projections: 0.02 MiB
      Projectors: 0.67 MiB

Total number of cores used: 128
Parallelization over k-points: 8
Domain decomposition: 2 x 2 x 4

Number of atoms: 53
Number of atomic orbitals: 182
Number of bands in calculation: 51
Number of valence electrons: 78
Bands to converge: occupied

... initialized

Initializing position-dependent things.

Density initialized from atomic densities
Creating initial wave functions:
  51 bands from LCAO basis set

       .-----------------------.  
      /|                       |  
     / |                       |  
    /  |                       |  
   /   |                       |  
  /    |                       |  
 *     |                       |  
 |     |                       |  
 |     |                       |  
 |     |                       |  
 |     |               H       |  
 |     |                 C HH  |  
 |     |              H   C    |  
 |     |               CH H H  |  
 |     |              H  C     |  
 |   Li|     Li      HO   H    |  
 |     |              NN       |  
 | Li  |  LLi     LLi     Li   |  
 |     |                       |  
 Li    |LLi     LLi     Li     |  
 |   Li|     Li      Li        |  
 |    Li  Li  Li  Li  Li  Li   |  
 | Li  |   Li      Li          |  
 |     |Li      Li      Li     |  
 Li    | Li      Li            |  
 |    Li      Li      Li       |  
 |     |                       |  
 |     |                       |  
 |     |                       |  
 |     |                       |  
 |     |                       |  
 |     |                       |  
 |     .-----------------------.  
 |    /                       /   
 |   /                       /    
 |  /                       /     
 | /                       /      
 |/                       /       
 *-----------------------*        

Positions:
   0 Li     1.617037    1.617037   10.000000    ( 0.0000,  0.0000,  0.0000)
   1 Li     4.851111    1.617037   10.000000    ( 0.0000,  0.0000,  0.0000)
   2 Li     8.085185    1.617037   10.000000    ( 0.0000,  0.0000,  0.0000)
   3 Li     1.617037    4.851111   10.000000    ( 0.0000,  0.0000,  0.0000)
   4 Li     4.851111    4.851111   10.000000    ( 0.0000,  0.0000,  0.0000)
   5 Li     8.085185    4.851111   10.000000    ( 0.0000,  0.0000,  0.0000)
   6 Li     1.617037    8.085185   10.000000    ( 0.0000,  0.0000,  0.0000)
   7 Li     4.851111    8.085185   10.000000    ( 0.0000,  0.0000,  0.0000)
   8 Li     8.085185    8.085185   10.000000    ( 0.0000,  0.0000,  0.0000)
   9 Li     0.000000    0.000000   11.617037    ( 0.0000,  0.0000,  0.0000)
  10 Li     3.234074    0.000000   11.617037    ( 0.0000,  0.0000,  0.0000)
  11 Li     6.468148    0.000000   11.617037    ( 0.0000,  0.0000,  0.0000)
  12 Li     0.000000    3.234074   11.617037    ( 0.0000,  0.0000,  0.0000)
  13 Li     3.234074    3.234074   11.617037    ( 0.0000,  0.0000,  0.0000)
  14 Li     6.468148    3.234074   11.617037    ( 0.0000,  0.0000,  0.0000)
  15 Li     0.000000    6.468148   11.617037    ( 0.0000,  0.0000,  0.0000)
  16 Li     3.234074    6.468148   11.617037    ( 0.0000,  0.0000,  0.0000)
  17 Li     6.468148    6.468148   11.617037    ( 0.0000,  0.0000,  0.0000)
  18 Li     1.617038    1.617038   13.469728    ( 0.0000,  0.0000,  0.0000)
  19 Li     4.851111    1.617038   13.469729    ( 0.0000,  0.0000,  0.0000)
  20 Li     8.085184    1.617038   13.469728    ( 0.0000,  0.0000,  0.0000)
  21 Li     1.617038    4.851111   13.469729    ( 0.0000,  0.0000,  0.0000)
  22 Li     4.851111    4.851111   13.469730    ( 0.0000,  0.0000,  0.0000)
  23 Li     8.085184    4.851111   13.469729    ( 0.0000,  0.0000,  0.0000)
  24 Li     1.617038    8.085184   13.469728    ( 0.0000,  0.0000,  0.0000)
  25 Li     4.851111    8.085184   13.469729    ( 0.0000,  0.0000,  0.0000)
  26 Li     8.085184    8.085184   13.469728    ( 0.0000,  0.0000,  0.0000)
  27 Li    -0.000000   -0.000000   15.445939    ( 0.0000,  0.0000,  0.0000)
  28 Li     3.234074    0.000000   15.445939    ( 0.0000,  0.0000,  0.0000)
  29 Li     6.468148    0.000000   15.445939    ( 0.0000,  0.0000,  0.0000)
  30 Li     0.000000    3.234074   15.445939    ( 0.0000,  0.0000,  0.0000)
  31 Li     3.234076    3.234076   15.445938    ( 0.0000,  0.0000,  0.0000)
  32 Li     6.468146    3.234076   15.445938    ( 0.0000,  0.0000,  0.0000)
  33 Li     0.000000    6.468148   15.445939    ( 0.0000,  0.0000,  0.0000)
  34 Li     3.234076    6.468146   15.445938    ( 0.0000,  0.0000,  0.0000)
  35 Li     6.468146    6.468146   15.445938    ( 0.0000,  0.0000,  0.0000)
  36 O      8.085185    1.617037   18.445939    ( 0.0000,  0.0000,  0.0000)
  37 C      8.072844    4.084096   18.481765    ( 0.0000,  0.0000,  0.0000)
  38 C      8.927896    5.353657   18.468355    ( 0.0000,  0.0000,  0.0000)
  39 C      8.895664    2.801520   18.446147    ( 0.0000,  0.0000,  0.0000)
  40 C      8.076911    6.626368   18.452726    ( 0.0000,  0.0000,  0.0000)
  41 H      7.439675    4.069298   19.375259    ( 0.0000,  0.0000,  0.0000)
  42 H      7.402656    4.097413   17.610409    ( 0.0000,  0.0000,  0.0000)
  43 H      9.586972    5.340696   17.592145    ( 0.0000,  0.0000,  0.0000)
  44 H      9.584060    5.358561   19.346325    ( 0.0000,  0.0000,  0.0000)
  45 H      9.561231    2.808074   17.572008    ( 0.0000,  0.0000,  0.0000)
  46 H      9.518979    2.717004   19.340765    ( 0.0000,  0.0000,  0.0000)
  47 H      7.434430    6.653954   17.568683    ( 0.0000,  0.0000,  0.0000)
  48 H      7.426897    6.671685   19.330177    ( 0.0000,  0.0000,  0.0000)
  49 H      8.690636    7.529542   18.446581    ( 0.0000,  0.0000,  0.0000)
  50 H      7.496086    1.666347   17.683760    ( 0.0000,  0.0000,  0.0000)
  51 N      8.085000    1.617000   16.945939    ( 0.0000,  0.0000,  0.0000)
  52 N      8.085000    2.713622   16.945939    ( 0.0000,  0.0000,  0.0000)

Unit cell:
           periodic     x           y           z      points  spacing
  1. axis:    yes    9.702222    0.000000    0.000000    60     0.1617
  2. axis:    yes    0.000000    9.702222    0.000000    60     0.1617
  3. axis:    no     0.000000    0.000000   26.351111   164     0.1607

  Lengths:   9.702222   9.702222  26.351111
  Angles:   90.000000  90.000000  90.000000

Effective grid spacing dv^(1/3) = 0.1614

     iter     time        total  log10-change:
                         energy  eigst   dens
iter:   1 10:03:39  -662.179333
iter:   2 10:03:47   -73.718658  +2.78  +0.02
iter:   3 10:03:54  -142.268251  +3.21  -0.21
iter:   4 10:04:02  -275.883973  +3.01  -0.35
Writing to output.gpw (mode='')

iter:   5 10:04:09  -313.066603  +2.63  -0.41
iter:   6 10:04:16  -355.848674  +2.29  -0.69
iter:   7 10:04:24  -377.496977  +2.03  -0.64
iter:   8 10:04:31  -391.284433  +1.83  -0.57
iter:   9 10:04:44  -405.334235  +1.81  -0.52
Writing to output.gpw (mode='')

iter:  10 10:04:52  -383.258569  +1.35  -0.53
iter:  11 10:04:59  -377.562443  +1.14  -0.57
iter:  12 10:05:07  -392.526841  +1.43  -0.61
iter:  13 10:05:14  -354.192968  +1.47  -0.54
iter:  14 10:05:22  -352.700266  +0.67  -0.68
Writing to output.gpw (mode='')

iter:  15 10:05:29  -352.427728  +0.61  -0.72
iter:  16 10:05:37  -347.876330  +0.74  -0.70
iter:  17 10:05:44  -346.981067  +0.82  -0.86
iter:  18 10:05:51  -346.396622  +0.75  -1.01
iter:  19 10:05:59  -345.937888  +0.11  -1.02
Writing to output.gpw (mode='')

iter:  20 10:06:06  -346.436113  +0.17  -1.09
iter:  21 10:06:14  -345.531291  +0.04  -1.14
iter:  22 10:06:21  -345.457965  -0.59  -1.42
iter:  23 10:06:29  -345.454223  -0.66  -1.46
iter:  24 10:06:36  -345.513090  -0.67  -1.47
Writing to output.gpw (mode='')

iter:  25 10:06:43  -345.533351  -0.93  -1.48
iter:  26 10:06:51  -345.521283c -1.30  -1.53
iter:  27 10:06:58  -345.438231  -1.15  -1.54
iter:  28 10:07:06  -345.461575  -1.55  -1.55
iter:  29 10:07:13  -345.458230c -1.41  -1.53
Writing to output.gpw (mode='')

iter:  30 10:07:21  -345.441418c -1.38  -1.54
iter:  31 10:07:28  -345.459145c -1.49  -1.60
iter:  32 10:07:35  -345.405432  -1.41  -1.61
iter:  33 10:07:43  -345.381677  -0.97  -1.68
iter:  34 10:07:50  -345.386422c -1.34  -1.74
Writing to output.gpw (mode='')

iter:  35 10:07:58  -345.382323c -1.37  -1.75
iter:  36 10:08:05  -345.367452c -1.48  -1.90
iter:  37 10:08:13  -345.360544c -1.97  -2.05
iter:  38 10:08:20  -345.359048c -2.06  -2.20
iter:  39 10:08:28  -345.362789c -1.95  -2.31
Writing to output.gpw (mode='')

iter:  40 10:08:35  -345.362216c -2.34  -2.29
iter:  41 10:08:43  -345.361902c -2.27  -2.34
iter:  42 10:08:50  -345.362941c -2.76  -2.41
iter:  43 10:08:58  -345.361466c -2.58  -2.46
iter:  44 10:09:05  -345.361484c -2.98  -2.64
Writing to output.gpw (mode='')

iter:  45 10:09:13  -345.361388c -2.83  -2.67
iter:  46 10:09:20  -345.361653c -3.31  -2.80
iter:  47 10:09:28  -345.361818c -3.03  -2.87
iter:  48 10:09:40  -345.361825c -3.69  -2.96
iter:  49 10:09:50  -345.361736c -3.57  -3.06
Writing to output.gpw (mode='')

iter:  50 10:09:57  -345.361808c -3.55  -3.20
iter:  51 10:10:04  -345.361835c -3.84  -3.54
iter:  52 10:10:12  -345.361847c -4.17  -3.56
iter:  53 10:10:19  -345.361851c -4.15  -3.67
iter:  54 10:10:27  -345.361879c -4.34  -3.71
Writing to output.gpw (mode='')

iter:  55 10:10:34  -345.361894c -4.16  -3.87
iter:  56 10:10:42  -345.361910c -4.13  -3.94
iter:  57 10:10:49  -345.361913c -4.52  -3.99
iter:  58 10:10:57  -345.361920c -4.79  -4.26c
iter:  59 10:11:04  -345.361924c -4.80  -4.31c
Writing to output.gpw (mode='')

iter:  60 10:11:11  -345.361930c -4.88  -4.44c
iter:  61 10:11:19  -345.361933c -4.69  -4.48c
iter:  62 10:11:26  -345.361935c -4.88  -4.51c
iter:  63 10:11:34  -345.361937c -4.77  -4.55c
iter:  64 10:11:41  -345.361938c -5.00  -4.64c
Writing to output.gpw (mode='')

iter:  65 10:11:49  -345.361940c -5.16  -4.67c
iter:  66 10:11:56  -345.361942c -5.34  -4.66c
iter:  67 10:12:03  -345.361943c -5.34  -4.59c
iter:  68 10:12:11  -345.361944c -5.19  -4.60c
iter:  69 10:12:18  -345.361945c -5.25  -4.59c
Writing to output.gpw (mode='')

iter:  70 10:12:26  -345.361946c -5.57  -4.54c
iter:  71 10:12:33  -345.361946c -5.58  -4.54c
iter:  72 10:12:40  -345.361945c -5.78  -4.54c
iter:  73 10:12:48  -345.361944c -5.76  -4.51c
iter:  74 10:12:55  -345.361945c -5.91  -4.56c
Writing to output.gpw (mode='')

iter:  75 10:13:03  -345.361946c -5.96  -4.85c
iter:  76 10:13:10  -345.361947c -5.90  -4.95c
iter:  77 10:13:18  -345.361947c -6.12  -5.00c
iter:  78 10:13:25  -345.361946c -6.03  -5.05c
iter:  79 10:13:33  -345.361947c -6.11  -5.09c
Writing to output.gpw (mode='')

iter:  80 10:13:40  -345.361947c -6.31  -5.25c
iter:  81 10:13:48  -345.361947c -6.25  -5.26c
iter:  82 10:13:55  -345.361947c -6.42  -5.28c
iter:  83 10:14:02  -345.361947c -6.35  -5.34c
iter:  84 10:14:10  -345.361947c -6.34  -5.44c
Writing to output.gpw (mode='')

iter:  85 10:14:17  -345.361947c -6.55  -5.47c
iter:  86 10:14:25  -345.361947c -6.39  -5.49c
iter:  87 10:14:32  -345.361947c -6.54  -5.53c
iter:  88 10:14:45  -345.361947c -6.74  -5.70c
iter:  89 10:14:53  -345.361947c -6.74  -5.73c
Writing to output.gpw (mode='')

iter:  90 10:15:00  -345.361947c -6.67  -5.78c
iter:  91 10:15:08  -345.361947c -6.91  -5.93c
iter:  92 10:15:15  -345.361947c -6.90  -6.07c
iter:  93 10:15:22  -345.361947c -6.92  -6.06c
iter:  94 10:15:30  -345.361947c -6.92  -6.08c
Writing to output.gpw (mode='')

iter:  95 10:15:37  -345.361947c -7.02  -6.06c
iter:  96 10:15:45  -345.361947c -7.00  -5.82c
iter:  97 10:15:52  -345.361947c -7.03  -5.93c
iter:  98 10:16:00  -345.361947c -7.15  -6.05c
iter:  99 10:16:07  -345.361947c -7.21  -6.08c
Writing to output.gpw (mode='')

iter: 100 10:16:15  -345.361947c -7.27  -6.14c
iter: 101 10:16:22  -345.361947c -7.32  -6.19c
iter: 102 10:16:30  -345.361947c -7.15  -6.10c
iter: 103 10:16:37  -345.361947c -7.45c -6.04c

Converged after 103 iterations.

Dipole moment: (10.626122, -2.606978, 0.065268) |e|*Ang

Energy contributions relative to reference atoms: (reference = -16540.070923)

Kinetic:       +252.753460
Potential:     -222.212408
External:        +0.000000
XC:            -376.649523
Entropy (-ST):   -0.171705
Local:           +0.832376
--------------------------
Free energy:   -345.447800
Extrapolated:  -345.361947

Dipole-layer corrected work functions: 3.403419, 3.277952 eV

Showing only first 2 kpts
 Kpt  Band  Eigenvalues  Occupancy
  0    37     -3.57422    1.98144
  0    38     -3.50289    1.92492
  0    39     -3.26904    0.38529
  0    40     -3.10625    0.01823

  1    37     -3.37782    1.35518
  1    38     -3.32896    0.88327
  1    39     -3.29437    0.56739
  1    40     -3.25435    0.30203


Fermi level: -3.34069

No gap
Writing to output.gpw (mode='')


Forces in eV/Ang:
  0 Li    0.01524    0.00050   -0.27657
  1 Li   -0.01997    0.00372   -0.27468
  2 Li    0.00296   -0.00368   -0.28376
  3 Li    0.01160    0.00125   -0.27399
  4 Li   -0.00896    0.00538   -0.28222
  5 Li   -0.00225    0.01552   -0.27456
  6 Li    0.00607   -0.00203   -0.27884
  7 Li   -0.00306   -0.00544   -0.27496
  8 Li   -0.00021   -0.01236   -0.26578
  9 Li   -0.00103   -0.00467    0.29104
 10 Li   -0.00503    0.01521    0.25318
 11 Li    0.00755   -0.00306    0.29107
 12 Li   -0.01043   -0.00145    0.31512
 13 Li    0.00072   -0.00532    0.22969
 14 Li    0.01183   -0.00645    0.32063
 15 Li   -0.00429    0.01102    0.24703
 16 Li    0.00181   -0.01228    0.26137
 17 Li   -0.00294    0.00669    0.24572
 18 Li   -0.00996    0.01714    0.04436
 19 Li    0.00782    0.00543    0.03310
 20 Li    0.00431   -0.02320   -0.21672
 21 Li   -0.03347   -0.02214    0.06252
 22 Li    0.03102   -0.02802    0.06244
 23 Li    0.00437    0.05444   -0.07800
 24 Li   -0.01468    0.00063    0.04270
 25 Li    0.01594    0.02175    0.06508
 26 Li   -0.00133   -0.01675    0.01979
 27 Li   -0.00721   -0.01166    0.08837
 28 Li   -0.00422    0.01749   -0.00101
 29 Li    0.03111   -0.01547    0.02128
 30 Li   -0.17606   -0.02503   -0.11158
 31 Li    0.00401   -0.00904   -0.01862
 32 Li    0.21128    0.07825    0.02637
 33 Li    0.06390    0.04333   -0.13184
 34 Li    0.00775   -0.00570   -0.01656
 35 Li   -0.09751    0.04537   -0.14896
 36 O     5.23860   -4.51733   17.46597
 37 C     0.04895    2.36939    2.08318
 38 C    -0.12951    0.10929    0.47213
 39 C     1.46917    2.34021    4.38976
 40 C     0.13528   -0.07089    0.25380
 41 H     0.06143    0.03098    0.24325
 42 H    -0.14041    1.09058    1.27628
 43 H     0.10869   -0.07437   -0.08655
 44 H     0.09396    0.08946   -0.02946
 45 H     1.55420    0.19430    1.50897
 46 H    -0.10526   -0.20760    0.89034
 47 H    -0.04581    0.03538   -0.03038
 48 H    -0.03032   -0.00203   -0.00020
 49 H     0.00687    0.03623   -0.03616
 50 H   -11.14873   -1.48549    5.67294
 51 N     4.17685  -13.34026  -17.48086
 52 N    -1.32125   13.20992  -16.28942

System changes: positions 

Initializing position-dependent things.

Density initialized from wave functions
       .-----------------------.  
      /|                       |  
     / |                       |  
    /  |                       |  
   /   |                       |  
  /    |                       |  
 *     |                       |  
 |     |                       |  
 |     |                       |  
 |     |                       |  
 |     |               H       |  
 |     |                 C HH  |  
 |     |              H   C    |  
 |     |               CH H H  Li 
 |     |              H  C     |  
 |   Li|     Li      HO   H    |  
 |     |              NN       |  
 |     |  LLi     LLi     LLi  |  
 |     |                       |  
 |     |LLi     Li      Li     |  
 |   Li|     Li      Li        |  
 |    Li  Li  Li  Li  Li  Li   |  
 | Li  |   Li      Li          |  
 |     |Li      Li      Li     |  
 Li    | Li      Li            |  
 |    Li      Li      Li       |  
 |     |                       |  
 |     |                       |  
 |     |                       |  
 |     |                       |  
 |     |                       |  
 |     |                       |  
 |     .-----------------------.  
 |    /                       /   
 |   /                       /    
 |  /                       /     
 | /                       /      
 |/                       /       
 *-----------------------*        

Positions:
   0 Li     1.617037    1.617037   10.000000    ( 0.0000,  0.0000,  0.0000)
   1 Li     4.851111    1.617037   10.000000    ( 0.0000,  0.0000,  0.0000)
   2 Li     8.085185    1.617037   10.000000    ( 0.0000,  0.0000,  0.0000)
   3 Li     1.617037    4.851111   10.000000    ( 0.0000,  0.0000,  0.0000)
   4 Li     4.851111    4.851111   10.000000    ( 0.0000,  0.0000,  0.0000)
   5 Li     8.085185    4.851111   10.000000    ( 0.0000,  0.0000,  0.0000)
   6 Li     1.617037    8.085185   10.000000    ( 0.0000,  0.0000,  0.0000)
   7 Li     4.851111    8.085185   10.000000    ( 0.0000,  0.0000,  0.0000)
   8 Li     8.085185    8.085185   10.000000    ( 0.0000,  0.0000,  0.0000)
   9 Li     0.000000    0.000000   11.617037    ( 0.0000,  0.0000,  0.0000)
  10 Li     3.234074    0.000000   11.617037    ( 0.0000,  0.0000,  0.0000)
  11 Li     6.468148    0.000000   11.617037    ( 0.0000,  0.0000,  0.0000)
  12 Li     0.000000    3.234074   11.617037    ( 0.0000,  0.0000,  0.0000)
  13 Li     3.234074    3.234074   11.617037    ( 0.0000,  0.0000,  0.0000)
  14 Li     6.468148    3.234074   11.617037    ( 0.0000,  0.0000,  0.0000)
  15 Li     0.000000    6.468148   11.617037    ( 0.0000,  0.0000,  0.0000)
  16 Li     3.234074    6.468148   11.617037    ( 0.0000,  0.0000,  0.0000)
  17 Li     6.468148    6.468148   11.617037    ( 0.0000,  0.0000,  0.0000)
  18 Li     1.617020    1.617069   13.469807    ( 0.0000,  0.0000,  0.0000)
  19 Li     4.851125    1.617048   13.469789    ( 0.0000,  0.0000,  0.0000)
  20 Li     8.085192    1.616997   13.469341    ( 0.0000,  0.0000,  0.0000)
  21 Li     1.616979    4.851071   13.469841    ( 0.0000,  0.0000,  0.0000)
  22 Li     4.851166    4.851061   13.469842    ( 0.0000,  0.0000,  0.0000)
  23 Li     8.085191    4.851208   13.469590    ( 0.0000,  0.0000,  0.0000)
  24 Li     1.617012    8.085185   13.469804    ( 0.0000,  0.0000,  0.0000)
  25 Li     4.851139    8.085222   13.469846    ( 0.0000,  0.0000,  0.0000)
  26 Li     8.085182    8.085154   13.469763    ( 0.0000,  0.0000,  0.0000)
  27 Li    -0.000013   -0.000021   15.446097    ( 0.0000,  0.0000,  0.0000)
  28 Li     3.234066    0.000031   15.445937    ( 0.0000,  0.0000,  0.0000)
  29 Li     6.468204   -0.000028   15.445977    ( 0.0000,  0.0000,  0.0000)
  30 Li    -0.000315    3.234029   15.445739    ( 0.0000,  0.0000,  0.0000)
  31 Li     3.234084    3.234060   15.445905    ( 0.0000,  0.0000,  0.0000)
  32 Li     6.468523    3.234216   15.445985    ( 0.0000,  0.0000,  0.0000)
  33 Li     0.000114    6.468226   15.445703    ( 0.0000,  0.0000,  0.0000)
  34 Li     3.234090    6.468135   15.445908    ( 0.0000,  0.0000,  0.0000)
  35 Li     6.467971    6.468227   15.445672    ( 0.0000,  0.0000,  0.0000)
  36 O      8.094547    1.608964   18.477153    ( 0.0000,  0.0000,  0.0000)
  37 C      8.072932    4.088330   18.485488    ( 0.0000,  0.0000,  0.0000)
  38 C      8.927665    5.353853   18.469198    ( 0.0000,  0.0000,  0.0000)
  39 C      8.898290    2.805702   18.453991    ( 0.0000,  0.0000,  0.0000)
  40 C      8.077152    6.626241   18.453179    ( 0.0000,  0.0000,  0.0000)
  41 H      7.439785    4.069353   19.375693    ( 0.0000,  0.0000,  0.0000)
  42 H      7.402406    4.099362   17.612690    ( 0.0000,  0.0000,  0.0000)
  43 H      9.587166    5.340563   17.591990    ( 0.0000,  0.0000,  0.0000)
  44 H      9.584228    5.358720   19.346272    ( 0.0000,  0.0000,  0.0000)
  45 H      9.564008    2.808421   17.574704    ( 0.0000,  0.0000,  0.0000)
  46 H      9.518791    2.716633   19.342356    ( 0.0000,  0.0000,  0.0000)
  47 H      7.434348    6.654017   17.568628    ( 0.0000,  0.0000,  0.0000)
  48 H      7.426843    6.671681   19.330177    ( 0.0000,  0.0000,  0.0000)
  49 H      8.690648    7.529607   18.446516    ( 0.0000,  0.0000,  0.0000)
  50 H      7.476162    1.663693   17.693898    ( 0.0000,  0.0000,  0.0000)
  51 N      8.092464    1.593160   16.914700    ( 0.0000,  0.0000,  0.0000)
  52 N      8.082639    2.737229   16.916829    ( 0.0000,  0.0000,  0.0000)

Unit cell:
           periodic     x           y           z      points  spacing
  1. axis:    yes    9.702222    0.000000    0.000000    60     0.1617
  2. axis:    yes    0.000000    9.702222    0.000000    60     0.1617
  3. axis:    no     0.000000    0.000000   26.351111   164     0.1607

  Lengths:   9.702222   9.702222  26.351111
  Angles:   90.000000  90.000000  90.000000

Effective grid spacing dv^(1/3) = 0.1614

     iter     time        total  log10-change:
                         energy  eigst   dens
iter:   1 10:16:46  -349.198168  -0.34
iter:   2 10:16:54  -348.131185  -0.51  -1.36
iter:   3 10:17:01  -347.855754  -0.66  -1.35
iter:   4 10:17:09  -348.040853  -0.65  -1.59
Writing to output.gpw (mode='')

iter:   5 10:17:17  -347.739880  -1.22  -1.62
iter:   6 10:17:26  -348.281835  -0.53  -1.96
iter:   7 10:17:33  -347.698443  -1.17  -1.51
iter:   8 10:17:41  -347.719446  -1.19  -2.06
iter:   9 10:17:48  -347.731013c -1.56  -1.99
Writing to output.gpw (mode='')

iter:  10 10:17:56  -347.690571  -2.29  -1.95
iter:  11 10:18:03  -347.696694  -1.90  -2.28
iter:  12 10:18:13  -347.687640c -2.50  -2.07
iter:  13 10:18:25  -347.685701c -2.76  -2.34
iter:  14 10:18:37  -347.685214c -2.32  -2.50
Writing to output.gpw (mode='')

iter:  15 10:18:44  -347.685381c -2.88  -2.60
iter:  16 10:18:52  -347.685201c -3.35  -2.81
iter:  17 10:18:59  -347.685068c -3.70  -2.93
iter:  18 10:19:07  -347.684918c -3.20  -2.98
iter:  19 10:19:14  -347.684991c -3.68  -3.06
Writing to output.gpw (mode='')

iter:  20 10:19:22  -347.684978c -4.12  -3.23
iter:  21 10:19:29  -347.684962c -4.03  -3.34
iter:  22 10:19:41  -347.685042c -4.18  -3.48
iter:  23 10:19:50  -347.685010c -4.64  -3.57
iter:  24 10:19:58  -347.685020c -4.68  -3.70
Writing to output.gpw (mode='')

iter:  25 10:20:06  -347.685002c -4.68  -3.62
iter:  26 10:20:13  -347.685013c -4.76  -3.83
iter:  27 10:20:21  -347.685003c -4.88  -3.94
iter:  28 10:20:28  -347.685007c -5.13  -3.99
iter:  29 10:20:36  -347.685023c -5.17  -3.99
Writing to output.gpw (mode='')

iter:  30 10:20:43  -347.685006c -5.22  -4.08c
iter:  31 10:20:51  -347.685024c -5.39  -4.07c
iter:  32 10:20:58  -347.685020c -5.46  -4.26c
iter:  33 10:21:06  -347.685018c -5.65  -4.41c
iter:  34 10:21:13  -347.685018c -5.71  -4.51c
Writing to output.gpw (mode='')

iter:  35 10:21:21  -347.685019c -5.64  -4.60c
iter:  36 10:21:28  -347.685016c -5.91  -4.70c
iter:  37 10:21:36  -347.685017c -6.05  -4.70c
iter:  38 10:21:43  -347.685019c -6.21  -4.85c
iter:  39 10:21:51  -347.685020c -6.25  -4.93c
Writing to output.gpw (mode='')

iter:  40 10:21:58  -347.685020c -6.15  -5.00c
iter:  41 10:22:06  -347.685020c -6.42  -5.05c
iter:  42 10:22:13  -347.685020c -6.61  -5.10c
iter:  43 10:22:21  -347.685020c -6.89  -5.20c
iter:  44 10:22:28  -347.685020c -6.78  -5.26c
Writing to output.gpw (mode='')

iter:  45 10:22:36  -347.685020c -6.82  -5.33c
iter:  46 10:22:43  -347.685020c -7.22  -5.62c
iter:  47 10:22:51  -347.685020c -7.14  -5.60c
iter:  48 10:22:58  -347.685020c -7.26  -5.66c
iter:  49 10:23:06  -347.685020c -7.15  -5.69c
Writing to output.gpw (mode='')

iter:  50 10:23:13  -347.685020c -7.21  -5.73c
iter:  51 10:23:21  -347.685020c -7.40c -5.77c

Converged after 51 iterations.

Dipole moment: (10.423131, -2.481428, 0.017101) |e|*Ang

Energy contributions relative to reference atoms: (reference = -16540.070923)

Kinetic:       +238.014082
Potential:     -212.254441
External:        +0.000000
XC:            -374.192262
Entropy (-ST):   -0.175175
Local:           +0.835188
--------------------------
Free energy:   -347.772608
Extrapolated:  -347.685020

Dipole-layer corrected work functions: 3.406031, 3.373157 eV

Showing only first 2 kpts
 Kpt  Band  Eigenvalues  Occupancy
  0    37     -3.61458    1.97802
  0    38     -3.54436    1.91339
  0    39     -3.33443    0.49828
  0    40     -3.14618    0.01526

  1    37     -3.43172    1.39800
  1    38     -3.37473    0.85245
  1    39     -3.33354    0.49162
  1    40     -3.29848    0.27833


Fermi level: -3.38959

No gap
Writing to output.gpw (mode='')


Forces in eV/Ang:
  0 Li    0.01603    0.00053   -0.27783
  1 Li   -0.02072    0.00378   -0.27614
  2 Li    0.00292   -0.00292   -0.28454
  3 Li    0.01322    0.00210   -0.27496
  4 Li   -0.01082    0.00590   -0.28353
  5 Li   -0.00211    0.01404   -0.27487
  6 Li    0.00793   -0.00235   -0.27966
  7 Li   -0.00513   -0.00556   -0.27544
  8 Li   -0.00000   -0.01165   -0.26602
  9 Li   -0.00193   -0.00243    0.29523
 10 Li   -0.00541    0.01338    0.25045
 11 Li    0.00856   -0.00085    0.29557
 12 Li   -0.00986   -0.00188    0.31756
 13 Li    0.00086   -0.00480    0.22815
 14 Li    0.01124   -0.00706    0.32376
 15 Li   -0.00523    0.00978    0.24854
 16 Li    0.00184   -0.01160    0.25972
 17 Li   -0.00206    0.00535    0.24722
 18 Li   -0.00281    0.01595    0.03455
 19 Li    0.00000    0.00465    0.02285
 20 Li    0.00466   -0.01991   -0.20486
 21 Li   -0.03238   -0.02336    0.05971
 22 Li    0.03064   -0.02900    0.06108
 23 Li    0.00442    0.05624   -0.08560
 24 Li   -0.01720    0.00174    0.04438
 25 Li    0.01853    0.02347    0.06607
 26 Li   -0.00095   -0.02027    0.01195
 27 Li   -0.03987    0.02328    0.13746
 28 Li   -0.00387    0.01241   -0.00662
 29 Li    0.06409    0.01986    0.06797
 30 Li   -0.21463   -0.05831   -0.04197
 31 Li    0.00539   -0.00434   -0.02577
 32 Li    0.25041    0.04348    0.08844
 33 Li    0.06582    0.03999   -0.12294
 34 Li    0.00751   -0.00481   -0.01764
 35 Li   -0.09948    0.04653   -0.14216
 36 O     4.14067   -2.99331   13.75111
 37 C     0.01691    2.10560    1.88242
 38 C    -0.09290    0.14278    0.44567
 39 C     1.11428    1.63524    3.93723
 40 C     0.13765   -0.04725    0.23384
 41 H     0.01686    0.05077    0.31590
 42 H    -0.10553    1.05315    1.32259
 43 H     0.09295   -0.07968   -0.06385
 44 H     0.10807    0.10202   -0.01473
 45 H     1.29787    0.16335    1.55070
 46 H     0.02656   -0.08325    0.97434
 47 H    -0.04207    0.03093   -0.02274
 48 H    -0.03089    0.00069    0.00060
 49 H     0.00296    0.04139   -0.03085
 50 H    -7.78706   -1.35903    4.50834
 51 N     2.41172   -7.62131  -14.08481
 52 N    -1.37300    6.73194  -14.62112

System changes: positions 

Initializing position-dependent things.

Density initialized from wave functions
       .-----------------------.  
      /|                       |  
     / |                       |  
    /  |                       |  
   /   |                       |  
  /    |                       |  
 *     |                       |  
 |     |                       |  
 |     |                       |  
 |     |                       |  
 |     |               H       |  
 |     |                 C HH  |  
 |     |              H   C    |  
 |     |                C H H  |  
 |     |              H  C     |  
 |   Li|     Li     HLO   H    |  
 |     |               N       |  
 |     |  LLi     LLi N   LLi  |  
 |     |                       |  
 |     |LLi     LLi     LLi    |  
 |   Li|     Li      Li        |  
 |    Li  Li  Li  Li  Li  Li   |  
 | Li  |   Li      Li          |  
 |     |Li      Li      Li     |  
 Li    | Li      Li            |  
 |    Li      Li      Li       |  
 |     |                       |  
 |     |                       |  
 |     |                       |  
 |     |                       |  
 |     |                       |  
 |     |                       |  
 |     .-----------------------.  
 |    /                       /   
 |   /                       /    
 |  /                       /     
 | /                       /      
 |/                       /       
 *-----------------------*        

Positions:
   0 Li     1.617037    1.617037   10.000000    ( 0.0000,  0.0000,  0.0000)
   1 Li     4.851111    1.617037   10.000000    ( 0.0000,  0.0000,  0.0000)
   2 Li     8.085185    1.617037   10.000000    ( 0.0000,  0.0000,  0.0000)
   3 Li     1.617037    4.851111   10.000000    ( 0.0000,  0.0000,  0.0000)
   4 Li     4.851111    4.851111   10.000000    ( 0.0000,  0.0000,  0.0000)
   5 Li     8.085185    4.851111   10.000000    ( 0.0000,  0.0000,  0.0000)
   6 Li     1.617037    8.085185   10.000000    ( 0.0000,  0.0000,  0.0000)
   7 Li     4.851111    8.085185   10.000000    ( 0.0000,  0.0000,  0.0000)
   8 Li     8.085185    8.085185   10.000000    ( 0.0000,  0.0000,  0.0000)
   9 Li     0.000000    0.000000   11.617037    ( 0.0000,  0.0000,  0.0000)
  10 Li     3.234074    0.000000   11.617037    ( 0.0000,  0.0000,  0.0000)
  11 Li     6.468148    0.000000   11.617037    ( 0.0000,  0.0000,  0.0000)
  12 Li     0.000000    3.234074   11.617037    ( 0.0000,  0.0000,  0.0000)
  13 Li     3.234074    3.234074   11.617037    ( 0.0000,  0.0000,  0.0000)
  14 Li     6.468148    3.234074   11.617037    ( 0.0000,  0.0000,  0.0000)
  15 Li     0.000000    6.468148   11.617037    ( 0.0000,  0.0000,  0.0000)
  16 Li     3.234074    6.468148   11.617037    ( 0.0000,  0.0000,  0.0000)
  17 Li     6.468148    6.468148   11.617037    ( 0.0000,  0.0000,  0.0000)
  18 Li     1.617043    1.617114   13.469873    ( 0.0000,  0.0000,  0.0000)
  19 Li     4.851090    1.617059   13.469815    ( 0.0000,  0.0000,  0.0000)
  20 Li     8.085208    1.616948   13.468743    ( 0.0000,  0.0000,  0.0000)
  21 Li     1.616881    4.850992   13.470018    ( 0.0000,  0.0000,  0.0000)
  22 Li     4.851262    4.850964   13.470030    ( 0.0000,  0.0000,  0.0000)
  23 Li     8.085206    4.851395   13.469284    ( 0.0000,  0.0000,  0.0000)
  24 Li     1.616946    8.085196   13.469953    ( 0.0000,  0.0000,  0.0000)
  25 Li     4.851210    8.085305   13.470060    ( 0.0000,  0.0000,  0.0000)
  26 Li     8.085180    8.085074   13.469766    ( 0.0000,  0.0000,  0.0000)
  27 Li    -0.000286    0.000210   15.446754    ( 0.0000,  0.0000,  0.0000)
  28 Li     3.234055    0.000048   15.445891    ( 0.0000,  0.0000,  0.0000)
  29 Li     6.468555    0.000194   15.446402    ( 0.0000,  0.0000,  0.0000)
  30 Li    -0.001170    3.233694   15.445918    ( 0.0000,  0.0000,  0.0000)
  31 Li     3.234107    3.234068   15.445791    ( 0.0000,  0.0000,  0.0000)
  32 Li     6.469495    3.234199   15.446545    ( 0.0000,  0.0000,  0.0000)
  33 Li     0.000332    6.468338   15.445352    ( 0.0000,  0.0000,  0.0000)
  34 Li     3.234113    6.468124   15.445848    ( 0.0000,  0.0000,  0.0000)
  35 Li     6.467646    6.468380   15.445251    ( 0.0000,  0.0000,  0.0000)
  36 O      8.102785    1.606283   18.504203    ( 0.0000,  0.0000,  0.0000)
  37 C      8.072842    4.093840   18.490571    ( 0.0000,  0.0000,  0.0000)
  38 C      8.927534    5.354457   18.470496    ( 0.0000,  0.0000,  0.0000)
  39 C      8.900240    2.807739   18.464477    ( 0.0000,  0.0000,  0.0000)
  40 C      8.077600    6.626197   18.453833    ( 0.0000,  0.0000,  0.0000)
  41 H      7.439639    4.069603   19.377023    ( 0.0000,  0.0000,  0.0000)
  42 H      7.402226    4.102541   17.617101    ( 0.0000,  0.0000,  0.0000)
  43 H      9.587391    5.340286   17.591889    ( 0.0000,  0.0000,  0.0000)
  44 H      9.584635    5.359101   19.346291    ( 0.0000,  0.0000,  0.0000)
  45 H      9.566984    2.808802   17.579820    ( 0.0000,  0.0000,  0.0000)
  46 H      9.519466    2.716926   19.345830    ( 0.0000,  0.0000,  0.0000)
  47 H      7.434231    6.654096   17.568590    ( 0.0000,  0.0000,  0.0000)
  48 H      7.426742    6.671696   19.330182    ( 0.0000,  0.0000,  0.0000)
  49 H      8.690640    7.529762   18.446442    ( 0.0000,  0.0000,  0.0000)
  50 H      7.466484    1.659940   17.703006    ( 0.0000,  0.0000,  0.0000)
  51 N      8.092215    1.594578   16.885159    ( 0.0000,  0.0000,  0.0000)
  52 N      8.078043    2.729580   16.877837    ( 0.0000,  0.0000,  0.0000)

Unit cell:
           periodic     x           y           z      points  spacing
  1. axis:    yes    9.702222    0.000000    0.000000    60     0.1617
  2. axis:    yes    0.000000    9.702222    0.000000    60     0.1617
  3. axis:    no     0.000000    0.000000   26.351111   164     0.1607

  Lengths:   9.702222   9.702222  26.351111
  Angles:   90.000000  90.000000  90.000000

Effective grid spacing dv^(1/3) = 0.1614

     iter     time        total  log10-change:
                         energy  eigst   dens
iter:   1 10:23:30  -349.267117  -0.69
iter:   2 10:23:38  -349.278598  -0.86  -1.73
iter:   3 10:23:45  -349.198810  -1.40  -1.62
iter:   4 10:23:53  -349.197355  -1.63  -1.99
Writing to output.gpw (mode='')

iter:   5 10:24:00  -349.201028c -1.74  -2.01
iter:   6 10:24:08  -349.196754c -1.85  -1.97
iter:   7 10:24:15  -349.155366  -1.84  -1.88
iter:   8 10:24:23  -349.145264  -1.81  -2.21
iter:   9 10:24:30  -349.145368c -2.38  -2.57
Writing to output.gpw (mode='')

iter:  10 10:24:45  -349.144281c -2.64  -2.61
iter:  11 10:24:52  -349.144520c -2.84  -2.76
iter:  12 10:25:00  -349.144757c -2.53  -2.75
iter:  13 10:25:07  -349.144441c -3.27  -2.77
iter:  14 10:25:15  -349.145740c -2.71  -2.90
Writing to output.gpw (mode='')

iter:  15 10:25:22  -349.145938c -3.15  -2.73
iter:  16 10:25:30  -349.145092c -3.64  -2.72
iter:  17 10:25:37  -349.144546c -2.68  -2.76
iter:  18 10:25:44  -349.144387c -3.59  -3.00
iter:  19 10:25:52  -349.144629c -3.09  -3.03
Writing to output.gpw (mode='')

iter:  20 10:26:00  -349.144438c -3.53  -3.13
iter:  21 10:26:07  -349.144323c -3.65  -3.12
iter:  22 10:26:14  -349.144390c -4.27  -3.12
iter:  23 10:26:22  -349.144285c -3.83  -3.41
iter:  24 10:26:29  -349.144284c -4.15  -3.72
Writing to output.gpw (mode='')

iter:  25 10:26:37  -349.144284c -4.64  -3.77
iter:  26 10:26:44  -349.144286c -4.81  -3.87
iter:  27 10:26:52  -349.144286c -4.38  -3.92
iter:  28 10:26:59  -349.144290c -5.19  -4.04c
iter:  29 10:27:07  -349.144286c -5.48  -4.10c
Writing to output.gpw (mode='')

iter:  30 10:27:14  -349.144286c -5.82  -4.21c
iter:  31 10:27:22  -349.144282c -5.71  -4.28c
iter:  32 10:27:29  -349.144282c -5.91  -4.43c
iter:  33 10:27:37  -349.144284c -6.08  -4.49c
iter:  34 10:27:44  -349.144286c -6.47  -4.53c
Writing to output.gpw (mode='')

iter:  35 10:27:52  -349.144286c -6.54  -4.60c
iter:  36 10:27:59  -349.144285c -6.58  -4.59c
iter:  37 10:28:07  -349.144283c -6.47  -4.73c
iter:  38 10:28:14  -349.144285c -6.89  -4.67c
iter:  39 10:28:22  -349.144285c -7.16  -4.72c
Writing to output.gpw (mode='')

iter:  40 10:28:29  -349.144285c -7.27  -4.97c
iter:  41 10:28:37  -349.144283c -7.17  -5.06c
iter:  42 10:28:44  -349.144284c -7.58c -5.27c

Converged after 42 iterations.

Dipole moment: (10.355788, -2.455115, 0.019936) |e|*Ang

Energy contributions relative to reference atoms: (reference = -16540.070923)

Kinetic:       +233.004254
Potential:     -209.555636
External:        +0.000000
XC:            -373.342457
Entropy (-ST):   -0.175665
Local:           +0.837389
--------------------------
Free energy:   -349.232116
Extrapolated:  -349.144284

Dipole-layer corrected work functions: 3.407044, 3.368720 eV

Showing only first 2 kpts
 Kpt  Band  Eigenvalues  Occupancy
  0    37     -3.61426    1.97862
  0    38     -3.53904    1.90723
  0    39     -3.33437    0.51072
  0    40     -3.14483    0.01536

  1    37     -3.42567    1.36090
  1    38     -3.37388    0.86092
  1    39     -3.33152    0.48937
  1    40     -3.29979    0.29311


Fermi level: -3.38788

No gap
Writing to output.gpw (mode='')


Forces in eV/Ang:
  0 Li    0.01731    0.00056   -0.27827
  1 Li   -0.02212    0.00410   -0.27650
  2 Li    0.00283   -0.00307   -0.28467
  3 Li    0.01289    0.00195   -0.27481
  4 Li   -0.01043    0.00564   -0.28369
  5 Li   -0.00205    0.01499   -0.27471
  6 Li    0.00771   -0.00148   -0.27997
  7 Li   -0.00504   -0.00465   -0.27572
  8 Li    0.00021   -0.01254   -0.26633
  9 Li   -0.00212   -0.00157    0.29524
 10 Li   -0.00526    0.01266    0.24932
 11 Li    0.00853   -0.00033    0.29573
 12 Li   -0.00990   -0.00215    0.31798
 13 Li    0.00084   -0.00473    0.22741
 14 Li    0.01146   -0.00737    0.32513
 15 Li   -0.00600    0.01044    0.24745
 16 Li    0.00138   -0.01219    0.26070
 17 Li   -0.00109    0.00534    0.24693
 18 Li   -0.00225    0.01492    0.03441
 19 Li   -0.00022    0.00455    0.02385
 20 Li    0.00534   -0.02243   -0.21030
 21 Li   -0.03357   -0.02441    0.06028
 22 Li    0.03184   -0.03027    0.06275
 23 Li    0.00463    0.05602   -0.08268
 24 Li   -0.01755    0.00160    0.04533
 25 Li    0.01912    0.02385    0.06539
 26 Li   -0.00081   -0.01876    0.01263
 27 Li   -0.03334    0.01325    0.13025
 28 Li   -0.00281    0.01345   -0.00689
 29 Li    0.05931    0.01067    0.06133
 30 Li   -0.17294   -0.05665   -0.05725
 31 Li    0.00687   -0.00500   -0.02694
 32 Li    0.21907    0.05238    0.06217
 33 Li    0.06373    0.03739   -0.12435
 34 Li    0.00788   -0.00426   -0.01722
 35 Li   -0.09803    0.04496   -0.14307
 36 O     3.26258   -2.05505   11.53682
 37 C    -0.01686    1.61072    1.51497
 38 C    -0.04238    0.18276    0.38112
 39 C     0.88707    1.14478    3.62583
 40 C     0.11393   -0.02152    0.20795
 41 H    -0.03195    0.07222    0.36542
 42 H    -0.05233    0.94794    1.27458
 43 H     0.06633   -0.08375   -0.02475
 44 H     0.12010    0.10618    0.00359
 45 H     1.02343    0.16025    1.59273
 46 H     0.14307    0.04678    0.97684
 47 H    -0.02380    0.02675   -0.00199
 48 H    -0.03250    0.00413    0.00657
 49 H     0.00377    0.04272   -0.02581
 50 H    -5.57446   -1.51952    4.47577
 51 N     1.37550   -7.49084  -12.42210
 52 N    -1.23150    6.63531  -13.27370

System changes: positions 

Initializing position-dependent things.

Density initialized from wave functions
       .-----------------------.  
      /|                       |  
     / |                       |  
    /  |                       |  
   /   |                       |  
  /    |                       |  
 *     |                       |  
 |     |                       |  
 |     |                       |  
 |     |                       |  
 |     |               H       |  
 |     |                 C HH  |  
 |     |              H   C    |  
 |     |                C H H  |  
 |     |              H  C     |  
 |   Li|     Li      HO   H    |  
 |     |               N       |  
 |     |  LLi     LLi N   LLi  |  
 |     |                       |  
 |     |LLi     LLi     LLi    |  
 |   Li|     Li      Li        |  
 |    Li  Li  Li  Li  Li  Li   |  
 | Li  |   Li      Li          |  
 |     |Li      Li      Li     |  
 Li    | Li      Li            |  
 |    Li      Li      Li       |  
 |     |                       |  
 |     |                       |  
 |     |                       |  
 |     |                       |  
 |     |                       |  
 |     |                       |  
 |     .-----------------------.  
 |    /                       /   
 |   /                       /    
 |  /                       /     
 | /                       /      
 |/                       /       
 *-----------------------*        

Positions:
   0 Li     1.617037    1.617037   10.000000    ( 0.0000,  0.0000,  0.0000)
   1 Li     4.851111    1.617037   10.000000    ( 0.0000,  0.0000,  0.0000)
   2 Li     8.085185    1.617037   10.000000    ( 0.0000,  0.0000,  0.0000)
   3 Li     1.617037    4.851111   10.000000    ( 0.0000,  0.0000,  0.0000)
   4 Li     4.851111    4.851111   10.000000    ( 0.0000,  0.0000,  0.0000)
   5 Li     8.085185    4.851111   10.000000    ( 0.0000,  0.0000,  0.0000)
   6 Li     1.617037    8.085185   10.000000    ( 0.0000,  0.0000,  0.0000)
   7 Li     4.851111    8.085185   10.000000    ( 0.0000,  0.0000,  0.0000)
   8 Li     8.085185    8.085185   10.000000    ( 0.0000,  0.0000,  0.0000)
   9 Li     0.000000    0.000000   11.617037    ( 0.0000,  0.0000,  0.0000)
  10 Li     3.234074    0.000000   11.617037    ( 0.0000,  0.0000,  0.0000)
  11 Li     6.468148    0.000000   11.617037    ( 0.0000,  0.0000,  0.0000)
  12 Li     0.000000    3.234074   11.617037    ( 0.0000,  0.0000,  0.0000)
  13 Li     3.234074    3.234074   11.617037    ( 0.0000,  0.0000,  0.0000)
  14 Li     6.468148    3.234074   11.617037    ( 0.0000,  0.0000,  0.0000)
  15 Li     0.000000    6.468148   11.617037    ( 0.0000,  0.0000,  0.0000)
  16 Li     3.234074    6.468148   11.617037    ( 0.0000,  0.0000,  0.0000)
  17 Li     6.468148    6.468148   11.617037    ( 0.0000,  0.0000,  0.0000)
  18 Li     1.617067    1.617165   13.469974    ( 0.0000,  0.0000,  0.0000)
  19 Li     4.851055    1.617074   13.469878    ( 0.0000,  0.0000,  0.0000)
  20 Li     8.085236    1.616853   13.467886    ( 0.0000,  0.0000,  0.0000)
  21 Li     1.616738    4.850879   13.470260    ( 0.0000,  0.0000,  0.0000)
  22 Li     4.851400    4.850827   13.470295    ( 0.0000,  0.0000,  0.0000)
  23 Li     8.085226    4.851634   13.468927    ( 0.0000,  0.0000,  0.0000)
  24 Li     1.616860    8.085206   13.470154    ( 0.0000,  0.0000,  0.0000)
  25 Li     4.851304    8.085413   13.470331    ( 0.0000,  0.0000,  0.0000)
  26 Li     8.085179    8.084991   13.469790    ( 0.0000,  0.0000,  0.0000)
  27 Li    -0.000520    0.000349   15.447455    ( 0.0000,  0.0000,  0.0000)
  28 Li     3.234052    0.000089   15.445837    ( 0.0000,  0.0000,  0.0000)
  29 Li     6.468910    0.000329   15.446811    ( 0.0000,  0.0000,  0.0000)
  30 Li    -0.001790    3.233331   15.445877    ( 0.0000,  0.0000,  0.0000)
  31 Li     3.234150    3.234062   15.445642    ( 0.0000,  0.0000,  0.0000)
  32 Li     6.470373    3.234326   15.446899    ( 0.0000,  0.0000,  0.0000)
  33 Li     0.000591    6.468463   15.444865    ( 0.0000,  0.0000,  0.0000)
  34 Li     3.234147    6.468114   15.445774    ( 0.0000,  0.0000,  0.0000)
  35 Li     6.467240    6.468561   15.444680    ( 0.0000,  0.0000,  0.0000)
  36 O      8.106299    1.609931   18.522837    ( 0.0000,  0.0000,  0.0000)
  37 C      8.072429    4.096359   18.493744    ( 0.0000,  0.0000,  0.0000)
  38 C      8.927823    5.355602   18.471567    ( 0.0000,  0.0000,  0.0000)
  39 C      8.901032    2.806508   18.475699    ( 0.0000,  0.0000,  0.0000)
  40 C      8.077936    6.626366   18.454452    ( 0.0000,  0.0000,  0.0000)
  41 H      7.439018    4.070118   19.379149    ( 0.0000,  0.0000,  0.0000)
  42 H      7.402484    4.105666   17.622284    ( 0.0000,  0.0000,  0.0000)
  43 H      9.587435    5.339892   17.592123    ( 0.0000,  0.0000,  0.0000)
  44 H      9.585266    5.359620   19.346481    ( 0.0000,  0.0000,  0.0000)
  45 H      9.568461    2.809318   17.586861    ( 0.0000,  0.0000,  0.0000)
  46 H      9.521331    2.718444   19.350248    ( 0.0000,  0.0000,  0.0000)
  47 H      7.434261    6.654162   17.568742    ( 0.0000,  0.0000,  0.0000)
  48 H      7.426595    6.671746   19.330250    ( 0.0000,  0.0000,  0.0000)
  49 H      8.690644    7.529969   18.446388    ( 0.0000,  0.0000,  0.0000)
  50 H      7.471094    1.653174   17.716501    ( 0.0000,  0.0000,  0.0000)
  51 N      8.084136    1.588219   16.858111    ( 0.0000,  0.0000,  0.0000)
  52 N      8.073593    2.729428   16.838085    ( 0.0000,  0.0000,  0.0000)

Unit cell:
           periodic     x           y           z      points  spacing
  1. axis:    yes    9.702222    0.000000    0.000000    60     0.1617
  2. axis:    yes    0.000000    9.702222    0.000000    60     0.1617
  3. axis:    no     0.000000    0.000000   26.351111   164     0.1607

  Lengths:   9.702222   9.702222  26.351111
  Angles:   90.000000  90.000000  90.000000

Effective grid spacing dv^(1/3) = 0.1614

     iter     time        total  log10-change:
                         energy  eigst   dens
iter:   1 10:28:53  -350.356851  -0.93
iter:   2 10:29:01  -350.377708  -1.32  -1.96
iter:   3 10:29:08  -350.349047c -1.81  -1.87
iter:   4 10:29:16  -350.350943c -2.02  -2.30
Writing to output.gpw (mode='')

iter:   5 10:29:23  -350.348465c -1.97  -2.29
iter:   6 10:29:31  -350.339657c -2.00  -2.26
iter:   7 10:29:43  -350.339449c -2.65  -2.49
iter:   8 10:29:51  -350.338960c -2.55  -2.53
iter:   9 10:29:59  -350.338269c -2.69  -2.59
Writing to output.gpw (mode='')

iter:  10 10:30:06  -350.338643c -2.42  -2.67
iter:  11 10:30:14  -350.337553c -2.92  -2.75
iter:  12 10:30:21  -350.337913c -3.17  -2.75
iter:  13 10:30:29  -350.338535c -3.06  -2.58
iter:  14 10:30:36  -350.337325c -3.07  -2.72
Writing to output.gpw (mode='')

iter:  15 10:30:44  -350.337279c -3.51  -2.93
iter:  16 10:30:51  -350.337313c -4.29  -3.25
iter:  17 10:30:59  -350.337411c -3.80  -3.35
iter:  18 10:31:06  -350.337317c -4.29  -3.42
iter:  19 10:31:14  -350.337337c -4.93  -3.62
Writing to output.gpw (mode='')

iter:  20 10:31:21  -350.337324c -4.57  -3.65
iter:  21 10:31:29  -350.337338c -5.03  -3.78
iter:  22 10:31:36  -350.337331c -5.01  -3.87
iter:  23 10:31:44  -350.337345c -5.14  -3.98
iter:  24 10:31:51  -350.337336c -5.25  -3.92
Writing to output.gpw (mode='')

iter:  25 10:31:59  -350.337322c -5.20  -4.15c
iter:  26 10:32:06  -350.337326c -5.70  -4.29c
iter:  27 10:32:14  -350.337326c -5.69  -4.34c
iter:  28 10:32:21  -350.337332c -5.72  -4.45c
iter:  29 10:32:29  -350.337328c -6.09  -4.53c
Writing to output.gpw (mode='')

iter:  30 10:32:36  -350.337328c -6.29  -4.64c
iter:  31 10:32:44  -350.337328c -6.34  -4.69c
iter:  32 10:32:51  -350.337327c -6.50  -4.72c
iter:  33 10:32:59  -350.337326c -6.40  -4.76c
iter:  34 10:33:06  -350.337328c -6.86  -4.88c
Writing to output.gpw (mode='')

iter:  35 10:33:14  -350.337327c -6.82  -4.92c
iter:  36 10:33:24  -350.337327c -7.10  -5.00c
iter:  37 10:33:32  -350.337326c -6.84  -5.15c
iter:  38 10:33:39  -350.337327c -7.29  -5.12c
iter:  39 10:33:46  -350.337327c -7.18  -5.19c
Writing to output.gpw (mode='')

iter:  40 10:33:54  -350.337327c -7.47c -5.25c

Converged after 40 iterations.

Dipole moment: (10.269335, -2.424473, 0.015762) |e|*Ang

Energy contributions relative to reference atoms: (reference = -16540.070923)

Kinetic:       +228.158244
Potential:     -206.625065
External:        +0.000000
XC:            -372.620970
Entropy (-ST):   -0.177436
Local:           +0.839181
--------------------------
Free energy:   -350.426045
Extrapolated:  -350.337327

Dipole-layer corrected work functions: 3.407885, 3.377586 eV

Showing only first 2 kpts
 Kpt  Band  Eigenvalues  Occupancy
  0    37     -3.61702    1.97771
  0    38     -3.53710    1.89443
  0    39     -3.34572    0.56170
  0    40     -3.14710    0.01460

  1    37     -3.42841    1.34238
  1    38     -3.37794    0.85313
  1    39     -3.33558    0.48352
  1    40     -3.30407    0.29026


Fermi level: -3.39274

No gap

Forces in eV/Ang:
  0 Li    0.01808    0.00063   -0.27914
  1 Li   -0.02297    0.00433   -0.27705
  2 Li    0.00275   -0.00304   -0.28505
  3 Li    0.01320    0.00193   -0.27505
  4 Li   -0.01082    0.00557   -0.28409
  5 Li   -0.00206    0.01483   -0.27482
  6 Li    0.00805   -0.00093   -0.28022
  7 Li   -0.00554   -0.00418   -0.27577
  8 Li    0.00034   -0.01246   -0.26647
  9 Li   -0.00245   -0.00039    0.29623
 10 Li   -0.00545    0.01131    0.24802
 11 Li    0.00885    0.00054    0.29712
 12 Li   -0.00971   -0.00247    0.31864
 13 Li    0.00095   -0.00430    0.22668
 14 Li    0.01131   -0.00771    0.32634
 15 Li   -0.00667    0.01048    0.24772
 16 Li    0.00144   -0.01208    0.26074
 17 Li   -0.00047    0.00498    0.24749
 18 Li    0.00081    0.01361    0.03076
 19 Li   -0.00267    0.00413    0.02113
 20 Li    0.00564   -0.02295   -0.20793
 21 Li   -0.03361   -0.02518    0.05960
 22 Li    0.03230   -0.03107    0.06326
 23 Li    0.00458    0.05629   -0.08404
 24 Li   -0.01797    0.00194    0.04639
 25 Li    0.02001    0.02474    0.06490
 26 Li   -0.00065   -0.01824    0.01183
 27 Li   -0.03520    0.01200    0.13336
 28 Li   -0.00204    0.01230   -0.00880
 29 Li    0.06690    0.01500    0.07275
 30 Li   -0.15143   -0.06061   -0.05093
 31 Li    0.00778   -0.00384   -0.02958
 32 Li    0.20083    0.05009    0.05614
 33 Li    0.06398    0.03728   -0.12308
 34 Li    0.00828   -0.00368   -0.01718
 35 Li   -0.09892    0.04504   -0.14254
 36 O     2.86287   -1.44844   10.22630
 37 C     0.01978    1.30538    1.36673
 38 C    -0.03742    0.15904    0.34245
 39 C     0.64279    0.92112    3.16426
 40 C     0.10178   -0.00437    0.18970
 41 H    -0.05119    0.09027    0.36726
 42 H    -0.04410    0.83623    1.17239
 43 H     0.05721   -0.08154   -0.00676
 44 H     0.12778    0.11090    0.01550
 45 H     0.79584    0.12993    1.55828
 46 H     0.24416    0.10895    1.00259
 47 H    -0.01417    0.02452    0.00945
 48 H    -0.03302    0.00704    0.01087
 49 H     0.00356    0.04965   -0.02201
 50 H    -4.45037   -1.48195    4.22875
 51 N     0.80060   -6.23966  -11.41570
 52 N    -1.02790    5.36075  -12.02831

System changes: positions 

Initializing position-dependent things.

Density initialized from wave functions
       .-----------------------.  
      /|                       |  
     / |                       |  
    /  |                       |  
   /   |                       |  
  /    |                       |  
 *     |                       |  
 |     |                       |  
 |     |                       |  
 |     |                       |  
 |     |               H       |  
 |     |                 C HH  |  
 |     |              H   C    |  
 |     |                C H H  |  
 |     |              O  C     |  
 |   Li|     Li      Hi   H    |  
 |     |               N       |  
 |     |  LLi     LLi N   LLi  |  
 |     |                       |  
 |     |LLi     LLi     LLi    |  
 |   Li|     Li      Li        |  
 |    Li  Li  Li  Li  Li  Li   |  
 | Li  |   Li      Li          |  
 |     |Li      Li      Li     |  
 Li    | Li      Li            |  
 |    Li      Li      Li       |  
 |     |                       |  
 |     |                       |  
 |     |                       |  
 |     |                       |  
 |     |                       |  
 |     |                       |  
 |     .-----------------------.  
 |    /                       /   
 |   /                       /    
 |  /                       /     
 | /                       /      
 |/                       /       
 *-----------------------*        

Positions:
   0 Li     1.617037    1.617037   10.000000    ( 0.0000,  0.0000,  0.0000)
   1 Li     4.851111    1.617037   10.000000    ( 0.0000,  0.0000,  0.0000)
   2 Li     8.085185    1.617037   10.000000    ( 0.0000,  0.0000,  0.0000)
   3 Li     1.617037    4.851111   10.000000    ( 0.0000,  0.0000,  0.0000)
   4 Li     4.851111    4.851111   10.000000    ( 0.0000,  0.0000,  0.0000)
   5 Li     8.085185    4.851111   10.000000    ( 0.0000,  0.0000,  0.0000)
   6 Li     1.617037    8.085185   10.000000    ( 0.0000,  0.0000,  0.0000)
   7 Li     4.851111    8.085185   10.000000    ( 0.0000,  0.0000,  0.0000)
   8 Li     8.085185    8.085185   10.000000    ( 0.0000,  0.0000,  0.0000)
   9 Li     0.000000    0.000000   11.617037    ( 0.0000,  0.0000,  0.0000)
  10 Li     3.234074    0.000000   11.617037    ( 0.0000,  0.0000,  0.0000)
  11 Li     6.468148    0.000000   11.617037    ( 0.0000,  0.0000,  0.0000)
  12 Li     0.000000    3.234074   11.617037    ( 0.0000,  0.0000,  0.0000)
  13 Li     3.234074    3.234074   11.617037    ( 0.0000,  0.0000,  0.0000)
  14 Li     6.468148    3.234074   11.617037    ( 0.0000,  0.0000,  0.0000)
  15 Li     0.000000    6.468148   11.617037    ( 0.0000,  0.0000,  0.0000)
  16 Li     3.234074    6.468148   11.617037    ( 0.0000,  0.0000,  0.0000)
  17 Li     6.468148    6.468148   11.617037    ( 0.0000,  0.0000,  0.0000)
  18 Li     1.617123    1.617215   13.470072    ( 0.0000,  0.0000,  0.0000)
  19 Li     4.850995    1.617089   13.469938    ( 0.0000,  0.0000,  0.0000)
  20 Li     8.085272    1.616726   13.466833    ( 0.0000,  0.0000,  0.0000)
  21 Li     1.616560    4.850732   13.470559    ( 0.0000,  0.0000,  0.0000)
  22 Li     4.851577    4.850649   13.470633    ( 0.0000,  0.0000,  0.0000)
  23 Li     8.085251    4.851933   13.468470    ( 0.0000,  0.0000,  0.0000)
  24 Li     1.616754    8.085222   13.470414    ( 0.0000,  0.0000,  0.0000)
  25 Li     4.851427    8.085557   13.470664    ( 0.0000,  0.0000,  0.0000)
  26 Li     8.085179    8.084897   13.469824    ( 0.0000,  0.0000,  0.0000)
  27 Li    -0.000787    0.000457   15.448291    ( 0.0000,  0.0000,  0.0000)
  28 Li     3.234054    0.000133   15.445756    ( 0.0000,  0.0000,  0.0000)
  29 Li     6.469399    0.000505   15.447396    ( 0.0000,  0.0000,  0.0000)
  30 Li    -0.002297    3.232886   15.445803    ( 0.0000,  0.0000,  0.0000)
  31 Li     3.234211    3.234063   15.445437    ( 0.0000,  0.0000,  0.0000)
  32 Li     6.471221    3.234505   15.447196    ( 0.0000,  0.0000,  0.0000)
  33 Li     0.000921    6.468631   15.444256    ( 0.0000,  0.0000,  0.0000)
  34 Li     3.234195    6.468105   15.445684    ( 0.0000,  0.0000,  0.0000)
  35 Li     6.466720    6.468792   15.443959    ( 0.0000,  0.0000,  0.0000)
  36 O      8.109686    1.617290   18.541515    ( 0.0000,  0.0000,  0.0000)
  37 C      8.072554    4.097121   18.497014    ( 0.0000,  0.0000,  0.0000)
  38 C      8.928057    5.356552   18.472597    ( 0.0000,  0.0000,  0.0000)
  39 C      8.900004    2.804580   18.485220    ( 0.0000,  0.0000,  0.0000)
  40 C      8.078245    6.626698   18.455085    ( 0.0000,  0.0000,  0.0000)
  41 H      7.438189    4.070915   19.381570    ( 0.0000,  0.0000,  0.0000)
  42 H      7.402719    4.108404   17.627422    ( 0.0000,  0.0000,  0.0000)
  43 H      9.587465    5.339447   17.592519    ( 0.0000,  0.0000,  0.0000)
  44 H      9.586104    5.360298   19.346806    ( 0.0000,  0.0000,  0.0000)
  45 H      9.568425    2.809627   17.595037    ( 0.0000,  0.0000,  0.0000)
  46 H      9.524483    2.720618   19.355956    ( 0.0000,  0.0000,  0.0000)
  47 H      7.434377    6.654235   17.569022    ( 0.0000,  0.0000,  0.0000)
  48 H      7.426408    6.671833   19.330377    ( 0.0000,  0.0000,  0.0000)
  49 H      8.690653    7.530308   18.446349    ( 0.0000,  0.0000,  0.0000)
  50 H      7.479785    1.645316   17.732589    ( 0.0000,  0.0000,  0.0000)
  51 N      8.072383    1.584937   16.826750    ( 0.0000,  0.0000,  0.0000)
  52 N      8.070535    2.725727   16.798374    ( 0.0000,  0.0000,  0.0000)

Unit cell:
           periodic     x           y           z      points  spacing
  1. axis:    yes    9.702222    0.000000    0.000000    60     0.1617
  2. axis:    yes    0.000000    9.702222    0.000000    60     0.1617
  3. axis:    no     0.000000    0.000000   26.351111   164     0.1607

  Lengths:   9.702222   9.702222  26.351111
  Angles:   90.000000  90.000000  90.000000

Effective grid spacing dv^(1/3) = 0.1614

     iter     time        total  log10-change:
                         energy  eigst   dens
iter:   1 10:34:03  -351.530169  -0.90
iter:   2 10:34:11  -351.550452  -0.94  -1.70
iter:   3 10:34:18  -351.431240  -1.71  -1.58
iter:   4 10:34:26  -351.429108  -1.97  -2.17
Writing to output.gpw (mode='')

iter:   5 10:34:41  -351.422395c -2.04  -2.22
iter:   6 10:34:50  -351.426328c -2.03  -2.43
iter:   7 10:34:58  -351.416438c -2.17  -2.22
iter:   8 10:35:05  -351.415121c -2.55  -2.69
iter:   9 10:35:13  -351.415427c -2.40  -2.76
Writing to output.gpw (mode='')

iter:  10 10:35:20  -351.415456c -2.70  -2.81
iter:  11 10:35:28  -351.415222c -3.34  -2.95
iter:  12 10:35:35  -351.415578c -3.21  -2.99
iter:  13 10:35:42  -351.415197c -3.46  -2.92
iter:  14 10:35:50  -351.415146c -3.31  -2.93
Writing to output.gpw (mode='')

iter:  15 10:35:58  -351.415222c -3.74  -3.03
iter:  16 10:36:05  -351.415291c -3.78  -3.06
iter:  17 10:36:12  -351.415251c -3.86  -3.35
iter:  18 10:36:20  -351.415239c -4.49  -3.38
iter:  19 10:36:27  -351.415205c -4.38  -3.44
Writing to output.gpw (mode='')

iter:  20 10:36:35  -351.415203c -4.30  -3.69
iter:  21 10:36:42  -351.415203c -4.62  -3.69
iter:  22 10:36:50  -351.415244c -4.61  -3.66
iter:  23 10:36:57  -351.415230c -4.58  -3.76
iter:  24 10:37:05  -351.415242c -5.24  -3.95
Writing to output.gpw (mode='')

iter:  25 10:37:12  -351.415229c -5.14  -3.99
iter:  26 10:37:20  -351.415226c -5.05  -4.00c
iter:  27 10:37:27  -351.415225c -5.37  -4.08c
iter:  28 10:37:35  -351.415226c -5.86  -4.34c
iter:  29 10:37:42  -351.415231c -5.60  -4.39c
Writing to output.gpw (mode='')

iter:  30 10:37:50  -351.415231c -5.97  -4.59c
iter:  31 10:37:57  -351.415230c -5.80  -4.65c
iter:  32 10:38:05  -351.415230c -6.09  -4.75c
iter:  33 10:38:12  -351.415230c -6.11  -4.78c
iter:  34 10:38:20  -351.415231c -6.35  -4.79c
Writing to output.gpw (mode='')

iter:  35 10:38:27  -351.415229c -6.30  -4.90c
iter:  36 10:38:35  -351.415228c -6.70  -4.91c
iter:  37 10:38:42  -351.415230c -6.35  -5.01c
iter:  38 10:38:50  -351.415230c -6.30  -5.09c
iter:  39 10:38:57  -351.415230c -6.90  -5.13c
Writing to output.gpw (mode='')

iter:  40 10:39:05  -351.415230c -6.80  -5.16c
iter:  41 10:39:12  -351.415230c -6.95  -5.14c
iter:  42 10:39:20  -351.415230c -6.91  -5.16c
iter:  43 10:39:27  -351.415230c -7.35  -5.13c
iter:  44 10:39:41  -351.415230c -7.16  -5.12c
Writing to output.gpw (mode='')

iter:  45 10:39:49  -351.415230c -7.55c -5.07c

Converged after 45 iterations.

Dipole moment: (10.202989, -2.405635, 0.014203) |e|*Ang

Energy contributions relative to reference atoms: (reference = -16540.070923)

Kinetic:       +224.650937
Potential:     -204.673660
External:        +0.000000
XC:            -372.143979
Entropy (-ST):   -0.178729
Local:           +0.840836
--------------------------
Free energy:   -351.504594
Extrapolated:  -351.415230

Dipole-layer corrected work functions: 3.408420, 3.381116 eV

Showing only first 2 kpts
 Kpt  Band  Eigenvalues  Occupancy
  0    37     -3.61819    1.97733
  0    38     -3.53317    1.88184
  0    39     -3.35240    0.59993
  0    40     -3.14790    0.01425

  1    37     -3.42741    1.31527
  1    38     -3.37913    0.84493
  1    39     -3.33862    0.49089
  1    40     -3.30726    0.29608


Fermi level: -3.39477

No gap

Forces in eV/Ang:
  0 Li    0.01884    0.00080   -0.27990
  1 Li   -0.02379    0.00468   -0.27739
  2 Li    0.00270   -0.00311   -0.28541
  3 Li    0.01328    0.00178   -0.27518
  4 Li   -0.01098    0.00537   -0.28426
  5 Li   -0.00218    0.01493   -0.27505
  6 Li    0.00812   -0.00035   -0.28040
  7 Li   -0.00576   -0.00376   -0.27576
  8 Li    0.00048   -0.01262   -0.26654
  9 Li   -0.00260    0.00045    0.29640
 10 Li   -0.00587    0.01011    0.24718
 11 Li    0.00907    0.00112    0.29789
 12 Li   -0.00963   -0.00265    0.31905
 13 Li    0.00111   -0.00389    0.22619
 14 Li    0.01133   -0.00797    0.32729
 15 Li   -0.00728    0.01081    0.24793
 16 Li    0.00178   -0.01214    0.26079
 17 Li   -0.00010    0.00489    0.24781
 18 Li    0.00283    0.01237    0.02834
 19 Li   -0.00400    0.00388    0.01998
 20 Li    0.00618   -0.02449   -0.20629
 21 Li   -0.03353   -0.02582    0.05900
 22 Li    0.03277   -0.03175    0.06401
 23 Li    0.00426    0.05588   -0.08410
 24 Li   -0.01782    0.00197    0.04719
 25 Li    0.02055    0.02538    0.06403
 26 Li   -0.00058   -0.01689    0.01203
 27 Li   -0.03214    0.00539    0.12811
 28 Li   -0.00087    0.01187   -0.00978
 29 Li    0.07152    0.01540    0.07827
 30 Li   -0.11493   -0.05745   -0.05783
 31 Li    0.00829   -0.00332   -0.03131
 32 Li    0.16419    0.05526    0.03568
 33 Li    0.06385    0.03788   -0.12238
 34 Li    0.00863   -0.00322   -0.01700
 35 Li   -0.09929    0.04433   -0.14236
 36 O     2.39697   -1.10779    9.01007
 37 C     0.02946    1.09891    1.23160
 38 C    -0.03420    0.12849    0.31359
 39 C     0.51440    0.80025    2.84034
 40 C     0.08966    0.00056    0.17525
 41 H    -0.05771    0.10040    0.35365
 42 H    -0.03725    0.72581    1.06619
 43 H     0.05020   -0.07833    0.00744
 44 H     0.12891    0.11277    0.01946
 45 H     0.64673    0.10076    1.45365
 46 H     0.28901    0.17053    0.93137
 47 H    -0.00728    0.02361    0.01770
 48 H    -0.03289    0.01037    0.01477
 49 H     0.00457    0.05525   -0.01844
 50 H    -3.49131   -1.45414    4.02069
 51 N     0.31773   -5.66064  -10.37427
 52 N    -0.87997    4.85305  -10.89199

System changes: positions 

Initializing position-dependent things.

Density initialized from wave functions
       .-----------------------.  
      /|                       |  
     / |                       |  
    /  |                       |  
   /   |                       |  
  /    |                       |  
 *     |                       |  
 |     |                       |  
 |     |                       |  
 |     |                       |  
 |     |               H       |  
 |     |                 C HH  |  
 |     |              H   C    |  
 |     |                C H H  |  
 |     |              O  C     |  
 |   Li|     Li      Hi   H    |  
 |     |               N       |  
 |     |  LLi     LLi N   LLi  |  
 |     |                       |  
 |     |LLi     LLi     LLi    |  
 |   Li|     Li      Li        |  
 |    Li  Li  Li  Li  Li  Li   |  
 | Li  |   Li      Li          |  
 |     |Li      Li      Li     |  
 Li    | Li      Li            |  
 |    Li      Li      Li       |  
 |     |                       |  
 |     |                       |  
 |     |                       |  
 |     |                       |  
 |     |                       |  
 |     |                       |  
 |     .-----------------------.  
 |    /                       /   
 |   /                       /    
 |  /                       /     
 | /                       /      
 |/                       /       
 *-----------------------*        

Positions:
   0 Li     1.617037    1.617037   10.000000    ( 0.0000,  0.0000,  0.0000)
   1 Li     4.851111    1.617037   10.000000    ( 0.0000,  0.0000,  0.0000)
   2 Li     8.085185    1.617037   10.000000    ( 0.0000,  0.0000,  0.0000)
   3 Li     1.617037    4.851111   10.000000    ( 0.0000,  0.0000,  0.0000)
   4 Li     4.851111    4.851111   10.000000    ( 0.0000,  0.0000,  0.0000)
   5 Li     8.085185    4.851111   10.000000    ( 0.0000,  0.0000,  0.0000)
   6 Li     1.617037    8.085185   10.000000    ( 0.0000,  0.0000,  0.0000)
   7 Li     4.851111    8.085185   10.000000    ( 0.0000,  0.0000,  0.0000)
   8 Li     8.085185    8.085185   10.000000    ( 0.0000,  0.0000,  0.0000)
   9 Li     0.000000    0.000000   11.617037    ( 0.0000,  0.0000,  0.0000)
  10 Li     3.234074    0.000000   11.617037    ( 0.0000,  0.0000,  0.0000)
  11 Li     6.468148    0.000000   11.617037    ( 0.0000,  0.0000,  0.0000)
  12 Li     0.000000    3.234074   11.617037    ( 0.0000,  0.0000,  0.0000)
  13 Li     3.234074    3.234074   11.617037    ( 0.0000,  0.0000,  0.0000)
  14 Li     6.468148    3.234074   11.617037    ( 0.0000,  0.0000,  0.0000)
  15 Li     0.000000    6.468148   11.617037    ( 0.0000,  0.0000,  0.0000)
  16 Li     3.234074    6.468148   11.617037    ( 0.0000,  0.0000,  0.0000)
  17 Li     6.468148    6.468148   11.617037    ( 0.0000,  0.0000,  0.0000)
  18 Li     1.617204    1.617266   13.470175    ( 0.0000,  0.0000,  0.0000)
  19 Li     4.850916    1.617106   13.470008    ( 0.0000,  0.0000,  0.0000)
  20 Li     8.085322    1.616554   13.465570    ( 0.0000,  0.0000,  0.0000)
  21 Li     1.616347    4.850550   13.470916    ( 0.0000,  0.0000,  0.0000)
  22 Li     4.851796    4.850428   13.471051    ( 0.0000,  0.0000,  0.0000)
  23 Li     8.085276    4.852290   13.467917    ( 0.0000,  0.0000,  0.0000)
  24 Li     1.616630    8.085240   13.470736    ( 0.0000,  0.0000,  0.0000)
  25 Li     4.851578    8.085736   13.471059    ( 0.0000,  0.0000,  0.0000)
  26 Li     8.085179    8.084801   13.469875    ( 0.0000,  0.0000,  0.0000)
  27 Li    -0.001049    0.000490   15.449198    ( 0.0000,  0.0000,  0.0000)
  28 Li     3.234070    0.000185   15.445654    ( 0.0000,  0.0000,  0.0000)
  29 Li     6.470025    0.000705   15.448133    ( 0.0000,  0.0000,  0.0000)
  30 Li    -0.002507    3.232427   15.445570    ( 0.0000,  0.0000,  0.0000)
  31 Li     3.234284    3.234067   15.445179    ( 0.0000,  0.0000,  0.0000)
  32 Li     6.471811    3.234814   15.447285    ( 0.0000,  0.0000,  0.0000)
  33 Li     0.001323    6.468855   15.443517    ( 0.0000,  0.0000,  0.0000)
  34 Li     3.234256    6.468098   15.445577    ( 0.0000,  0.0000,  0.0000)
  35 Li     6.466082    6.469064   15.443080    ( 0.0000,  0.0000,  0.0000)
  36 O      8.111195    1.625982   18.558692    ( 0.0000,  0.0000,  0.0000)
  37 C      8.072861    4.097280   18.500488    ( 0.0000,  0.0000,  0.0000)
  38 C      8.928220    5.357202   18.473712    ( 0.0000,  0.0000,  0.0000)
  39 C      8.898392    2.802877   18.494471    ( 0.0000,  0.0000,  0.0000)
  40 C      8.078531    6.627047   18.455774    ( 0.0000,  0.0000,  0.0000)
  41 H      7.437293    4.071916   19.384130    ( 0.0000,  0.0000,  0.0000)
  42 H      7.402923    4.110715   17.632476    ( 0.0000,  0.0000,  0.0000)
  43 H      9.587500    5.338962   17.593045    ( 0.0000,  0.0000,  0.0000)
  44 H      9.587078    5.361117   19.347170    ( 0.0000,  0.0000,  0.0000)
  45 H      9.567705    2.809695   17.603424    ( 0.0000,  0.0000,  0.0000)
  46 H      9.528308    2.723571   19.361723    ( 0.0000,  0.0000,  0.0000)
  47 H      7.434546    6.654330   17.569395    ( 0.0000,  0.0000,  0.0000)
  48 H      7.426189    6.671970   19.330561    ( 0.0000,  0.0000,  0.0000)
  49 H      8.690681    7.530776   18.446327    ( 0.0000,  0.0000,  0.0000)
  50 H      7.493001    1.636330   17.750919    ( 0.0000,  0.0000,  0.0000)
  51 N      8.056651    1.580644   16.794008    ( 0.0000,  0.0000,  0.0000)
  52 N      8.068132    2.723213   16.758526    ( 0.0000,  0.0000,  0.0000)

Unit cell:
           periodic     x           y           z      points  spacing
  1. axis:    yes    9.702222    0.000000    0.000000    60     0.1617
  2. axis:    yes    0.000000    9.702222    0.000000    60     0.1617
  3. axis:    no     0.000000    0.000000   26.351111   164     0.1607

  Lengths:   9.702222   9.702222  26.351111
  Angles:   90.000000  90.000000  90.000000

Effective grid spacing dv^(1/3) = 0.1614

     iter     time        total  log10-change:
                         energy  eigst   dens
iter:   1 10:39:59  -352.507871  -0.92
iter:   2 10:40:06  -352.534031  -0.98  -1.70
iter:   3 10:40:14  -352.410534  -1.82  -1.58
iter:   4 10:40:21  -352.407063  -2.05  -2.23
Writing to output.gpw (mode='')

iter:   5 10:40:29  -352.403991c -2.04  -2.34
iter:   6 10:40:36  -352.405957c -2.16  -2.30
iter:   7 10:40:44  -352.399459c -2.29  -2.30
iter:   8 10:40:51  -352.398444c -2.76  -2.76
iter:   9 10:40:59  -352.398606c -2.65  -2.82
Writing to output.gpw (mode='')

iter:  10 10:41:06  -352.399089c -3.03  -2.86
iter:  11 10:41:14  -352.398634c -3.49  -2.93
iter:  12 10:41:22  -352.398739c -3.73  -3.09
iter:  13 10:41:29  -352.398652c -3.53  -3.08
iter:  14 10:41:37  -352.398787c -3.54  -3.33
Writing to output.gpw (mode='')

iter:  15 10:41:44  -352.398702c -3.92  -3.26
iter:  16 10:41:52  -352.398719c -4.18  -3.43
iter:  17 10:41:59  -352.398710c -4.38  -3.64
iter:  18 10:42:07  -352.398712c -4.38  -3.68
iter:  19 10:42:15  -352.398754c -4.61  -3.81
Writing to output.gpw (mode='')

iter:  20 10:42:22  -352.398751c -4.54  -3.82
iter:  21 10:42:30  -352.398752c -4.45  -3.88
iter:  22 10:42:37  -352.398748c -4.69  -3.92
iter:  23 10:42:45  -352.398750c -4.99  -3.98
iter:  24 10:42:53  -352.398740c -5.31  -3.91
Writing to output.gpw (mode='')

iter:  25 10:43:00  -352.398738c -5.29  -4.13c
iter:  26 10:43:08  -352.398742c -5.16  -4.17c
iter:  27 10:43:15  -352.398742c -5.68  -4.22c
iter:  28 10:43:23  -352.398750c -5.55  -4.19c
iter:  29 10:43:31  -352.398747c -5.73  -4.14c
Writing to output.gpw (mode='')

iter:  30 10:43:38  -352.398746c -5.68  -4.14c
iter:  31 10:43:46  -352.398736c -5.93  -4.13c
iter:  32 10:43:53  -352.398732c -5.66  -4.19c
iter:  33 10:44:01  -352.398727c -5.99  -4.09c
iter:  34 10:44:08  -352.398751c -6.04  -4.08c
Writing to output.gpw (mode='')

iter:  35 10:44:16  -352.398748c -5.88  -4.17c
iter:  36 10:44:24  -352.398747c -6.26  -4.35c
iter:  37 10:44:31  -352.398748c -6.52  -4.43c
iter:  38 10:44:44  -352.398745c -6.39  -4.43c
iter:  39 10:44:51  -352.398742c -6.63  -4.46c
Writing to output.gpw (mode='')

iter:  40 10:44:59  -352.398745c -6.70  -4.54c
iter:  41 10:45:06  -352.398744c -6.40  -4.61c
iter:  42 10:45:14  -352.398745c -6.93  -4.60c
iter:  43 10:45:21  -352.398745c -6.78  -4.79c
iter:  44 10:45:29  -352.398744c -7.08  -5.01c
Writing to output.gpw (mode='')

iter:  45 10:45:37  -352.398744c -7.18  -5.04c
iter:  46 10:45:44  -352.398744c -7.38  -5.28c
iter:  47 10:45:52  -352.398744c -7.46c -5.35c

Converged after 47 iterations.

Dipole moment: (10.131842, -2.388715, 0.011919) |e|*Ang

Energy contributions relative to reference atoms: (reference = -16540.070923)

Kinetic:       +221.419764
Potential:     -202.838246
External:        +0.000000
XC:            -371.733091
Entropy (-ST):   -0.180196
Local:           +0.842926
--------------------------
Free energy:   -352.488842
Extrapolated:  -352.398744

Dipole-layer corrected work functions: 3.408689, 3.385777 eV

Showing only first 2 kpts
 Kpt  Band  Eigenvalues  Occupancy
  0    37     -3.61954    1.97682
  0    38     -3.52904    1.86631
  0    39     -3.36012    0.64502
  0    40     -3.14919    0.01392

  1    37     -3.42722    1.29122
  1    38     -3.38001    0.82943
  1    39     -3.34271    0.50305
  1    40     -3.31140    0.30463


Fermi level: -3.39723

No gap
Writing to output.gpw (mode='')


Forces in eV/Ang:
  0 Li    0.01944    0.00096   -0.28065
  1 Li   -0.02437    0.00493   -0.27770
  2 Li    0.00265   -0.00322   -0.28571
  3 Li    0.01340    0.00162   -0.27541
  4 Li   -0.01124    0.00517   -0.28444
  5 Li   -0.00235    0.01481   -0.27546
  6 Li    0.00823    0.00016   -0.28052
  7 Li   -0.00604   -0.00346   -0.27566
  8 Li    0.00058   -0.01259   -0.26652
  9 Li   -0.00272    0.00121    0.29657
 10 Li   -0.00651    0.00884    0.24652
 11 Li    0.00940    0.00168    0.29875
 12 Li   -0.00961   -0.00287    0.31940
 13 Li    0.00133   -0.00344    0.22589
 14 Li    0.01134   -0.00825    0.32803
 15 Li   -0.00777    0.01113    0.24847
 16 Li    0.00238   -0.01189    0.26061
 17 Li    0.00004    0.00491    0.24827
 18 Li    0.00513    0.01105    0.02548
 19 Li   -0.00557    0.00355    0.01823
 20 Li    0.00662   -0.02566   -0.20162
 21 Li   -0.03309   -0.02628    0.05821
 22 Li    0.03300   -0.03206    0.06443
 23 Li    0.00372    0.05540   -0.08483
 24 Li   -0.01740    0.00218    0.04785
 25 Li    0.02098    0.02617    0.06295
 26 Li   -0.00051   -0.01544    0.01215
 27 Li   -0.03021   -0.00001    0.12273
 28 Li    0.00037    0.01120   -0.01075
 29 Li    0.07938    0.01907    0.08730
 30 Li   -0.07839   -0.05183   -0.06523
 31 Li    0.00823   -0.00266   -0.03294
 32 Li    0.12247    0.05914    0.01523
 33 Li    0.06429    0.03967   -0.12139
 34 Li    0.00888   -0.00288   -0.01691
 35 Li   -0.10006    0.04350   -0.14191
 36 O     2.06783   -0.91610    8.02951
 37 C     0.03547    0.95330    1.11626
 38 C    -0.03085    0.10522    0.29032
 39 C     0.42081    0.75178    2.51166
 40 C     0.08129    0.00332    0.16200
 41 H    -0.06277    0.10994    0.34160
 42 H    -0.03093    0.62115    0.96803
 43 H     0.04323   -0.07559    0.01937
 44 H     0.12845    0.11377    0.02110
 45 H     0.52848    0.06710    1.32991
 46 H     0.31537    0.21151    0.85355
 47 H    -0.00217    0.02272    0.02430
 48 H    -0.03241    0.01355    0.01842
 49 H     0.00449    0.05719   -0.01496
 50 H    -2.79708   -1.38087    3.69869
 51 N    -0.02885   -4.95542   -9.41119
 52 N    -0.62155    4.18820   -9.72671

System changes: positions 

Initializing position-dependent things.

Density initialized from wave functions
       .-----------------------.  
      /|                       |  
     / |                       |  
    /  |                       |  
   /   |                       |  
  /    |                       |  
 *     |                       |  
 |     |                       |  
 |     |                       |  
 |     |                       |  
 |     |               H       |  
 |     |                 C HH  |  
 |     |              H   C    |  
 |     |                C H H  |  
 |     |              O  C     |  
 |   Li|     Li      Hi   H    |  
 |     |               N       |  
 |     |  LLi     LLi N   LLi  |  
 |     |                       |  
 |     |LLi     LLi     LLi    |  
 |   Li|     Li      Li        |  
 |    Li  Li  Li  Li  Li  Li   |  
 | Li  |   Li      Li          |  
 |     |Li      Li      Li     |  
 Li    | Li      Li            |  
 |    Li      Li      Li       |  
 |     |                       |  
 |     |                       |  
 |     |                       |  
 |     |                       |  
 |     |                       |  
 |     |                       |  
 |     .-----------------------.  
[...]

Showing only first 2 kpts
 Kpt  Band  Eigenvalues  Occupancy
  0    37     -3.72410    1.98667
  0    38     -3.50856    1.33327
  0    39     -3.43346    0.61623
  0    40     -3.26229    0.02862

  1    37     -3.70257    1.97956
  1    38     -3.63283    1.92003
  1    39     -3.41323    0.45815
  1    40     -3.21495    0.01120


Fermi level: -3.47391

No gap
Writing to output.gpw (mode='')


Forces in eV/Ang:
  0 Li   -0.00736    0.00927   -0.29097
  1 Li    0.00803   -0.01110   -0.29317
  2 Li    0.00092   -0.00049   -0.25119
  3 Li    0.01295    0.00882   -0.29104
  4 Li   -0.02037    0.01592   -0.28504
  5 Li    0.01191   -0.01094   -0.29272
  6 Li    0.01953   -0.01653   -0.28434
  7 Li   -0.01038   -0.01007   -0.29150
  8 Li   -0.01045    0.01236   -0.28855
  9 Li   -0.02272    0.02619    0.22754
 10 Li   -0.00725    0.00257    0.22880
 11 Li    0.00339    0.02134    0.29548
 12 Li   -0.00990   -0.03839    0.30947
 13 Li    0.01045   -0.02038    0.24958
 14 Li    0.01468   -0.03917    0.25925
 15 Li    0.00329    0.02757    0.27527
 16 Li    0.00204    0.02262    0.23150
 17 Li   -0.00859   -0.00399    0.27457
 18 Li   -0.02272    0.00101    0.01576
 19 Li    0.00074   -0.00164   -0.00199
 20 Li    0.00060    0.00542    0.02601
 21 Li    0.00367    0.01172   -0.00062
 22 Li   -0.00214   -0.00296   -0.00102
 23 Li   -0.01301   -0.00996    0.01232
 24 Li   -0.00517   -0.00599    0.00488
 25 Li    0.01084    0.01523    0.00059
 26 Li    0.00351    0.00406    0.01006
 27 Li    0.02964   -0.00479    0.00380
 28 Li    0.01727    0.00261   -0.00585
 29 Li    0.00179    0.01964    0.01164
 30 Li   -0.03280   -0.01714   -0.01193
 31 Li   -0.00026   -0.00154   -0.01058
 32 Li    0.00883   -0.00106    0.02783
 33 Li   -0.00069   -0.00027    0.00444
 34 Li    0.00005   -0.00623    0.00888
 35 Li    0.00320    0.01740   -0.01076
 36 O    -0.00067   -0.01606    0.03146
 37 C    -0.00896    0.00821    0.02349
 38 C    -0.00482   -0.00731    0.00537
 39 C     0.02235    0.01010    0.00803
 40 C    -0.00784   -0.00197    0.00975
 41 H    -0.04170    0.00456    0.02439
 42 H    -0.00401    0.00955   -0.00227
 43 H     0.00516    0.00523    0.01081
 44 H     0.00273   -0.02374    0.03346
 45 H     0.02135   -0.02213   -0.03158
 46 H     0.00005    0.00378    0.01919
 47 H    -0.01459   -0.00053   -0.00548
 48 H     0.01661   -0.01716    0.01125
 49 H     0.01321    0.00754    0.03565
 50 H     0.00947   -0.01678   -0.02353
 51 N    -0.06836   -0.00688   -0.01366
 52 N     0.01599    0.01093   -0.00580

System changes: positions 

Initializing position-dependent things.

Density initialized from wave functions
       .-----------------------.  
      /|                       |  
     / |                       |  
    /  |                       |  
   /   |                       |  
  /    |                       |  
 *     |                       |  
 |     |                       |  
 |     |                       |  
 |     |                       |  
 |     |                H      |  
 |     |                 C HH  |  
 |     |              HH  H    |  
 |     |       Li      LCC  H  |  
 | H   |              O        |  
 |   Li|     Li      Hi        |  
 |     |                       |  
 | Li  |  LLi     LLi     Li   |  
 |     |             N N       |  
 |     |Li      Li      LLi    |  
 |   Li|     Li      Li        |  
 |    Li  Li  Li  Li  Li  Li   |  
 | Li  |   Li      Li          |  
 |     |Li      Li      Li     |  
 Li    | Li      Li            |  
 |    Li      Li      Li       |  
 |     |                       |  
 |     |                       |  
 |     |                       |  
 |     |                       |  
 |     |                       |  
 |     |                       |  
 |     .-----------------------.  
 |    /                       /   
 |   /                       /    
 |  /                       /     
 | /                       /      
 |/                       /       
 *-----------------------*        

Positions:
   0 Li     1.617037    1.617037   10.000000    ( 0.0000,  0.0000,  0.0000)
   1 Li     4.851111    1.617037   10.000000    ( 0.0000,  0.0000,  0.0000)
   2 Li     8.085185    1.617037   10.000000    ( 0.0000,  0.0000,  0.0000)
   3 Li     1.617037    4.851111   10.000000    ( 0.0000,  0.0000,  0.0000)
   4 Li     4.851111    4.851111   10.000000    ( 0.0000,  0.0000,  0.0000)
   5 Li     8.085185    4.851111   10.000000    ( 0.0000,  0.0000,  0.0000)
   6 Li     1.617037    8.085185   10.000000    ( 0.0000,  0.0000,  0.0000)
   7 Li     4.851111    8.085185   10.000000    ( 0.0000,  0.0000,  0.0000)
   8 Li     8.085185    8.085185   10.000000    ( 0.0000,  0.0000,  0.0000)
   9 Li     0.000000    0.000000   11.617037    ( 0.0000,  0.0000,  0.0000)
  10 Li     3.234074    0.000000   11.617037    ( 0.0000,  0.0000,  0.0000)
  11 Li     6.468148    0.000000   11.617037    ( 0.0000,  0.0000,  0.0000)
  12 Li     0.000000    3.234074   11.617037    ( 0.0000,  0.0000,  0.0000)
  13 Li     3.234074    3.234074   11.617037    ( 0.0000,  0.0000,  0.0000)
  14 Li     6.468148    3.234074   11.617037    ( 0.0000,  0.0000,  0.0000)
  15 Li     0.000000    6.468148   11.617037    ( 0.0000,  0.0000,  0.0000)
  16 Li     3.234074    6.468148   11.617037    ( 0.0000,  0.0000,  0.0000)
  17 Li     6.468148    6.468148   11.617037    ( 0.0000,  0.0000,  0.0000)
  18 Li     1.638769    1.643309   13.469146    ( 0.0000,  0.0000,  0.0000)
  19 Li     4.829913    1.556979   13.479051    ( 0.0000,  0.0000,  0.0000)
  20 Li     8.083062    1.580793   13.509960    ( 0.0000,  0.0000,  0.0000)
  21 Li     1.682177    4.904484   13.440008    ( 0.0000,  0.0000,  0.0000)
  22 Li     4.892652    4.787355   13.451195    ( 0.0000,  0.0000,  0.0000)
  23 Li     8.134857    4.858430   13.439450    ( 0.0000,  0.0000,  0.0000)
  24 Li     1.564667    8.176276   13.464129    ( 0.0000,  0.0000,  0.0000)
  25 Li     4.783372    8.049853   13.468388    ( 0.0000,  0.0000,  0.0000)
  26 Li     8.029566    8.100546   13.462247    ( 0.0000,  0.0000,  0.0000)
  27 Li    -0.271110    0.287291   15.553276    ( 0.0000,  0.0000,  0.0000)
  28 Li     3.051767   -0.067415   15.457426    ( 0.0000,  0.0000,  0.0000)
  29 Li     6.339846   -0.095457   15.442529    ( 0.0000,  0.0000,  0.0000)
  30 Li     0.145363    3.363451   15.326237    ( 0.0000,  0.0000,  0.0000)
  31 Li     3.387144    3.297602   15.421888    ( 0.0000,  0.0000,  0.0000)
  32 Li     6.688708    3.011916   15.377398    ( 0.0000,  0.0000,  0.0000)
  33 Li     0.074094    6.651760   15.336845    ( 0.0000,  0.0000,  0.0000)
  34 Li     3.224327    6.468674   15.399682    ( 0.0000,  0.0000,  0.0000)
  35 Li     6.369738    6.322755   15.344505    ( 0.0000,  0.0000,  0.0000)
  36 O      8.246131    1.627592   18.819487    ( 0.0000,  0.0000,  0.0000)
  37 C      8.118955    4.102028   18.777109    ( 0.0000,  0.0000,  0.0000)
  38 C      8.935175    5.398444   18.723356    ( 0.0000,  0.0000,  0.0000)
  39 C      8.989170    2.849047   18.879171    ( 0.0000,  0.0000,  0.0000)
  40 C      8.068033    6.658602   18.682993    ( 0.0000,  0.0000,  0.0000)
  41 H      7.426806    4.124450   19.624221    ( 0.0000,  0.0000,  0.0000)
  42 H      7.502558    4.034270   17.869584    ( 0.0000,  0.0000,  0.0000)
  43 H      9.585764    5.369395   17.836741    ( 0.0000,  0.0000,  0.0000)
  44 H      9.610488    5.451246   19.584602    ( 0.0000,  0.0000,  0.0000)
  45 H      9.759760    2.865881   18.095594    ( 0.0000,  0.0000,  0.0000)
  46 H      9.508183    2.827360   19.840553    ( 0.0000,  0.0000,  0.0000)
  47 H      7.380795    6.636047   17.829919    ( 0.0000,  0.0000,  0.0000)
  48 H      7.458814    6.758160   19.584728    ( 0.0000,  0.0000,  0.0000)
  49 H      8.672348    7.564490   18.587313    ( 0.0000,  0.0000,  0.0000)
  50 H      7.853807    1.559482   17.938943    ( 0.0000,  0.0000,  0.0000)
  51 N      7.623890    1.215855   15.546843    ( 0.0000,  0.0000,  0.0000)
  52 N      8.519553    2.110622   15.481238    ( 0.0000,  0.0000,  0.0000)

Unit cell:
           periodic     x           y           z      points  spacing
  1. axis:    yes    9.702222    0.000000    0.000000    60     0.1617
  2. axis:    yes    0.000000    9.702222    0.000000    60     0.1617
  3. axis:    no     0.000000    0.000000   26.351111   164     0.1607

  Lengths:   9.702222   9.702222  26.351111
  Angles:   90.000000  90.000000  90.000000

Effective grid spacing dv^(1/3) = 0.1614

     iter     time        total  log10-change:
                         energy  eigst   dens
iter:   1 16:19:30  -360.904436  -2.55
iter:   2 16:19:44  -360.904419  -3.23  -2.67
iter:   3 16:19:52  -360.904111c -3.82  -2.89
iter:   4 16:19:59  -360.904064c -4.23  -3.11
Writing to output.gpw (mode='')

iter:   5 16:20:07  -360.903903c -3.80  -3.18
iter:   6 16:20:14  -360.903875c -3.83  -3.46
iter:   7 16:20:22  -360.903907c -4.41  -3.49
iter:   8 16:20:29  -360.903920c -5.09  -3.59
iter:   9 16:20:37  -360.903941c -4.82  -3.74
Writing to output.gpw (mode='')

iter:  10 16:20:44  -360.903920c -5.64  -3.90
iter:  11 16:20:52  -360.903922c -5.83  -4.05c
iter:  12 16:20:59  -360.903910c -5.83  -4.10c
iter:  13 16:21:07  -360.903917c -5.90  -4.27c
iter:  14 16:21:14  -360.903916c -6.47  -4.47c
Writing to output.gpw (mode='')

iter:  15 16:21:22  -360.903918c -6.68  -4.50c
iter:  16 16:21:29  -360.903921c -6.66  -4.64c
iter:  17 16:21:37  -360.903921c -7.09  -4.80c
iter:  18 16:21:45  -360.903919c -7.00  -4.84c
iter:  19 16:21:52  -360.903919c -7.61c -4.98c

Converged after 19 iterations.

Dipole moment: (6.858287, -2.414752, -0.059083) |e|*Ang

Energy contributions relative to reference atoms: (reference = -16540.070923)

Kinetic:       +184.462450
Potential:     -178.097212
External:        +0.000000
XC:            -368.050893
Entropy (-ST):   -0.161275
Local:           +0.862374
--------------------------
Free energy:   -360.984556
Extrapolated:  -360.903919

Dipole-layer corrected work functions: 3.417813, 3.531391 eV

Showing only first 2 kpts
 Kpt  Band  Eigenvalues  Occupancy
  0    37     -3.72465    1.98663
  0    38     -3.50941    1.33466
  0    39     -3.43406    0.61543
  0    40     -3.26312    0.02870

  1    37     -3.70327    1.97956
  1    38     -3.63384    1.92051
  1    39     -3.41375    0.45690
  1    40     -3.21543    0.01116


Fermi level: -3.47460

No gap
Writing to output.gpw (mode='')


Forces in eV/Ang:
  0 Li   -0.00720    0.00924   -0.29120
  1 Li    0.00805   -0.01118   -0.29318
  2 Li    0.00093   -0.00054   -0.25109
  3 Li    0.01299    0.00880   -0.29094
  4 Li   -0.02027    0.01578   -0.28499
  5 Li    0.01197   -0.01091   -0.29281
  6 Li    0.01940   -0.01651   -0.28426
  7 Li   -0.01034   -0.01009   -0.29152
  8 Li   -0.01046    0.01227   -0.28855
  9 Li   -0.02308    0.02698    0.22840
 10 Li   -0.00730    0.00271    0.22896
 11 Li    0.00394    0.02189    0.29525
 12 Li   -0.01101   -0.03908    0.31057
 13 Li    0.00995   -0.02023    0.25003
 14 Li    0.01465   -0.03899    0.25895
 15 Li    0.00292    0.02791    0.27555
 16 Li    0.00221    0.02330    0.23222
 17 Li   -0.00830   -0.00335    0.27473
 18 Li   -0.02353    0.00137    0.01585
 19 Li    0.00102   -0.00255   -0.00151
 20 Li    0.00085    0.00482    0.01690
 21 Li    0.00434    0.01132   -0.00066
 22 Li   -0.00175   -0.00290   -0.00108
 23 Li   -0.01265   -0.01059    0.01236
 24 Li   -0.00523   -0.00615    0.00396
 25 Li    0.00989    0.01444    0.00106
 26 Li    0.00162    0.00386    0.01043
 27 Li    0.02267    0.00002    0.00240
 28 Li    0.01557    0.00236   -0.00483
 29 Li   -0.00656    0.00996    0.00897
 30 Li   -0.03049   -0.01676   -0.01363
 31 Li   -0.00016   -0.00141   -0.00985
 32 Li    0.01030   -0.00101    0.02733
 33 Li   -0.00049    0.00024    0.00449
 34 Li    0.00004   -0.00548    0.00812
 35 Li    0.00326    0.01649   -0.01033
 36 O    -0.01351   -0.02334    0.02971
 37 C    -0.00823    0.01120    0.01645
 38 C    -0.00956   -0.00650    0.01388
 39 C     0.02498    0.02027    0.01776
 40 C     0.00261    0.00559    0.00972
 41 H    -0.03248    0.00474    0.01560
 42 H    -0.00155    0.00564    0.00416
 43 H    -0.00031    0.00195    0.02033
 44 H     0.00098   -0.02198    0.02417
 45 H     0.02791   -0.01664   -0.02705
 46 H     0.00742    0.01066    0.02031
 47 H    -0.01025    0.00233    0.00278
 48 H     0.00951   -0.02472    0.01025
 49 H     0.01378    0.00359    0.02585
 50 H    -0.00084   -0.02119   -0.02722
 51 N    -0.02956   -0.01367   -0.00206
 52 N     0.02027    0.01243    0.00478

Timing:                                      incl.     excl.
-------------------------------------------------------------------
Density initialized from wave functions:     6.031     6.029   0.0% |
 Symmetrize density:                         0.002     0.002   0.0% |
Forces:                                     41.327    41.327   0.2% |
Hamiltonian:                               489.790     0.011   0.0% |
 Atomic:                                     0.020     0.019   0.0% |
  XC Correction:                             0.000     0.000   0.0% |
 Calculate atomic Hamiltonians:              0.035     0.035   0.0% |
 Communicate:                                5.886     5.886   0.0% |
 Hartree integrate/restrict:                 1.853     1.853   0.0% |
 Initialize Hamiltonian:                     0.001     0.001   0.0% |
 Poisson:                                   23.246     8.459   0.0% |
  Communicate from 1D:                       2.246     2.246   0.0% |
  Communicate from 2D:                       2.424     2.424   0.0% |
  Communicate to 1D:                         1.297     1.297   0.0% |
  Communicate to 2D:                         2.795     2.795   0.0% |
  FFT 1D:                                    3.030     3.030   0.0% |
  FFT 2D:                                    2.994     2.994   0.0% |
 XC 3D grid:                               458.359    69.770   0.3% |
  VdW-DF integral:                         388.589     3.249   0.0% |
   Convolution:                             35.362    35.362   0.2% |
   FFT:                                     15.280    15.280   0.1% |
   gather:                                 137.810   137.810   0.6% |
   hmm1:                                    12.603    12.603   0.1% |
   hmm2:                                    16.594    16.594   0.1% |
   iFFT:                                    15.823    15.823   0.1% |
   potential:                              148.202     4.339   0.0% |
    collect:                                24.776    24.776   0.1% |
    p1:                                     68.081    68.081   0.3% |
    p2:                                     25.470    25.470   0.1% |
    sum:                                    25.535    25.535   0.1% |
   splines:                                  3.666     3.666   0.0% |
 vbar:                                       0.378     0.378   0.0% |
LCAO initialization:                         1.285     0.183   0.0% |
 LCAO eigensolver:                           0.280     0.000   0.0% |
  Calculate projections:                     0.000     0.000   0.0% |
  DenseAtomicCorrection:                     0.000     0.000   0.0% |
  Distribute overlap matrix:                 0.260     0.260   0.0% |
  Orbital Layouts:                           0.017     0.017   0.0% |
  Potential matrix:                          0.001     0.001   0.0% |
  Sum over cells:                            0.001     0.001   0.0% |
 LCAO to grid:                               0.676     0.676   0.0% |
 Set positions (LCAO WFS):                   0.146     0.093   0.0% |
  Basic WFS set positions:                   0.001     0.001   0.0% |
  Basis functions set positions:             0.000     0.000   0.0% |
  P tci:                                     0.000     0.000   0.0% |
  ST tci:                                    0.014     0.014   0.0% |
  mktci:                                     0.037     0.037   0.0% |
Redistribute:                                0.050     0.050   0.0% |
SCF-cycle:                               22049.738   271.285   1.2% |
 Davidson:                                6369.038  1920.878   8.5% |--|
  Apply hamiltonian:                       393.782   393.782   1.7% ||
  Subspace diag:                          1174.708     0.333   0.0% |
   calc_h_matrix:                          582.574   185.574   0.8% |
    Apply hamiltonian:                     397.000   397.000   1.7% ||
   diagonalize:                             69.469    69.469   0.3% |
   rotate_psi:                             522.331   522.331   2.3% ||
  calc. matrices:                         2055.017  1086.504   4.8% |-|
   Apply hamiltonian:                      968.513   968.513   4.3% |-|
  diagonalize:                              20.200    20.200   0.1% |
  rotate_psi:                              804.452   804.452   3.5% ||
 Density:                                  113.627     0.071   0.0% |
  Atomic density matrices:                  13.596    13.596   0.1% |
  Mix:                                      47.021    47.021   0.2% |
  Multipole moments:                         6.164     6.164   0.0% |
  Pseudo density:                           46.774    46.716   0.2% |
   Symmetrize density:                       0.058     0.058   0.0% |
 Hamiltonian:                            15277.343     0.366   0.0% |
  Atomic:                                    0.700     0.692   0.0% |
   XC Correction:                            0.008     0.008   0.0% |
  Calculate atomic Hamiltonians:             1.123     1.123   0.0% |
  Communicate:                             228.459   228.459   1.0% |
  Hartree integrate/restrict:               55.950    55.950   0.2% |
  Poisson:                                 731.042   267.164   1.2% |
   Communicate from 1D:                     72.292    72.292   0.3% |
   Communicate from 2D:                     74.600    74.600   0.3% |
   Communicate to 1D:                       41.070    41.070   0.2% |
   Communicate to 2D:                       87.543    87.543   0.4% |
   FFT 1D:                                  95.218    95.218   0.4% |
   FFT 2D:                                  93.155    93.155   0.4% |
  XC 3D grid:                            14247.267  2159.459   9.5% |---|
   VdW-DF integral:                      12087.807   101.899   0.4% |
    Convolution:                          1108.448  1108.448   4.9% |-|
    FFT:                                   478.095   478.095   2.1% ||
    gather:                               4219.282  4219.282  18.6% |------|
    hmm1:                                  393.828   393.828   1.7% ||
    hmm2:                                  519.457   519.457   2.3% ||
    iFFT:                                  496.649   496.649   2.2% ||
    potential:                            4770.122   136.357   0.6% |
     collect:                              753.818   753.818   3.3% ||
     p1:                                  2126.854  2126.854   9.4% |---|
     p2:                                   795.999   795.999   3.5% ||
     sum:                                  957.095   957.095   4.2% |-|
    splines:                                 0.028     0.028   0.0% |
  vbar:                                     12.436    12.436   0.1% |
 Orthonormalize:                            18.446     0.012   0.0% |
  calc_s_matrix:                             2.658     2.658   0.0% |
  inverse-cholesky:                          5.980     5.980   0.0% |
  projections:                               0.002     0.002   0.0% |
  rotate_psi_s:                              9.793     9.793   0.0% |
Set symmetry:                                0.011     0.011   0.0% |
Other:                                     120.251   120.251   0.5% |
-------------------------------------------------------------------
Total:                                             22708.482 100.0%

Memory usage: 1.14 GiB
Date: Fri Mar 10 16:21:53 2023
