
  ___ ___ ___ _ _ _  
 |   |   |_  | | | | 
 | | | | | . | | | | 
 |__ |  _|___|_____|  22.8.0
 |___|_|             

User:   vazumah@c06.hercules
Date:   Fri Feb 24 17:09:20 2023
Arch:   x86_64
Pid:    10686
CWD:    /home/vazumah/Python_projects/LiNRR/Li_adsorb_studies/proton_donors/N2_with_proton_donor/Li_BCC_100/adsorbates/BH3/bridge/8.085_1.617/N2_y
Python: 3.10.8
gpaw:   /home/vazumah/.conda/envs/GPAW/lib/python3.10/site-packages/gpaw
_gpaw:  /home/vazumah/.conda/envs/GPAW/lib/python3.10/site-packages/
        _gpaw.cpython-310-x86_64-linux-gnu.so
ase:    /home/vazumah/.conda/envs/GPAW/lib/python3.10/site-packages/ase (version 3.22.1)
numpy:  /home/vazumah/.conda/envs/GPAW/lib/python3.10/site-packages/numpy (version 1.24.1)
scipy:  /home/vazumah/.conda/envs/GPAW/lib/python3.10/site-packages/scipy (version 1.10.0)
libxc:  5.2.3
units:  Angstrom and eV
cores: 24
OpenMP: True
OMP_NUM_THREADS: 1

Input parameters:
  h: 0.16
  kpts: {size: [4, 4, 1]}
  occupations: {name: fermi-dirac,
                width: 0.05}
  poissonsolver: {dipolelayer: xy}
  xc: BEEF-vdW

System changes: positions, numbers, cell, pbc, initial_charges, initial_magmoms 

Initialize ...

species:
  Li:
    name: Lithium
    id: 830b4218f175192f93f959cfc0aad614
    Z: 3.0
    valence: 1
    core: 2
    charge: 0.0
    file: /home/vazumah/.conda/envs/GPAW/share/gpaw/Li.PBE.gz
    compensation charges: {type: gauss,
                           rc: 0.33,
                           lmax: 2}
    cutoffs: {filter: 1.91,
              core: 2.55}
    valence states:
      #              energy  rcut
      - 2s(1.00)    -2.874   1.058
      - 2p(0.00)    -1.090   1.058
      -  s          24.337   1.058
  
    # Using partial waves for Li as LCAO basis

  B:
    name: Boron
    id: 6e91439235a05fd7549e31636e8f777c
    Z: 5.0
    valence: 3
    core: 2
    charge: 0.0
    file: /home/vazumah/.conda/envs/GPAW/share/gpaw/B.PBE.gz
    compensation charges: {type: gauss,
                           rc: 0.20,
                           lmax: 2}
    cutoffs: {filter: 1.14,
              core: 1.38}
    valence states:
      #              energy  rcut
      - 2s(2.00)    -9.443   0.635
      - 2p(1.00)    -3.606   0.635
      -  s          17.768   0.635
      -  p          23.605   0.635
      -  d           0.000   0.635
  
    # Using partial waves for B as LCAO basis

  H:
    name: Hydrogen
    id: d65de229564ff8ea4db303e23b6d1ecf
    Z: 1.0
    valence: 1
    core: 0
    charge: 0.0
    file: /home/vazumah/.conda/envs/GPAW/share/gpaw/H.PBE.gz
    compensation charges: {type: gauss,
                           rc: 0.15,
                           lmax: 2}
    cutoffs: {filter: 0.85,
              core: 0.53}
    valence states:
      #              energy  rcut
      - 1s(1.00)    -6.494   0.476
      -  s          20.717   0.476
      -  p           0.000   0.476
  
    # Using partial waves for H as LCAO basis

  N:
    name: Nitrogen
    id: f7500608b86eaa90eef8b1d9a670dc53
    Z: 7.0
    valence: 5
    core: 2
    charge: 0.0
    file: /home/vazumah/.conda/envs/GPAW/share/gpaw/N.PBE.gz
    compensation charges: {type: gauss,
                           rc: 0.18,
                           lmax: 2}
    cutoffs: {filter: 1.11,
              core: 0.96}
    valence states:
      #              energy  rcut
      - 2s(2.00)   -18.583   0.603
      - 2p(3.00)    -7.089   0.529
      -  s           8.629   0.603
      -  p          20.123   0.529
      -  d           0.000   0.577
  
    # Using partial waves for N as LCAO basis

Reference energy: -10970.764591  # eV

Spin-paired calculation

Convergence criteria:
 Maximum [total energy] change in last 3 cyles: 0.0005 eV / electron
 Maximum integral of absolute [dens]ity change: 0.0001 electrons / valence electron
 Maximum integral of absolute [eigenst]ate change: 4e-08 eV^2 / valence electron
 Maximum number of scf [iter]ations: 333
 (Square brackets indicate name in SCF output, whereas a 'c' in
 the SCF output indicates the quantity has converged.)

Symmetries present (total): 1

  ( 1  0  0)
  ( 0  1  0)
  ( 0  0  1)

16 k-points: 4 x 4 x 1 Monkhorst-Pack grid
8 k-points in the irreducible part of the Brillouin zone
       k-points in crystal coordinates                weights
   0:     0.12500000   -0.37500000    0.00000000          2/16
   1:     0.12500000   -0.12500000    0.00000000          2/16
   2:     0.12500000    0.12500000    0.00000000          2/16
   3:     0.12500000    0.37500000    0.00000000          2/16
   4:     0.37500000   -0.37500000    0.00000000          2/16
   5:     0.37500000   -0.12500000    0.00000000          2/16
   6:     0.37500000    0.12500000    0.00000000          2/16
   7:     0.37500000    0.37500000    0.00000000          2/16

Wave functions: Uniform real-space grid
  Kinetic energy operator: 6*3+1=19 point O(h^6) finite-difference Laplacian
  ScaLapack parameters: grid=1x1, blocksize=None
  Wavefunction extrapolation:
    Improved wavefunction reuse through dual PAW basis 

Occupation numbers: Fermi-Dirac:
  width: 0.0500  # eV
 

Eigensolver
   Davidson(niter=2) 

Densities:
  Coarse grid: 60*60*156 grid
  Fine grid: 120*120*312 grid
  Total Charge: 0.000000 

Density mixing:
  Method: separate
  Backend: pulay
  Linear mixing parameter: 0.05
  old densities: 5
  Damping of long wavelength oscillations: 50 

Hamiltonian:
  XC and Coulomb potentials evaluated on a 120*120*312 grid
  Using the BEEF-vdW Exchange-Correlation functional
  Interpolation: tri-quintic (5. degree polynomial)
  Poisson solver: FastPoissonSolver using
    Stencil: 6*3+1=19 point O(h^6) finite-difference Laplacian
    FFT axes: [0, 1]
    FST axes: [2]

Dipole correction along z-axis 

XC parameters: BEEF-vdW with 2 nearest neighbor stencil

Memory estimate:
  Process memory now: 216.28 MiB
  Calculator: 365.21 MiB
    Density: 116.66 MiB
      Arrays: 36.75 MiB
      Localized functions: 65.90 MiB
      Mixer: 14.01 MiB
    Hamiltonian: 29.25 MiB
      Arrays: 24.03 MiB
      XC: 0.00 MiB
      Poisson: 0.00 MiB
      vbar: 5.22 MiB
    Wavefunctions: 219.30 MiB
      Arrays psit_nG: 100.85 MiB
      Eigensolver: 115.06 MiB
      Projections: 0.04 MiB
      Projectors: 3.35 MiB

Total number of cores used: 24
Parallelization over k-points: 8
Domain decomposition: 1 x 1 x 3

Number of atoms: 42
Number of atomic orbitals: 159
Number of bands in calculation: 36
Number of valence electrons: 52
Bands to converge: occupied

... initialized

Initializing position-dependent things.

Density initialized from atomic densities
Creating initial wave functions:
  36 bands from LCAO basis set

       .-----------------------.  
      /|                       |  
     / |                       |  
    /  |                       |  
   /   |                       |  
  /    |                       |  
 *     |                       |  
 |     |                       |  
 |     |                       |  
 |     |            H B  H     |  
 |     |             H         |  
 |     |                       |  
 |     |                       |  
 |     |              N        |  
 |   Li|     Li      Ni        |  
 |     |  Li      Li      Li   |  
 | Li  |   Li      Li          |  
 |     |Li      Li      Li     |  
 Li    | Li      Li            |  
 |   LLi     LLi     LLi       |  
 |     |  Li      Li      Li   |  
 | Li  |   Li      Li          |  
 |     |Li      Li      Li     |  
 Li    | Li      Li            |  
 |    Li      Li      Li       |  
 |     |                       |  
 |     |                       |  
 |     |                       |  
 |     |                       |  
 |     |                       |  
 |     |                       |  
 |     .-----------------------.  
 |    /                       /   
 |   /                       /    
 |  /                       /     
 | /                       /      
 |/                       /       
 *-----------------------*        

Positions:
   0 Li     1.617037    1.617037   10.000000    ( 0.0000,  0.0000,  0.0000)
   1 Li     4.851111    1.617037   10.000000    ( 0.0000,  0.0000,  0.0000)
   2 Li     8.085185    1.617037   10.000000    ( 0.0000,  0.0000,  0.0000)
   3 Li     1.617037    4.851111   10.000000    ( 0.0000,  0.0000,  0.0000)
   4 Li     4.851111    4.851111   10.000000    ( 0.0000,  0.0000,  0.0000)
   5 Li     8.085185    4.851111   10.000000    ( 0.0000,  0.0000,  0.0000)
   6 Li     1.617037    8.085185   10.000000    ( 0.0000,  0.0000,  0.0000)
   7 Li     4.851111    8.085185   10.000000    ( 0.0000,  0.0000,  0.0000)
   8 Li     8.085185    8.085185   10.000000    ( 0.0000,  0.0000,  0.0000)
   9 Li     0.000000    0.000000   11.617037    ( 0.0000,  0.0000,  0.0000)
  10 Li     3.234074    0.000000   11.617037    ( 0.0000,  0.0000,  0.0000)
  11 Li     6.468148    0.000000   11.617037    ( 0.0000,  0.0000,  0.0000)
  12 Li     0.000000    3.234074   11.617037    ( 0.0000,  0.0000,  0.0000)
  13 Li     3.234074    3.234074   11.617037    ( 0.0000,  0.0000,  0.0000)
  14 Li     6.468148    3.234074   11.617037    ( 0.0000,  0.0000,  0.0000)
  15 Li     0.000000    6.468148   11.617037    ( 0.0000,  0.0000,  0.0000)
  16 Li     3.234074    6.468148   11.617037    ( 0.0000,  0.0000,  0.0000)
  17 Li     6.468148    6.468148   11.617037    ( 0.0000,  0.0000,  0.0000)
  18 Li     1.617038    1.617038   13.469728    ( 0.0000,  0.0000,  0.0000)
  19 Li     4.851111    1.617038   13.469729    ( 0.0000,  0.0000,  0.0000)
  20 Li     8.085184    1.617038   13.469728    ( 0.0000,  0.0000,  0.0000)
  21 Li     1.617038    4.851111   13.469729    ( 0.0000,  0.0000,  0.0000)
  22 Li     4.851111    4.851111   13.469730    ( 0.0000,  0.0000,  0.0000)
  23 Li     8.085184    4.851111   13.469729    ( 0.0000,  0.0000,  0.0000)
  24 Li     1.617038    8.085184   13.469728    ( 0.0000,  0.0000,  0.0000)
  25 Li     4.851111    8.085184   13.469729    ( 0.0000,  0.0000,  0.0000)
  26 Li     8.085184    8.085184   13.469728    ( 0.0000,  0.0000,  0.0000)
  27 Li    -0.000000   -0.000000   15.445939    ( 0.0000,  0.0000,  0.0000)
  28 Li     3.234074    0.000000   15.445939    ( 0.0000,  0.0000,  0.0000)
  29 Li     6.468148    0.000000   15.445939    ( 0.0000,  0.0000,  0.0000)
  30 Li     0.000000    3.234074   15.445939    ( 0.0000,  0.0000,  0.0000)
  31 Li     3.234076    3.234076   15.445938    ( 0.0000,  0.0000,  0.0000)
  32 Li     6.468146    3.234076   15.445938    ( 0.0000,  0.0000,  0.0000)
  33 Li     0.000000    6.468148   15.445939    ( 0.0000,  0.0000,  0.0000)
  34 Li     3.234076    6.468146   15.445938    ( 0.0000,  0.0000,  0.0000)
  35 Li     6.468146    6.468146   15.445938    ( 0.0000,  0.0000,  0.0000)
  36 B      8.085185    1.617037   21.445939    ( 0.0000,  0.0000,  0.0000)
  37 H      9.117754    2.209323   21.445939    ( 0.0000,  0.0000,  0.0000)
  38 H      7.055276    2.213996   21.445939    ( 0.0000,  0.0000,  0.0000)
  39 H      8.085271    0.428437   21.445939    ( 0.0000,  0.0000,  0.0000)
  40 N      8.085000    1.617000   18.445939    ( 0.0000,  0.0000,  0.0000)
  41 N      8.085000    0.520378   18.445939    ( 0.0000,  0.0000,  0.0000)

Unit cell:
           periodic     x           y           z      points  spacing
  1. axis:    yes    9.702222    0.000000    0.000000    60     0.1617
  2. axis:    yes    0.000000    9.702222    0.000000    60     0.1617
  3. axis:    no     0.000000    0.000000   24.851111   156     0.1593

  Lengths:   9.702222   9.702222  24.851111
  Angles:   90.000000  90.000000  90.000000

Effective grid spacing dv^(1/3) = 0.1609

     iter     time        total  log10-change:
                         energy  eigst   dens
iter:   1 17:12:32  -375.013476
iter:   2 17:15:00  -122.595757  +2.35  -0.07
iter:   3 17:17:26    -9.168162  +3.22  -0.17
iter:   4 17:19:47   -38.452406  +2.91  -0.13
Writing to output.gpw (mode='')

iter:   5 17:22:13  -148.061987  +3.32  -0.44
iter:   6 17:24:36  -395.397970  +3.50  -0.31
iter:   7 17:27:05  -361.813239  +2.79  -0.17
iter:   8 17:29:30  -338.660841  +2.40  -0.20
iter:   9 17:31:52  -369.510570  +2.16  -0.24
Writing to output.gpw (mode='')

iter:  10 17:34:17  -345.097352  +1.97  -0.19
iter:  11 17:36:47  -292.428482  +1.77  -0.24
iter:  12 17:39:24  -293.427579  +1.44  -0.52
iter:  13 17:41:45  -323.059553  +1.69  -0.49
iter:  14 17:44:07  -258.004837  +1.46  -0.36
Writing to output.gpw (mode='')

iter:  15 17:46:38  -258.076222  +1.04  -0.69
iter:  16 17:49:09  -258.512917  +0.95  -0.71
iter:  17 17:52:01  -259.578722  +0.52  -0.73
iter:  18 17:54:31  -258.313503  +0.29  -0.69
iter:  19 17:57:06  -257.989610  +0.60  -0.73
Writing to output.gpw (mode='')

iter:  20 17:59:34  -255.679372  +0.68  -0.76
iter:  21 18:02:02  -255.539579  +0.40  -0.92
iter:  22 18:04:21  -255.494698  +0.09  -1.00
iter:  23 18:06:55  -255.120746  +0.06  -1.01
iter:  24 18:09:15  -255.171340  -0.37  -1.12
Writing to output.gpw (mode='')

iter:  25 18:11:41  -255.235008  -0.47  -1.12
iter:  26 18:14:02  -255.137678  -0.36  -1.11
iter:  27 18:16:27  -255.259946  +0.24  -1.19
iter:  28 18:18:54  -255.090578  -0.12  -1.20
iter:  29 18:21:23  -255.026893  -0.98  -1.45
Writing to output.gpw (mode='')

iter:  30 18:23:53  -255.022799  -0.95  -1.61
iter:  31 18:26:18  -255.034455c -0.72  -1.78
iter:  32 18:28:44  -255.033356c -1.05  -1.83
iter:  33 18:31:14  -255.025519c -1.30  -1.90
iter:  34 18:33:41  -255.033898c -1.46  -2.07
Writing to output.gpw (mode='')

iter:  35 18:36:10  -255.039785c -1.56  -2.20
iter:  36 18:38:35  -255.042056c -1.75  -2.22
iter:  37 18:40:54  -255.045810c -1.82  -2.25
iter:  38 18:43:18  -255.048923c -1.78  -2.42
iter:  39 18:45:49  -255.050155c -2.04  -2.67
Writing to output.gpw (mode='')

iter:  40 18:48:19  -255.051302c -1.96  -2.69
iter:  41 18:50:49  -255.052696c -2.01  -2.74
iter:  42 18:53:12  -255.053420c -2.26  -2.85
iter:  43 18:55:38  -255.054059c -2.40  -2.99
iter:  44 18:58:05  -255.054546c -2.37  -3.02
Writing to output.gpw (mode='')

iter:  45 19:00:35  -255.055149c -2.29  -3.16
iter:  46 19:03:01  -255.055607c -2.53  -3.28
iter:  47 19:05:25  -255.056018c -2.60  -3.29
iter:  48 19:07:50  -255.056493c -2.54  -3.34
iter:  49 19:10:22  -255.056820c -2.70  -3.52
Writing to output.gpw (mode='')

iter:  50 19:12:46  -255.057108c -2.75  -3.63
iter:  51 19:15:07  -255.057369c -2.75  -3.67
iter:  52 19:17:26  -255.057630c -2.71  -3.70
iter:  53 19:19:50  -255.057857c -2.74  -3.77
iter:  54 19:22:33  -255.058089c -2.68  -3.92
Writing to output.gpw (mode='')

iter:  55 19:25:09  -255.058276c -2.88  -3.95
iter:  56 19:27:33  -255.058451c -2.88  -3.93
iter:  57 19:29:58  -255.058624c -2.85  -3.75
iter:  58 19:32:15  -255.058804c -2.79  -3.73
iter:  59 19:34:38  -255.058931c -2.95  -3.65
Writing to output.gpw (mode='')

iter:  60 19:37:08  -255.059048c -2.97  -3.65
iter:  61 19:39:31  -255.059164c -2.98  -3.61
iter:  62 19:41:56  -255.059277c -3.07  -3.58
iter:  63 19:44:29  -255.059385c -3.04  -3.52
iter:  64 19:46:53  -255.059471c -3.20  -3.44
Writing to output.gpw (mode='')

iter:  65 19:49:27  -255.059577c -3.01  -3.53
iter:  66 19:51:54  -255.059649c -3.24  -3.46
iter:  67 19:54:23  -255.059704c -3.21  -3.50
iter:  68 19:56:46  -255.059766c -3.46  -3.65
iter:  69 19:59:14  -255.059820c -3.31  -3.61
Writing to output.gpw (mode='')

iter:  70 20:01:46  -255.059871c -3.48  -3.71
iter:  71 20:04:17  -255.059921c -3.37  -3.69
iter:  72 20:06:45  -255.059969c -3.33  -3.64
iter:  73 20:09:14  -255.060018c -3.35  -3.64
iter:  74 20:11:32  -255.060061c -3.49  -3.63
Writing to output.gpw (mode='')

iter:  75 20:14:01  -255.060104c -3.59  -3.61
iter:  76 20:16:34  -255.060137c -3.61  -3.71
iter:  77 20:19:00  -255.060181c -3.50  -3.73
iter:  78 20:21:36  -255.060208c -3.66  -3.92
iter:  79 20:24:24  -255.060241c -3.73  -3.89
Writing to output.gpw (mode='')

iter:  80 20:26:58  -255.060263c -3.77  -4.02c
iter:  81 20:29:34  -255.060284c -3.76  -4.04c
iter:  82 20:32:03  -255.060301c -3.87  -4.03c
iter:  83 20:34:33  -255.060320c -3.91  -4.02c
iter:  84 20:36:55  -255.060338c -3.94  -3.98
Writing to output.gpw (mode='')

iter:  85 20:39:23  -255.060350c -3.92  -3.98
iter:  86 20:41:48  -255.060363c -3.84  -4.05c
iter:  87 20:44:06  -255.060375c -3.93  -4.11c
iter:  88 20:46:25  -255.060388c -4.00  -4.18c
iter:  89 20:48:48  -255.060407c -3.98  -4.23c
Writing to output.gpw (mode='')

iter:  90 20:51:33  -255.060418c -4.05  -4.40c
iter:  91 20:54:03  -255.060428c -3.97  -4.46c
iter:  92 20:56:34  -255.060438c -4.03  -4.51c
iter:  93 20:59:05  -255.060446c -4.10  -4.59c
iter:  94 21:01:37  -255.060453c -4.14  -4.68c
Writing to output.gpw (mode='')

iter:  95 21:04:09  -255.060460c -4.27  -4.71c
iter:  96 21:06:38  -255.060466c -4.20  -4.70c
iter:  97 21:09:06  -255.060473c -4.27  -4.68c
iter:  98 21:11:34  -255.060479c -4.22  -4.67c
iter:  99 21:14:10  -255.060483c -4.33  -4.63c
Writing to output.gpw (mode='')

iter: 100 21:16:47  -255.060488c -4.33  -4.59c
iter: 101 21:19:21  -255.060493c -4.38  -4.57c
iter: 102 21:21:46  -255.060497c -4.30  -4.52c
iter: 103 21:24:10  -255.060501c -4.33  -4.50c
iter: 104 21:26:30  -255.060506c -4.43  -4.42c
Writing to output.gpw (mode='')

iter: 105 21:29:09  -255.060509c -4.47  -4.50c
iter: 106 21:31:41  -255.060512c -4.45  -4.64c
iter: 107 21:34:11  -255.060514c -4.56  -4.67c
iter: 108 21:36:31  -255.060518c -4.57  -4.58c
iter: 109 21:38:59  -255.060520c -4.48  -4.72c
Writing to output.gpw (mode='')

iter: 110 21:41:30  -255.060523c -4.37  -4.75c
iter: 111 21:43:59  -255.060525c -4.45  -4.75c
iter: 112 21:46:23  -255.060527c -4.47  -4.76c
iter: 113 21:48:57  -255.060529c -4.56  -4.80c
iter: 114 21:51:20  -255.060531c -4.53  -4.98c
Writing to output.gpw (mode='')

iter: 115 21:53:46  -255.060533c -4.57  -5.18c
iter: 116 21:56:11  -255.060534c -4.70  -5.22c
iter: 117 21:58:30  -255.060535c -4.66  -5.26c
iter: 118 22:00:43  -255.060536c -4.92  -5.25c
iter: 119 22:03:08  -255.060537c -4.91  -5.04c
Writing to output.gpw (mode='')

iter: 120 22:05:32  -255.060538c -4.85  -5.26c
iter: 121 22:07:49  -255.060538c -4.84  -5.30c
iter: 122 22:10:08  -255.060539c -4.90  -5.27c
iter: 123 22:12:26  -255.060540c -4.78  -5.21c
iter: 124 22:14:51  -255.060540c -5.05  -5.13c
Writing to output.gpw (mode='')

iter: 125 22:17:27  -255.060541c -4.93  -5.16c
iter: 126 22:19:54  -255.060541c -5.03  -5.20c
iter: 127 22:22:15  -255.060542c -5.13  -5.20c
iter: 128 22:24:32  -255.060542c -5.08  -5.15c
iter: 129 22:26:49  -255.060542c -5.14  -5.10c
Writing to output.gpw (mode='')

iter: 130 22:29:11  -255.060543c -5.09  -5.07c
iter: 131 22:31:38  -255.060543c -5.31  -5.06c
iter: 132 22:34:01  -255.060543c -5.30  -5.01c
iter: 133 22:36:14  -255.060543c -5.23  -5.03c
iter: 134 22:38:38  -255.060543c -5.27  -5.02c
Writing to output.gpw (mode='')

iter: 135 22:40:55  -255.060543c -5.42  -5.04c
iter: 136 22:43:10  -255.060544c -5.33  -4.99c
iter: 137 22:45:29  -255.060544c -5.31  -5.06c
iter: 138 22:47:46  -255.060544c -5.35  -5.09c
iter: 139 22:50:10  -255.060544c -5.32  -5.16c
Writing to output.gpw (mode='')

iter: 140 22:52:36  -255.060544c -5.45  -5.08c
iter: 141 22:55:02  -255.060544c -5.52  -5.15c
iter: 142 22:57:28  -255.060544c -5.63  -5.26c
iter: 143 22:59:42  -255.060544c -5.52  -5.24c
iter: 144 23:02:09  -255.060544c -5.60  -5.20c
Writing to output.gpw (mode='')

iter: 145 23:04:27  -255.060544c -5.56  -5.27c
iter: 146 23:06:56  -255.060544c -5.61  -5.25c
iter: 147 23:09:23  -255.060544c -5.63  -5.18c
iter: 148 23:11:50  -255.060544c -5.55  -5.33c
iter: 149 23:14:15  -255.060544c -5.71  -5.34c
Writing to output.gpw (mode='')

iter: 150 23:16:45  -255.060544c -5.73  -5.25c
iter: 151 23:19:04  -255.060544c -5.85  -5.39c
iter: 152 23:21:19  -255.060544c -5.67  -5.40c
iter: 153 23:23:48  -255.060544c -5.65  -5.38c
iter: 154 23:26:17  -255.060544c -5.85  -5.39c
Writing to output.gpw (mode='')

iter: 155 23:28:43  -255.060544c -5.78  -5.39c
iter: 156 23:31:11  -255.060544c -5.76  -5.43c
iter: 157 23:33:37  -255.060544c -5.92  -5.30c
iter: 158 23:36:05  -255.060544c -6.04  -5.50c
iter: 159 23:38:27  -255.060544c -5.92  -5.54c
Writing to output.gpw (mode='')

iter: 160 23:40:51  -255.060544c -6.10  -5.64c
iter: 161 23:43:11  -255.060544c -5.83  -5.66c
iter: 162 23:45:38  -255.060544c -5.94  -5.68c
iter: 163 23:47:56  -255.060544c -5.98  -5.69c
iter: 164 23:50:15  -255.060544c -5.98  -5.74c
Writing to output.gpw (mode='')

iter: 165 23:52:37  -255.060544c -6.08  -5.80c
iter: 166 23:55:00  -255.060544c -6.14  -5.95c
iter: 167 23:57:21  -255.060544c -6.25  -6.12c
iter: 168 23:59:55  -255.060544c -6.26  -6.18c
iter: 169 00:02:22  -255.060544c -6.06  -6.21c
Writing to output.gpw (mode='')

iter: 170 00:04:36  -255.060544c -6.24  -6.27c
iter: 171 00:06:54  -255.060544c -6.21  -6.32c
iter: 172 00:09:18  -255.060543c -6.22  -6.31c
iter: 173 00:11:48  -255.060543c -6.20  -6.25c
iter: 174 00:14:06  -255.060543c -6.37  -6.20c
Writing to output.gpw (mode='')

iter: 175 00:16:21  -255.060543c -6.46  -6.14c
iter: 176 00:18:36  -255.060543c -6.46  -6.10c
iter: 177 00:20:58  -255.060543c -6.60  -6.06c
iter: 178 00:23:17  -255.060543c -6.62  -5.98c
iter: 179 00:25:42  -255.060543c -6.37  -6.00c
Writing to output.gpw (mode='')

iter: 180 00:28:01  -255.060543c -6.45  -5.94c
iter: 181 00:30:18  -255.060543c -6.62  -5.91c
iter: 182 00:32:47  -255.060543c -6.65  -5.90c
iter: 183 00:35:04  -255.060543c -6.77  -5.80c
iter: 184 00:37:18  -255.060543c -6.59  -5.80c
Writing to output.gpw (mode='')

iter: 185 00:39:32  -255.060543c -6.66  -5.80c
iter: 186 00:41:53  -255.060543c -6.67  -5.88c
iter: 187 00:44:18  -255.060543c -6.65  -5.90c
iter: 188 00:46:40  -255.060543c -6.97  -5.95c
iter: 189 00:49:00  -255.060543c -6.91  -6.07c
Writing to output.gpw (mode='')

iter: 190 00:51:20  -255.060543c -6.62  -6.10c
iter: 191 00:53:41  -255.060543c -6.51  -6.15c
iter: 192 00:56:04  -255.060543c -6.54  -6.24c
iter: 193 00:58:35  -255.060543c -6.86  -6.29c
iter: 194 01:00:50  -255.060543c -6.97  -6.33c
Writing to output.gpw (mode='')

iter: 195 01:03:08  -255.060543c -7.04  -6.55c
iter: 196 01:05:20  -255.060543c -7.04  -6.59c
iter: 197 01:07:42  -255.060543c -6.90  -6.63c
iter: 198 01:10:04  -255.060543c -6.76  -6.67c
iter: 199 01:12:18  -255.060543c -6.94  -6.70c
Writing to output.gpw (mode='')

iter: 200 01:14:40  -255.060543c -7.22  -6.70c
iter: 201 01:17:04  -255.060543c -7.15  -6.61c
iter: 202 01:19:30  -255.060543c -7.01  -6.66c
iter: 203 01:21:50  -255.060543c -6.92  -6.70c
iter: 204 01:24:12  -255.060543c -6.89  -6.73c
Writing to output.gpw (mode='')

iter: 205 01:26:31  -255.060543c -6.94  -6.87c
iter: 206 01:28:54  -255.060543c -7.11  -6.96c
iter: 207 01:31:14  -255.060543c -7.12  -7.02c
iter: 208 01:33:32  -255.060543c -7.31  -7.19c
iter: 209 01:35:51  -255.060543c -7.25  -7.26c
Writing to output.gpw (mode='')

iter: 210 01:38:14  -255.060543c -7.13  -7.27c
iter: 211 01:40:42  -255.060543c -7.16  -7.31c
iter: 212 01:43:07  -255.060543c -7.41c -7.19c

Converged after 212 iterations.

Dipole moment: (-1.325107, -9.696396, 0.012607) |e|*Ang

Energy contributions relative to reference atoms: (reference = -10970.764591)

Kinetic:       +113.612863
Potential:     -107.128674
External:        +0.000000
XC:            -261.771859
Entropy (-ST):   -0.155293
Local:           +0.304774
--------------------------
Free energy:   -255.138189
Extrapolated:  -255.060543

Dipole-layer corrected work functions: 3.396072, 3.371837 eV

Showing only first 2 kpts
 Kpt  Band  Eigenvalues  Occupancy
  0    24     -3.63588    1.98712
  0    25     -3.55402    1.93549
  0    26     -3.21418    0.06487
  0    27     -3.13208    0.01290

  1    24     -3.40376    1.19550
  1    25     -3.37446    0.90531
  1    26     -3.34820    0.65696
  1    27     -3.33778    0.56849


Fermi level: -3.38395

No gap
Writing to output.gpw (mode='')


Forces in eV/Ang:
  0 Li    0.00463    0.00043   -0.27339
  1 Li   -0.00463    0.00043   -0.27339
  2 Li    0.00000    0.00150   -0.27131
  3 Li   -0.00214   -0.00303   -0.27502
  4 Li    0.00214   -0.00303   -0.27502
  5 Li   -0.00000    0.00361   -0.27319
  6 Li   -0.00188    0.00148   -0.27256
  7 Li    0.00188    0.00148   -0.27256
  8 Li    0.00000   -0.00459   -0.27135
  9 Li   -0.00048   -0.00112    0.25868
 10 Li    0.00000    0.00079    0.25652
 11 Li    0.00048   -0.00112    0.25868
 12 Li    0.00201    0.00263    0.25423
 13 Li    0.00000   -0.00423    0.25904
 14 Li   -0.00201    0.00263    0.25422
 15 Li   -0.00158   -0.00258    0.25768
 16 Li    0.00000    0.00502    0.26494
 17 Li    0.00158   -0.00258    0.25768
 18 Li   -0.00582   -0.00122    0.04607
 19 Li    0.00582   -0.00122    0.04607
 20 Li    0.00000    0.00239    0.02038
 21 Li    0.00092    0.00103    0.03455
 22 Li   -0.00092    0.00103    0.03454
 23 Li    0.00000   -0.00437    0.04010
 24 Li   -0.00253    0.00174    0.03877
 25 Li    0.00253    0.00174    0.03877
 26 Li    0.00000    0.00229    0.04390
 27 Li    0.03257   -0.02941   -0.07209
 28 Li    0.00000    0.00608   -0.01947
 29 Li   -0.03256   -0.02942   -0.07210
 30 Li    0.01762    0.02725   -0.04654
 31 Li   -0.00000   -0.00831   -0.01830
 32 Li   -0.01762    0.02725   -0.04654
 33 Li   -0.00493    0.00419   -0.01936
 34 Li   -0.00000    0.00117   -0.02002
 35 Li    0.00493    0.00420   -0.01936
 36 B     0.00975    0.05057    0.04756
 37 H    -0.02446   -0.01619   -0.00111
 38 H     0.02522   -0.02455    0.00281
 39 H    -0.00870   -0.00577    0.03372
 40 N     0.00167    0.83381    0.01438
 41 N    -0.00017   -0.88345    0.00076

System changes: positions 

Initializing position-dependent things.

Density initialized from wave functions
       .-----------------------.  
      /|                       |  
     / |                       |  
    /  |                       |  
   /   |                       |  
  /    |                       |  
 *     |                       |  
 |     |                       |  
 |     |                       |  
 |     |            H B  H     |  
 |     |             H         |  
 |     |                       |  
 |     Li              Li      |  
 |     |              N        |  
 |     |     Li      Ni      Li|  
 |     |  Li      Li      Li   |  
 | Li  |   Li      Li          |  
 |     |Li      Li      Li     |  
 |     | Li                    |  
 |   LLi     LLi     LLi       |  
 |     |  Li      Li      Li   |  
 | Li  |   Li      Li          |  
 |     |Li      Li      Li     |  
 Li    | Li      Li            |  
 |    Li      Li      Li       |  
 |     |                       |  
 |     |                       |  
 |     |                       |  
 |     |                       |  
 |     |                       |  
 |     |                       |  
 |     .-----------------------.  
 |    /                       /   
 |   /                       /    
 |  /                       /     
 | /                       /      
 |/                       /       
 *-----------------------*        

Positions:
   0 Li     1.617037    1.617037   10.000000    ( 0.0000,  0.0000,  0.0000)
   1 Li     4.851111    1.617037   10.000000    ( 0.0000,  0.0000,  0.0000)
   2 Li     8.085185    1.617037   10.000000    ( 0.0000,  0.0000,  0.0000)
   3 Li     1.617037    4.851111   10.000000    ( 0.0000,  0.0000,  0.0000)
   4 Li     4.851111    4.851111   10.000000    ( 0.0000,  0.0000,  0.0000)
   5 Li     8.085185    4.851111   10.000000    ( 0.0000,  0.0000,  0.0000)
   6 Li     1.617037    8.085185   10.000000    ( 0.0000,  0.0000,  0.0000)
   7 Li     4.851111    8.085185   10.000000    ( 0.0000,  0.0000,  0.0000)
   8 Li     8.085185    8.085185   10.000000    ( 0.0000,  0.0000,  0.0000)
   9 Li     0.000000    0.000000   11.617037    ( 0.0000,  0.0000,  0.0000)
  10 Li     3.234074    0.000000   11.617037    ( 0.0000,  0.0000,  0.0000)
  11 Li     6.468148    0.000000   11.617037    ( 0.0000,  0.0000,  0.0000)
  12 Li     0.000000    3.234074   11.617037    ( 0.0000,  0.0000,  0.0000)
  13 Li     3.234074    3.234074   11.617037    ( 0.0000,  0.0000,  0.0000)
  14 Li     6.468148    3.234074   11.617037    ( 0.0000,  0.0000,  0.0000)
  15 Li     0.000000    6.468148   11.617037    ( 0.0000,  0.0000,  0.0000)
  16 Li     3.234074    6.468148   11.617037    ( 0.0000,  0.0000,  0.0000)
  17 Li     6.468148    6.468148   11.617037    ( 0.0000,  0.0000,  0.0000)
  18 Li     1.616955    1.617021   13.470386    ( 0.0000,  0.0000,  0.0000)
  19 Li     4.851194    1.617021   13.470388    ( 0.0000,  0.0000,  0.0000)
  20 Li     8.085184    1.617072   13.470019    ( 0.0000,  0.0000,  0.0000)
  21 Li     1.617052    4.851126   13.470223    ( 0.0000,  0.0000,  0.0000)
  22 Li     4.851098    4.851126   13.470224    ( 0.0000,  0.0000,  0.0000)
  23 Li     8.085184    4.851049   13.470302    ( 0.0000,  0.0000,  0.0000)
  24 Li     1.617002    8.085209   13.470282    ( 0.0000,  0.0000,  0.0000)
  25 Li     4.851147    8.085208   13.470283    ( 0.0000,  0.0000,  0.0000)
  26 Li     8.085184    8.085217   13.470355    ( 0.0000,  0.0000,  0.0000)
  27 Li     0.000465   -0.000420   15.444909    ( 0.0000,  0.0000,  0.0000)
  28 Li     3.234074    0.000087   15.445661    ( 0.0000,  0.0000,  0.0000)
  29 Li     6.467683   -0.000420   15.444909    ( 0.0000,  0.0000,  0.0000)
  30 Li     0.000252    3.234463   15.445274    ( 0.0000,  0.0000,  0.0000)
  31 Li     3.234076    3.233958   15.445677    ( 0.0000,  0.0000,  0.0000)
  32 Li     6.467894    3.234466   15.445273    ( 0.0000,  0.0000,  0.0000)
  33 Li    -0.000070    6.468208   15.445662    ( 0.0000,  0.0000,  0.0000)
  34 Li     3.234076    6.468162   15.445652    ( 0.0000,  0.0000,  0.0000)
  35 Li     6.468216    6.468206   15.445661    ( 0.0000,  0.0000,  0.0000)
  36 B      8.085324    1.617759   21.446619    ( 0.0000,  0.0000,  0.0000)
  37 H      9.117405    2.209092   21.445923    ( 0.0000,  0.0000,  0.0000)
  38 H      7.055636    2.213645   21.445980    ( 0.0000,  0.0000,  0.0000)
  39 H      8.085147    0.428355   21.446421    ( 0.0000,  0.0000,  0.0000)
  40 N      8.085024    1.628912   18.446145    ( 0.0000,  0.0000,  0.0000)
  41 N      8.084998    0.507757   18.445950    ( 0.0000,  0.0000,  0.0000)

Unit cell:
           periodic     x           y           z      points  spacing
  1. axis:    yes    9.702222    0.000000    0.000000    60     0.1617
  2. axis:    yes    0.000000    9.702222    0.000000    60     0.1617
  3. axis:    no     0.000000    0.000000   24.851111   156     0.1593

  Lengths:   9.702222   9.702222  24.851111
  Angles:   90.000000  90.000000  90.000000

Effective grid spacing dv^(1/3) = 0.1609

     iter     time        total  log10-change:
                         energy  eigst   dens
iter:   1 01:46:06  -255.795945  -0.02
iter:   2 01:48:30  -256.100951  +0.45  -0.99
iter:   3 01:51:05  -255.074473  -0.48  -1.06
iter:   4 01:53:40  -255.068881  -0.95  -1.81
Writing to output.gpw (mode='')

iter:   5 01:56:01  -255.043145  -0.62  -1.87
iter:   6 01:58:18  -255.044237c -1.42  -2.05
iter:   7 02:00:38  -255.055715c -1.73  -2.18
iter:   8 02:03:00  -255.040508c -1.63  -1.98
iter:   9 02:05:31  -255.040929c -1.88  -2.41
Writing to output.gpw (mode='')

iter:  10 02:08:01  -255.041727c -2.06  -2.49
iter:  11 02:10:20  -255.041904c -2.08  -2.62
iter:  12 02:12:42  -255.042144c -2.77  -2.68
iter:  13 02:15:14  -255.042215c -3.07  -2.88
iter:  14 02:17:35  -255.042225c -3.22  -2.90
Writing to output.gpw (mode='')

iter:  15 02:19:55  -255.042272c -3.35  -2.94
iter:  16 02:22:15  -255.042402c -3.38  -3.00
iter:  17 02:24:37  -255.042424c -3.68  -3.14
iter:  18 02:27:03  -255.042543c -3.67  -3.19
iter:  19 02:29:34  -255.042510c -3.93  -3.34
Writing to output.gpw (mode='')

iter:  20 02:32:06  -255.042500c -3.66  -3.51
iter:  21 02:34:29  -255.042538c -3.85  -3.65
iter:  22 02:36:48  -255.042525c -4.09  -3.69
iter:  23 02:39:12  -255.042539c -4.55  -3.84
iter:  24 02:41:31  -255.042559c -4.50  -3.86
Writing to output.gpw (mode='')

iter:  25 02:44:08  -255.042550c -4.59  -3.95
iter:  26 02:46:30  -255.042568c -4.59  -4.09c
iter:  27 02:48:45  -255.042570c -4.95  -4.25c
iter:  28 02:51:03  -255.042567c -4.96  -4.29c
iter:  29 02:53:24  -255.042566c -5.08  -4.39c
Writing to output.gpw (mode='')

iter:  30 02:55:56  -255.042569c -5.06  -4.51c
iter:  31 02:58:15  -255.042571c -5.06  -4.59c
iter:  32 03:00:38  -255.042575c -5.20  -4.62c
iter:  33 03:03:00  -255.042575c -5.40  -4.70c
iter:  34 03:05:27  -255.042575c -5.50  -4.78c
Writing to output.gpw (mode='')

iter:  35 03:07:49  -255.042577c -5.47  -4.79c
iter:  36 03:10:12  -255.042580c -5.56  -4.82c
iter:  37 03:12:44  -255.042580c -5.60  -4.93c
iter:  38 03:15:12  -255.042581c -5.65  -5.00c
iter:  39 03:17:41  -255.042582c -5.57  -5.00c
Writing to output.gpw (mode='')

iter:  40 03:20:05  -255.042581c -5.74  -4.95c
iter:  41 03:22:26  -255.042581c -5.95  -4.85c
iter:  42 03:24:45  -255.042581c -5.89  -4.80c
iter:  43 03:27:03  -255.042581c -5.89  -4.75c
iter:  44 03:29:28  -255.042581c -5.91  -4.73c
Writing to output.gpw (mode='')

iter:  45 03:31:55  -255.042582c -5.94  -4.70c
iter:  46 03:34:10  -255.042582c -6.11  -4.68c
iter:  47 03:36:27  -255.042581c -6.10  -4.67c
iter:  48 03:38:40  -255.042582c -6.27  -4.59c
iter:  49 03:41:02  -255.042582c -6.17  -4.62c
Writing to output.gpw (mode='')

iter:  50 03:43:26  -255.042583c -6.14  -4.65c
iter:  51 03:45:56  -255.042584c -6.32  -4.69c
iter:  52 03:48:20  -255.042589c -6.31  -4.72c
iter:  53 03:50:47  -255.042584c -6.57  -4.75c
iter:  54 03:53:07  -255.042586c -6.54  -4.92c
Writing to output.gpw (mode='')

iter:  55 03:55:42  -255.042586c -6.47  -5.02c
iter:  56 03:58:03  -255.042586c -6.50  -5.06c
iter:  57 04:00:26  -255.042586c -6.65  -5.16c
iter:  58 04:02:50  -255.042586c -6.74  -5.42c
iter:  59 04:05:18  -255.042586c -6.72  -5.48c
Writing to output.gpw (mode='')

iter:  60 04:07:49  -255.042586c -6.73  -5.53c
iter:  61 04:10:24  -255.042586c -6.87  -5.68c
iter:  62 04:12:58  -255.042586c -6.90  -5.75c
iter:  63 04:15:24  -255.042586c -6.90  -5.79c
iter:  64 04:17:49  -255.042586c -6.81  -5.83c
Writing to output.gpw (mode='')

iter:  65 04:20:14  -255.042586c -6.92  -5.85c
iter:  66 04:22:47  -255.042586c -7.01  -5.79c
iter:  67 04:25:08  -255.042586c -7.03  -5.83c
iter:  68 04:27:23  -255.042586c -7.24  -5.88c
iter:  69 04:29:40  -255.042586c -7.21  -5.84c
Writing to output.gpw (mode='')

iter:  70 04:31:28  -255.042586c -7.22  -5.80c
iter:  71 04:32:16  -255.042586c -7.22  -5.78c
iter:  72 04:33:03  -255.042586c -7.34  -5.76c
iter:  73 04:33:50  -255.042586c -7.22  -5.73c
iter:  74 04:34:38  -255.042586c -7.29  -5.74c
Writing to output.gpw (mode='')

iter:  75 04:35:27  -255.042586c -7.36  -5.73c
iter:  76 04:36:15  -255.042586c -7.44c -5.69c

Converged after 76 iterations.

Dipole moment: (-1.380021, -9.901466, -0.016899) |e|*Ang

Energy contributions relative to reference atoms: (reference = -10970.764591)

Kinetic:       +109.872807
Potential:     -104.088177
External:        +0.000000
XC:            -261.052992
Entropy (-ST):   -0.155961
Local:           +0.303756
--------------------------
Free energy:   -255.120567
Extrapolated:  -255.042586

Dipole-layer corrected work functions: 3.397630, 3.430116 eV

Showing only first 2 kpts
 Kpt  Band  Eigenvalues  Occupancy
  0    24     -3.66557    1.98706
  0    25     -3.58366    1.93515
  0    26     -3.24376    0.06445
  0    27     -3.16388    0.01339

  1    24     -3.43527    1.21072
  1    25     -3.40155    0.87742
  1    26     -3.37914    0.66601
  1    27     -3.36757    0.56743


Fermi level: -3.41387

No gap
Writing to output.gpw (mode='')


Forces in eV/Ang:
  0 Li    0.00516    0.00062   -0.27376
  1 Li   -0.00516    0.00062   -0.27376
  2 Li    0.00000    0.00164   -0.27161
  3 Li   -0.00205   -0.00354   -0.27532
  4 Li    0.00205   -0.00354   -0.27532
  5 Li   -0.00000    0.00375   -0.27324
  6 Li   -0.00196    0.00148   -0.27252
  7 Li    0.00196    0.00148   -0.27252
  8 Li    0.00000   -0.00482   -0.27115
  9 Li   -0.00054   -0.00127    0.25967
 10 Li    0.00000    0.00052    0.25654
 11 Li    0.00054   -0.00127    0.25967
 12 Li    0.00233    0.00269    0.25438
 13 Li    0.00000   -0.00422    0.25901
 14 Li   -0.00233    0.00269    0.25438
 15 Li   -0.00184   -0.00269    0.25840
 16 Li    0.00000    0.00575    0.26527
 17 Li    0.00184   -0.00269    0.25839
 18 Li   -0.00545   -0.00119    0.04415
 19 Li    0.00545   -0.00119    0.04415
 20 Li    0.00000    0.00301    0.01576
 21 Li    0.00091    0.00135    0.03355
 22 Li   -0.00092    0.00135    0.03354
 23 Li    0.00000   -0.00465    0.03837
 24 Li   -0.00236    0.00178    0.03734
 25 Li    0.00236    0.00178    0.03734
 26 Li    0.00000    0.00217    0.04239
 27 Li    0.02765   -0.02777   -0.05983
 28 Li    0.00000    0.00579   -0.01937
 29 Li   -0.02764   -0.02778   -0.05983
 30 Li    0.01591    0.02675   -0.04067
 31 Li   -0.00000   -0.00788   -0.01813
 32 Li   -0.01591    0.02676   -0.04067
 33 Li   -0.00517    0.00507   -0.01773
 34 Li   -0.00000    0.00076   -0.01957
 35 Li    0.00517    0.00507   -0.01772
 36 B     0.00521    0.01019    0.02213
 37 H    -0.00663   -0.00374    0.00471
 38 H     0.01108   -0.01289    0.00868
 39 H    -0.00757    0.01198    0.03993
 40 N     0.00033   -2.23707    0.03323
 41 N     0.00043    2.22516    0.00891

System changes: positions 

Initializing position-dependent things.

Density initialized from wave functions
       .-----------------------.  
      /|                       |  
     / |                       |  
    /  |                       |  
   /   |                       |  
  /    |                       |  
 *     |                       |  
 |     |                       |  
 |     |                       |  
 |     |            H B  H     |  
 |     |             H         |  
 |     |                       |  
 |     Li              Li      |  
 |     |              N        |  
 |     |     Li      Ni      Li|  
 |     |  Li      Li      Li   |  
 | Li  |   Li      Li          |  
 |     |Li      Li      Li     |  
 |     | Li                    |  
 |   LLi     LLi     LLi       |  
 |     |  Li      Li      Li   |  
 | Li  |   Li      Li          |  
 |     |Li      Li      Li     |  
 Li    | Li      Li            |  
 |    Li      Li      Li       |  
 |     |                       |  
 |     |                       |  
 |     |                       |  
 |     |                       |  
 |     |                       |  
 |     |                       |  
 |     .-----------------------.  
 |    /                       /   
 |   /                       /    
 |  /                       /     
 | /                       /      
 |/                       /       
 *-----------------------*        

Positions:
   0 Li     1.617037    1.617037   10.000000    ( 0.0000,  0.0000,  0.0000)
   1 Li     4.851111    1.617037   10.000000    ( 0.0000,  0.0000,  0.0000)
   2 Li     8.085185    1.617037   10.000000    ( 0.0000,  0.0000,  0.0000)
   3 Li     1.617037    4.851111   10.000000    ( 0.0000,  0.0000,  0.0000)
   4 Li     4.851111    4.851111   10.000000    ( 0.0000,  0.0000,  0.0000)
   5 Li     8.085185    4.851111   10.000000    ( 0.0000,  0.0000,  0.0000)
   6 Li     1.617037    8.085185   10.000000    ( 0.0000,  0.0000,  0.0000)
   7 Li     4.851111    8.085185   10.000000    ( 0.0000,  0.0000,  0.0000)
   8 Li     8.085185    8.085185   10.000000    ( 0.0000,  0.0000,  0.0000)
   9 Li     0.000000    0.000000   11.617037    ( 0.0000,  0.0000,  0.0000)
  10 Li     3.234074    0.000000   11.617037    ( 0.0000,  0.0000,  0.0000)
  11 Li     6.468148    0.000000   11.617037    ( 0.0000,  0.0000,  0.0000)
  12 Li     0.000000    3.234074   11.617037    ( 0.0000,  0.0000,  0.0000)
  13 Li     3.234074    3.234074   11.617037    ( 0.0000,  0.0000,  0.0000)
  14 Li     6.468148    3.234074   11.617037    ( 0.0000,  0.0000,  0.0000)
  15 Li     0.000000    6.468148   11.617037    ( 0.0000,  0.0000,  0.0000)
  16 Li     3.234074    6.468148   11.617037    ( 0.0000,  0.0000,  0.0000)
  17 Li     6.468148    6.468148   11.617037    ( 0.0000,  0.0000,  0.0000)
  18 Li     1.616930    1.617015   13.470585    ( 0.0000,  0.0000,  0.0000)
  19 Li     4.851219    1.617016   13.470587    ( 0.0000,  0.0000,  0.0000)
  20 Li     8.085184    1.617086   13.470092    ( 0.0000,  0.0000,  0.0000)
  21 Li     1.617056    4.851132   13.470374    ( 0.0000,  0.0000,  0.0000)
  22 Li     4.851094    4.851132   13.470375    ( 0.0000,  0.0000,  0.0000)
  23 Li     8.085184    4.851028   13.470475    ( 0.0000,  0.0000,  0.0000)
  24 Li     1.616991    8.085217   13.470450    ( 0.0000,  0.0000,  0.0000)
  25 Li     4.851158    8.085216   13.470452    ( 0.0000,  0.0000,  0.0000)
  26 Li     8.085184    8.085226   13.470546    ( 0.0000,  0.0000,  0.0000)
  27 Li     0.000591   -0.000546   15.444636    ( 0.0000,  0.0000,  0.0000)
  28 Li     3.234074    0.000113   15.445574    ( 0.0000,  0.0000,  0.0000)
  29 Li     6.467557   -0.000546   15.444635    ( 0.0000,  0.0000,  0.0000)
  30 Li     0.000324    3.234583   15.445089    ( 0.0000,  0.0000,  0.0000)
  31 Li     3.234076    3.233922   15.445595    ( 0.0000,  0.0000,  0.0000)
  32 Li     6.467822    3.234586   15.445088    ( 0.0000,  0.0000,  0.0000)
  33 Li    -0.000094    6.468231   15.445582    ( 0.0000,  0.0000,  0.0000)
  34 Li     3.234076    6.468166   15.445564    ( 0.0000,  0.0000,  0.0000)
  35 Li     6.468239    6.468228   15.445581    ( 0.0000,  0.0000,  0.0000)
  36 B      8.085350    1.617821   21.446728    ( 0.0000,  0.0000,  0.0000)
  37 H      9.117368    2.209070   21.445942    ( 0.0000,  0.0000,  0.0000)
  38 H      7.055692    2.213583   21.446016    ( 0.0000,  0.0000,  0.0000)
  39 H      8.085112    0.428402   21.446598    ( 0.0000,  0.0000,  0.0000)
  40 N      8.085026    1.620104   18.446286    ( 0.0000,  0.0000,  0.0000)
  41 N      8.084999    0.516496   18.445987    ( 0.0000,  0.0000,  0.0000)

Unit cell:
           periodic     x           y           z      points  spacing
  1. axis:    yes    9.702222    0.000000    0.000000    60     0.1617
  2. axis:    yes    0.000000    9.702222    0.000000    60     0.1617
  3. axis:    no     0.000000    0.000000   24.851111   156     0.1593

  Lengths:   9.702222   9.702222  24.851111
  Angles:   90.000000  90.000000  90.000000

Effective grid spacing dv^(1/3) = 0.1609

     iter     time        total  log10-change:
                         energy  eigst   dens
iter:   1 04:37:23  -255.192322  -1.51
iter:   2 04:38:10  -255.100564  -0.91  -1.53
iter:   3 04:38:57  -255.084517  -1.69  -1.77
iter:   4 04:39:45  -255.069159  -1.14  -2.05
Writing to output.gpw (mode='')

iter:   5 04:40:33  -255.071892c -1.64  -2.05
iter:   6 04:41:21  -255.074607c -1.47  -2.15
iter:   7 04:42:08  -255.063355c -1.97  -2.12
iter:   8 04:42:55  -255.063758c -2.58  -2.59
iter:   9 04:43:42  -255.063861c -3.06  -2.69
Writing to output.gpw (mode='')

iter:  10 04:44:31  -255.063625c -2.87  -2.90
iter:  11 04:45:19  -255.063662c -3.26  -2.93
iter:  12 04:46:06  -255.063649c -3.14  -3.01
iter:  13 04:46:53  -255.063636c -3.45  -3.18
iter:  14 04:47:40  -255.063688c -3.57  -3.25
Writing to output.gpw (mode='')

iter:  15 04:48:33  -255.063771c -3.63  -3.33
iter:  16 04:49:20  -255.063757c -3.91  -3.49
iter:  17 04:50:07  -255.063759c -3.85  -3.51
iter:  18 04:50:55  -255.063780c -4.01  -3.61
iter:  19 04:51:42  -255.063800c -4.12  -3.70
Writing to output.gpw (mode='')

iter:  20 04:52:30  -255.063802c -4.14  -3.84
iter:  21 04:53:18  -255.063811c -4.25  -3.94
iter:  22 04:54:05  -255.063822c -4.28  -3.99
iter:  23 04:54:52  -255.063838c -4.24  -4.09c
iter:  24 04:55:40  -255.063845c -4.45  -4.11c
Writing to output.gpw (mode='')

iter:  25 04:56:29  -255.063851c -4.46  -4.14c
iter:  26 04:57:16  -255.063844c -4.48  -4.14c
iter:  27 04:58:03  -255.063853c -4.55  -4.02c
iter:  28 04:58:50  -255.063861c -4.60  -4.08c
iter:  29 04:59:38  -255.063869c -4.64  -4.13c
Writing to output.gpw (mode='')

iter:  30 05:00:26  -255.063881c -4.57  -4.23c
iter:  31 05:01:14  -255.063885c -4.56  -4.33c
iter:  32 05:02:01  -255.063890c -4.62  -4.40c
iter:  33 05:02:48  -255.063898c -4.63  -4.44c
iter:  34 05:03:35  -255.063895c -4.90  -4.56c
Writing to output.gpw (mode='')

iter:  35 05:04:24  -255.063897c -4.91  -4.54c
iter:  36 05:05:11  -255.063900c -4.86  -4.72c
iter:  37 05:05:58  -255.063904c -4.86  -4.74c
iter:  38 05:06:46  -255.063905c -5.04  -4.78c
iter:  39 05:07:33  -255.063903c -5.14  -4.78c
Writing to output.gpw (mode='')

iter:  40 05:08:22  -255.063905c -5.29  -4.53c
iter:  41 05:09:09  -255.063902c -5.16  -4.59c
iter:  42 05:09:56  -255.063905c -5.39  -4.48c
iter:  43 05:10:44  -255.063906c -5.31  -4.54c
iter:  44 05:11:31  -255.063913c -5.10  -4.54c
Writing to output.gpw (mode='')

iter:  45 05:12:21  -255.063918c -5.14  -4.65c
iter:  46 05:13:08  -255.063918c -5.47  -4.72c
iter:  47 05:13:55  -255.063920c -5.41  -4.93c
iter:  48 05:14:43  -255.063921c -5.33  -4.99c
iter:  49 05:15:30  -255.063921c -5.41  -5.00c
Writing to output.gpw (mode='')

iter:  50 05:16:18  -255.063920c -5.75  -5.08c
iter:  51 05:17:06  -255.063920c -5.88  -5.16c
iter:  52 05:17:53  -255.063919c -5.66  -5.11c
iter:  53 05:18:40  -255.063921c -5.97  -4.95c
iter:  54 05:19:27  -255.063922c -5.62  -5.03c
Writing to output.gpw (mode='')

iter:  55 05:20:16  -255.063921c -6.15  -5.10c
iter:  56 05:21:03  -255.063921c -6.12  -5.00c
iter:  57 05:21:51  -255.063923c -5.85  -5.05c
iter:  58 05:22:38  -255.063923c -6.40  -5.25c
iter:  59 05:23:25  -255.063924c -6.35  -5.19c
Writing to output.gpw (mode='')

iter:  60 05:24:14  -255.063924c -5.92  -5.21c
iter:  61 05:25:01  -255.063925c -6.25  -5.29c
iter:  62 05:25:48  -255.063924c -6.42  -5.27c
iter:  63 05:26:36  -255.063925c -6.37  -5.23c
iter:  64 05:27:23  -255.063925c -6.56  -5.22c
Writing to output.gpw (mode='')

iter:  65 05:28:12  -255.063924c -6.35  -5.23c
iter:  66 05:29:00  -255.063925c -6.37  -5.17c
iter:  67 05:29:47  -255.063926c -6.27  -5.22c
iter:  68 05:30:34  -255.063927c -6.32  -5.31c
iter:  69 05:31:22  -255.063926c -6.92  -5.43c
Writing to output.gpw (mode='')

iter:  70 05:32:14  -255.063927c -6.61  -5.55c
iter:  71 05:33:01  -255.063927c -7.10  -5.64c
iter:  72 05:33:48  -255.063927c -6.80  -5.85c
iter:  73 05:34:35  -255.063927c -7.08  -5.92c
iter:  74 05:35:23  -255.063927c -6.93  -6.03c
Writing to output.gpw (mode='')

iter:  75 05:36:13  -255.063927c -6.76  -6.05c
iter:  76 05:37:00  -255.063927c -6.69  -6.12c
iter:  77 05:37:47  -255.063927c -7.26  -6.34c
iter:  78 05:38:34  -255.063927c -7.26  -6.41c
iter:  79 05:39:22  -255.063927c -7.17  -6.40c
Writing to output.gpw (mode='')

iter:  80 05:40:11  -255.063927c -7.37  -6.31c
iter:  81 05:40:58  -255.063927c -7.48c -6.14c

Converged after 81 iterations.

Dipole moment: (-1.349632, -9.749957, 0.005126) |e|*Ang

Energy contributions relative to reference atoms: (reference = -10970.764591)

Kinetic:       +112.532136
Potential:     -106.253625
External:        +0.000000
XC:            -261.569199
Entropy (-ST):   -0.155439
Local:           +0.304481
--------------------------
Free energy:   -255.141647
Extrapolated:  -255.063927

Dipole-layer corrected work functions: 3.396466, 3.386612 eV

Showing only first 2 kpts
 Kpt  Band  Eigenvalues  Occupancy
  0    24     -3.64332    1.98708
  0    25     -3.56157    1.93545
  0    26     -3.22148    0.06452
  0    27     -3.13998    0.01298

  1    24     -3.41163    1.19829
  1    25     -3.38118    0.89681
  1    26     -3.35629    0.66145
  1    27     -3.34547    0.56935


Fermi level: -3.39154

No gap
Writing to output.gpw (mode='')


Forces in eV/Ang:
  0 Li    0.00479    0.00047   -0.27356
  1 Li   -0.00479    0.00047   -0.27356
  2 Li    0.00000    0.00154   -0.27149
  3 Li   -0.00212   -0.00318   -0.27515
  4 Li    0.00212   -0.00318   -0.27515
  5 Li   -0.00000    0.00367   -0.27326
  6 Li   -0.00191    0.00149   -0.27261
  7 Li    0.00191    0.00149   -0.27261
  8 Li    0.00000   -0.00466   -0.27137
  9 Li   -0.00046   -0.00121    0.25949
 10 Li    0.00000    0.00075    0.25712
 11 Li    0.00046   -0.00121    0.25949
 12 Li    0.00218    0.00269    0.25476
 13 Li    0.00000   -0.00429    0.25960
 14 Li   -0.00218    0.00269    0.25476
 15 Li   -0.00168   -0.00260    0.25841
 16 Li    0.00000    0.00526    0.26551
 17 Li    0.00168   -0.00260    0.25841
 18 Li   -0.00545   -0.00110    0.04401
 19 Li    0.00545   -0.00110    0.04401
 20 Li    0.00000    0.00255    0.01838
 21 Li    0.00103    0.00123    0.03314
 22 Li   -0.00103    0.00122    0.03314
 23 Li    0.00000   -0.00422    0.03831
 24 Li   -0.00221    0.00151    0.03702
 25 Li    0.00221    0.00151    0.03702
 26 Li    0.00000    0.00203    0.04191
 27 Li    0.03062   -0.02841   -0.06751
 28 Li    0.00000    0.00585   -0.01882
 29 Li   -0.03062   -0.02841   -0.06751
 30 Li    0.01687    0.02665   -0.04402
 31 Li   -0.00000   -0.00804   -0.01769
 32 Li   -0.01686    0.02666   -0.04403
 33 Li   -0.00492    0.00435   -0.01831
 34 Li   -0.00000    0.00107   -0.01929
 35 Li    0.00492    0.00435   -0.01831
 36 B     0.00479    0.00813    0.03630
 37 H    -0.00550   -0.00294    0.00213
 38 H     0.01015   -0.01190    0.00609
 39 H    -0.00730    0.01184    0.03669
 40 N     0.00143   -0.12926    0.01271
 41 N     0.00007    0.04858    0.00580

System changes: positions 

Initializing position-dependent things.

Density initialized from wave functions
       .-----------------------.  
      /|                       |  
     / |                       |  
    /  |                       |  
   /   |                       |  
  /    |                       |  
 *     |                       |  
 |     |                       |  
 |     |                       |  
 |     |            H B  H     |  
 |     |             H         |  
 |     |                       |  
 |     Li              Li      |  
 |     |              N        |  
 |     |     Li      Ni      Li|  
 |     |  Li      Li      Li   |  
 | Li  |   Li      Li          |  
 |     |Li      Li      Li     |  
 |     | Li                    |  
 |   LLi     LLi     LLi       |  
 |     |  Li      Li      Li   |  
 | Li  |   Li      Li          |  
 |     |Li      Li      Li     |  
 Li    | Li      Li            |  
 |    Li      Li      Li       |  
 |     |                       |  
 |     |                       |  
 |     |                       |  
 |     |                       |  
 |     |                       |  
 |     |                       |  
 |     .-----------------------.  
 |    /                       /   
 |   /                       /    
 |  /                       /     
 | /                       /      
 |/                       /       
 *-----------------------*        

Positions:
   0 Li     1.617037    1.617037   10.000000    ( 0.0000,  0.0000,  0.0000)
   1 Li     4.851111    1.617037   10.000000    ( 0.0000,  0.0000,  0.0000)
   2 Li     8.085185    1.617037   10.000000    ( 0.0000,  0.0000,  0.0000)
   3 Li     1.617037    4.851111   10.000000    ( 0.0000,  0.0000,  0.0000)
   4 Li     4.851111    4.851111   10.000000    ( 0.0000,  0.0000,  0.0000)
   5 Li     8.085185    4.851111   10.000000    ( 0.0000,  0.0000,  0.0000)
   6 Li     1.617037    8.085185   10.000000    ( 0.0000,  0.0000,  0.0000)
   7 Li     4.851111    8.085185   10.000000    ( 0.0000,  0.0000,  0.0000)
   8 Li     8.085185    8.085185   10.000000    ( 0.0000,  0.0000,  0.0000)
   9 Li     0.000000    0.000000   11.617037    ( 0.0000,  0.0000,  0.0000)
  10 Li     3.234074    0.000000   11.617037    ( 0.0000,  0.0000,  0.0000)
  11 Li     6.468148    0.000000   11.617037    ( 0.0000,  0.0000,  0.0000)
  12 Li     0.000000    3.234074   11.617037    ( 0.0000,  0.0000,  0.0000)
  13 Li     3.234074    3.234074   11.617037    ( 0.0000,  0.0000,  0.0000)
  14 Li     6.468148    3.234074   11.617037    ( 0.0000,  0.0000,  0.0000)
  15 Li     0.000000    6.468148   11.617037    ( 0.0000,  0.0000,  0.0000)
  16 Li     3.234074    6.468148   11.617037    ( 0.0000,  0.0000,  0.0000)
  17 Li     6.468148    6.468148   11.617037    ( 0.0000,  0.0000,  0.0000)
  18 Li     1.616848    1.616999   13.471250    ( 0.0000,  0.0000,  0.0000)
  19 Li     4.851301    1.616999   13.471252    ( 0.0000,  0.0000,  0.0000)
  20 Li     8.085184    1.617124   13.470371    ( 0.0000,  0.0000,  0.0000)
  21 Li     1.617071    4.851150   13.470875    ( 0.0000,  0.0000,  0.0000)
  22 Li     4.851078    4.851150   13.470875    ( 0.0000,  0.0000,  0.0000)
  23 Li     8.085184    4.850964   13.471054    ( 0.0000,  0.0000,  0.0000)
  24 Li     1.616958    8.085240   13.471009    ( 0.0000,  0.0000,  0.0000)
  25 Li     4.851191    8.085239   13.471011    ( 0.0000,  0.0000,  0.0000)
  26 Li     8.085184    8.085257   13.471179    ( 0.0000,  0.0000,  0.0000)
  27 Li     0.001055   -0.000975   15.443613    ( 0.0000,  0.0000,  0.0000)
  28 Li     3.234074    0.000201   15.445290    ( 0.0000,  0.0000,  0.0000)
  29 Li     6.467093   -0.000975   15.443613    ( 0.0000,  0.0000,  0.0000)
  30 Li     0.000579    3.234986   15.444423    ( 0.0000,  0.0000,  0.0000)
  31 Li     3.234076    3.233801   15.445328    ( 0.0000,  0.0000,  0.0000)
  32 Li     6.467567    3.234989   15.444422    ( 0.0000,  0.0000,  0.0000)
  33 Li    -0.000168    6.468296   15.445305    ( 0.0000,  0.0000,  0.0000)
  34 Li     3.234076    6.468182   15.445273    ( 0.0000,  0.0000,  0.0000)
  35 Li     6.468313    6.468293   15.445304    ( 0.0000,  0.0000,  0.0000)
  36 B      8.085424    1.617961   21.447284    ( 0.0000,  0.0000,  0.0000)
  37 H      9.117277    2.209020   21.445972    ( 0.0000,  0.0000,  0.0000)
  38 H      7.055851    2.213398   21.446106    ( 0.0000,  0.0000,  0.0000)
  39 H      8.085002    0.428573   21.447150    ( 0.0000,  0.0000,  0.0000)
  40 N      8.085048    1.619075   18.446474    ( 0.0000,  0.0000,  0.0000)
  41 N      8.085000    0.516302   18.446072    ( 0.0000,  0.0000,  0.0000)

Unit cell:
           periodic     x           y           z      points  spacing
  1. axis:    yes    9.702222    0.000000    0.000000    60     0.1617
  2. axis:    yes    0.000000    9.702222    0.000000    60     0.1617
  3. axis:    no     0.000000    0.000000   24.851111   156     0.1593

  Lengths:   9.702222   9.702222  24.851111
  Angles:   90.000000  90.000000  90.000000

Effective grid spacing dv^(1/3) = 0.1609

     iter     time        total  log10-change:
                         energy  eigst   dens
iter:   1 05:42:07  -255.066651  -2.76
iter:   2 05:42:54  -255.064671  -3.24  -2.40
iter:   3 05:43:41  -255.064616c -4.47  -2.88
iter:   4 05:44:29  -255.064555c -4.12  -3.47
Writing to output.gpw (mode='')

iter:   5 05:45:18  -255.064532c -4.38  -3.45
iter:   6 05:46:05  -255.064579c -4.36  -3.64
iter:   7 05:46:52  -255.064542c -4.81  -3.86
iter:   8 05:47:40  -255.064544c -4.94  -4.00c
iter:   9 05:48:27  -255.064559c -5.36  -4.17c
Writing to output.gpw (mode='')

iter:  10 05:49:16  -255.064556c -5.90  -4.24c
iter:  11 05:50:03  -255.064557c -5.88  -4.32c
iter:  12 05:50:50  -255.064556c -5.83  -4.37c
iter:  13 05:51:37  -255.064557c -6.16  -4.47c
iter:  14 05:52:25  -255.064559c -6.06  -4.52c
Writing to output.gpw (mode='')

iter:  15 05:53:14  -255.064558c -6.21  -4.58c
iter:  16 05:54:01  -255.064558c -6.60  -4.71c
iter:  17 05:54:48  -255.064560c -6.74  -4.76c
iter:  18 05:55:36  -255.064559c -6.78  -4.88c
iter:  19 05:56:23  -255.064559c -7.04  -5.04c
Writing to output.gpw (mode='')

iter:  20 05:57:12  -255.064559c -6.96  -5.12c
iter:  21 05:57:59  -255.064560c -7.37  -5.16c
iter:  22 05:58:46  -255.064559c -7.33  -5.31c
iter:  23 05:59:34  -255.064559c -7.48c -5.43c

Converged after 23 iterations.

Dipole moment: (-1.357439, -9.743699, 0.006288) |e|*Ang

Energy contributions relative to reference atoms: (reference = -10970.764591)

Kinetic:       +112.692963
Potential:     -106.381202
External:        +0.000000
XC:            -261.603105
Entropy (-ST):   -0.155405
Local:           +0.304487
--------------------------
Free energy:   -255.142262
Extrapolated:  -255.064559

Dipole-layer corrected work functions: 3.396424, 3.384337 eV

Showing only first 2 kpts
 Kpt  Band  Eigenvalues  Occupancy
  0    24     -3.64210    1.98706
  0    25     -3.56046    1.93551
  0    26     -3.22019    0.06436
  0    27     -3.13867    0.01294

  1    24     -3.41028    1.19639
  1    25     -3.38001    0.89663
  1    26     -3.35529    0.66283
  1    27     -3.34446    0.57057


Fermi level: -3.39038

No gap
Writing to output.gpw (mode='')


Forces in eV/Ang:
  0 Li    0.00478    0.00045   -0.27362
  1 Li   -0.00478    0.00045   -0.27362
  2 Li    0.00000    0.00154   -0.27158
  3 Li   -0.00214   -0.00316   -0.27519
  4 Li    0.00214   -0.00316   -0.27519
  5 Li   -0.00000    0.00367   -0.27332
  6 Li   -0.00192    0.00151   -0.27267
  7 Li    0.00192    0.00151   -0.27267
  8 Li    0.00000   -0.00467   -0.27146
  9 Li   -0.00041   -0.00127    0.26001
 10 Li    0.00000    0.00081    0.25770
 11 Li    0.00041   -0.00127    0.26001
 12 Li    0.00225    0.00274    0.25525
 13 Li    0.00000   -0.00436    0.26014
 14 Li   -0.00225    0.00274    0.25525
 15 Li   -0.00170   -0.00257    0.25890
 16 Li    0.00000    0.00527    0.26595
 17 Li    0.00170   -0.00257    0.25890
 18 Li   -0.00520   -0.00100    0.04250
 19 Li    0.00520   -0.00100    0.04249
 20 Li    0.00000    0.00250    0.01772
 21 Li    0.00113    0.00133    0.03201
 22 Li   -0.00113    0.00133    0.03201
 23 Li    0.00000   -0.00394    0.03700
 24 Li   -0.00194    0.00126    0.03567
 25 Li    0.00194    0.00127    0.03567
 26 Li    0.00000    0.00180    0.04030
 27 Li    0.03013   -0.02787   -0.06652
 28 Li    0.00000    0.00569   -0.01819
 29 Li   -0.03013   -0.02787   -0.06652
 30 Li    0.01660    0.02616   -0.04317
 31 Li   -0.00000   -0.00789   -0.01710
 32 Li   -0.01659    0.02616   -0.04317
 33 Li   -0.00480    0.00421   -0.01777
 34 Li   -0.00000    0.00110   -0.01868
 35 Li    0.00481    0.00421   -0.01776
 36 B     0.00383    0.00259    0.03323
 37 H    -0.00103   -0.00003    0.00334
 38 H     0.00588   -0.00812    0.00731
 39 H    -0.00644    0.01041    0.03745
 40 N     0.00125   -0.01237    0.01048
 41 N     0.00009   -0.05810    0.00667

System changes: positions 

Initializing position-dependent things.

Density initialized from wave functions
       .-----------------------.  
      /|                       |  
     / |                       |  
    /  |                       |  
   /   |                       |  
  /    |                       |  
 *     |                       |  
 |     |                       |  
 |     |                       |  
 |     |            H B  H     |  
 |     |             H         |  
 |     |                       |  
 |     Li              Li      |  
 |     |              N        |  
 |     |     Li      Ni      Li|  
 |     |  Li      Li      Li   |  
 | Li  |   Li      Li          |  
 |     |Li      Li      Li     |  
 |     | Li                    |  
 |   LLi     LLi     LLi       |  
 |     |  Li      Li      Li   |  
 | Li  |   Li      Li          |  
 |     |Li      Li      Li     |  
 Li    | Li      Li            |  
 |    Li      Li      Li       |  
 |     |                       |  
 |     |                       |  
 |     |                       |  
 |     |                       |  
 |     |                       |  
 |     |                       |  
 |     .-----------------------.  
 |    /                       /   
 |   /                       /    
 |  /                       /     
 | /                       /      
 |/                       /       
 *-----------------------*        

Positions:
   0 Li     1.617037    1.617037   10.000000    ( 0.0000,  0.0000,  0.0000)
   1 Li     4.851111    1.617037   10.000000    ( 0.0000,  0.0000,  0.0000)
   2 Li     8.085185    1.617037   10.000000    ( 0.0000,  0.0000,  0.0000)
   3 Li     1.617037    4.851111   10.000000    ( 0.0000,  0.0000,  0.0000)
   4 Li     4.851111    4.851111   10.000000    ( 0.0000,  0.0000,  0.0000)
   5 Li     8.085185    4.851111   10.000000    ( 0.0000,  0.0000,  0.0000)
   6 Li     1.617037    8.085185   10.000000    ( 0.0000,  0.0000,  0.0000)
   7 Li     4.851111    8.085185   10.000000    ( 0.0000,  0.0000,  0.0000)
   8 Li     8.085185    8.085185   10.000000    ( 0.0000,  0.0000,  0.0000)
   9 Li     0.000000    0.000000   11.617037    ( 0.0000,  0.0000,  0.0000)
  10 Li     3.234074    0.000000   11.617037    ( 0.0000,  0.0000,  0.0000)
  11 Li     6.468148    0.000000   11.617037    ( 0.0000,  0.0000,  0.0000)
  12 Li     0.000000    3.234074   11.617037    ( 0.0000,  0.0000,  0.0000)
  13 Li     3.234074    3.234074   11.617037    ( 0.0000,  0.0000,  0.0000)
  14 Li     6.468148    3.234074   11.617037    ( 0.0000,  0.0000,  0.0000)
  15 Li     0.000000    6.468148   11.617037    ( 0.0000,  0.0000,  0.0000)
  16 Li     3.234074    6.468148   11.617037    ( 0.0000,  0.0000,  0.0000)
  17 Li     6.468148    6.468148   11.617037    ( 0.0000,  0.0000,  0.0000)
  18 Li     1.616045    1.616841   13.477765    ( 0.0000,  0.0000,  0.0000)
  19 Li     4.852103    1.616841   13.477766    ( 0.0000,  0.0000,  0.0000)
  20 Li     8.085184    1.617503   13.473092    ( 0.0000,  0.0000,  0.0000)
  21 Li     1.617234    4.851343   13.475781    ( 0.0000,  0.0000,  0.0000)
  22 Li     4.850915    4.851342   13.475781    ( 0.0000,  0.0000,  0.0000)
  23 Li     8.085184    4.850350   13.476726    ( 0.0000,  0.0000,  0.0000)
  24 Li     1.616645    8.085448   13.476483    ( 0.0000,  0.0000,  0.0000)
  25 Li     4.851504    8.085448   13.476485    ( 0.0000,  0.0000,  0.0000)
  26 Li     8.085184    8.085545   13.477369    ( 0.0000,  0.0000,  0.0000)
  27 Li     0.005635   -0.005214   15.433509    ( 0.0000,  0.0000,  0.0000)
  28 Li     3.234074    0.001070   15.442503    ( 0.0000,  0.0000,  0.0000)
  29 Li     6.462514   -0.005215   15.433508    ( 0.0000,  0.0000,  0.0000)
  30 Li     0.003101    3.238963   15.437852    ( 0.0000,  0.0000,  0.0000)
  31 Li     3.234076    3.232601   15.442709    ( 0.0000,  0.0000,  0.0000)
  32 Li     6.465045    3.238967   15.437850    ( 0.0000,  0.0000,  0.0000)
  33 Li    -0.000900    6.468940   15.442587    ( 0.0000,  0.0000,  0.0000)
  34 Li     3.234076    6.468347   15.442414    ( 0.0000,  0.0000,  0.0000)
  35 Li     6.469045    6.468938   15.442587    ( 0.0000,  0.0000,  0.0000)
  36 B      8.086085    1.618892   21.452537    ( 0.0000,  0.0000,  0.0000)
  37 H      9.116745    2.208766   21.446382    ( 0.0000,  0.0000,  0.0000)
  38 H      7.057086    2.211867   21.447113    ( 0.0000,  0.0000,  0.0000)
  39 H      8.083967    0.430171   21.452731    ( 0.0000,  0.0000,  0.0000)
  40 N      8.085249    1.611958   18.448221    ( 0.0000,  0.0000,  0.0000)
  41 N      8.085011    0.512260   18.447000    ( 0.0000,  0.0000,  0.0000)

Unit cell:
           periodic     x           y           z      points  spacing
  1. axis:    yes    9.702222    0.000000    0.000000    60     0.1617
  2. axis:    yes    0.000000    9.702222    0.000000    60     0.1617
  3. axis:    no     0.000000    0.000000   24.851111   156     0.1593

  Lengths:   9.702222   9.702222  24.851111
  Angles:   90.000000  90.000000  90.000000

Effective grid spacing dv^(1/3) = 0.1609

     iter     time        total  log10-change:
                         energy  eigst   dens
iter:   1 06:00:46  -255.162557  -1.00
iter:   2 06:01:33  -255.074061  -1.70  -1.53
iter:   3 06:02:20  -255.068602  -2.82  -2.10
iter:   4 06:03:07  -255.068484c -3.00  -2.56
Writing to output.gpw (mode='')

iter:   5 06:03:57  -255.068453c -2.63  -2.66
iter:   6 06:04:44  -255.068446c -3.18  -2.99
iter:   7 06:05:31  -255.068522c -3.23  -2.98
iter:   8 06:06:18  -255.068529c -3.19  -2.99
iter:   9 06:07:06  -255.068514c -3.75  -3.21
Writing to output.gpw (mode='')

iter:  10 06:07:55  -255.068527c -3.78  -3.34
iter:  11 06:08:42  -255.068533c -4.10  -3.56
iter:  12 06:09:29  -255.068539c -4.43  -3.58
iter:  13 06:10:17  -255.068562c -4.28  -3.66
iter:  14 06:11:04  -255.068563c -4.48  -3.65
Writing to output.gpw (mode='')

iter:  15 06:11:53  -255.068573c -4.68  -3.78
iter:  16 06:12:40  -255.068573c -4.66  -3.81
iter:  17 06:13:27  -255.068580c -4.93  -3.88
iter:  18 06:14:15  -255.068581c -4.86  -3.91
iter:  19 06:15:02  -255.068583c -5.10  -3.97
Writing to output.gpw (mode='')

iter:  20 06:15:51  -255.068584c -5.40  -4.01c
iter:  21 06:16:38  -255.068583c -5.21  -4.11c
iter:  22 06:17:25  -255.068585c -5.54  -4.20c
iter:  23 06:18:12  -255.068586c -5.90  -4.27c
iter:  24 06:19:00  -255.068583c -5.76  -4.35c
Writing to output.gpw (mode='')

iter:  25 06:19:49  -255.068582c -6.04  -4.48c
iter:  26 06:20:36  -255.068583c -6.23  -4.77c
iter:  27 06:21:23  -255.068583c -6.02  -4.79c
iter:  28 06:22:11  -255.068583c -6.36  -4.95c
iter:  29 06:22:58  -255.068583c -6.28  -5.00c
Writing to output.gpw (mode='')

iter:  30 06:23:47  -255.068583c -6.16  -5.08c
iter:  31 06:24:34  -255.068583c -6.44  -5.19c
iter:  32 06:25:21  -255.068583c -6.71  -5.17c
iter:  33 06:26:09  -255.068583c -6.64  -5.15c
iter:  34 06:26:56  -255.068583c -6.85  -5.05c
Writing to output.gpw (mode='')

iter:  35 06:27:45  -255.068583c -6.61  -5.05c
iter:  36 06:28:32  -255.068583c -6.67  -5.03c
iter:  37 06:29:19  -255.068583c -6.72  -5.00c
iter:  38 06:30:07  -255.068584c -6.82  -5.10c
iter:  39 06:30:54  -255.068584c -7.20  -5.11c
Writing to output.gpw (mode='')

iter:  40 06:31:42  -255.068584c -7.23  -5.01c
iter:  41 06:32:30  -255.068583c -7.37  -5.07c
iter:  42 06:33:17  -255.068583c -7.34  -5.07c
iter:  43 06:34:04  -255.068584c -7.34  -5.05c
iter:  44 06:34:52  -255.068584c -6.84  -5.05c
Writing to output.gpw (mode='')

iter:  45 06:35:42  -255.068584c -7.28  -5.05c
iter:  46 06:36:29  -255.068584c -7.37  -4.93c
iter:  47 06:37:16  -255.068584c -7.40c -5.08c

Converged after 47 iterations.

Dipole moment: (-1.440879, -9.717770, 0.010851) |e|*Ang

Energy contributions relative to reference atoms: (reference = -10970.764591)

Kinetic:       +113.436139
Potential:     -106.960703
External:        +0.000000
XC:            -261.770834
Entropy (-ST):   -0.155209
Local:           +0.304419
--------------------------
Free energy:   -255.146188
Extrapolated:  -255.068584

Dipole-layer corrected work functions: 3.395939, 3.375081 eV

Showing only first 2 kpts
 Kpt  Band  Eigenvalues  Occupancy
  0    24     -3.63653    1.98688
  0    25     -3.55602    1.93604
  0    26     -3.21402    0.06275
  0    27     -3.13278    0.01268

  1    24     -3.40388    1.18167
  1    25     -3.37443    0.88966
  1    26     -3.35210    0.67783
  1    27     -3.34090    0.58132


Fermi level: -3.38551

No gap
Writing to output.gpw (mode='')


Forces in eV/Ang:
  0 Li    0.00479    0.00031   -0.27424
  1 Li   -0.00479    0.00031   -0.27424
  2 Li    0.00000    0.00158   -0.27248
  3 Li   -0.00223   -0.00309   -0.27560
  4 Li    0.00223   -0.00309   -0.27559
  5 Li   -0.00000    0.00375   -0.27382
  6 Li   -0.00193    0.00160   -0.27323
  7 Li    0.00193    0.00160   -0.27323
  8 Li   -0.00000   -0.00477   -0.27226
  9 Li    0.00005   -0.00181    0.26536
 10 Li   -0.00000    0.00127    0.26342
 11 Li   -0.00005   -0.00181    0.26536
 12 Li    0.00296    0.00321    0.26023
 13 Li    0.00000   -0.00496    0.26556
 14 Li   -0.00296    0.00321    0.26022
 15 Li   -0.00189   -0.00238    0.26393
 16 Li    0.00000    0.00552    0.27040
 17 Li    0.00189   -0.00238    0.26392
 18 Li   -0.00264    0.00010    0.02765
 19 Li    0.00264    0.00010    0.02764
 20 Li    0.00000    0.00230    0.01071
 21 Li    0.00218    0.00232    0.02108
 22 Li   -0.00218    0.00232    0.02108
 23 Li    0.00000   -0.00151    0.02417
 24 Li    0.00073   -0.00113    0.02250
 25 Li   -0.00073   -0.00113    0.02250
 26 Li    0.00000   -0.00047    0.02471
 27 Li    0.02453   -0.02233   -0.05471
 28 Li   -0.00000    0.00413   -0.01213
 29 Li   -0.02453   -0.02233   -0.05470
 30 Li    0.01367    0.02132   -0.03396
 31 Li   -0.00000   -0.00629   -0.01151
 32 Li   -0.01367    0.02132   -0.03397
 33 Li   -0.00380    0.00307   -0.01215
 34 Li   -0.00000    0.00125   -0.01270
 35 Li    0.00380    0.00307   -0.01214
 36 B    -0.00323   -0.02764    0.00042
 37 H     0.02973    0.01948    0.01439
 38 H    -0.02556    0.02103    0.01825
 39 H     0.00115   -0.01097    0.04678
 40 N    -0.00033    0.43174    0.00498
 41 N     0.00023   -0.41861    0.01408

System changes: positions 

Initializing position-dependent things.

Density initialized from wave functions
       .-----------------------.  
      /|                       |  
     / |                       |  
    /  |                       |  
   /   |                       |  
  /    |                       |  
 *     |                       |  
 |     |                       |  
 |     |                       |  
 |     |            H B  H     |  
 |     |             H         |  
 |     |                       |  
 |     Li              Li      |  
 |     |              N        |  
 |     |     Li      Ni      Li|  
 |     |  Li      Li      Li   |  
 | Li  |   Li      Li          |  
 |     |Li      Li      Li     |  
 |     | Li                    |  
 |   LLi     LLi     LLi       |  
 |     |  Li      Li      Li   |  
 | Li  |   Li      Li          |  
 |     |Li      Li      Li     |  
 Li    | Li      Li            |  
 |    Li      Li      Li       |  
 |     |                       |  
 |     |                       |  
 |     |                       |  
 |     |                       |  
 |     |                       |  
 |     |                       |  
 |     .-----------------------.  
 |    /                       /   
 |   /                       /    
 |  /                       /     
 | /                       /      
 |/                       /       
 *-----------------------*        

Positions:
   0 Li     1.617037    1.617037   10.000000    ( 0.0000,  0.0000,  0.0000)
   1 Li     4.851111    1.617037   10.000000    ( 0.0000,  0.0000,  0.0000)
   2 Li     8.085185    1.617037   10.000000    ( 0.0000,  0.0000,  0.0000)
   3 Li     1.617037    4.851111   10.000000    ( 0.0000,  0.0000,  0.0000)
   4 Li     4.851111    4.851111   10.000000    ( 0.0000,  0.0000,  0.0000)
   5 Li     8.085185    4.851111   10.000000    ( 0.0000,  0.0000,  0.0000)
   6 Li     1.617037    8.085185   10.000000    ( 0.0000,  0.0000,  0.0000)
   7 Li     4.851111    8.085185   10.000000    ( 0.0000,  0.0000,  0.0000)
   8 Li     8.085185    8.085185   10.000000    ( 0.0000,  0.0000,  0.0000)
   9 Li     0.000000    0.000000   11.617037    ( 0.0000,  0.0000,  0.0000)
  10 Li     3.234074    0.000000   11.617037    ( 0.0000,  0.0000,  0.0000)
  11 Li     6.468148    0.000000   11.617037    ( 0.0000,  0.0000,  0.0000)
  12 Li     0.000000    3.234074   11.617037    ( 0.0000,  0.0000,  0.0000)
  13 Li     3.234074    3.234074   11.617037    ( 0.0000,  0.0000,  0.0000)
  14 Li     6.468148    3.234074   11.617037    ( 0.0000,  0.0000,  0.0000)
  15 Li     0.000000    6.468148   11.617037    ( 0.0000,  0.0000,  0.0000)
  16 Li     3.234074    6.468148   11.617037    ( 0.0000,  0.0000,  0.0000)
  17 Li     6.468148    6.468148   11.617037    ( 0.0000,  0.0000,  0.0000)
  18 Li     1.615123    1.616672   13.485384    ( 0.0000,  0.0000,  0.0000)
  19 Li     4.853026    1.616672   13.485385    ( 0.0000,  0.0000,  0.0000)
  20 Li     8.085185    1.617963   13.476251    ( 0.0000,  0.0000,  0.0000)
  21 Li     1.617454    4.851598   13.481524    ( 0.0000,  0.0000,  0.0000)
  22 Li     4.850695    4.851597   13.481524    ( 0.0000,  0.0000,  0.0000)
  23 Li     8.085184    4.849652   13.483360    ( 0.0000,  0.0000,  0.0000)
  24 Li     1.616321    8.085651   13.482871    ( 0.0000,  0.0000,  0.0000)
  25 Li     4.851828    8.085652   13.482872    ( 0.0000,  0.0000,  0.0000)
  26 Li     8.085184    8.085848   13.484579    ( 0.0000,  0.0000,  0.0000)
  27 Li     0.011083   -0.010256   15.421480    ( 0.0000,  0.0000,  0.0000)
  28 Li     3.234074    0.002094   15.439236    ( 0.0000,  0.0000,  0.0000)
  29 Li     6.457066   -0.010258   15.421479    ( 0.0000,  0.0000,  0.0000)
  30 Li     0.006106    3.243704   15.430056    ( 0.0000,  0.0000,  0.0000)
  31 Li     3.234076    3.231175   15.439637    ( 0.0000,  0.0000,  0.0000)
  32 Li     6.462041    3.243708   15.430053    ( 0.0000,  0.0000,  0.0000)
  33 Li    -0.001770    6.469702   15.439398    ( 0.0000,  0.0000,  0.0000)
  34 Li     3.234076    6.468548   15.439058    ( 0.0000,  0.0000,  0.0000)
  35 Li     6.469916    6.469700   15.439399    ( 0.0000,  0.0000,  0.0000)
  36 B      8.086751    1.619476   21.458206    ( 0.0000,  0.0000,  0.0000)
  37 H      9.116693    2.208833   21.447114    ( 0.0000,  0.0000,  0.0000)
  38 H      7.057969    2.210586   21.448570    ( 0.0000,  0.0000,  0.0000)
  39 H      8.082864    0.431647   21.459733    ( 0.0000,  0.0000,  0.0000)
  40 N      8.085459    1.605880   18.450331    ( 0.0000,  0.0000,  0.0000)
  41 N      8.085029    0.506559   18.448287    ( 0.0000,  0.0000,  0.0000)

Unit cell:
           periodic     x           y           z      points  spacing
  1. axis:    yes    9.702222    0.000000    0.000000    60     0.1617
  2. axis:    yes    0.000000    9.702222    0.000000    60     0.1617
  3. axis:    no     0.000000    0.000000   24.851111   156     0.1593

  Lengths:   9.702222   9.702222  24.851111
  Angles:   90.000000  90.000000  90.000000

Effective grid spacing dv^(1/3) = 0.1609

     iter     time        total  log10-change:
                         energy  eigst   dens
iter:   1 06:38:25  -255.160246  -1.06
iter:   2 06:39:12  -255.078760  -1.71  -1.53
iter:   3 06:40:00  -255.073151  -2.89  -2.09
iter:   4 06:40:47  -255.072099c -2.92  -2.42
Writing to output.gpw (mode='')

iter:   5 06:41:36  -255.072086c -2.50  -2.60
iter:   6 06:42:23  -255.071789c -3.07  -2.86
iter:   7 06:43:10  -255.071818c -3.10  -3.02
iter:   8 06:43:58  -255.071899c -3.32  -3.17
iter:   9 06:44:45  -255.071837c -3.96  -3.32
Writing to output.gpw (mode='')

iter:  10 06:45:34  -255.071822c -4.05  -3.46
iter:  11 06:46:21  -255.071842c -4.28  -3.55
iter:  12 06:47:08  -255.071867c -4.23  -3.60
iter:  13 06:47:55  -255.071853c -4.52  -3.70
iter:  14 06:48:43  -255.071859c -4.59  -3.86
Writing to output.gpw (mode='')

iter:  15 06:49:32  -255.071861c -4.75  -3.99
iter:  16 06:50:19  -255.071869c -4.90  -4.06c
iter:  17 06:51:06  -255.071868c -5.02  -4.12c
iter:  18 06:51:53  -255.071869c -5.05  -4.11c
iter:  19 06:52:41  -255.071871c -5.41  -4.16c
Writing to output.gpw (mode='')

iter:  20 06:53:29  -255.071870c -5.29  -4.29c
iter:  21 06:54:17  -255.071871c -5.55  -4.31c
iter:  22 06:55:04  -255.071872c -5.58  -4.39c
iter:  23 06:55:51  -255.071872c -5.79  -4.42c
iter:  24 06:56:39  -255.071869c -6.01  -4.44c
Writing to output.gpw (mode='')

iter:  25 06:57:27  -255.071869c -6.08  -4.57c
iter:  26 06:58:15  -255.071869c -6.06  -4.62c
iter:  27 06:59:02  -255.071869c -6.08  -4.64c
iter:  28 06:59:49  -255.071869c -6.18  -4.70c
iter:  29 07:00:37  -255.071869c -6.35  -4.77c
Writing to output.gpw (mode='')

iter:  30 07:01:25  -255.071869c -6.46  -4.90c
iter:  31 07:02:12  -255.071869c -6.54  -5.00c
iter:  32 07:03:00  -255.071869c -6.70  -5.43c
iter:  33 07:03:47  -255.071869c -6.73  -5.46c
iter:  34 07:04:34  -255.071869c -6.79  -5.45c
Writing to output.gpw (mode='')

iter:  35 07:05:23  -255.071869c -6.76  -5.38c
iter:  36 07:06:10  -255.071869c -6.86  -5.40c
iter:  37 07:06:58  -255.071869c -6.95  -5.36c
iter:  38 07:07:45  -255.071869c -6.91  -5.34c
iter:  39 07:08:32  -255.071869c -6.90  -5.31c
Writing to output.gpw (mode='')

iter:  40 07:09:21  -255.071869c -7.01  -5.33c
iter:  41 07:10:08  -255.071869c -7.21  -5.28c
iter:  42 07:10:55  -255.071869c -6.96  -5.23c
iter:  43 07:11:43  -255.071869c -7.11  -5.19c
iter:  44 07:12:30  -255.071869c -6.90  -5.17c
Writing to output.gpw (mode='')

iter:  45 07:13:18  -255.071869c -7.16  -5.13c
iter:  46 07:14:06  -255.071869c -7.25  -5.16c
iter:  47 07:14:53  -255.071869c -7.34  -5.09c
iter:  48 07:15:40  -255.071869c -7.31  -5.07c
iter:  49 07:16:28  -255.071869c -7.28  -5.08c
Writing to output.gpw (mode='')

iter:  50 07:17:16  -255.071869c -7.26  -5.19c
iter:  51 07:18:03  -255.071868c -7.35  -5.17c
iter:  52 07:18:51  -255.071868c -7.31  -5.05c
iter:  53 07:19:38  -255.071868c -7.32  -5.05c
iter:  54 07:20:26  -255.071868c -7.41c -5.10c

Converged after 54 iterations.

Dipole moment: (-1.542696, -9.703099, 0.012161) |e|*Ang

Energy contributions relative to reference atoms: (reference = -10970.764591)

Kinetic:       +113.745560
Potential:     -107.188608
External:        +0.000000
XC:            -261.855357
Entropy (-ST):   -0.155034
Local:           +0.304054
--------------------------
Free energy:   -255.149385
Extrapolated:  -255.071868

Dipole-layer corrected work functions: 3.395636, 3.372259 eV

Showing only first 2 kpts
 Kpt  Band  Eigenvalues  Occupancy
  0    24     -3.63419    1.98668
  0    25     -3.55490    1.93659
  0    26     -3.21086    0.06084
  0    27     -3.13029    0.01245

  1    24     -3.40073    1.16631
  1    25     -3.37178    0.87896
  1    26     -3.35262    0.69662
  1    27     -3.34071    0.59273


Fermi level: -3.38395

No gap
Writing to output.gpw (mode='')


Forces in eV/Ang:
  0 Li    0.00483    0.00021   -0.27502
  1 Li   -0.00483    0.00021   -0.27502
  2 Li    0.00000    0.00164   -0.27358
  3 Li   -0.00232   -0.00309   -0.27611
  4 Li    0.00232   -0.00309   -0.27611
  5 Li   -0.00000    0.00381   -0.27444
  6 Li   -0.00197    0.00172   -0.27390
  7 Li    0.00197    0.00172   -0.27390
  8 Li    0.00000   -0.00489   -0.27320
  9 Li    0.00058   -0.00244    0.27166
 10 Li   -0.00000    0.00178    0.27006
 11 Li   -0.00058   -0.00244    0.27166
 12 Li    0.00383    0.00377    0.26594
 13 Li    0.00000   -0.00563    0.27178
 14 Li   -0.00383    0.00377    0.26594
 15 Li   -0.00211   -0.00219    0.26983
 16 Li    0.00000    0.00585    0.27548
 17 Li    0.00211   -0.00219    0.26983
 18 Li    0.00045    0.00144    0.01019
 19 Li   -0.00045    0.00143    0.01019
 20 Li    0.00000    0.00214    0.00215
 21 Li    0.00349    0.00360    0.00827
 22 Li   -0.00349    0.00360    0.00827
 23 Li    0.00000    0.00135    0.00908
 24 Li    0.00401   -0.00407    0.00696
 25 Li   -0.00401   -0.00407    0.00696
 26 Li    0.00000   -0.00323    0.00649
 27 Li    0.01708   -0.01546   -0.03892
 28 Li   -0.00000    0.00225   -0.00502
 29 Li   -0.01708   -0.01546   -0.03890
 30 Li    0.01000    0.01554   -0.02235
 31 Li   -0.00000   -0.00433   -0.00493
 32 Li   -0.01000    0.01554   -0.02236
 33 Li   -0.00267    0.00189   -0.00534
 34 Li   -0.00000    0.00136   -0.00562
 35 Li    0.00267    0.00189   -0.00534
 36 B    -0.00839   -0.03613   -0.03944
 37 H     0.04536    0.02895    0.02410
 38 H    -0.04509    0.04256    0.02737
 39 H     0.00783   -0.03525    0.06001
 40 N    -0.00013    0.43229    0.02017
 41 N     0.00004   -0.40852    0.01181

System changes: positions 

Initializing position-dependent things.

Density initialized from wave functions
       .-----------------------.  
      /|                       |  
     / |                       |  
    /  |                       |  
   /   |                       |  
  /    |                       |  
 *     |                       |  
 |     |                       |  
 |     |                       |  
 |     |            H B  H     |  
 |     |             H         |  
 |     |                       |  
 |     Li              Li      |  
 |     |              N        |  
 |     |     Li      Ni      Li|  
 |     |  Li      Li      Li   |  
 | Li  |   Li      Li          |  
 |     |Li      Li      Li     |  
 |     | Li                    |  
 |   LLi     LLi     LLi       |  
 |     |  Li      Li      Li   |  
 | Li  |   Li      Li          |  
 |     |Li      Li      Li     |  
[...]
iter:  12 23:32:53  -255.090623c -5.40  -3.97
iter:  13 23:35:20  -255.090634c -5.40  -3.99
iter:  14 23:37:51  -255.090631c -5.60  -4.01c
Writing to output.gpw (mode='')

iter:  15 23:40:24  -255.090626c -5.90  -4.10c
iter:  16 23:42:50  -255.090620c -5.93  -4.22c
iter:  17 23:45:10  -255.090623c -6.28  -4.38c
iter:  18 23:47:42  -255.090623c -6.27  -4.63c
iter:  19 23:50:11  -255.090625c -6.40  -4.68c
Writing to output.gpw (mode='')

iter:  20 23:52:48  -255.090625c -6.62  -4.79c
iter:  21 23:55:09  -255.090625c -6.85  -4.81c
iter:  22 23:57:35  -255.090624c -7.05  -4.88c
iter:  23 00:00:03  -255.090624c -7.20  -5.22c
iter:  24 00:02:25  -255.090624c -7.08  -5.30c
Writing to output.gpw (mode='')

iter:  25 00:05:05  -255.090624c -7.24  -5.36c
iter:  26 00:07:28  -255.090624c -7.11  -5.49c
iter:  27 00:10:00  -255.090624c -7.43c -5.49c

Converged after 27 iterations.

Dipole moment: (-1.615930, -10.813695, -0.026133) |e|*Ang

Energy contributions relative to reference atoms: (reference = -10970.764591)

Kinetic:       +114.056226
Potential:     -107.350297
External:        +0.000000
XC:            -262.021957
Entropy (-ST):   -0.154411
Local:           +0.302609
--------------------------
Free energy:   -255.167829
Extrapolated:  -255.090624

Dipole-layer corrected work functions: 3.395734, 3.445970 eV

Showing only first 2 kpts
 Kpt  Band  Eigenvalues  Occupancy
  0    24     -3.68387    1.98967
  0    25     -3.59572    1.94122
  0    26     -3.24278    0.05523
  0    27     -3.18135    0.01649

  1    24     -3.42783    1.06967
  1    25     -3.40568    0.84943
  1    26     -3.39034    0.70403
  1    27     -3.37793    0.59531


Fermi level: -3.42085

No gap
Writing to output.gpw (mode='')


Forces in eV/Ang:
  0 Li    0.00487   -0.00015   -0.27622
  1 Li   -0.00487   -0.00014   -0.27622
  2 Li    0.00000    0.00189   -0.27639
  3 Li   -0.00175   -0.00195   -0.27607
  4 Li    0.00175   -0.00195   -0.27608
  5 Li    0.00000    0.00311   -0.27443
  6 Li   -0.00061    0.00129   -0.27422
  7 Li    0.00061    0.00129   -0.27421
  8 Li   -0.00000   -0.00495   -0.27543
  9 Li    0.00746   -0.00426    0.27832
 10 Li    0.00000   -0.00393    0.26100
 11 Li   -0.00747   -0.00425    0.27832
 12 Li    0.00989    0.01308    0.26642
 13 Li   -0.00001    0.00682    0.25691
 14 Li   -0.00988    0.01308    0.26644
 15 Li    0.00606   -0.00729    0.25846
 16 Li    0.00001   -0.00055    0.24921
 17 Li   -0.00607   -0.00730    0.25846
 18 Li   -0.00747   -0.00043    0.00456
 19 Li    0.00747   -0.00038    0.00454
 20 Li    0.00000   -0.00287   -0.00512
 21 Li   -0.00120   -0.00137    0.00073
 22 Li    0.00123   -0.00139    0.00076
 23 Li   -0.00002   -0.00352    0.00125
 24 Li    0.00042    0.00138   -0.00025
 25 Li   -0.00045    0.00136   -0.00031
 26 Li    0.00003    0.00476    0.00208
 27 Li    0.00881   -0.00639    0.00264
 28 Li   -0.00001    0.00610    0.00701
 29 Li   -0.00882   -0.00638    0.00261
 30 Li    0.00498    0.00746   -0.00297
 31 Li   -0.00000   -0.00703    0.00151
 32 Li   -0.00496    0.00748   -0.00295
 33 Li   -0.00554   -0.00222    0.00467
 34 Li   -0.00000    0.00127   -0.01077
 35 Li    0.00554   -0.00221    0.00468
 36 B    -0.00573    0.00228   -0.01159
 37 H    -0.00412    0.01142    0.02843
 38 H    -0.00391    0.03150    0.02110
 39 H     0.01152   -0.00016    0.02373
 40 N     0.00508    0.07500    0.04685
 41 N    -0.00083   -0.05378   -0.02332

System changes: positions 

Initializing position-dependent things.

Density initialized from wave functions
       .-----------------------.  
      /|                       |  
     / |                       |  
    /  |                       |  
   /   |                       |  
  /    |                       |  
 *     |                       |  
 |     |                       |  
 |     |                       |  
 |     |            H B  H     |  
 |     |             H         |  
 |     |                       |  
 |     Li      Li      Li      |  
 |     |              N        |  
 |   Li|     Li      Ni        |  
 |     |  Li      Li      Li   |  
 | Li  |   Li      Li          |  
 |     |Li      Li      Li     |  
 |     |                       |  
 |   LLi     LLi     LLi       |  
 |     |  Li      Li      Li   |  
 | Li  |   Li      Li          |  
 |     |Li      Li      Li     |  
 Li    | Li      Li            |  
 |    Li      Li      Li       |  
 |     |                       |  
 |     |                       |  
 |     |                       |  
 |     |                       |  
 |     |                       |  
 |     |                       |  
 |     .-----------------------.  
 |    /                       /   
 |   /                       /    
 |  /                       /     
 | /                       /      
 |/                       /       
 *-----------------------*        

Positions:
   0 Li     1.617037    1.617037   10.000000    ( 0.0000,  0.0000,  0.0000)
   1 Li     4.851111    1.617037   10.000000    ( 0.0000,  0.0000,  0.0000)
   2 Li     8.085185    1.617037   10.000000    ( 0.0000,  0.0000,  0.0000)
   3 Li     1.617037    4.851111   10.000000    ( 0.0000,  0.0000,  0.0000)
   4 Li     4.851111    4.851111   10.000000    ( 0.0000,  0.0000,  0.0000)
   5 Li     8.085185    4.851111   10.000000    ( 0.0000,  0.0000,  0.0000)
   6 Li     1.617037    8.085185   10.000000    ( 0.0000,  0.0000,  0.0000)
   7 Li     4.851111    8.085185   10.000000    ( 0.0000,  0.0000,  0.0000)
   8 Li     8.085185    8.085185   10.000000    ( 0.0000,  0.0000,  0.0000)
   9 Li     0.000000    0.000000   11.617037    ( 0.0000,  0.0000,  0.0000)
  10 Li     3.234074    0.000000   11.617037    ( 0.0000,  0.0000,  0.0000)
  11 Li     6.468148    0.000000   11.617037    ( 0.0000,  0.0000,  0.0000)
  12 Li     0.000000    3.234074   11.617037    ( 0.0000,  0.0000,  0.0000)
  13 Li     3.234074    3.234074   11.617037    ( 0.0000,  0.0000,  0.0000)
  14 Li     6.468148    3.234074   11.617037    ( 0.0000,  0.0000,  0.0000)
  15 Li     0.000000    6.468148   11.617037    ( 0.0000,  0.0000,  0.0000)
  16 Li     3.234074    6.468148   11.617037    ( 0.0000,  0.0000,  0.0000)
  17 Li     6.468148    6.468148   11.617037    ( 0.0000,  0.0000,  0.0000)
  18 Li     1.628920    1.623577   13.469267    ( 0.0000,  0.0000,  0.0000)
  19 Li     4.839214    1.623550   13.469266    ( 0.0000,  0.0000,  0.0000)
  20 Li     8.085193    1.628496   13.456131    ( 0.0000,  0.0000,  0.0000)
  21 Li     1.628596    4.860956   13.477329    ( 0.0000,  0.0000,  0.0000)
  22 Li     4.839526    4.860965   13.477296    ( 0.0000,  0.0000,  0.0000)
  23 Li     8.085201    4.859646   13.473351    ( 0.0000,  0.0000,  0.0000)
  24 Li     1.628769    8.070996   13.471276    ( 0.0000,  0.0000,  0.0000)
  25 Li     4.839398    8.071007   13.471309    ( 0.0000,  0.0000,  0.0000)
  26 Li     8.085173    8.069857   13.459509    ( 0.0000,  0.0000,  0.0000)
  27 Li     0.013150   -0.014063   15.350928    ( 0.0000,  0.0000,  0.0000)
  28 Li     3.234076   -0.003812   15.410802    ( 0.0000,  0.0000,  0.0000)
  29 Li     6.455005   -0.014069   15.350876    ( 0.0000,  0.0000,  0.0000)
  30 Li     0.010795    3.251205   15.389308    ( 0.0000,  0.0000,  0.0000)
  31 Li     3.234076    3.235419   15.426998    ( 0.0000,  0.0000,  0.0000)
  32 Li     6.457339    3.251197   15.389279    ( 0.0000,  0.0000,  0.0000)
  33 Li     0.002817    6.472466   15.416432    ( 0.0000,  0.0000,  0.0000)
  34 Li     3.234078    6.469309   15.450447    ( 0.0000,  0.0000,  0.0000)
  35 Li     6.465330    6.472450   15.416417    ( 0.0000,  0.0000,  0.0000)
  36 B      8.089584    1.645998   21.541285    ( 0.0000,  0.0000,  0.0000)
  37 H      9.125240    2.227102   21.487523    ( 0.0000,  0.0000,  0.0000)
  38 H      7.065047    2.247824   21.494322    ( 0.0000,  0.0000,  0.0000)
  39 H      8.081672    0.460362   21.644760    ( 0.0000,  0.0000,  0.0000)
  40 N      8.084104    1.525201   18.602623    ( 0.0000,  0.0000,  0.0000)
  41 N      8.085275    0.441591   18.400952    ( 0.0000,  0.0000,  0.0000)

Unit cell:
           periodic     x           y           z      points  spacing
  1. axis:    yes    9.702222    0.000000    0.000000    60     0.1617
  2. axis:    yes    0.000000    9.702222    0.000000    60     0.1617
  3. axis:    no     0.000000    0.000000   24.851111   156     0.1593

  Lengths:   9.702222   9.702222  24.851111
  Angles:   90.000000  90.000000  90.000000

Effective grid spacing dv^(1/3) = 0.1609

     iter     time        total  log10-change:
                         energy  eigst   dens
iter:   1 00:13:17  -255.094000  -2.19
iter:   2 00:15:39  -255.091739  -2.71  -2.19
iter:   3 00:18:06  -255.090952c -3.78  -2.53
iter:   4 00:20:29  -255.090936c -3.54  -2.85
Writing to output.gpw (mode='')

iter:   5 00:23:10  -255.091053c -3.41  -3.22
iter:   6 00:25:39  -255.090962c -3.96  -3.22
iter:   7 00:28:08  -255.090998c -4.10  -3.50
iter:   8 00:30:34  -255.090959c -4.55  -3.53
iter:   9 00:32:57  -255.090947c -5.05  -3.81
Writing to output.gpw (mode='')

iter:  10 00:35:31  -255.090948c -5.30  -3.97
iter:  11 00:37:57  -255.090960c -5.43  -4.10c
iter:  12 00:40:27  -255.090968c -5.47  -4.20c
iter:  13 00:42:47  -255.090966c -5.65  -4.26c
iter:  14 00:45:11  -255.090962c -5.92  -4.26c
Writing to output.gpw (mode='')

iter:  15 00:47:55  -255.090957c -6.00  -4.48c
iter:  16 00:50:35  -255.090958c -6.40  -4.49c
iter:  17 00:53:08  -255.090957c -6.51  -4.61c
iter:  18 00:55:33  -255.090956c -6.54  -4.84c
iter:  19 00:58:05  -255.090955c -6.59  -4.91c
Writing to output.gpw (mode='')

iter:  20 01:00:45  -255.090955c -6.65  -4.93c
iter:  21 01:03:19  -255.090954c -6.81  -5.02c
iter:  22 01:05:42  -255.090955c -6.83  -5.13c
iter:  23 01:08:08  -255.090955c -7.15  -5.05c
iter:  24 01:10:28  -255.090955c -7.15  -5.18c
Writing to output.gpw (mode='')

iter:  25 01:13:15  -255.090955c -7.24  -5.45c
iter:  26 01:15:40  -255.090955c -7.42c -5.54c

Converged after 26 iterations.

Dipole moment: (-1.649444, -10.826264, -0.028262) |e|*Ang

Energy contributions relative to reference atoms: (reference = -10970.764591)

Kinetic:       +113.913144
Potential:     -107.237609
External:        +0.000000
XC:            -261.991875
Entropy (-ST):   -0.154412
Local:           +0.302591
--------------------------
Free energy:   -255.168161
Extrapolated:  -255.090955

Dipole-layer corrected work functions: 3.395798, 3.450126 eV

Showing only first 2 kpts
 Kpt  Band  Eigenvalues  Occupancy
  0    24     -3.68633    1.98974
  0    25     -3.59788    1.94128
  0    26     -3.24491    0.05525
  0    27     -3.18389    0.01663

  1    24     -3.42990    1.06928
  1    25     -3.40774    0.84899
  1    26     -3.39261    0.70549
  1    27     -3.37963    0.59191


Fermi level: -3.42296

No gap
Writing to output.gpw (mode='')


Forces in eV/Ang:
  0 Li    0.00496   -0.00016   -0.27626
  1 Li   -0.00496   -0.00016   -0.27626
  2 Li    0.00000    0.00191   -0.27645
  3 Li   -0.00180   -0.00197   -0.27603
  4 Li    0.00180   -0.00196   -0.27604
  5 Li   -0.00000    0.00322   -0.27441
  6 Li   -0.00056    0.00132   -0.27415
  7 Li    0.00056    0.00132   -0.27414
  8 Li   -0.00000   -0.00507   -0.27547
  9 Li    0.00782   -0.00447    0.27822
 10 Li    0.00000   -0.00361    0.26045
 11 Li   -0.00782   -0.00446    0.27822
 12 Li    0.01006    0.01343    0.26624
 13 Li   -0.00001    0.00699    0.25645
 14 Li   -0.01006    0.01343    0.26627
 15 Li    0.00629   -0.00746    0.25771
 16 Li    0.00000   -0.00104    0.24757
 17 Li   -0.00629   -0.00747    0.25772
 18 Li   -0.00678   -0.00068    0.00480
 19 Li    0.00678   -0.00064    0.00478
 20 Li    0.00000   -0.00273   -0.00351
 21 Li   -0.00140   -0.00158    0.00117
 22 Li    0.00143   -0.00160    0.00120
 23 Li   -0.00002   -0.00341    0.00177
 24 Li   -0.00037    0.00184    0.00089
 25 Li    0.00034    0.00182    0.00084
 26 Li    0.00003    0.00469    0.00311
 27 Li    0.00694   -0.00506    0.00362
 28 Li   -0.00001    0.00544    0.00548
 29 Li   -0.00695   -0.00504    0.00360
 30 Li    0.00380    0.00580   -0.00246
 31 Li    0.00000   -0.00612    0.00083
 32 Li   -0.00379    0.00582   -0.00245
 33 Li   -0.00478   -0.00209    0.00342
 34 Li   -0.00000    0.00103   -0.01010
 35 Li    0.00478   -0.00209    0.00343
 36 B     0.00402    0.00705    0.00401
 37 H     0.00328    0.01022    0.02138
 38 H     0.00063   -0.00144    0.02055
 39 H    -0.01016    0.02741    0.01533
 40 N     0.00250   -0.01227    0.03304
 41 N    -0.00112    0.04188    0.00210

Timing:                                      incl.     excl.
-------------------------------------------------------------------
Density initialized from wave functions:    63.579    63.578   0.0% |
 Symmetrize density:                         0.001     0.001   0.0% |
Forces:                                    247.070   247.070   0.1% |
Hamiltonian:                              3110.425     0.007   0.0% |
 Atomic:                                     5.092     0.040   0.0% |
  XC Correction:                             5.053     5.053   0.0% |
 Calculate atomic Hamiltonians:             16.180    16.180   0.0% |
 Communicate:                               13.980    13.980   0.0% |
 Hartree integrate/restrict:                 5.751     5.751   0.0% |
 Initialize Hamiltonian:                     0.000     0.000   0.0% |
 Poisson:                                  129.478    58.341   0.0% |
  Communicate from 1D:                       8.985     8.985   0.0% |
  Communicate from 2D:                      15.348    15.348   0.0% |
  Communicate to 1D:                         4.080     4.080   0.0% |
  Communicate to 2D:                        14.962    14.962   0.0% |
  FFT 1D:                                   13.523    13.523   0.0% |
  FFT 2D:                                   14.239    14.239   0.0% |
 XC 3D grid:                              2938.482   315.630   0.2% |
  VdW-DF integral:                        2622.853     7.006   0.0% |
   Convolution:                            189.636   189.636   0.1% |
   FFT:                                     33.287    33.287   0.0% |
   gather:                                2034.556  2034.556   1.0% |
   hmm1:                                    34.748    34.748   0.0% |
   hmm2:                                    42.716    42.716   0.0% |
   iFFT:                                    33.551    33.551   0.0% |
   potential:                              233.839     3.052   0.0% |
    collect:                                19.806    19.806   0.0% |
    p1:                                     92.473    92.473   0.0% |
    p2:                                     63.243    63.243   0.0% |
    sum:                                    55.265    55.265   0.0% |
   splines:                                 13.514    13.514   0.0% |
 vbar:                                       1.454     1.454   0.0% |
LCAO initialization:                        11.414     0.521   0.0% |
 LCAO eigensolver:                           3.603     0.001   0.0% |
  Calculate projections:                     0.000     0.000   0.0% |
  DenseAtomicCorrection:                     0.000     0.000   0.0% |
  Distribute overlap matrix:                 3.441     3.441   0.0% |
  Orbital Layouts:                           0.077     0.077   0.0% |
  Potential matrix:                          0.079     0.079   0.0% |
  Sum over cells:                            0.004     0.004   0.0% |
 LCAO to grid:                               5.671     5.671   0.0% |
 Set positions (LCAO WFS):                   1.619     1.298   0.0% |
  Basic WFS set positions:                   0.004     0.004   0.0% |
  Basis functions set positions:             0.014     0.014   0.0% |
  P tci:                                     0.001     0.001   0.0% |
  ST tci:                                    0.189     0.189   0.0% |
  mktci:                                     0.113     0.113   0.0% |
Redistribute:                                0.059     0.059   0.0% |
SCF-cycle:                               197642.332  3755.650   1.9% ||
 Davidson:                               53265.258 22353.579  11.1% |---|
  Apply hamiltonian:                      3412.267  3412.267   1.7% ||
  Subspace diag:                          7344.560     0.434   0.0% |
   calc_h_matrix:                         4595.809  1240.705   0.6% |
    Apply hamiltonian:                    3355.104  3355.104   1.7% ||
   diagonalize:                            259.285   259.285   0.1% |
   rotate_psi:                            2489.033  2489.033   1.2% |
  calc. matrices:                        15459.781  9229.798   4.6% |-|
   Apply hamiltonian:                     6229.982  6229.982   3.1% ||
  diagonalize:                              19.441    19.441   0.0% |
  rotate_psi:                             4675.630  4675.630   2.3% ||
 Density:                                 1269.104     0.103   0.0% |
  Atomic density matrices:                 320.051   320.051   0.2% |
  Mix:                                     428.900   428.900   0.2% |
  Multipole moments:                         5.437     5.437   0.0% |
  Pseudo density:                          514.612   514.546   0.3% |
   Symmetrize density:                       0.066     0.066   0.0% |
 Hamiltonian:                            139264.449     0.482   0.0% |
  Atomic:                                  233.028     3.063   0.0% |
   XC Correction:                          229.965   229.965   0.1% |
  Calculate atomic Hamiltonians:           732.568   732.568   0.4% |
  Communicate:                             660.047   660.047   0.3% |
  Hartree integrate/restrict:              260.383   260.383   0.1% |
  Poisson:                                5755.622  2607.018   1.3% ||
   Communicate from 1D:                    415.687   415.687   0.2% |
   Communicate from 2D:                    701.584   701.584   0.3% |
   Communicate to 1D:                      173.378   173.378   0.1% |
   Communicate to 2D:                      651.441   651.441   0.3% |
   FFT 1D:                                 595.024   595.024   0.3% |
   FFT 2D:                                 611.490   611.490   0.3% |
  XC 3D grid:                            131560.064 13967.493   6.9% |--|
   VdW-DF integral:                      117592.572   304.958   0.2% |
    Convolution:                          8514.536  8514.536   4.2% |-|
    FFT:                                  1454.472  1454.472   0.7% |
    gather:                              92079.663 92079.663  45.6% |-----------------|
    hmm1:                                 1434.983  1434.983   0.7% |
    hmm2:                                 1919.145  1919.145   1.0% |
    iFFT:                                 1534.446  1534.446   0.8% |
    potential:                           10350.333   129.502   0.1% |
     collect:                              934.812   934.812   0.5% |
     p1:                                  4180.006  4180.006   2.1% ||
     p2:                                  2760.468  2760.468   1.4% ||
     sum:                                 2345.545  2345.545   1.2% |
    splines:                                 0.036     0.036   0.0% |
  vbar:                                     62.255    62.255   0.0% |
 Orthonormalize:                            87.871     0.009   0.0% |
  calc_s_matrix:                            12.773    12.773   0.0% |
  inverse-cholesky:                          2.571     2.571   0.0% |
  projections:                              43.500    43.500   0.0% |
  rotate_psi_s:                             29.018    29.018   0.0% |
Set symmetry:                                0.003     0.003   0.0% |
Other:                                     927.288   927.288   0.5% |
-------------------------------------------------------------------
Total:                                             202002.169 100.0%

Memory usage: 1.49 GiB
Date: Mon Feb 27 01:16:03 2023
