
  ___ ___ ___ _ _ _  
 |   |   |_  | | | | 
 | | | | | . | | | | 
 |__ |  _|___|_____|  22.8.0
 |___|_|             

User:   vazumah@c06.hercules
Date:   Mon Apr  3 02:44:46 2023
Arch:   x86_64
Pid:    16214
CWD:    /home/vazumah/Python_projects/LiNRR/Li_adsorb_studies/proton_donors/N2_with_proton_donor/Li_BCC_100/adsorbates/BH3/bridge/8.085_1.617/N2_y
Python: 3.10.8
gpaw:   /home/vazumah/.conda/envs/GPAW/lib/python3.10/site-packages/gpaw
_gpaw:  /home/vazumah/.conda/envs/GPAW/lib/python3.10/site-packages/
        _gpaw.cpython-310-x86_64-linux-gnu.so
ase:    /home/vazumah/.conda/envs/GPAW/lib/python3.10/site-packages/ase (version 3.22.1)
numpy:  /home/vazumah/.conda/envs/GPAW/lib/python3.10/site-packages/numpy (version 1.24.1)
scipy:  /home/vazumah/.conda/envs/GPAW/lib/python3.10/site-packages/scipy (version 1.10.0)
libxc:  5.2.3
units:  Angstrom and eV
cores: 24
OpenMP: True
OMP_NUM_THREADS: 1

Input parameters:
  convergence: {bands: -10}
  h: 0.16
  kpts: {size: [4, 4, 1]}
  occupations: {name: fermi-dirac,
                width: 0.05}
  poissonsolver: {dipolelayer: xy}
  xc: BEEF-vdW

System changes: positions, numbers, cell, pbc, initial_charges, initial_magmoms 

Initialize ...

species:
  Li:
    name: Lithium
    id: 830b4218f175192f93f959cfc0aad614
    Z: 3.0
    valence: 1
    core: 2
    charge: 0.0
    file: /home/vazumah/.conda/envs/GPAW/share/gpaw/Li.PBE.gz
    compensation charges: {type: gauss,
                           rc: 0.33,
                           lmax: 2}
    cutoffs: {filter: 1.91,
              core: 2.55}
    valence states:
      #              energy  rcut
      - 2s(1.00)    -2.874   1.058
      - 2p(0.00)    -1.090   1.058
      -  s          24.337   1.058
  
    # Using partial waves for Li as LCAO basis

  B:
    name: Boron
    id: 6e91439235a05fd7549e31636e8f777c
    Z: 5.0
    valence: 3
    core: 2
    charge: 0.0
    file: /home/vazumah/.conda/envs/GPAW/share/gpaw/B.PBE.gz
    compensation charges: {type: gauss,
                           rc: 0.20,
                           lmax: 2}
    cutoffs: {filter: 1.14,
              core: 1.38}
    valence states:
      #              energy  rcut
      - 2s(2.00)    -9.443   0.635
      - 2p(1.00)    -3.606   0.635
      -  s          17.768   0.635
      -  p          23.605   0.635
      -  d           0.000   0.635
  
    # Using partial waves for B as LCAO basis

  H:
    name: Hydrogen
    id: d65de229564ff8ea4db303e23b6d1ecf
    Z: 1.0
    valence: 1
    core: 0
    charge: 0.0
    file: /home/vazumah/.conda/envs/GPAW/share/gpaw/H.PBE.gz
    compensation charges: {type: gauss,
                           rc: 0.15,
                           lmax: 2}
    cutoffs: {filter: 0.85,
              core: 0.53}
    valence states:
      #              energy  rcut
      - 1s(1.00)    -6.494   0.476
      -  s          20.717   0.476
      -  p           0.000   0.476
  
    # Using partial waves for H as LCAO basis

  N:
    name: Nitrogen
    id: f7500608b86eaa90eef8b1d9a670dc53
    Z: 7.0
    valence: 5
    core: 2
    charge: 0.0
    file: /home/vazumah/.conda/envs/GPAW/share/gpaw/N.PBE.gz
    compensation charges: {type: gauss,
                           rc: 0.18,
                           lmax: 2}
    cutoffs: {filter: 1.11,
              core: 0.96}
    valence states:
      #              energy  rcut
      - 2s(2.00)   -18.583   0.603
      - 2p(3.00)    -7.089   0.529
      -  s           8.629   0.603
      -  p          20.123   0.529
      -  d           0.000   0.577
  
    # Using partial waves for N as LCAO basis

Reference energy: -10970.764591  # eV

Spin-paired calculation

Convergence criteria:
 Maximum [total energy] change in last 3 cyles: 0.0005 eV / electron
 Maximum integral of absolute [dens]ity change: 0.0001 electrons / valence electron
 Maximum integral of absolute [eigenst]ate change: 4e-08 eV^2 / valence electron
 Maximum number of scf [iter]ations: 333
 (Square brackets indicate name in SCF output, whereas a 'c' in
 the SCF output indicates the quantity has converged.)

Symmetries present (total): 1

  ( 1  0  0)
  ( 0  1  0)
  ( 0  0  1)

16 k-points: 4 x 4 x 1 Monkhorst-Pack grid
8 k-points in the irreducible part of the Brillouin zone
       k-points in crystal coordinates                weights
   0:     0.12500000   -0.37500000    0.00000000          2/16
   1:     0.12500000   -0.12500000    0.00000000          2/16
   2:     0.12500000    0.12500000    0.00000000          2/16
   3:     0.12500000    0.37500000    0.00000000          2/16
   4:     0.37500000   -0.37500000    0.00000000          2/16
   5:     0.37500000   -0.12500000    0.00000000          2/16
   6:     0.37500000    0.12500000    0.00000000          2/16
   7:     0.37500000    0.37500000    0.00000000          2/16

Wave functions: Uniform real-space grid
  Kinetic energy operator: 6*3+1=19 point O(h^6) finite-difference Laplacian
  ScaLapack parameters: grid=1x1, blocksize=None
  Wavefunction extrapolation:
    Improved wavefunction reuse through dual PAW basis 

Occupation numbers: Fermi-Dirac:
  width: 0.0500  # eV
 

Eigensolver
   Davidson(niter=2) 

Densities:
  Coarse grid: 60*60*156 grid
  Fine grid: 120*120*312 grid
  Total Charge: 0.000000 

Density mixing:
  Method: separate
  Backend: pulay
  Linear mixing parameter: 0.05
  old densities: 5
  Damping of long wavelength oscillations: 50 

Hamiltonian:
  XC and Coulomb potentials evaluated on a 120*120*312 grid
  Using the BEEF-vdW Exchange-Correlation functional
  Interpolation: tri-quintic (5. degree polynomial)
  Poisson solver: FastPoissonSolver using
    Stencil: 6*3+1=19 point O(h^6) finite-difference Laplacian
    FFT axes: [0, 1]
    FST axes: [2]

Dipole correction along z-axis 

XC parameters: BEEF-vdW with 2 nearest neighbor stencil

Memory estimate:
  Process memory now: 234.93 MiB
  Calculator: 365.21 MiB
    Density: 116.66 MiB
      Arrays: 36.75 MiB
      Localized functions: 65.90 MiB
      Mixer: 14.01 MiB
    Hamiltonian: 29.25 MiB
      Arrays: 24.03 MiB
      XC: 0.00 MiB
      Poisson: 0.00 MiB
      vbar: 5.22 MiB
    Wavefunctions: 219.30 MiB
      Arrays psit_nG: 100.85 MiB
      Eigensolver: 115.06 MiB
      Projections: 0.04 MiB
      Projectors: 3.35 MiB

Total number of cores used: 24
Parallelization over k-points: 8
Domain decomposition: 1 x 1 x 3

Number of atoms: 42
Number of atomic orbitals: 159
Number of bands in calculation: 36
Number of valence electrons: 52
Bands to converge: 26

... initialized

Initializing position-dependent things.

Density initialized from atomic densities
Creating initial wave functions:
  36 bands from LCAO basis set

       .-----------------------.  
      /|                       |  
     / |                       |  
    /  |                       |  
   /   |                       |  
  /    |                       |  
 *     |                       |  
 |     |                       |  
 |     |                       |  
 |     |            H B  H     |  
 |     |             H         |  
 |     |                       |  
 |     Li      Li      Li      |  
 |     |              N        |  
 |   Li|     Li      Ni        |  
 |     |  Li      Li      Li   |  
 | Li  |   Li      Li          |  
 |     |Li      Li      Li     |  
 |     |                       |  
 |   LLi     LLi     LLi       |  
 |     |  Li      Li      Li   |  
 | Li  |   Li      Li          |  
 |     |Li      Li      Li     |  
 Li    | Li      Li            |  
 |    Li      Li      Li       |  
 |     |                       |  
 |     |                       |  
 |     |                       |  
 |     |                       |  
 |     |                       |  
 |     |                       |  
 |     .-----------------------.  
 |    /                       /   
 |   /                       /    
 |  /                       /     
 | /                       /      
 |/                       /       
 *-----------------------*        

Positions:
   0 Li     1.617037    1.617037   10.000000    ( 0.0000,  0.0000,  0.0000)
   1 Li     4.851111    1.617037   10.000000    ( 0.0000,  0.0000,  0.0000)
   2 Li     8.085185    1.617037   10.000000    ( 0.0000,  0.0000,  0.0000)
   3 Li     1.617037    4.851111   10.000000    ( 0.0000,  0.0000,  0.0000)
   4 Li     4.851111    4.851111   10.000000    ( 0.0000,  0.0000,  0.0000)
   5 Li     8.085185    4.851111   10.000000    ( 0.0000,  0.0000,  0.0000)
   6 Li     1.617037    8.085185   10.000000    ( 0.0000,  0.0000,  0.0000)
   7 Li     4.851111    8.085185   10.000000    ( 0.0000,  0.0000,  0.0000)
   8 Li     8.085185    8.085185   10.000000    ( 0.0000,  0.0000,  0.0000)
   9 Li     0.000000    0.000000   11.617037    ( 0.0000,  0.0000,  0.0000)
  10 Li     3.234074    0.000000   11.617037    ( 0.0000,  0.0000,  0.0000)
  11 Li     6.468148    0.000000   11.617037    ( 0.0000,  0.0000,  0.0000)
  12 Li     0.000000    3.234074   11.617037    ( 0.0000,  0.0000,  0.0000)
  13 Li     3.234074    3.234074   11.617037    ( 0.0000,  0.0000,  0.0000)
  14 Li     6.468148    3.234074   11.617037    ( 0.0000,  0.0000,  0.0000)
  15 Li     0.000000    6.468148   11.617037    ( 0.0000,  0.0000,  0.0000)
  16 Li     3.234074    6.468148   11.617037    ( 0.0000,  0.0000,  0.0000)
  17 Li     6.468148    6.468148   11.617037    ( 0.0000,  0.0000,  0.0000)
  18 Li     1.628920    1.623577   13.469267    ( 0.0000,  0.0000,  0.0000)
  19 Li     4.839214    1.623550   13.469266    ( 0.0000,  0.0000,  0.0000)
  20 Li     8.085193    1.628496   13.456131    ( 0.0000,  0.0000,  0.0000)
  21 Li     1.628596    4.860956   13.477329    ( 0.0000,  0.0000,  0.0000)
  22 Li     4.839526    4.860965   13.477296    ( 0.0000,  0.0000,  0.0000)
  23 Li     8.085201    4.859646   13.473351    ( 0.0000,  0.0000,  0.0000)
  24 Li     1.628769    8.070996   13.471276    ( 0.0000,  0.0000,  0.0000)
  25 Li     4.839398    8.071007   13.471309    ( 0.0000,  0.0000,  0.0000)
  26 Li     8.085173    8.069857   13.459509    ( 0.0000,  0.0000,  0.0000)
  27 Li     0.013150   -0.014063   15.350928    ( 0.0000,  0.0000,  0.0000)
  28 Li     3.234076   -0.003812   15.410802    ( 0.0000,  0.0000,  0.0000)
  29 Li     6.455005   -0.014069   15.350876    ( 0.0000,  0.0000,  0.0000)
  30 Li     0.010795    3.251205   15.389308    ( 0.0000,  0.0000,  0.0000)
  31 Li     3.234076    3.235419   15.426998    ( 0.0000,  0.0000,  0.0000)
  32 Li     6.457339    3.251197   15.389279    ( 0.0000,  0.0000,  0.0000)
  33 Li     0.002817    6.472466   15.416432    ( 0.0000,  0.0000,  0.0000)
  34 Li     3.234078    6.469309   15.450447    ( 0.0000,  0.0000,  0.0000)
  35 Li     6.465330    6.472450   15.416417    ( 0.0000,  0.0000,  0.0000)
  36 B      8.089584    1.645998   21.541285    ( 0.0000,  0.0000,  0.0000)
  37 H      9.125240    2.227102   21.487523    ( 0.0000,  0.0000,  0.0000)
  38 H      7.065047    2.247824   21.494322    ( 0.0000,  0.0000,  0.0000)
  39 H      8.081672    0.460362   21.644760    ( 0.0000,  0.0000,  0.0000)
  40 N      8.084104    1.525201   18.602623    ( 0.0000,  0.0000,  0.0000)
  41 N      8.085275    0.441591   18.400952    ( 0.0000,  0.0000,  0.0000)

Unit cell:
           periodic     x           y           z      points  spacing
  1. axis:    yes    9.702222    0.000000    0.000000    60     0.1617
  2. axis:    yes    0.000000    9.702222    0.000000    60     0.1617
  3. axis:    no     0.000000    0.000000   24.851111   156     0.1593

  Lengths:   9.702222   9.702222  24.851111
  Angles:   90.000000  90.000000  90.000000

Effective grid spacing dv^(1/3) = 0.1609

     iter     time        total  log10-change:
                         energy  eigst   dens
iter:   1 02:47:55  -376.543950  +1.15
iter:   2 02:50:25  -125.499995  +2.36  -0.07
iter:   3 02:52:49    -9.214903  +3.20  -0.17
iter:   4 02:55:16   -31.629092  +2.85  -0.14
iter:   5 02:57:48  -139.694029  +3.31  -0.42
iter:   6 03:00:17  -428.064449  +3.53  -0.29
iter:   7 03:02:46  -410.240583  +2.90  -0.13
iter:   8 03:05:07  -369.169283  +2.45  -0.13
iter:   9 03:07:38  -388.387131  +2.22  -0.16
iter:  10 03:10:08  -414.133468  +2.19  -0.14
iter:  11 03:12:36  -391.713868  +1.97  -0.11
iter:  12 03:15:01  -552.281974  +2.83  -0.07
iter:  13 03:17:31  -560.502619  +2.37  +0.02
iter:  14 03:20:07  -465.218125  +1.81  +0.04
iter:  15 03:22:39  -496.200319  +1.59  +0.01
iter:  16 03:24:58  -324.956129  +1.82  +0.04
iter:  17 03:27:22  -518.087811  +2.38  -0.30
iter:  18 03:29:47  -524.340994  +1.88  +0.04
iter:  19 03:32:15  -312.223040  +2.28  +0.06
iter:  20 03:34:37  -287.829455  +1.77  -0.30
iter:  21 03:37:11  -440.250523  +2.71  -0.34
iter:  22 03:39:26  -260.285816  +1.78  -0.20
iter:  23 03:41:50  -260.583585  +1.49  -0.40
iter:  24 03:44:12  -253.113259  +1.61  -0.39
iter:  25 03:46:42  -220.569179  +1.91  -0.33
iter:  26 03:49:07  -292.568466  +3.01  -0.54
iter:  27 03:51:29  -268.904578  +2.03  -0.17
iter:  28 03:53:48  -258.789862  +2.06  -0.33
iter:  29 03:56:21  -257.422618  +1.24  -0.59
iter:  30 03:58:50  -258.449654  +0.62  -0.71
iter:  31 04:01:11  -261.721416  +1.54  -0.67
iter:  32 04:03:39  -255.545940  +0.48  -0.63
iter:  33 04:06:08  -255.447472  +0.75  -1.00
iter:  34 04:08:39  -255.394362  +0.35  -0.98
iter:  35 04:11:10  -255.213342  +0.39  -1.06
iter:  36 04:13:43  -255.069012  -0.33  -1.24
iter:  37 04:16:07  -254.985780  -0.36  -1.38
iter:  38 04:18:29  -255.012177  -0.48  -1.58
iter:  39 04:20:46  -255.015791  -0.37  -1.62
iter:  40 04:23:14  -255.026821c -0.86  -1.74
iter:  41 04:25:40  -255.039561c -1.00  -1.76
iter:  42 04:28:05  -255.045473c -1.18  -1.75
iter:  43 04:30:30  -255.042674c -1.03  -1.76
iter:  44 04:32:53  -255.060893c -1.14  -1.90
iter:  45 04:35:22  -255.052830c -1.21  -1.94
iter:  46 04:37:48  -255.055690c -1.42  -2.10
iter:  47 04:40:11  -255.060061c -1.30  -2.14
iter:  48 04:42:33  -255.066199c -1.31  -2.31
iter:  49 04:44:52  -255.067960c -1.73  -2.37
iter:  50 04:47:12  -255.071641c -1.81  -2.43
iter:  51 04:49:41  -255.074456c -1.79  -2.52
iter:  52 04:52:06  -255.076191c -1.90  -2.57
iter:  53 04:54:37  -255.078613c -1.99  -2.74
iter:  54 04:56:55  -255.079892c -2.14  -3.02
iter:  55 04:59:09  -255.081060c -2.17  -3.00
iter:  56 05:01:37  -255.082123c -2.32  -2.91
iter:  57 05:04:02  -255.083010c -2.23  -3.05
iter:  58 05:06:35  -255.083741c -2.28  -3.05
iter:  59 05:09:00  -255.084747c -2.25  -3.01
iter:  60 05:11:21  -255.085562c -2.39  -2.99
iter:  61 05:13:50  -255.086088c -2.54  -2.92
iter:  62 05:16:06  -255.086560c -2.61  -2.91
iter:  63 05:18:27  -255.087128c -2.40  -2.93
iter:  64 05:20:48  -255.087596c -2.61  -2.92
iter:  65 05:23:12  -255.087995c -2.61  -2.91
iter:  66 05:25:36  -255.088319c -2.80  -2.92
iter:  67 05:28:05  -255.088535c -2.83  -2.90
iter:  68 05:30:29  -255.088791c -2.87  -2.82
iter:  69 05:32:51  -255.089078c -2.65  -2.89
iter:  70 05:35:14  -255.089391c -2.62  -2.87
iter:  71 05:37:40  -255.089478c -2.89  -2.86
iter:  72 05:40:20  -255.089685c -2.72  -2.84
iter:  73 05:42:50  -255.090368c -2.70  -2.87
iter:  74 05:45:13  -255.089882c -2.89  -2.76
iter:  75 05:47:31  -255.089897c -3.03  -2.89
iter:  76 05:50:04  -255.090034c -2.99  -2.90
iter:  77 05:52:29  -255.090115c -2.92  -2.89
iter:  78 05:54:50  -255.090145c -3.05  -2.93
iter:  79 05:57:10  -255.090428c -3.14  -2.92
iter:  80 05:59:31  -255.090548c -3.15  -2.96
iter:  81 06:01:48  -255.090557c -3.22  -3.05
iter:  82 06:04:13  -255.090634c -3.37  -3.15
iter:  83 06:06:35  -255.090687c -3.35  -3.18
iter:  84 06:08:56  -255.090671c -3.44  -3.24
iter:  85 06:11:20  -255.090700c -3.72  -3.38
iter:  86 06:13:38  -255.090700c -3.73  -3.38
iter:  87 06:15:57  -255.090717c -3.59  -3.39
iter:  88 06:18:23  -255.090738c -3.67  -3.44
iter:  89 06:20:43  -255.090809c -3.94  -3.51
iter:  90 06:23:00  -255.090830c -3.98  -3.70
iter:  91 06:25:19  -255.090847c -3.89  -3.84
iter:  92 06:27:30  -255.090855c -4.11  -3.90
iter:  93 06:29:50  -255.090859c -4.14  -3.90
iter:  94 06:32:21  -255.090849c -4.31  -3.90
iter:  95 06:34:49  -255.090872c -4.32  -3.84
iter:  96 06:37:08  -255.090874c -4.39  -3.89
iter:  97 06:39:31  -255.090864c -4.21  -3.88
iter:  98 06:42:05  -255.090859c -4.45  -3.82
iter:  99 06:44:33  -255.090862c -4.53  -3.77
iter: 100 06:46:56  -255.090853c -4.55  -3.79
iter: 101 06:49:14  -255.090885c -4.53  -3.77
iter: 102 06:51:34  -255.090875c -4.53  -3.83
iter: 103 06:54:02  -255.090892c -4.72  -3.73
iter: 104 06:56:25  -255.090888c -4.61  -3.81
iter: 105 06:59:00  -255.090889c -4.75  -3.81
iter: 106 07:01:33  -255.090874c -4.69  -3.81
iter: 107 07:03:59  -255.090892c -4.69  -3.73
iter: 108 07:06:15  -255.090927c -4.72  -3.94
iter: 109 07:08:48  -255.090934c -4.81  -4.16c
iter: 110 07:11:11  -255.090938c -4.83  -4.19c
iter: 111 07:13:32  -255.090948c -4.78  -4.36c
iter: 112 07:15:52  -255.090945c -4.82  -4.44c
iter: 113 07:18:20  -255.090945c -4.94  -4.46c
iter: 114 07:20:50  -255.090935c -4.99  -4.44c
iter: 115 07:23:18  -255.090935c -5.00  -4.34c
iter: 116 07:25:35  -255.090937c -4.97  -4.36c
iter: 117 07:27:57  -255.090929c -5.05  -4.35c
iter: 118 07:30:20  -255.090936c -5.07  -4.29c
iter: 119 07:32:50  -255.090939c -5.11  -4.30c
iter: 120 07:35:17  -255.090938c -5.12  -4.30c
iter: 121 07:37:40  -255.090941c -5.12  -4.27c
iter: 122 07:40:05  -255.090937c -5.39  -4.35c
iter: 123 07:42:26  -255.090937c -5.44  -4.29c
iter: 124 07:44:49  -255.090945c -5.37  -4.35c
iter: 125 07:47:23  -255.090950c -5.34  -4.52c
iter: 126 07:49:48  -255.090950c -5.34  -4.65c
iter: 127 07:52:05  -255.090949c -5.15  -4.72c
iter: 128 07:54:32  -255.090947c -5.36  -4.82c
iter: 129 07:56:49  -255.090948c -5.50  -4.95c
iter: 130 07:59:11  -255.090949c -5.56  -5.06c
iter: 131 08:01:38  -255.090950c -5.27  -5.18c
iter: 132 08:04:02  -255.090950c -5.32  -5.28c
iter: 133 08:06:19  -255.090950c -5.70  -5.36c
iter: 134 08:08:50  -255.090950c -5.71  -5.37c
iter: 135 08:11:11  -255.090950c -5.85  -5.33c
iter: 136 08:13:38  -255.090950c -5.68  -5.35c
iter: 137 08:16:04  -255.090949c -5.78  -5.33c
iter: 138 08:18:33  -255.090949c -5.81  -5.30c
iter: 139 08:20:52  -255.090949c -5.78  -5.25c
iter: 140 08:23:25  -255.090949c -5.98  -5.22c
iter: 141 08:25:54  -255.090949c -6.00  -5.18c
iter: 142 08:28:18  -255.090949c -5.96  -5.20c
iter: 143 08:30:47  -255.090949c -6.06  -5.19c
iter: 144 08:33:16  -255.090949c -6.02  -5.17c
iter: 145 08:35:43  -255.090949c -6.10  -5.13c
iter: 146 08:38:09  -255.090947c -6.16  -5.15c
iter: 147 08:40:28  -255.090950c -6.18  -5.01c
iter: 148 08:42:54  -255.090950c -6.20  -5.16c
iter: 149 08:45:16  -255.090951c -6.20  -5.15c
iter: 150 08:47:54  -255.090950c -6.35  -5.16c
iter: 151 08:50:13  -255.090953c -6.24  -5.14c
iter: 152 08:52:45  -255.090952c -6.39  -5.11c
iter: 153 08:55:03  -255.090953c -6.42  -5.07c
iter: 154 08:57:30  -255.090953c -6.41  -5.12c
iter: 155 09:00:03  -255.090952c -6.38  -5.08c
iter: 156 09:02:30  -255.090953c -6.53  -5.02c
iter: 157 09:05:04  -255.090952c -6.43  -5.01c
iter: 158 09:07:26  -255.090953c -6.55  -5.11c
iter: 159 09:09:50  -255.090953c -6.56  -5.04c
iter: 160 09:12:15  -255.090952c -6.63  -5.10c
iter: 161 09:14:36  -255.090952c -6.54  -5.07c
iter: 162 09:16:59  -255.090951c -6.64  -5.07c
iter: 163 09:19:22  -255.090952c -6.53  -5.12c
iter: 164 09:21:39  -255.090950c -6.60  -5.09c
iter: 165 09:23:54  -255.090953c -6.54  -5.03c
iter: 166 09:26:17  -255.090953c -6.74  -5.16c
iter: 167 09:28:40  -255.090954c -6.77  -5.17c
iter: 168 09:31:04  -255.090954c -6.72  -5.19c
iter: 169 09:33:28  -255.090954c -6.89  -5.37c
iter: 170 09:35:47  -255.090954c -6.90  -5.43c
iter: 171 09:38:19  -255.090954c -6.71  -5.53c
iter: 172 09:40:46  -255.090954c -6.91  -5.55c
iter: 173 09:43:14  -255.090954c -6.94  -5.59c
iter: 174 09:45:35  -255.090954c -7.02  -5.63c
iter: 175 09:48:02  -255.090955c -6.93  -5.66c
iter: 176 09:50:24  -255.090954c -6.93  -5.85c
iter: 177 09:52:52  -255.090954c -7.14  -5.89c
iter: 178 09:55:16  -255.090954c -6.95  -5.98c
iter: 179 09:57:38  -255.090954c -7.03  -6.08c
iter: 180 10:00:03  -255.090954c -7.08  -6.29c
iter: 181 10:02:23  -255.090954c -7.06  -6.44c
iter: 182 10:04:45  -255.090954c -7.25  -6.47c
iter: 183 10:07:14  -255.090954c -7.30  -6.44c
iter: 184 10:09:26  -255.090954c -7.07  -6.41c
iter: 185 10:11:45  -255.090954c -7.26  -6.30c
iter: 186 10:14:17  -255.090954c -7.29  -6.26c
iter: 187 10:16:44  -255.090954c -7.43c -6.18c

Converged after 187 iterations.

Dipole moment: (-1.649411, -10.826311, -0.028190) |e|*Ang

Energy contributions relative to reference atoms: (reference = -10970.764591)

Kinetic:       +113.913126
Potential:     -107.237608
External:        +0.000000
XC:            -261.991830
Entropy (-ST):   -0.154412
Local:           +0.302565
--------------------------
Free energy:   -255.168160
Extrapolated:  -255.090954

Dipole-layer corrected work functions: 3.395834, 3.450025 eV

Showing only first 2 kpts
 Kpt  Band  Eigenvalues  Occupancy
  0    24     -3.68629    1.98974
  0    25     -3.59784    1.94127
  0    26     -3.24488    0.05526
  0    27     -3.18385    0.01663

  1    24     -3.42987    1.06933
  1    25     -3.40771    0.84899
  1    26     -3.39258    0.70550
  1    27     -3.37960    0.59191


Fermi level: -3.42293

No gap
