
  ___ ___ ___ _ _ _  
 |   |   |_  | | | | 
 | | | | | . | | | | 
 |__ |  _|___|_____|  22.8.0
 |___|_|             

User:   vazumah@r170.ib.bridges2.psc.edu
Date:   Fri Mar 10 21:52:26 2023
Arch:   x86_64
Pid:    15004
CWD:    /jet/home/vazumah/Calcs/LiMEAS/proton_donors/propanediol13_y/bridge/8.085_1.617/N2_z
Python: 3.11.0
gpaw:   /jet/home/vazumah/.conda/envs/GPAW_mpich/lib/python3.11/site-packages/gpaw
_gpaw:  /jet/home/vazumah/.conda/envs/GPAW_mpich/lib/python3.11/site-packages/
        _gpaw.cpython-311-x86_64-linux-gnu.so
ase:    /jet/home/vazumah/.conda/envs/GPAW_mpich/lib/python3.11/site-packages/ase (version 3.22.1)
numpy:  /jet/home/vazumah/.conda/envs/GPAW_mpich/lib/python3.11/site-packages/numpy (version 1.24.2)
scipy:  /jet/home/vazumah/.conda/envs/GPAW_mpich/lib/python3.11/site-packages/scipy (version 1.10.1)
libxc:  5.2.3
units:  Angstrom and eV
cores: 128
OpenMP: True
OMP_NUM_THREADS: 1

Input parameters:
  h: 0.16
  kpts: {size: [4, 4, 1]}
  occupations: {name: fermi-dirac,
                width: 0.05}
  poissonsolver: {dipolelayer: xy}
  xc: BEEF-vdW

System changes: positions, numbers, cell, pbc, initial_charges, initial_magmoms 

Initialize ...

species:
  Li:
    name: Lithium
    id: 830b4218f175192f93f959cfc0aad614
    Z: 3.0
    valence: 1
    core: 2
    charge: 0.0
    file: /jet/home/vazumah/datasets/gpaw-setups-0.9.20000/Li.PBE.gz
    compensation charges: {type: gauss,
                           rc: 0.33,
                           lmax: 2}
    cutoffs: {filter: 1.91,
              core: 2.55}
    valence states:
      #              energy  rcut
      - 2s(1.00)    -2.874   1.058
      - 2p(0.00)    -1.090   1.058
      -  s          24.337   1.058
  
    # Using partial waves for Li as LCAO basis

  O:
    name: Oxygen
    id: 32ecd46bf208036f09c70b0ec9a88b78
    Z: 8.0
    valence: 6
    core: 2
    charge: 0.0
    file: /jet/home/vazumah/datasets/gpaw-setups-0.9.20000/O.PBE.gz
    compensation charges: {type: gauss,
                           rc: 0.21,
                           lmax: 2}
    cutoffs: {filter: 1.17,
              core: 0.83}
    valence states:
      #              energy  rcut
      - 2s(2.00)   -23.961   0.688
      - 2p(4.00)    -9.029   0.598
      -  s           3.251   0.688
      -  p          18.182   0.598
      -  d           0.000   0.619
  
    # Using partial waves for O as LCAO basis

  C:
    name: Carbon
    id: 4aa54d4b901d75f77cc0ea3eec22967b
    Z: 6.0
    valence: 4
    core: 2
    charge: 0.0
    file: /jet/home/vazumah/datasets/gpaw-setups-0.9.20000/C.PBE.gz
    compensation charges: {type: gauss,
                           rc: 0.20,
                           lmax: 2}
    cutoffs: {filter: 1.14,
              core: 1.14}
    valence states:
      #              energy  rcut
      - 2s(2.00)   -13.751   0.635
      - 2p(2.00)    -5.284   0.635
      -  s          13.461   0.635
      -  p          21.927   0.635
      -  d           0.000   0.635
  
    # Using partial waves for C as LCAO basis

  H:
    name: Hydrogen
    id: d65de229564ff8ea4db303e23b6d1ecf
    Z: 1.0
    valence: 1
    core: 0
    charge: 0.0
    file: /jet/home/vazumah/datasets/gpaw-setups-0.9.20000/H.PBE.gz
    compensation charges: {type: gauss,
                           rc: 0.15,
                           lmax: 2}
    cutoffs: {filter: 0.85,
              core: 0.53}
    valence states:
      #              energy  rcut
      - 1s(1.00)    -6.494   0.476
      -  s          20.717   0.476
      -  p           0.000   0.476
  
    # Using partial waves for H as LCAO basis

  N:
    name: Nitrogen
    id: f7500608b86eaa90eef8b1d9a670dc53
    Z: 7.0
    valence: 5
    core: 2
    charge: 0.0
    file: /jet/home/vazumah/datasets/gpaw-setups-0.9.20000/N.PBE.gz
    compensation charges: {type: gauss,
                           rc: 0.18,
                           lmax: 2}
    cutoffs: {filter: 1.11,
              core: 0.96}
    valence states:
      #              energy  rcut
      - 2s(2.00)   -18.583   0.603
      - 2p(3.00)    -7.089   0.529
      -  s           8.629   0.603
      -  p          20.123   0.529
      -  d           0.000   0.577
  
    # Using partial waves for N as LCAO basis

Reference energy: -17528.314784  # eV

Spin-paired calculation

Convergence criteria:
 Maximum [total energy] change in last 3 cyles: 0.0005 eV / electron
 Maximum integral of absolute [dens]ity change: 0.0001 electrons / valence electron
 Maximum integral of absolute [eigenst]ate change: 4e-08 eV^2 / valence electron
 Maximum number of scf [iter]ations: 333
 (Square brackets indicate name in SCF output, whereas a 'c' in
 the SCF output indicates the quantity has converged.)

Symmetries present (total): 1

  ( 1  0  0)
  ( 0  1  0)
  ( 0  0  1)

16 k-points: 4 x 4 x 1 Monkhorst-Pack grid
8 k-points in the irreducible part of the Brillouin zone
       k-points in crystal coordinates                weights
   0:     0.12500000   -0.37500000    0.00000000          2/16
   1:     0.12500000   -0.12500000    0.00000000          2/16
   2:     0.12500000    0.12500000    0.00000000          2/16
   3:     0.12500000    0.37500000    0.00000000          2/16
   4:     0.37500000   -0.37500000    0.00000000          2/16
   5:     0.37500000   -0.12500000    0.00000000          2/16
   6:     0.37500000    0.12500000    0.00000000          2/16
   7:     0.37500000    0.37500000    0.00000000          2/16

Wave functions: Uniform real-space grid
  Kinetic energy operator: 6*3+1=19 point O(h^6) finite-difference Laplacian
  ScaLapack parameters: grid=1x1, blocksize=None
  Wavefunction extrapolation:
    Improved wavefunction reuse through dual PAW basis 

Occupation numbers: Fermi-Dirac:
  width: 0.0500  # eV
 

Eigensolver
   Davidson(niter=2) 

Densities:
  Coarse grid: 60*60*180 grid
  Fine grid: 120*120*360 grid
  Total Charge: 0.000000 

Density mixing:
  Method: separate
  Backend: pulay
  Linear mixing parameter: 0.05
  old densities: 5
  Damping of long wavelength oscillations: 50 

Hamiltonian:
  XC and Coulomb potentials evaluated on a 120*120*360 grid
  Using the BEEF-vdW Exchange-Correlation functional
  Interpolation: tri-quintic (5. degree polynomial)
  Poisson solver: FastPoissonSolver using
    Stencil: 6*3+1=19 point O(h^6) finite-difference Laplacian
    FFT axes: [0, 1]
    FST axes: [2]

Dipole correction along z-axis 

XC parameters: BEEF-vdW with 2 nearest neighbor stencil

Memory estimate:
  Process memory now: 129.23 MiB
  Calculator: 95.77 MiB
    Density: 23.82 MiB
      Arrays: 7.94 MiB
      Localized functions: 12.86 MiB
      Mixer: 3.02 MiB
    Hamiltonian: 6.21 MiB
      Arrays: 5.19 MiB
      XC: 0.00 MiB
      Poisson: 0.00 MiB
      vbar: 1.02 MiB
    Wavefunctions: 65.74 MiB
      Arrays psit_nG: 30.82 MiB
      Eigensolver: 34.24 MiB
      Projections: 0.02 MiB
      Projectors: 0.67 MiB

Total number of cores used: 128
Parallelization over k-points: 8
Domain decomposition: 2 x 2 x 4

Number of atoms: 51
Number of atomic orbitals: 180
Number of bands in calculation: 51
Number of valence electrons: 78
Bands to converge: occupied

... initialized

Initializing position-dependent things.

Density initialized from atomic densities
Creating initial wave functions:
  51 bands from LCAO basis set

       .-----------------------.  
      /|                       |  
     / |                       |  
    /  |                       |  
   /   |                       |  
  /    |                       |  
 *     |                       |  
 |     |                       |  
 |     |                       |  
 |     |                       |  
 |     |                    H  |  
 |     |              H    C   |  
 |     |                C   H  |  
 |     |              H  O     |  
 |     |                  H    |  
 |     |             H         |  
 |     |          H   O        |  
 |     |           C           |  
 |   Li|     Li   H  LN        |  
 |     |              N        |  
 | Li  |  LLi     LLi     Li   |  
 |     |                       |  
 Li    |LLi     LLi     Li     |  
 |   Li|     Li      Li        |  
 |    Li  Li  Li  Li  Li  Li   |  
 | Li  |   Li      Li          |  
 |     |Li      Li      Li     |  
 Li    | Li      Li            |  
 |    Li      Li      Li       |  
 |     |                       |  
 |     |                       |  
 |     |                       |  
 |     |                       |  
 |     |                       |  
 |     |                       |  
 |     .-----------------------.  
 |    /                       /   
 |   /                       /    
 |  /                       /     
 | /                       /      
 |/                       /       
 *-----------------------*        

Positions:
   0 Li     1.617037    1.617037   10.000000    ( 0.0000,  0.0000,  0.0000)
   1 Li     4.851111    1.617037   10.000000    ( 0.0000,  0.0000,  0.0000)
   2 Li     8.085185    1.617037   10.000000    ( 0.0000,  0.0000,  0.0000)
   3 Li     1.617037    4.851111   10.000000    ( 0.0000,  0.0000,  0.0000)
   4 Li     4.851111    4.851111   10.000000    ( 0.0000,  0.0000,  0.0000)
   5 Li     8.085185    4.851111   10.000000    ( 0.0000,  0.0000,  0.0000)
   6 Li     1.617037    8.085185   10.000000    ( 0.0000,  0.0000,  0.0000)
   7 Li     4.851111    8.085185   10.000000    ( 0.0000,  0.0000,  0.0000)
   8 Li     8.085185    8.085185   10.000000    ( 0.0000,  0.0000,  0.0000)
   9 Li     0.000000    0.000000   11.617037    ( 0.0000,  0.0000,  0.0000)
  10 Li     3.234074    0.000000   11.617037    ( 0.0000,  0.0000,  0.0000)
  11 Li     6.468148    0.000000   11.617037    ( 0.0000,  0.0000,  0.0000)
  12 Li     0.000000    3.234074   11.617037    ( 0.0000,  0.0000,  0.0000)
  13 Li     3.234074    3.234074   11.617037    ( 0.0000,  0.0000,  0.0000)
  14 Li     6.468148    3.234074   11.617037    ( 0.0000,  0.0000,  0.0000)
  15 Li     0.000000    6.468148   11.617037    ( 0.0000,  0.0000,  0.0000)
  16 Li     3.234074    6.468148   11.617037    ( 0.0000,  0.0000,  0.0000)
  17 Li     6.468148    6.468148   11.617037    ( 0.0000,  0.0000,  0.0000)
  18 Li     1.617038    1.617038   13.469728    ( 0.0000,  0.0000,  0.0000)
  19 Li     4.851111    1.617038   13.469729    ( 0.0000,  0.0000,  0.0000)
  20 Li     8.085184    1.617038   13.469728    ( 0.0000,  0.0000,  0.0000)
  21 Li     1.617038    4.851111   13.469729    ( 0.0000,  0.0000,  0.0000)
  22 Li     4.851111    4.851111   13.469730    ( 0.0000,  0.0000,  0.0000)
  23 Li     8.085184    4.851111   13.469729    ( 0.0000,  0.0000,  0.0000)
  24 Li     1.617038    8.085184   13.469728    ( 0.0000,  0.0000,  0.0000)
  25 Li     4.851111    8.085184   13.469729    ( 0.0000,  0.0000,  0.0000)
  26 Li     8.085184    8.085184   13.469728    ( 0.0000,  0.0000,  0.0000)
  27 Li    -0.000000   -0.000000   15.445939    ( 0.0000,  0.0000,  0.0000)
  28 Li     3.234074    0.000000   15.445939    ( 0.0000,  0.0000,  0.0000)
  29 Li     6.468148    0.000000   15.445939    ( 0.0000,  0.0000,  0.0000)
  30 Li     0.000000    3.234074   15.445939    ( 0.0000,  0.0000,  0.0000)
  31 Li     3.234076    3.234076   15.445938    ( 0.0000,  0.0000,  0.0000)
  32 Li     6.468146    3.234076   15.445938    ( 0.0000,  0.0000,  0.0000)
  33 Li     0.000000    6.468148   15.445939    ( 0.0000,  0.0000,  0.0000)
  34 Li     3.234076    6.468146   15.445938    ( 0.0000,  0.0000,  0.0000)
  35 Li     6.468146    6.468146   15.445938    ( 0.0000,  0.0000,  0.0000)
  36 O      8.085185    1.617037   19.645939    ( 0.0000,  0.0000,  0.0000)
  37 O      8.064856   -3.245305   19.639829    ( 0.0000,  0.0000,  0.0000)
  38 C      8.083641   -0.778878   19.660386    ( 0.0000,  0.0000,  0.0000)
  39 C      7.217366    0.472167   19.648818    ( 0.0000,  0.0000,  0.0000)
  40 C      7.253373   -2.061494   19.636457    ( 0.0000,  0.0000,  0.0000)
  41 H      8.744147   -0.756795   18.785726    ( 0.0000,  0.0000,  0.0000)
  42 H      8.720751   -0.778737   20.548391    ( 0.0000,  0.0000,  0.0000)
  43 H      6.577107    0.477097   18.755271    ( 0.0000,  0.0000,  0.0000)
  44 H      6.568688    0.485709   20.535503    ( 0.0000,  0.0000,  0.0000)
  45 H      6.577807   -2.062195   18.769134    ( 0.0000,  0.0000,  0.0000)
  46 H      6.637282   -2.138343   20.536560    ( 0.0000,  0.0000,  0.0000)
  47 H      7.540828    2.412562   19.641073    ( 0.0000,  0.0000,  0.0000)
  48 H      8.639896   -3.212722   18.865312    ( 0.0000,  0.0000,  0.0000)
  49 N      8.085000    1.617000   17.195939    ( 0.0000,  0.0000,  0.0000)
  50 N      8.085000    1.617000   18.292561    ( 0.0000,  0.0000,  0.0000)

Unit cell:
           periodic     x           y           z      points  spacing
  1. axis:    yes    9.702222    0.000000    0.000000    60     0.1617
  2. axis:    yes    0.000000    9.702222    0.000000    60     0.1617
  3. axis:    no     0.000000    0.000000   28.601111   180     0.1589

  Lengths:   9.702222   9.702222  28.601111
  Angles:   90.000000  90.000000  90.000000

Effective grid spacing dv^(1/3) = 0.1608

     iter     time        total  log10-change:
                         energy  eigst   dens
iter:   1 21:52:42  -799.298832
iter:   2 21:52:50   123.016665  +2.70  +0.05
iter:   3 21:52:58   196.195697  +3.40  -0.11
iter:   4 21:53:06  -254.332342  +3.44  -0.18
Writing to output.gpw (mode='')

iter:   5 21:53:14  -296.700043  +2.95  -0.19
iter:   6 21:53:22  -334.069587  +2.58  -0.43
iter:   7 21:53:30  -368.071007  +2.22  -0.55
iter:   8 21:53:39  -399.490220  +1.94  -0.55
iter:   9 21:53:47  -462.985897  +2.08  -0.45
Writing to output.gpw (mode='')

iter:  10 21:53:55  -382.125660  +1.54  -0.37
iter:  11 21:54:03  -349.947700  +1.79  -0.55
iter:  12 21:54:11  -352.184356  +1.10  -0.65
iter:  13 21:54:19  -354.703493  +1.34  -0.66
iter:  14 21:54:27  -349.884286  +1.13  -0.60
Writing to output.gpw (mode='')

iter:  15 21:54:40  -346.731743  +0.49  -0.70
iter:  16 21:54:48  -367.797124  +1.57  -0.72
iter:  17 21:54:56  -344.521873  +1.35  -0.53
iter:  18 21:55:04  -344.119454  +0.85  -0.91
iter:  19 21:55:12  -342.904751  +0.59  -0.93
Writing to output.gpw (mode='')

iter:  20 21:55:20  -342.632538  +0.14  -0.94
iter:  21 21:55:28  -341.060451  +0.40  -1.01
iter:  22 21:55:36  -341.516143  +0.17  -1.29
iter:  23 21:55:44  -341.110590  +0.03  -1.21
iter:  24 21:55:53  -341.103340  -0.06  -1.40
Writing to output.gpw (mode='')

iter:  25 21:56:01  -341.127063c -0.37  -1.51
iter:  26 21:56:09  -341.105232c -0.85  -1.54
iter:  27 21:56:17  -341.065655  -0.95  -1.62
iter:  28 21:56:25  -341.059952  -0.70  -1.79
iter:  29 21:56:33  -341.081483c -0.90  -2.03
Writing to output.gpw (mode='')

iter:  30 21:56:41  -341.083696c -1.32  -2.05
iter:  31 21:56:49  -341.095600c -1.39  -2.16
iter:  32 21:56:57  -341.099539c -1.62  -2.19
iter:  33 21:57:05  -341.105746c -1.73  -2.20
iter:  34 21:57:13  -341.113964c -1.34  -2.23
Writing to output.gpw (mode='')

iter:  35 21:57:21  -341.117095c -1.58  -2.37
iter:  36 21:57:29  -341.120292c -1.83  -2.55
iter:  37 21:57:37  -341.122962c -2.01  -2.73
iter:  38 21:57:45  -341.126170c -1.89  -2.72
iter:  39 21:57:54  -341.128686c -1.97  -2.84
Writing to output.gpw (mode='')

iter:  40 21:58:02  -341.130377c -2.21  -2.98
iter:  41 21:58:10  -341.132109c -2.09  -2.98
iter:  42 21:58:18  -341.133560c -2.11  -2.99
iter:  43 21:58:26  -341.135125c -2.08  -2.99
iter:  44 21:58:34  -341.136237c -2.30  -3.03
Writing to output.gpw (mode='')

iter:  45 21:58:42  -341.137106c -2.49  -3.13
iter:  46 21:58:50  -341.137752c -2.61  -3.21
iter:  47 21:58:58  -341.138422c -2.61  -3.28
iter:  48 21:59:06  -341.138850c -2.85  -3.40
iter:  49 21:59:14  -341.139271c -2.83  -3.38
Writing to output.gpw (mode='')

iter:  50 21:59:22  -341.139674c -2.64  -3.21
iter:  51 21:59:35  -341.139995c -3.07  -3.19
iter:  52 21:59:44  -341.140286c -3.12  -3.18
iter:  53 21:59:52  -341.140494c -3.15  -3.03
iter:  54 22:00:00  -341.140696c -3.07  -3.01
Writing to output.gpw (mode='')

iter:  55 22:00:08  -341.140765c -3.08  -2.98
iter:  56 22:00:16  -341.141103c -2.94  -3.18
iter:  57 22:00:24  -341.141122c -3.24  -3.00
iter:  58 22:00:32  -341.141211c -3.53  -3.20
iter:  59 22:00:40  -341.141168c -3.33  -3.04
Writing to output.gpw (mode='')

iter:  60 22:00:49  -341.141239c -3.48  -3.46
iter:  61 22:00:57  -341.141271c -3.74  -3.67
iter:  62 22:01:05  -341.141299c -3.79  -3.80
iter:  63 22:01:13  -341.141340c -3.70  -3.85
iter:  64 22:01:21  -341.141368c -3.81  -4.16c
Writing to output.gpw (mode='')

iter:  65 22:01:29  -341.141392c -3.83  -4.22c
iter:  66 22:01:37  -341.141413c -3.89  -4.26c
iter:  67 22:01:45  -341.141424c -4.15  -4.31c
iter:  68 22:01:53  -341.141439c -4.07  -4.36c
iter:  69 22:02:01  -341.141451c -4.23  -4.50c
Writing to output.gpw (mode='')

iter:  70 22:02:09  -341.141462c -4.25  -4.57c
iter:  71 22:02:17  -341.141470c -4.26  -4.55c
iter:  72 22:02:25  -341.141477c -4.46  -4.54c
iter:  73 22:02:33  -341.141482c -4.55  -4.48c
iter:  74 22:02:41  -341.141487c -4.59  -4.52c
Writing to output.gpw (mode='')

iter:  75 22:02:50  -341.141493c -4.64  -4.44c
iter:  76 22:02:58  -341.141497c -4.63  -4.35c
iter:  77 22:03:06  -341.141500c -4.82  -4.35c
iter:  78 22:03:14  -341.141503c -4.73  -4.31c
iter:  79 22:03:25  -341.141505c -4.86  -4.35c
Writing to output.gpw (mode='')

iter:  80 22:03:33  -341.141508c -4.97  -4.32c
iter:  81 22:03:41  -341.141511c -4.88  -4.43c
iter:  82 22:03:49  -341.141511c -4.96  -4.44c
iter:  83 22:03:57  -341.141514c -4.95  -4.40c
iter:  84 22:04:05  -341.141516c -4.97  -4.33c
Writing to output.gpw (mode='')

iter:  85 22:04:14  -341.141517c -5.18  -4.35c
iter:  86 22:04:22  -341.141517c -5.28  -4.35c
iter:  87 22:04:34  -341.141518c -5.13  -4.40c
iter:  88 22:04:44  -341.141519c -5.29  -4.37c
iter:  89 22:04:52  -341.141518c -5.41  -4.34c
Writing to output.gpw (mode='')

iter:  90 22:05:00  -341.141517c -5.57  -4.39c
iter:  91 22:05:08  -341.141518c -5.60  -4.29c
iter:  92 22:05:16  -341.141517c -5.75  -4.43c
iter:  93 22:05:24  -341.141519c -5.66  -4.35c
iter:  94 22:05:32  -341.141521c -5.38  -4.39c
Writing to output.gpw (mode='')

iter:  95 22:05:40  -341.141521c -5.73  -4.46c
iter:  96 22:05:49  -341.141521c -5.94  -4.52c
iter:  97 22:05:57  -341.141521c -5.95  -4.66c
iter:  98 22:06:05  -341.141522c -5.93  -4.73c
iter:  99 22:06:13  -341.141523c -5.85  -4.78c
Writing to output.gpw (mode='')

iter: 100 22:06:21  -341.141523c -5.92  -4.83c
iter: 101 22:06:29  -341.141523c -6.07  -4.93c
iter: 102 22:06:37  -341.141522c -6.15  -5.02c
iter: 103 22:06:45  -341.141522c -6.30  -5.05c
iter: 104 22:06:53  -341.141522c -6.49  -5.51c
Writing to output.gpw (mode='')

iter: 105 22:07:01  -341.141522c -6.46  -5.55c
iter: 106 22:07:09  -341.141522c -6.56  -5.56c
iter: 107 22:07:17  -341.141522c -6.56  -5.59c
iter: 108 22:07:25  -341.141522c -6.59  -5.65c
iter: 109 22:07:33  -341.141522c -6.62  -5.77c
Writing to output.gpw (mode='')

iter: 110 22:07:41  -341.141522c -6.57  -5.77c
iter: 111 22:07:49  -341.141522c -6.55  -5.76c
iter: 112 22:07:57  -341.141522c -6.77  -5.73c
iter: 113 22:08:05  -341.141522c -6.69  -5.80c
iter: 114 22:08:14  -341.141522c -6.63  -5.82c
Writing to output.gpw (mode='')

iter: 115 22:08:22  -341.141522c -6.71  -5.85c
iter: 116 22:08:30  -341.141522c -6.60  -5.88c
iter: 117 22:08:38  -341.141522c -6.88  -5.93c
iter: 118 22:08:46  -341.141522c -7.14  -5.88c
iter: 119 22:08:54  -341.141522c -7.05  -5.92c
Writing to output.gpw (mode='')

iter: 120 22:09:02  -341.141522c -7.17  -5.90c
iter: 121 22:09:10  -341.141522c -7.16  -5.81c
iter: 122 22:09:18  -341.141522c -7.24  -5.85c
iter: 123 22:09:26  -341.141522c -7.26  -5.75c
iter: 124 22:09:40  -341.141522c -7.28  -5.86c
Writing to output.gpw (mode='')

iter: 125 22:09:48  -341.141522c -7.28  -5.94c
iter: 126 22:09:56  -341.141522c -7.33  -6.01c
iter: 127 22:10:04  -341.141522c -7.34  -6.24c
iter: 128 22:10:12  -341.141522c -7.43c -6.31c

Converged after 128 iterations.

Dipole moment: (-0.957653, -7.505548, 0.252018) |e|*Ang

Energy contributions relative to reference atoms: (reference = -17528.314784)

Kinetic:       +209.192959
Potential:     -192.235993
External:        +0.000000
XC:            -359.122581
Entropy (-ST):   -0.197982
Local:           +1.123083
--------------------------
Free energy:   -341.240514
Extrapolated:  -341.141522

Dipole-layer corrected work functions: 3.363099, 2.878634 eV

Showing only first 2 kpts
 Kpt  Band  Eigenvalues  Occupancy
  0    37     -3.28542    1.92824
  0    38     -3.15765    1.35208
  0    39     -3.00831    0.19052
  0    40     -2.97392    0.10053

  1    37     -3.25093    1.86190
  1    38     -3.13752    1.16497
  1    39     -3.10449    0.83765
  1    40     -3.03340    0.29627


Fermi level: -3.12087

No gap
Writing to output.gpw (mode='')


Forces in eV/Ang:
  0 Li    0.02281    0.00133   -0.27313
  1 Li   -0.02160    0.00034   -0.27345
  2 Li   -0.00139   -0.00284   -0.28599
  3 Li   -0.00043   -0.00155   -0.27490
  4 Li   -0.00304   -0.00484   -0.27402
  5 Li    0.00154    0.02056   -0.27113
  6 Li   -0.00293   -0.00020   -0.27687
  7 Li    0.00092    0.00408   -0.27425
  8 Li    0.00063   -0.01833   -0.27257
  9 Li   -0.00406   -0.00374    0.29032
 10 Li    0.00266    0.00541    0.26274
 11 Li   -0.00023   -0.00302    0.28684
 12 Li   -0.00087    0.00187    0.29174
 13 Li    0.00308   -0.00609    0.25579
 14 Li   -0.00211    0.00029    0.29259
 15 Li   -0.00299    0.00249    0.26290
 16 Li   -0.00003    0.00157    0.25043
 17 Li    0.00570    0.00267    0.26908
 18 Li   -0.00501    0.00052    0.02995
 19 Li    0.00556    0.00071    0.04344
 20 Li    0.00309    0.00369   -0.13090
 21 Li   -0.00147   -0.00736    0.03658
 22 Li    0.00185   -0.00064    0.03187
 23 Li    0.00114   -0.00465    0.03004
 24 Li    0.00203    0.00667    0.03182
 25 Li    0.00058    0.00144    0.03707
 26 Li    0.00081    0.00269    0.04509
 27 Li   -0.00703   -0.02567    0.03834
 28 Li    0.01596    0.01504    0.00772
 29 Li   -0.00234   -0.03200   -0.00203
 30 Li   -0.00376    0.02036    0.05393
 31 Li    0.00861   -0.01932    0.00025
 32 Li   -0.01140    0.02843    0.04977
 33 Li   -0.00955    0.00487   -0.02845
 34 Li   -0.00514    0.00394   -0.00709
 35 Li    0.02135    0.00546    0.00197
 36 O     1.01149   -0.11803   13.97830
 37 O    -0.14725    0.26610    0.19236
 38 C     0.41533    0.07102    0.06137
 39 C    -2.33388   -3.83563    2.35897
 40 C    -0.19181   -0.26440   -0.04776
 41 H    -0.00775   -0.11408    0.01174
 42 H     0.00491    0.00572   -0.01647
 43 H    -0.08874    0.20748    0.38029
 44 H     0.27037    0.38645   -0.04702
 45 H     0.02282    0.01499   -0.00416
 46 H     0.01348    0.02502   -0.01966
 47 H    -0.93216    1.80142    1.69204
 48 H     0.04694   -0.07178   -0.21358
 49 N     1.25804   -0.10218  -10.00233
 50 N     0.59299    1.71196   -8.56287

System changes: positions 

Initializing position-dependent things.

Density initialized from wave functions
       .-----------------------.  
      /|                       |  
     / |                       |  
    /  |                       |  
   /   |                       |  
  /    |                       |  
 *     |                       |  
 |     |                       |  
 |     |                       |  
 |     |                       |  
 |     |                    H  |  
 |     |              H    C   |  
 |     |                C   H  |  
 |     |              H  O     |  
 |     |                  H    |  
 |     |             H         |  
 |     |          H   OLi      Li 
 |     |           C           |  
 |     |     Li   H  LN      Li|  
 |     |              N        |  
 |     |  LLi     LLi     LLi  |  
 |     |                       |  
 |     |LLi     Li      Li     |  
 |   Li|     Li      Li        |  
 |    Li  Li  Li  Li  Li  Li   |  
 | Li  |   Li      Li          |  
 |     |Li      Li      Li     |  
 Li    | Li      Li            |  
 |    Li      Li      Li       |  
 |     |                       |  
 |     |                       |  
 |     |                       |  
 |     |                       |  
 |     |                       |  
 |     |                       |  
 |     .-----------------------.  
 |    /                       /   
 |   /                       /    
 |  /                       /     
 | /                       /      
 |/                       /       
 *-----------------------*        

Positions:
   0 Li     1.617037    1.617037   10.000000    ( 0.0000,  0.0000,  0.0000)
   1 Li     4.851111    1.617037   10.000000    ( 0.0000,  0.0000,  0.0000)
   2 Li     8.085185    1.617037   10.000000    ( 0.0000,  0.0000,  0.0000)
   3 Li     1.617037    4.851111   10.000000    ( 0.0000,  0.0000,  0.0000)
   4 Li     4.851111    4.851111   10.000000    ( 0.0000,  0.0000,  0.0000)
   5 Li     8.085185    4.851111   10.000000    ( 0.0000,  0.0000,  0.0000)
   6 Li     1.617037    8.085185   10.000000    ( 0.0000,  0.0000,  0.0000)
   7 Li     4.851111    8.085185   10.000000    ( 0.0000,  0.0000,  0.0000)
   8 Li     8.085185    8.085185   10.000000    ( 0.0000,  0.0000,  0.0000)
   9 Li     0.000000    0.000000   11.617037    ( 0.0000,  0.0000,  0.0000)
  10 Li     3.234074    0.000000   11.617037    ( 0.0000,  0.0000,  0.0000)
  11 Li     6.468148    0.000000   11.617037    ( 0.0000,  0.0000,  0.0000)
  12 Li     0.000000    3.234074   11.617037    ( 0.0000,  0.0000,  0.0000)
  13 Li     3.234074    3.234074   11.617037    ( 0.0000,  0.0000,  0.0000)
  14 Li     6.468148    3.234074   11.617037    ( 0.0000,  0.0000,  0.0000)
  15 Li     0.000000    6.468148   11.617037    ( 0.0000,  0.0000,  0.0000)
  16 Li     3.234074    6.468148   11.617037    ( 0.0000,  0.0000,  0.0000)
  17 Li     6.468148    6.468148   11.617037    ( 0.0000,  0.0000,  0.0000)
  18 Li     1.617024    1.617040   13.469813    ( 0.0000,  0.0000,  0.0000)
  19 Li     4.851127    1.617040   13.469853    ( 0.0000,  0.0000,  0.0000)
  20 Li     8.085193    1.617049   13.469354    ( 0.0000,  0.0000,  0.0000)
  21 Li     1.617034    4.851090   13.469834    ( 0.0000,  0.0000,  0.0000)
  22 Li     4.851116    4.851109   13.469821    ( 0.0000,  0.0000,  0.0000)
  23 Li     8.085187    4.851098   13.469815    ( 0.0000,  0.0000,  0.0000)
  24 Li     1.617044    8.085203   13.469819    ( 0.0000,  0.0000,  0.0000)
  25 Li     4.851113    8.085188   13.469835    ( 0.0000,  0.0000,  0.0000)
  26 Li     8.085186    8.085192   13.469857    ( 0.0000,  0.0000,  0.0000)
  27 Li    -0.000020   -0.000073   15.446049    ( 0.0000,  0.0000,  0.0000)
  28 Li     3.234119    0.000043   15.445961    ( 0.0000,  0.0000,  0.0000)
  29 Li     6.468142   -0.000091   15.445933    ( 0.0000,  0.0000,  0.0000)
  30 Li    -0.000011    3.234132   15.446093    ( 0.0000,  0.0000,  0.0000)
  31 Li     3.234101    3.234021   15.445939    ( 0.0000,  0.0000,  0.0000)
  32 Li     6.468113    3.234158   15.446080    ( 0.0000,  0.0000,  0.0000)
  33 Li    -0.000027    6.468162   15.445858    ( 0.0000,  0.0000,  0.0000)
  34 Li     3.234062    6.468157   15.445918    ( 0.0000,  0.0000,  0.0000)
  35 Li     6.468206    6.468161   15.445944    ( 0.0000,  0.0000,  0.0000)
  36 O      8.088072    1.616700   19.685834    ( 0.0000,  0.0000,  0.0000)
  37 O      8.064436   -3.244546   19.640378    ( 0.0000,  0.0000,  0.0000)
  38 C      8.084826   -0.778675   19.660561    ( 0.0000,  0.0000,  0.0000)
  39 C      7.210705    0.461220   19.655550    ( 0.0000,  0.0000,  0.0000)
  40 C      7.252826   -2.062249   19.636321    ( 0.0000,  0.0000,  0.0000)
  41 H      8.744125   -0.757121   18.785760    ( 0.0000,  0.0000,  0.0000)
  42 H      8.720765   -0.778720   20.548344    ( 0.0000,  0.0000,  0.0000)
  43 H      6.576854    0.477689   18.756356    ( 0.0000,  0.0000,  0.0000)
  44 H      6.569460    0.486812   20.535369    ( 0.0000,  0.0000,  0.0000)
  45 H      6.577873   -2.062153   18.769122    ( 0.0000,  0.0000,  0.0000)
  46 H      6.637321   -2.138272   20.536504    ( 0.0000,  0.0000,  0.0000)
  47 H      7.538168    2.417703   19.645902    ( 0.0000,  0.0000,  0.0000)
  48 H      8.640030   -3.212927   18.864703    ( 0.0000,  0.0000,  0.0000)
  49 N      8.088590    1.616708   17.167393    ( 0.0000,  0.0000,  0.0000)
  50 N      8.086692    1.621886   18.268123    ( 0.0000,  0.0000,  0.0000)

Unit cell:
           periodic     x           y           z      points  spacing
  1. axis:    yes    9.702222    0.000000    0.000000    60     0.1617
  2. axis:    yes    0.000000    9.702222    0.000000    60     0.1617
  3. axis:    no     0.000000    0.000000   28.601111   180     0.1589

  Lengths:   9.702222   9.702222  28.601111
  Angles:   90.000000  90.000000  90.000000

Effective grid spacing dv^(1/3) = 0.1608

     iter     time        total  log10-change:
                         energy  eigst   dens
iter:   1 22:10:23  -343.158158  -0.27
iter:   2 22:10:31  -343.080234  -0.63  -1.39
iter:   3 22:10:39  -342.646702  -0.61  -1.29
iter:   4 22:10:47  -342.639571  -1.02  -1.63
Writing to output.gpw (mode='')

iter:   5 22:10:55  -342.563013  -1.24  -1.65
iter:   6 22:11:03  -342.456035  -0.89  -1.73
iter:   7 22:11:11  -342.467554  -1.27  -1.88
iter:   8 22:11:19  -342.435944c -1.87  -1.95
iter:   9 22:11:28  -342.477647  -1.54  -2.15
Writing to output.gpw (mode='')

iter:  10 22:11:36  -342.440704  -1.86  -2.07
iter:  11 22:11:44  -342.460164c -1.27  -2.12
iter:  12 22:11:52  -342.434172c -1.80  -2.01
iter:  13 22:12:00  -342.429486c -2.61  -2.38
iter:  14 22:12:08  -342.432189c -2.36  -2.56
Writing to output.gpw (mode='')

iter:  15 22:12:16  -342.427810c -2.81  -2.37
iter:  16 22:12:24  -342.427941c -2.42  -2.63
iter:  17 22:12:33  -342.429192c -2.89  -2.88
iter:  18 22:12:41  -342.428185c -3.51  -2.77
iter:  19 22:12:49  -342.428073c -3.63  -3.09
Writing to output.gpw (mode='')

iter:  20 22:12:57  -342.428096c -3.67  -3.18
iter:  21 22:13:05  -342.428142c -4.00  -3.30
iter:  22 22:13:13  -342.428147c -3.97  -3.35
iter:  23 22:13:21  -342.428121c -4.37  -3.43
iter:  24 22:13:29  -342.428155c -4.43  -3.60
Writing to output.gpw (mode='')

iter:  25 22:13:38  -342.428182c -4.60  -3.63
iter:  26 22:13:46  -342.428162c -4.70  -3.66
iter:  27 22:13:54  -342.428179c -4.86  -3.74
iter:  28 22:14:02  -342.428187c -4.82  -3.83
iter:  29 22:14:10  -342.428195c -5.08  -3.89
Writing to output.gpw (mode='')

iter:  30 22:14:18  -342.428181c -5.31  -4.07c
iter:  31 22:14:26  -342.428185c -5.24  -4.24c
iter:  32 22:14:41  -342.428187c -5.36  -4.29c
iter:  33 22:14:49  -342.428185c -5.49  -4.45c
iter:  34 22:14:58  -342.428183c -5.64  -4.53c
Writing to output.gpw (mode='')

iter:  35 22:15:11  -342.428180c -5.78  -4.48c
iter:  36 22:15:23  -342.428182c -5.93  -4.49c
iter:  37 22:15:34  -342.428182c -6.20  -4.52c
iter:  38 22:15:42  -342.428185c -6.02  -4.50c
iter:  39 22:15:50  -342.428186c -6.28  -4.59c
Writing to output.gpw (mode='')

iter:  40 22:15:58  -342.428184c -6.34  -4.63c
iter:  41 22:16:06  -342.428184c -6.56  -4.83c
iter:  42 22:16:15  -342.428186c -6.54  -4.79c
iter:  43 22:16:23  -342.428185c -6.56  -4.92c
iter:  44 22:16:31  -342.428186c -6.62  -4.95c
Writing to output.gpw (mode='')

iter:  45 22:16:39  -342.428184c -6.77  -4.97c
iter:  46 22:16:47  -342.428184c -6.94  -4.98c
iter:  47 22:16:55  -342.428185c -7.11  -4.99c
iter:  48 22:17:03  -342.428186c -6.90  -5.02c
iter:  49 22:17:12  -342.428186c -6.95  -5.13c
Writing to output.gpw (mode='')

iter:  50 22:17:20  -342.428185c -7.37  -5.07c
iter:  51 22:17:28  -342.428185c -7.31  -5.03c
iter:  52 22:17:36  -342.428185c -7.28  -5.03c
iter:  53 22:17:44  -342.428185c -7.27  -5.05c
iter:  54 22:17:52  -342.428185c -7.43c -5.09c

Converged after 54 iterations.

Dipole moment: (-1.140717, -7.597917, 0.167665) |e|*Ang

Energy contributions relative to reference atoms: (reference = -17528.314784)

Kinetic:       +210.903424
Potential:     -194.832842
External:        +0.000000
XC:            -359.527921
Entropy (-ST):   -0.169959
Local:           +1.114134
--------------------------
Free energy:   -342.513164
Extrapolated:  -342.428185

Dipole-layer corrected work functions: 3.374431, 3.052121 eV

Showing only first 2 kpts
 Kpt  Band  Eigenvalues  Occupancy
  0    37     -3.39562    1.94918
  0    38     -3.29110    1.65171
  0    39     -3.05675    0.08373
  0    40     -3.02424    0.04459

  1    37     -3.32610    1.81041
  1    38     -3.22350    1.10189
  1    39     -3.19523    0.82146
  1    40     -3.10855    0.21927


Fermi level: -3.21328

No gap
Writing to output.gpw (mode='')


Forces in eV/Ang:
  0 Li    0.02813    0.00126   -0.27326
  1 Li   -0.02693    0.00059   -0.27258
  2 Li   -0.00178   -0.00204   -0.28174
  3 Li    0.00036   -0.00046   -0.27808
  4 Li   -0.00333   -0.00380   -0.27670
  5 Li    0.00137    0.02644   -0.27030
  6 Li   -0.00202   -0.00167   -0.27920
  7 Li    0.00033    0.00247   -0.27688
  8 Li    0.00082   -0.02441   -0.27247
  9 Li   -0.00412   -0.00121    0.29412
 10 Li    0.00341    0.00724    0.25458
 11 Li   -0.00054   -0.00123    0.28890
 12 Li   -0.00026    0.00038    0.29356
 13 Li    0.00365   -0.00805    0.24925
 14 Li   -0.00287   -0.00069    0.29193
 15 Li   -0.00630    0.00084    0.25369
 16 Li   -0.00076    0.00194    0.25655
 17 Li    0.00920    0.00115    0.26015
 18 Li    0.00136    0.00013    0.02935
 19 Li    0.00186    0.00041    0.04729
 20 Li    0.00164    0.00401   -0.13370
 21 Li   -0.00598   -0.01097    0.04004
 22 Li    0.00589   -0.00380    0.03669
 23 Li    0.00156   -0.00485    0.03804
 24 Li   -0.00352    0.01120    0.03689
 25 Li    0.00506    0.00499    0.04039
 26 Li    0.00109    0.00038    0.04842
 27 Li    0.01314   -0.03568    0.01107
 28 Li    0.01504    0.01827    0.00003
 29 Li   -0.02566   -0.04644   -0.03235
 30 Li    0.02068    0.03399    0.02405
 31 Li    0.00916   -0.02175   -0.00661
 32 Li   -0.04100    0.04884    0.00589
 33 Li   -0.01566    0.00457   -0.03484
 34 Li   -0.00474    0.00274   -0.00641
 35 Li    0.02738    0.00452   -0.00359
 36 O     0.28401   -0.43463   17.68201
 37 O    -0.09773    0.16710    0.11048
 38 C     0.24496   -0.09751    0.11542
 39 C    -1.40114   -2.36186    2.13464
 40 C    -0.07975   -0.17935   -0.03378
 41 H     0.00133   -0.07706   -0.00033
 42 H     0.01962    0.00990   -0.00529
 43 H    -0.04433    0.19551    0.36508
 44 H     0.02804    0.18177    0.07938
 45 H     0.00304    0.00595   -0.01919
 46 H     0.00761    0.02695   -0.01712
 47 H    -0.24512    0.61588    1.26156
 48 H     0.00617   -0.05997   -0.14091
 49 N     1.57519   -0.44676   -7.13358
 50 N    -0.33543    2.46658  -14.48427

System changes: positions 

Initializing position-dependent things.

Density initialized from wave functions
       .-----------------------.  
      /|                       |  
     / |                       |  
    /  |                       |  
   /   |                       |  
  /    |                       |  
 *     |                       |  
 |     |                       |  
 |     |                       |  
 |     |                       |  
 |     |                    H  |  
 |     |              H    C   |  
 |     |                C   H  |  
 |     |              H  O     |  
 |     |                  H    |  
 |     |             H         |  
 |     |          H   OLi      Li 
 |     |           C           |  
 |     |     Li   H  LN      Li|  
 |     |              N        |  
 |     |  LLi     LLi     LLi  |  
 |     |                       |  
 |     |LLi     Li      Li     |  
 |   Li|     Li      Li        |  
 |    Li  Li  Li  Li  Li  Li   |  
 | Li  |   Li      Li          |  
 |     |Li      Li      Li     |  
 Li    | Li      Li            |  
 |    Li      Li      Li       |  
 |     |                       |  
 |     |                       |  
 |     |                       |  
 |     |                       |  
 |     |                       |  
 |     |                       |  
 |     .-----------------------.  
 |    /                       /   
 |   /                       /    
 |  /                       /     
 | /                       /      
 |/                       /       
 *-----------------------*        

Positions:
   0 Li     1.617037    1.617037   10.000000    ( 0.0000,  0.0000,  0.0000)
   1 Li     4.851111    1.617037   10.000000    ( 0.0000,  0.0000,  0.0000)
   2 Li     8.085185    1.617037   10.000000    ( 0.0000,  0.0000,  0.0000)
   3 Li     1.617037    4.851111   10.000000    ( 0.0000,  0.0000,  0.0000)
   4 Li     4.851111    4.851111   10.000000    ( 0.0000,  0.0000,  0.0000)
   5 Li     8.085185    4.851111   10.000000    ( 0.0000,  0.0000,  0.0000)
   6 Li     1.617037    8.085185   10.000000    ( 0.0000,  0.0000,  0.0000)
   7 Li     4.851111    8.085185   10.000000    ( 0.0000,  0.0000,  0.0000)
   8 Li     8.085185    8.085185   10.000000    ( 0.0000,  0.0000,  0.0000)
   9 Li     0.000000    0.000000   11.617037    ( 0.0000,  0.0000,  0.0000)
  10 Li     3.234074    0.000000   11.617037    ( 0.0000,  0.0000,  0.0000)
  11 Li     6.468148    0.000000   11.617037    ( 0.0000,  0.0000,  0.0000)
  12 Li     0.000000    3.234074   11.617037    ( 0.0000,  0.0000,  0.0000)
  13 Li     3.234074    3.234074   11.617037    ( 0.0000,  0.0000,  0.0000)
  14 Li     6.468148    3.234074   11.617037    ( 0.0000,  0.0000,  0.0000)
  15 Li     0.000000    6.468148   11.617037    ( 0.0000,  0.0000,  0.0000)
  16 Li     3.234074    6.468148   11.617037    ( 0.0000,  0.0000,  0.0000)
  17 Li     6.468148    6.468148   11.617037    ( 0.0000,  0.0000,  0.0000)
  18 Li     1.616988    1.617042   13.469907    ( 0.0000,  0.0000,  0.0000)
  19 Li     4.851156    1.617044   13.469974    ( 0.0000,  0.0000,  0.0000)
  20 Li     8.085207    1.617059   13.468962    ( 0.0000,  0.0000,  0.0000)
  21 Li     1.617044    4.851079   13.469935    ( 0.0000,  0.0000,  0.0000)
  22 Li     4.851109    4.851117   13.469903    ( 0.0000,  0.0000,  0.0000)
  23 Li     8.085189    4.851084   13.469882    ( 0.0000,  0.0000,  0.0000)
  24 Li     1.617068    8.085209   13.469900    ( 0.0000,  0.0000,  0.0000)
  25 Li     4.851100    8.085181   13.469938    ( 0.0000,  0.0000,  0.0000)
  26 Li     8.085188    8.085207   13.469984    ( 0.0000,  0.0000,  0.0000)
  27 Li    -0.000107   -0.000120   15.446254    ( 0.0000,  0.0000,  0.0000)
  28 Li     3.234171    0.000079   15.446009    ( 0.0000,  0.0000,  0.0000)
  29 Li     6.468209   -0.000143   15.446024    ( 0.0000,  0.0000,  0.0000)
  30 Li    -0.000101    3.234150   15.446354    ( 0.0000,  0.0000,  0.0000)
  31 Li     3.234126    3.233970   15.445962    ( 0.0000,  0.0000,  0.0000)
  32 Li     6.468173    3.234179   15.446374    ( 0.0000,  0.0000,  0.0000)
  33 Li    -0.000037    6.468178   15.445791    ( 0.0000,  0.0000,  0.0000)
  34 Li     3.234045    6.468173   15.445894    ( 0.0000,  0.0000,  0.0000)
  35 Li     6.468253    6.468181   15.445968    ( 0.0000,  0.0000,  0.0000)
  36 O      8.093513    1.617356   19.716776    ( 0.0000,  0.0000,  0.0000)
  37 O      8.063825   -3.243411   19.641231    ( 0.0000,  0.0000,  0.0000)
  38 C      8.086647   -0.777915   19.660576    ( 0.0000,  0.0000,  0.0000)
  39 C      7.200550    0.444721   19.663504    ( 0.0000,  0.0000,  0.0000)
  40 C      7.251877   -2.063333   19.636130    ( 0.0000,  0.0000,  0.0000)
  41 H      8.744072   -0.757589   18.785834    ( 0.0000,  0.0000,  0.0000)
  42 H      8.720733   -0.778716   20.548258    ( 0.0000,  0.0000,  0.0000)
  43 H      6.576439    0.478364   18.757571    ( 0.0000,  0.0000,  0.0000)
  44 H      6.571068    0.488655   20.534819    ( 0.0000,  0.0000,  0.0000)
  45 H      6.578006   -2.062078   18.769158    ( 0.0000,  0.0000,  0.0000)
  46 H      6.637381   -2.138201   20.536435    ( 0.0000,  0.0000,  0.0000)
  47 H      7.533100    2.427039   19.652474    ( 0.0000,  0.0000,  0.0000)
  48 H      8.640305   -3.213185   18.863814    ( 0.0000,  0.0000,  0.0000)
  49 N      8.091427    1.617503   17.127501    ( 0.0000,  0.0000,  0.0000)
  50 N      8.091496    1.624707   18.260916    ( 0.0000,  0.0000,  0.0000)

Unit cell:
           periodic     x           y           z      points  spacing
  1. axis:    yes    9.702222    0.000000    0.000000    60     0.1617
  2. axis:    yes    0.000000    9.702222    0.000000    60     0.1617
  3. axis:    no     0.000000    0.000000   28.601111   180     0.1589

  Lengths:   9.702222   9.702222  28.601111
  Angles:   90.000000  90.000000  90.000000

Effective grid spacing dv^(1/3) = 0.1608

     iter     time        total  log10-change:
                         energy  eigst   dens
iter:   1 22:18:02  -345.174229  -0.31
iter:   2 22:18:10  -346.289527  +0.02  -1.10
iter:   3 22:18:18  -343.427373  -0.35  -0.98
iter:   4 22:18:26  -343.396718  -0.94  -1.72
Writing to output.gpw (mode='')

iter:   5 22:18:34  -343.398140c -1.05  -1.89
iter:   6 22:18:43  -343.362674c -1.03  -1.91
iter:   7 22:18:51  -343.363241c -1.53  -2.17
iter:   8 22:18:59  -343.361693c -1.55  -2.28
iter:   9 22:19:07  -343.360885c -1.60  -2.46
Writing to output.gpw (mode='')

iter:  10 22:19:15  -343.362281c -2.15  -2.61
iter:  11 22:19:26  -343.362897c -2.32  -2.66
iter:  12 22:19:39  -343.363888c -2.24  -2.73
iter:  13 22:19:47  -343.363947c -2.62  -2.70
iter:  14 22:19:55  -343.364284c -2.73  -2.82
Writing to output.gpw (mode='')

iter:  15 22:20:04  -343.364536c -2.84  -2.87
iter:  16 22:20:12  -343.364562c -3.22  -3.09
iter:  17 22:20:20  -343.364690c -3.19  -3.17
iter:  18 22:20:28  -343.364718c -3.46  -3.27
iter:  19 22:20:36  -343.364763c -3.74  -3.35
Writing to output.gpw (mode='')

iter:  20 22:20:44  -343.364777c -3.77  -3.37
iter:  21 22:20:52  -343.364790c -4.06  -3.36
iter:  22 22:21:00  -343.364835c -4.06  -3.42
iter:  23 22:21:08  -343.364831c -4.11  -3.65
iter:  24 22:21:16  -343.364884c -4.01  -3.54
Writing to output.gpw (mode='')

iter:  25 22:21:24  -343.364884c -4.64  -3.85
iter:  26 22:21:32  -343.364888c -4.62  -3.85
iter:  27 22:21:41  -343.364891c -4.56  -3.89
iter:  28 22:21:49  -343.364891c -4.59  -3.99
iter:  29 22:21:57  -343.364888c -4.73  -4.06c
Writing to output.gpw (mode='')

iter:  30 22:22:05  -343.364894c -5.09  -4.18c
iter:  31 22:22:13  -343.364893c -5.23  -4.19c
iter:  32 22:22:21  -343.364889c -5.31  -4.19c
iter:  33 22:22:29  -343.364896c -5.35  -4.24c
iter:  34 22:22:37  -343.364890c -5.46  -4.31c
Writing to output.gpw (mode='')

iter:  35 22:22:45  -343.364890c -5.59  -4.52c
iter:  36 22:22:54  -343.364892c -5.65  -4.55c
iter:  37 22:23:02  -343.364892c -5.75  -4.57c
iter:  38 22:23:10  -343.364894c -5.65  -4.55c
iter:  39 22:23:18  -343.364897c -5.97  -4.52c
Writing to output.gpw (mode='')

iter:  40 22:23:26  -343.364894c -5.89  -4.43c
iter:  41 22:23:34  -343.364895c -5.81  -4.50c
iter:  42 22:23:42  -343.364897c -6.03  -4.45c
iter:  43 22:23:50  -343.364896c -6.24  -4.44c
iter:  44 22:23:58  -343.364896c -6.28  -4.53c
Writing to output.gpw (mode='')

iter:  45 22:24:06  -343.364894c -6.37  -4.50c
iter:  46 22:24:14  -343.364892c -6.38  -4.64c
iter:  47 22:24:22  -343.364892c -6.45  -4.78c
iter:  48 22:24:34  -343.364893c -6.60  -4.79c
iter:  49 22:24:44  -343.364894c -6.66  -5.02c
Writing to output.gpw (mode='')

iter:  50 22:24:52  -343.364893c -6.81  -5.07c
iter:  51 22:25:00  -343.364893c -6.67  -5.22c
iter:  52 22:25:08  -343.364893c -6.65  -5.26c
iter:  53 22:25:16  -343.364893c -6.87  -5.39c
iter:  54 22:25:24  -343.364892c -6.83  -5.40c
Writing to output.gpw (mode='')

iter:  55 22:25:32  -343.364892c -7.12  -5.54c
iter:  56 22:25:40  -343.364892c -7.14  -5.60c
iter:  57 22:25:48  -343.364892c -7.22  -5.61c
iter:  58 22:25:56  -343.364893c -7.26  -5.57c
iter:  59 22:26:04  -343.364892c -7.32  -5.48c
Writing to output.gpw (mode='')

iter:  60 22:26:13  -343.364893c -7.28  -5.53c
iter:  61 22:26:21  -343.364893c -7.46c -5.46c

Converged after 61 iterations.

Dipole moment: (-1.305149, -7.747431, 0.117384) |e|*Ang

Energy contributions relative to reference atoms: (reference = -17528.314784)

Kinetic:       +205.191468
Potential:     -190.882036
External:        +0.000000
XC:            -358.703789
Entropy (-ST):   -0.164238
Local:           +1.111584
--------------------------
Free energy:   -343.447012
Extrapolated:  -343.364893

Dipole-layer corrected work functions: 3.377336, 3.151684 eV

Showing only first 2 kpts
 Kpt  Band  Eigenvalues  Occupancy
  0    37     -3.46069    1.96123
  0    38     -3.34905    1.68868
  0    39     -3.10201    0.07466
  0    40     -3.07496    0.04415

  1    37     -3.36599    1.76775
  1    38     -3.27359    1.09054
  1    39     -3.24650    0.82179
  1    40     -3.15231    0.19175


Fermi level: -3.26451

No gap
Writing to output.gpw (mode='')


Forces in eV/Ang:
  0 Li    0.02843    0.00114   -0.27365
  1 Li   -0.02737    0.00066   -0.27267
  2 Li   -0.00183   -0.00164   -0.28106
  3 Li    0.00082    0.00009   -0.27900
  4 Li   -0.00360   -0.00319   -0.27771
  5 Li    0.00131    0.02688   -0.27052
  6 Li   -0.00136   -0.00229   -0.28007
  7 Li   -0.00025    0.00163   -0.27749
  8 Li    0.00096   -0.02511   -0.27290
  9 Li   -0.00484    0.00011    0.29634
 10 Li    0.00347    0.00779    0.25189
 11 Li    0.00022   -0.00022    0.29095
 12 Li   -0.00107   -0.00064    0.29497
 13 Li    0.00399   -0.00863    0.24745
 14 Li   -0.00209   -0.00135    0.29281
 15 Li   -0.00684    0.00044    0.25096
 16 Li   -0.00116    0.00220    0.25744
 17 Li    0.00997    0.00049    0.25761
 18 Li    0.00459    0.00002    0.02602
 19 Li   -0.00021    0.00016    0.04542
 20 Li    0.00143    0.00415   -0.12788
 21 Li   -0.00825   -0.01307    0.04194
 22 Li    0.00781   -0.00530    0.03847
 23 Li    0.00168   -0.00303    0.03682
 24 Li   -0.00563    0.01353    0.03897
 25 Li    0.00708    0.00703    0.04212
 26 Li    0.00111   -0.00223    0.04545
 27 Li   -0.00167   -0.01865    0.02782
 28 Li    0.01456    0.01713   -0.00516
 29 Li   -0.01147   -0.03122   -0.01681
 30 Li    0.00588    0.01772    0.04052
 31 Li    0.00905   -0.02031   -0.01112
 32 Li   -0.02851    0.03567    0.01840
 33 Li   -0.01490    0.00437   -0.03967
 34 Li   -0.00446    0.00225   -0.00658
 35 Li    0.02648    0.00413   -0.00777
 36 O    -0.50317   -0.26687   17.16314
 37 O    -0.03119    0.08664    0.01875
 38 C     0.07361   -0.31388    0.16663
 39 C    -0.58837   -1.27733    1.58664
 40 C     0.03600   -0.12035   -0.01194
 41 H    -0.00014   -0.03002   -0.02608
 42 H     0.03721    0.00723    0.02177
 43 H    -0.03251    0.15719    0.38453
 44 H    -0.27217    0.04231    0.40829
 45 H    -0.01713    0.00162   -0.03971
 46 H    -0.00379    0.02555   -0.00851
 47 H     0.24044   -0.17630    1.15674
 48 H    -0.05134   -0.05488   -0.05450
 49 N     1.40639   -0.43573   -3.10373
 50 N    -0.41370    2.35348  -17.88142

System changes: positions 

Initializing position-dependent things.

Density initialized from wave functions
       .-----------------------.  
      /|                       |  
     / |                       |  
    /  |                       |  
   /   |                       |  
  /    |                       |  
 *     |                       |  
 |     |                       |  
 |     |                       |  
 |     |                       |  
 |     |                    H  |  
 |     |              H    C   |  
 |     |                C   H  |  
 |     |              H  O     |  
 |     |                  H    |  
 |     |             H         |  
 |     |          H   O        |  
 |     |           C           |  
 |   Li|     Li   H  LN        |  
 |     |              N        |  
 |     |  LLi     LLi     LLi  |  
 |     |                       |  
 |     |LLi     LLi     LLi    |  
 |   Li|     Li      Li        |  
 |    Li  Li  Li  Li  Li  Li   |  
 | Li  |   Li      Li          |  
 |     |Li      Li      Li     |  
 Li    | Li      Li            |  
 |    Li      Li      Li       |  
 |     |                       |  
 |     |                       |  
 |     |                       |  
 |     |                       |  
 |     |                       |  
 |     |                       |  
 |     .-----------------------.  
 |    /                       /   
 |   /                       /    
 |  /                       /     
 | /                       /      
 |/                       /       
 *-----------------------*        

Positions:
   0 Li     1.617037    1.617037   10.000000    ( 0.0000,  0.0000,  0.0000)
   1 Li     4.851111    1.617037   10.000000    ( 0.0000,  0.0000,  0.0000)
   2 Li     8.085185    1.617037   10.000000    ( 0.0000,  0.0000,  0.0000)
   3 Li     1.617037    4.851111   10.000000    ( 0.0000,  0.0000,  0.0000)
   4 Li     4.851111    4.851111   10.000000    ( 0.0000,  0.0000,  0.0000)
   5 Li     8.085185    4.851111   10.000000    ( 0.0000,  0.0000,  0.0000)
   6 Li     1.617037    8.085185   10.000000    ( 0.0000,  0.0000,  0.0000)
   7 Li     4.851111    8.085185   10.000000    ( 0.0000,  0.0000,  0.0000)
   8 Li     8.085185    8.085185   10.000000    ( 0.0000,  0.0000,  0.0000)
   9 Li     0.000000    0.000000   11.617037    ( 0.0000,  0.0000,  0.0000)
  10 Li     3.234074    0.000000   11.617037    ( 0.0000,  0.0000,  0.0000)
  11 Li     6.468148    0.000000   11.617037    ( 0.0000,  0.0000,  0.0000)
  12 Li     0.000000    3.234074   11.617037    ( 0.0000,  0.0000,  0.0000)
  13 Li     3.234074    3.234074   11.617037    ( 0.0000,  0.0000,  0.0000)
  14 Li     6.468148    3.234074   11.617037    ( 0.0000,  0.0000,  0.0000)
  15 Li     0.000000    6.468148   11.617037    ( 0.0000,  0.0000,  0.0000)
  16 Li     3.234074    6.468148   11.617037    ( 0.0000,  0.0000,  0.0000)
  17 Li     6.468148    6.468148   11.617037    ( 0.0000,  0.0000,  0.0000)
  18 Li     1.616922    1.617049   13.470054    ( 0.0000,  0.0000,  0.0000)
  19 Li     4.851208    1.617048   13.470176    ( 0.0000,  0.0000,  0.0000)
  20 Li     8.085246    1.617082   13.468226    ( 0.0000,  0.0000,  0.0000)
  21 Li     1.617057    4.851042   13.470170    ( 0.0000,  0.0000,  0.0000)
  22 Li     4.851098    4.851131   13.470083    ( 0.0000,  0.0000,  0.0000)
  23 Li     8.085193    4.851092   13.469941    ( 0.0000,  0.0000,  0.0000)
  24 Li     1.617124    8.085232   13.470082    ( 0.0000,  0.0000,  0.0000)
  25 Li     4.851076    8.085177   13.470175    ( 0.0000,  0.0000,  0.0000)
  26 Li     8.085190    8.085209   13.470182    ( 0.0000,  0.0000,  0.0000)
  27 Li    -0.000755    0.000195   15.447262    ( 0.0000,  0.0000,  0.0000)
  28 Li     3.234285    0.000110   15.446075    ( 0.0000,  0.0000,  0.0000)
  29 Li     6.468829    0.000160   15.446779    ( 0.0000,  0.0000,  0.0000)
  30 Li    -0.000791    3.233760   15.447503    ( 0.0000,  0.0000,  0.0000)
  31 Li     3.234174    3.233903   15.445977    ( 0.0000,  0.0000,  0.0000)
  32 Li     6.468792    3.233802   15.447627    ( 0.0000,  0.0000,  0.0000)
  33 Li     0.000005    6.468212   15.445597    ( 0.0000,  0.0000,  0.0000)
  34 Li     3.234009    6.468208   15.445832    ( 0.0000,  0.0000,  0.0000)
  35 Li     6.468289    6.468225   15.445982    ( 0.0000,  0.0000,  0.0000)
  36 O      8.095780    1.624681   19.745815    ( 0.0000,  0.0000,  0.0000)
  37 O      8.063393   -3.241695   19.641961    ( 0.0000,  0.0000,  0.0000)
  38 C      8.088655   -0.779181   19.661195    ( 0.0000,  0.0000,  0.0000)
  39 C      7.186654    0.417782   19.672110    ( 0.0000,  0.0000,  0.0000)
  40 C      7.251173   -2.065253   19.636026    ( 0.0000,  0.0000,  0.0000)
  41 H      8.743852   -0.757993   18.785585    ( 0.0000,  0.0000,  0.0000)
  42 H      8.720894   -0.778794   20.548514    ( 0.0000,  0.0000,  0.0000)
  43 H      6.575395    0.479199   18.760785    ( 0.0000,  0.0000,  0.0000)
  44 H      6.570613    0.491619   20.539125    ( 0.0000,  0.0000,  0.0000)
  45 H      6.578060   -2.061924   18.768949    ( 0.0000,  0.0000,  0.0000)
  46 H      6.637335   -2.138087   20.536434    ( 0.0000,  0.0000,  0.0000)
  47 H      7.525988    2.441537   19.668461    ( 0.0000,  0.0000,  0.0000)
  48 H      8.640099   -3.213753   18.862974    ( 0.0000,  0.0000,  0.0000)
  49 N      8.091857    1.622243   17.095908    ( 0.0000,  0.0000,  0.0000)
  50 N      8.108048    1.622720   18.224555    ( 0.0000,  0.0000,  0.0000)

Unit cell:
           periodic     x           y           z      points  spacing
  1. axis:    yes    9.702222    0.000000    0.000000    60     0.1617
  2. axis:    yes    0.000000    9.702222    0.000000    60     0.1617
  3. axis:    no     0.000000    0.000000   28.601111   180     0.1589

  Lengths:   9.702222   9.702222  28.601111
  Angles:   90.000000  90.000000  90.000000

Effective grid spacing dv^(1/3) = 0.1608

     iter     time        total  log10-change:
                         energy  eigst   dens
iter:   1 22:26:31  -344.772398  -0.66
iter:   2 22:26:39  -344.734167  -1.04  -1.73
iter:   3 22:26:47  -344.704825  -1.33  -1.86
iter:   4 22:26:55  -344.649935  -1.06  -1.94
Writing to output.gpw (mode='')

iter:   5 22:27:03  -344.648445  -1.35  -2.14
iter:   6 22:27:11  -344.665173c -1.29  -2.18
iter:   7 22:27:19  -344.636115c -1.85  -2.20
iter:   8 22:27:27  -344.633097c -1.62  -2.38
iter:   9 22:27:36  -344.632213c -2.47  -2.58
Writing to output.gpw (mode='')

iter:  10 22:27:44  -344.631708c -2.50  -2.56
iter:  11 22:27:52  -344.631583c -2.52  -2.69
iter:  12 22:28:00  -344.630830c -3.03  -2.70
iter:  13 22:28:08  -344.631095c -2.97  -2.95
iter:  14 22:28:16  -344.630937c -3.73  -3.11
Writing to output.gpw (mode='')

iter:  15 22:28:24  -344.630756c -3.78  -3.13
iter:  16 22:28:32  -344.630872c -3.71  -3.29
iter:  17 22:28:41  -344.630815c -4.29  -3.32
iter:  18 22:28:49  -344.630733c -4.17  -3.42
iter:  19 22:28:57  -344.630776c -4.54  -3.66
Writing to output.gpw (mode='')

iter:  20 22:29:05  -344.630795c -4.61  -3.71
iter:  21 22:29:13  -344.630767c -4.84  -3.75
iter:  22 22:29:21  -344.630810c -4.79  -3.89
iter:  23 22:29:35  -344.630820c -5.11  -4.01c
iter:  24 22:29:45  -344.630809c -5.49  -4.06c
Writing to output.gpw (mode='')

iter:  25 22:29:53  -344.630803c -5.53  -4.11c
iter:  26 22:30:01  -344.630814c -5.73  -4.18c
iter:  27 22:30:09  -344.630810c -5.77  -4.22c
iter:  28 22:30:17  -344.630802c -5.95  -4.28c
iter:  29 22:30:26  -344.630806c -6.15  -4.37c
Writing to output.gpw (mode='')

iter:  30 22:30:34  -344.630804c -6.26  -4.55c
iter:  31 22:30:42  -344.630807c -6.25  -4.56c
iter:  32 22:30:50  -344.630807c -6.47  -4.63c
iter:  33 22:30:58  -344.630809c -6.63  -4.75c
iter:  34 22:31:06  -344.630810c -6.72  -4.88c
Writing to output.gpw (mode='')

iter:  35 22:31:14  -344.630808c -6.72  -5.04c
iter:  36 22:31:22  -344.630808c -7.08  -5.25c
iter:  37 22:31:31  -344.630808c -7.11  -5.36c
iter:  38 22:31:39  -344.630808c -7.17  -5.49c
iter:  39 22:31:47  -344.630808c -7.28  -5.51c
Writing to output.gpw (mode='')

iter:  40 22:31:55  -344.630808c -7.39  -5.59c
iter:  41 22:32:03  -344.630808c -7.45c -5.59c

Converged after 41 iterations.

Dipole moment: (-1.396452, -8.180505, 0.039404) |e|*Ang

Energy contributions relative to reference atoms: (reference = -17528.314784)

Kinetic:       +203.980557
Potential:     -190.856040
External:        +0.000000
XC:            -358.789918
Entropy (-ST):   -0.151954
Local:           +1.110570
--------------------------
Free energy:   -344.706785
Extrapolated:  -344.630808

Dipole-layer corrected work functions: 3.381719, 3.305971 eV

Showing only first 2 kpts
 Kpt  Band  Eigenvalues  Occupancy
  0    37     -3.57144    1.97912
  0    38     -3.45323    1.79827
  0    39     -3.17453    0.06545
  0    40     -3.12810    0.02638

  1    37     -3.42398    1.66481
  1    38     -3.35102    1.07159
  1    39     -3.32516    0.81533
  1    40     -3.22635    0.17413


Fermi level: -3.34385

No gap
Writing to output.gpw (mode='')


Forces in eV/Ang:
  0 Li    0.03073    0.00096   -0.27269
  1 Li   -0.02972    0.00074   -0.27311
  2 Li   -0.00147   -0.00193   -0.27934
  3 Li    0.00033   -0.00072   -0.27930
  4 Li   -0.00267   -0.00307   -0.27778
  5 Li    0.00108    0.02971   -0.27150
  6 Li   -0.00216   -0.00121   -0.28039
  7 Li    0.00088    0.00176   -0.27772
  8 Li    0.00098   -0.02799   -0.27260
  9 Li   -0.00309   -0.00059    0.29447
 10 Li    0.00165    0.00969    0.24886
 11 Li    0.00005    0.00040    0.29168
 12 Li   -0.00153   -0.00089    0.29575
 13 Li    0.00210   -0.00855    0.24391
 14 Li    0.00003   -0.00311    0.29564
 15 Li   -0.00827    0.00188    0.24748
 16 Li   -0.00034    0.00015    0.26258
 17 Li    0.00991    0.00194    0.25233
 18 Li    0.00182    0.00118    0.03263
 19 Li   -0.00126    0.00095    0.04482
 20 Li    0.00218    0.00172   -0.14120
 21 Li   -0.01173   -0.01510    0.04418
 22 Li    0.01206   -0.00940    0.04228
 23 Li    0.00067   -0.00164    0.03760
 24 Li   -0.00738    0.01455    0.04050
 25 Li    0.00920    0.00990    0.04423
 26 Li   -0.00009    0.00081    0.05118
 27 Li    0.02714   -0.04385   -0.00453
 28 Li    0.01146    0.02109   -0.00759
 29 Li   -0.03032   -0.04050   -0.03429
 30 Li    0.02139    0.03414    0.01983
 31 Li    0.00731   -0.02327   -0.01291
 32 Li   -0.03737    0.04002    0.00055
 33 Li   -0.01965    0.00532   -0.04203
 34 Li   -0.00315    0.00124   -0.00648
 35 Li    0.03024    0.00405   -0.01040
 36 O    -1.75301    0.18623   16.50445
 37 O     0.02817   -0.04206   -0.05522
 38 C    -0.07962   -0.54486    0.18906
 39 C     0.33237    0.32514    1.05083
 40 C     0.14660   -0.07560    0.00895
 41 H    -0.00590    0.00641   -0.03023
 42 H     0.05718    0.00732    0.05383
 43 H    -0.07517    0.03144    0.33931
 44 H    -0.51923   -0.13792    0.62413
 45 H    -0.03125   -0.00545   -0.05255
 46 H    -0.01274    0.02019   -0.00382
 47 H     0.58764   -0.84304    1.07727
 48 H    -0.09427   -0.04415    0.01370
 49 N     0.68303    0.13960   -2.25568
 50 N     0.72939    0.98474  -17.55012

System changes: positions 

Initializing position-dependent things.

Density initialized from wave functions
       .-----------------------.  
      /|                       |  
     / |                       |  
    /  |                       |  
   /   |                       |  
  /    |                       |  
 *     |                       |  
 |     |                       |  
 |     |                       |  
 |     |                       |  
 |     |                    H  |  
 |     |              H    C   |  
 |     |                C   H  |  
 |     |              H  O     |  
 |     |                  H    |  
 |     |             H         |  
 |     |          H   O        |  
 |     |           C           |  
 |   Li|     Li   H  LN        |  
 |     |              N        |  
 |     |  LLi     LLi     LLi  |  
 |     |                       |  
 |     |LLi     LLi     LLi    |  
 |   Li|     Li      Li        |  
 |    Li  Li  Li  Li  Li  Li   |  
 | Li  |   Li      Li          |  
 |     |Li      Li      Li     |  
 Li    | Li      Li            |  
 |    Li      Li      Li       |  
 |     |                       |  
 |     |                       |  
 |     |                       |  
 |     |                       |  
 |     |                       |  
 |     |                       |  
 |     .-----------------------.  
 |    /                       /   
 |   /                       /    
 |  /                       /     
 | /                       /      
 |/                       /       
 *-----------------------*        

Positions:
   0 Li     1.617037    1.617037   10.000000    ( 0.0000,  0.0000,  0.0000)
   1 Li     4.851111    1.617037   10.000000    ( 0.0000,  0.0000,  0.0000)
   2 Li     8.085185    1.617037   10.000000    ( 0.0000,  0.0000,  0.0000)
   3 Li     1.617037    4.851111   10.000000    ( 0.0000,  0.0000,  0.0000)
   4 Li     4.851111    4.851111   10.000000    ( 0.0000,  0.0000,  0.0000)
   5 Li     8.085185    4.851111   10.000000    ( 0.0000,  0.0000,  0.0000)
   6 Li     1.617037    8.085185   10.000000    ( 0.0000,  0.0000,  0.0000)
   7 Li     4.851111    8.085185   10.000000    ( 0.0000,  0.0000,  0.0000)
   8 Li     8.085185    8.085185   10.000000    ( 0.0000,  0.0000,  0.0000)
   9 Li     0.000000    0.000000   11.617037    ( 0.0000,  0.0000,  0.0000)
  10 Li     3.234074    0.000000   11.617037    ( 0.0000,  0.0000,  0.0000)
  11 Li     6.468148    0.000000   11.617037    ( 0.0000,  0.0000,  0.0000)
  12 Li     0.000000    3.234074   11.617037    ( 0.0000,  0.0000,  0.0000)
  13 Li     3.234074    3.234074   11.617037    ( 0.0000,  0.0000,  0.0000)
  14 Li     6.468148    3.234074   11.617037    ( 0.0000,  0.0000,  0.0000)
  15 Li     0.000000    6.468148   11.617037    ( 0.0000,  0.0000,  0.0000)
  16 Li     3.234074    6.468148   11.617037    ( 0.0000,  0.0000,  0.0000)
  17 Li     6.468148    6.468148   11.617037    ( 0.0000,  0.0000,  0.0000)
  18 Li     1.616839    1.617063   13.470241    ( 0.0000,  0.0000,  0.0000)
  19 Li     4.851254    1.617058   13.470371    ( 0.0000,  0.0000,  0.0000)
  20 Li     8.085288    1.617090   13.467426    ( 0.0000,  0.0000,  0.0000)
  21 Li     1.617049    4.850995   13.470410    ( 0.0000,  0.0000,  0.0000)
  22 Li     4.851114    4.851119   13.470281    ( 0.0000,  0.0000,  0.0000)
  23 Li     8.085190    4.851105   13.470009    ( 0.0000,  0.0000,  0.0000)
  24 Li     1.617168    8.085260   13.470267    ( 0.0000,  0.0000,  0.0000)
  25 Li     4.851066    8.085191   13.470417    ( 0.0000,  0.0000,  0.0000)
  26 Li     8.085184    8.085231   13.470414    ( 0.0000,  0.0000,  0.0000)
  27 Li    -0.001175    0.000318   15.448003    ( 0.0000,  0.0000,  0.0000)
  28 Li     3.234375    0.000167   15.446127    ( 0.0000,  0.0000,  0.0000)
  29 Li     6.469282    0.000369   15.447366    ( 0.0000,  0.0000,  0.0000)
  30 Li    -0.001332    3.233510   15.448449    ( 0.0000,  0.0000,  0.0000)
  31 Li     3.234211    3.233818   15.445984    ( 0.0000,  0.0000,  0.0000)
  32 Li     6.469305    3.233492   15.448690    ( 0.0000,  0.0000,  0.0000)
  33 Li     0.000013    6.468250   15.445399    ( 0.0000,  0.0000,  0.0000)
  34 Li     3.233983    6.468236   15.445773    ( 0.0000,  0.0000,  0.0000)
  35 Li     6.468352    6.468266   15.445983    ( 0.0000,  0.0000,  0.0000)
  36 O      8.090991    1.634163   19.772248    ( 0.0000,  0.0000,  0.0000)
  37 O      8.063277   -3.240769   19.642292    ( 0.0000,  0.0000,  0.0000)
  38 C      8.089797   -0.781618   19.661889    ( 0.0000,  0.0000,  0.0000)
  39 C      7.178261    0.400874   19.677742    ( 0.0000,  0.0000,  0.0000)
  40 C      7.251073   -2.066869   19.636033    ( 0.0000,  0.0000,  0.0000)
  41 H      8.743611   -0.758204   18.785347    ( 0.0000,  0.0000,  0.0000)
  42 H      8.721155   -0.778862   20.548928    ( 0.0000,  0.0000,  0.0000)
  43 H      6.574132    0.479280   18.763579    ( 0.0000,  0.0000,  0.0000)
  44 H      6.568935    0.493462   20.544239    ( 0.0000,  0.0000,  0.0000)
  45 H      6.578043   -2.061819   18.768688    ( 0.0000,  0.0000,  0.0000)
  46 H      6.637248   -2.138007   20.536451    ( 0.0000,  0.0000,  0.0000)
  47 H      7.520943    2.451920   19.683346    ( 0.0000,  0.0000,  0.0000)
  48 H      8.639693   -3.214236   18.862502    ( 0.0000,  0.0000,  0.0000)
  49 N      8.088212    1.630166   17.066728    ( 0.0000,  0.0000,  0.0000)
  50 N      8.130694    1.612922   18.193073    ( 0.0000,  0.0000,  0.0000)

Unit cell:
           periodic     x           y           z      points  spacing
  1. axis:    yes    9.702222    0.000000    0.000000    60     0.1617
  2. axis:    yes    0.000000    9.702222    0.000000    60     0.1617
  3. axis:    no     0.000000    0.000000   28.601111   180     0.1589

  Lengths:   9.702222   9.702222  28.601111
  Angles:   90.000000  90.000000  90.000000

Effective grid spacing dv^(1/3) = 0.1608

     iter     time        total  log10-change:
                         energy  eigst   dens
iter:   1 22:32:13  -345.747636  -0.85
iter:   2 22:32:21  -345.713774  -1.18  -1.75
iter:   3 22:32:29  -345.700209  -1.71  -1.88
iter:   4 22:32:37  -345.686568c -1.34  -2.11
Writing to output.gpw (mode='')

iter:   5 22:32:45  -345.682258c -2.18  -2.26
iter:   6 22:32:54  -345.681531c -2.01  -2.44
iter:   7 22:33:02  -345.681804c -2.47  -2.59
iter:   8 22:33:10  -345.681921c -2.41  -2.61
iter:   9 22:33:18  -345.681028c -2.78  -2.74
Writing to output.gpw (mode='')

iter:  10 22:33:26  -345.681042c -3.28  -2.93
iter:  11 22:33:34  -345.681257c -3.18  -3.01
iter:  12 22:33:42  -345.681158c -3.57  -3.07
iter:  13 22:33:50  -345.681143c -3.59  -3.25
iter:  14 22:33:58  -345.681151c -3.95  -3.25
Writing to output.gpw (mode='')

iter:  15 22:34:06  -345.681143c -4.18  -3.29
iter:  16 22:34:14  -345.681134c -4.14  -3.52
iter:  17 22:34:22  -345.681137c -4.25  -3.65
iter:  18 22:34:35  -345.681149c -4.55  -3.68
iter:  19 22:34:44  -345.681142c -4.76  -3.74
Writing to output.gpw (mode='')

iter:  20 22:34:52  -345.681149c -4.93  -3.94
iter:  21 22:35:00  -345.681153c -4.93  -4.14c
iter:  22 22:35:08  -345.681151c -5.28  -4.23c
iter:  23 22:35:19  -345.681151c -5.40  -4.26c
iter:  24 22:35:27  -345.681153c -5.58  -4.34c
Writing to output.gpw (mode='')

iter:  25 22:35:35  -345.681154c -5.55  -4.44c
iter:  26 22:35:43  -345.681154c -5.94  -4.53c
iter:  27 22:35:51  -345.681155c -5.93  -4.64c
iter:  28 22:35:59  -345.681155c -6.05  -4.74c
iter:  29 22:36:07  -345.681156c -6.03  -4.82c
Writing to output.gpw (mode='')

iter:  30 22:36:16  -345.681156c -6.33  -4.97c
iter:  31 22:36:24  -345.681156c -6.40  -5.10c
iter:  32 22:36:32  -345.681156c -6.30  -5.15c
iter:  33 22:36:40  -345.681156c -6.69  -5.25c
iter:  34 22:36:48  -345.681156c -6.51  -5.23c
Writing to output.gpw (mode='')

iter:  35 22:36:56  -345.681156c -6.73  -5.16c
iter:  36 22:37:04  -345.681156c -7.01  -5.17c
iter:  37 22:37:12  -345.681156c -7.02  -5.14c
iter:  38 22:37:20  -345.681156c -7.05  -5.08c
iter:  39 22:37:28  -345.681156c -7.11  -5.08c
Writing to output.gpw (mode='')

iter:  40 22:37:36  -345.681156c -7.04  -5.06c
iter:  41 22:37:44  -345.681156c -7.24  -5.02c
iter:  42 22:37:52  -345.681156c -7.43c -5.09c

Converged after 42 iterations.

Dipole moment: (-1.459542, -8.466761, -0.005927) |e|*Ang

Energy contributions relative to reference atoms: (reference = -17528.314784)

Kinetic:       +201.716692
Potential:     -189.666456
External:        +0.000000
XC:            -358.772458
Entropy (-ST):   -0.147829
Local:           +1.114979
--------------------------
Free energy:   -345.755071
Extrapolated:  -345.681156

Dipole-layer corrected work functions: 3.382625, 3.394019 eV

Showing only first 2 kpts
 Kpt  Band  Eigenvalues  Occupancy
  0    37     -3.62976    1.98413
  0    38     -3.51026    1.83947
  0    39     -3.21846    0.06476
  0    40     -3.16105    0.02101

  1    37     -3.45876    1.60713
  1    38     -3.39554    1.07208
  1    39     -3.36982    0.81702
  1    40     -3.26962    0.17036


Fermi level: -3.38832

No gap
Writing to output.gpw (mode='')


Forces in eV/Ang:
  0 Li    0.03119    0.00083   -0.27187
  1 Li   -0.03003    0.00060   -0.27376
  2 Li   -0.00099   -0.00227   -0.27871
  3 Li   -0.00072   -0.00128   -0.27882
  4 Li   -0.00175   -0.00334   -0.27684
  5 Li    0.00107    0.03021   -0.27245
  6 Li   -0.00311    0.00008   -0.27991
  7 Li    0.00148    0.00266   -0.27721
  8 Li    0.00098   -0.02881   -0.27219
  9 Li   -0.00124   -0.00196    0.29119
 10 Li   -0.00029    0.01086    0.24816
 11 Li   -0.00037    0.00121    0.29149
 12 Li   -0.00242   -0.00055    0.29545
 13 Li   -0.00016   -0.00769    0.24224
 14 Li    0.00223   -0.00485    0.29829
 15 Li   -0.00904    0.00359    0.24666
 16 Li    0.00151   -0.00242    0.26615
 17 Li    0.00893    0.00391    0.24970
 18 Li   -0.00283    0.00208    0.03817
 19 Li   -0.00254    0.00209    0.04307
 20 Li    0.00436   -0.00136   -0.15242
 21 Li   -0.01364   -0.01579    0.04502
 22 Li    0.01556   -0.01291    0.04569
 23 Li   -0.00062    0.00021    0.03663
 24 Li   -0.00695    0.01385    0.04063
 25 Li    0.00983    0.01152    0.04492
 26 Li   -0.00103    0.00509    0.05547
 27 Li    0.04834   -0.06352   -0.02396
 28 Li    0.01003    0.02328   -0.00840
 29 Li   -0.04116   -0.04456   -0.04279
 30 Li    0.02889    0.04453    0.00879
 31 Li    0.00669   -0.02474   -0.01369
 32 Li   -0.03155    0.03206   -0.00064
 33 Li   -0.02212    0.00533   -0.04298
 34 Li   -0.00259    0.00092   -0.00643
 35 Li    0.03193    0.00338   -0.01177
 36 O    -2.62645    0.65749   14.68697
 37 O     0.05771   -0.13242   -0.08605
 38 C    -0.14477   -0.60078    0.18277
 39 C     0.71768    1.25966    0.71127
 40 C     0.18524   -0.05528    0.02281
 41 H    -0.01585    0.02313   -0.01888
 42 H     0.06851    0.00043    0.07727
 43 H    -0.09392   -0.05804    0.33637
 44 H    -0.62115   -0.27060    0.68415
 45 H    -0.03199   -0.01115   -0.05209
 46 H    -0.01614    0.01209   -0.00418
 47 H     0.59365   -1.01668    1.06013
 48 H    -0.10862   -0.03665    0.04094
 49 N    -0.14751    0.82321   -1.61972
 50 N     2.08167   -0.48355  -16.03970

System changes: positions 

Initializing position-dependent things.

Density initialized from wave functions
       .-----------------------.  
      /|                       |  
     / |                       |  
    /  |                       |  
   /   |                       |  
  /    |                       |  
 *     |                       |  
 |     |                       |  
 |     |                       |  
 |     |                       |  
 |     |                    H  |  
 |     |              H    C   |  
 |     |                C   H  |  
 |     |              H  O     |  
 |     |                  H    |  
 |     |             H         |  
 |     |          H   O        |  
 |     |           C           |  
 |     |     Li   H  LN      Li|  
 |     |              N        |  
 |     |  LLi     LLi     LLi  |  
 |     |                       |  
 |     |LLi     LLi     LLi    |  
 |   Li|     Li      Li        |  
 |    Li  Li  Li  Li  Li  Li   |  
 | Li  |   Li      Li          |  
 |     |Li      Li      Li     |  
 Li    | Li      Li            |  
 |    Li      Li      Li       |  
 |     |                       |  
 |     |                       |  
 |     |                       |  
 |     |                       |  
 |     |                       |  
 |     |                       |  
 |     .-----------------------.  
 |    /                       /   
 |   /                       /    
 |  /                       /     
 | /                       /      
 |/                       /       
 *-----------------------*        

Positions:
   0 Li     1.617037    1.617037   10.000000    ( 0.0000,  0.0000,  0.0000)
   1 Li     4.851111    1.617037   10.000000    ( 0.0000,  0.0000,  0.0000)
   2 Li     8.085185    1.617037   10.000000    ( 0.0000,  0.0000,  0.0000)
   3 Li     1.617037    4.851111   10.000000    ( 0.0000,  0.0000,  0.0000)
   4 Li     4.851111    4.851111   10.000000    ( 0.0000,  0.0000,  0.0000)
   5 Li     8.085185    4.851111   10.000000    ( 0.0000,  0.0000,  0.0000)
   6 Li     1.617037    8.085185   10.000000    ( 0.0000,  0.0000,  0.0000)
   7 Li     4.851111    8.085185   10.000000    ( 0.0000,  0.0000,  0.0000)
   8 Li     8.085185    8.085185   10.000000    ( 0.0000,  0.0000,  0.0000)
   9 Li     0.000000    0.000000   11.617037    ( 0.0000,  0.0000,  0.0000)
  10 Li     3.234074    0.000000   11.617037    ( 0.0000,  0.0000,  0.0000)
  11 Li     6.468148    0.000000   11.617037    ( 0.0000,  0.0000,  0.0000)
  12 Li     0.000000    3.234074   11.617037    ( 0.0000,  0.0000,  0.0000)
  13 Li     3.234074    3.234074   11.617037    ( 0.0000,  0.0000,  0.0000)
  14 Li     6.468148    3.234074   11.617037    ( 0.0000,  0.0000,  0.0000)
  15 Li     0.000000    6.468148   11.617037    ( 0.0000,  0.0000,  0.0000)
  16 Li     3.234074    6.468148   11.617037    ( 0.0000,  0.0000,  0.0000)
  17 Li     6.468148    6.468148   11.617037    ( 0.0000,  0.0000,  0.0000)
  18 Li     1.616748    1.617078   13.470438    ( 0.0000,  0.0000,  0.0000)
  19 Li     4.851282    1.617072   13.470551    ( 0.0000,  0.0000,  0.0000)
  20 Li     8.085337    1.617081   13.466630    ( 0.0000,  0.0000,  0.0000)
  21 Li     1.617031    4.850947   13.470635    ( 0.0000,  0.0000,  0.0000)
  22 Li     4.851149    4.851089   13.470485    ( 0.0000,  0.0000,  0.0000)
  23 Li     8.085182    4.851123   13.470085    ( 0.0000,  0.0000,  0.0000)
  24 Li     1.617205    8.085285   13.470441    ( 0.0000,  0.0000,  0.0000)
  25 Li     4.851063    8.085212   13.470641    ( 0.0000,  0.0000,  0.0000)
  26 Li     8.085176    8.085274   13.470656    ( 0.0000,  0.0000,  0.0000)
  27 Li    -0.001405    0.000299   15.448527    ( 0.0000,  0.0000,  0.0000)
  28 Li     3.234456    0.000234   15.446164    ( 0.0000,  0.0000,  0.0000)
  29 Li     6.469582    0.000489   15.447779    ( 0.0000,  0.0000,  0.0000)
  30 Li    -0.001723    3.233379   15.449182    ( 0.0000,  0.0000,  0.0000)
  31 Li     3.234247    3.233729   15.445980    ( 0.0000,  0.0000,  0.0000)
  32 Li     6.469744    3.233212   15.449568    ( 0.0000,  0.0000,  0.0000)
  33 Li    -0.000001    6.468281   15.445210    ( 0.0000,  0.0000,  0.0000)
  34 Li     3.233959    6.468260   15.445722    ( 0.0000,  0.0000,  0.0000)
  35 Li     6.468429    6.468298   15.445974    ( 0.0000,  0.0000,  0.0000)
  36 O      8.083419    1.643820   19.795605    ( 0.0000,  0.0000,  0.0000)
  37 O      8.063212   -3.240323   19.642551    ( 0.0000,  0.0000,  0.0000)
  38 C      8.090704   -0.783547   19.662449    ( 0.0000,  0.0000,  0.0000)
  39 C      7.171531    0.389396   19.682464    ( 0.0000,  0.0000,  0.0000)
  40 C      7.250998   -2.068214   19.636074    ( 0.0000,  0.0000,  0.0000)
  41 H      8.743359   -0.758375   18.785250    ( 0.0000,  0.0000,  0.0000)
  42 H      8.721423   -0.778964   20.549363    ( 0.0000,  0.0000,  0.0000)
  43 H      6.573077    0.479114   18.766189    ( 0.0000,  0.0000,  0.0000)
  44 H      6.567340    0.494401   20.548365    ( 0.0000,  0.0000,  0.0000)
  45 H      6.578054   -2.061760   18.768495    ( 0.0000,  0.0000,  0.0000)
  46 H      6.637178   -2.137972   20.536438    ( 0.0000,  0.0000,  0.0000)
  47 H      7.516166    2.460530   19.696084    ( 0.0000,  0.0000,  0.0000)
  48 H      8.639352   -3.214632   18.862090    ( 0.0000,  0.0000,  0.0000)
  49 N      8.081949    1.639905   17.042494    ( 0.0000,  0.0000,  0.0000)
  50 N      8.155814    1.599288   18.165089    ( 0.0000,  0.0000,  0.0000)

Unit cell:
           periodic     x           y           z      points  spacing
  1. axis:    yes    9.702222    0.000000    0.000000    60     0.1617
  2. axis:    yes    0.000000    9.702222    0.000000    60     0.1617
  3. axis:    no     0.000000    0.000000   28.601111   180     0.1589

  Lengths:   9.702222   9.702222  28.601111
  Angles:   90.000000  90.000000  90.000000

Effective grid spacing dv^(1/3) = 0.1608

     iter     time        total  log10-change:
                         energy  eigst   dens
iter:   1 22:38:02  -346.635284  -0.95
iter:   2 22:38:10  -346.590104  -1.21  -1.76
iter:   3 22:38:18  -346.575005  -1.80  -1.89
iter:   4 22:38:27  -346.571338c -1.30  -2.20
Writing to output.gpw (mode='')

iter:   5 22:38:35  -346.568608c -2.23  -2.33
iter:   6 22:38:43  -346.571996c -2.06  -2.52
iter:   7 22:38:51  -346.568319c -2.36  -2.36
iter:   8 22:38:59  -346.568381c -2.84  -2.77
iter:   9 22:39:07  -346.568488c -2.96  -2.78
Writing to output.gpw (mode='')

iter:  10 22:39:16  -346.568507c -2.74  -2.76
iter:  11 22:39:24  -346.568447c -3.00  -2.97
iter:  12 22:39:36  -346.568428c -3.43  -3.00
iter:  13 22:39:45  -346.568350c -3.65  -3.06
iter:  14 22:39:54  -346.568360c -3.56  -3.32
Writing to output.gpw (mode='')

iter:  15 22:40:02  -346.568335c -3.87  -3.37
iter:  16 22:40:10  -346.568342c -4.25  -3.54
iter:  17 22:40:18  -346.568344c -4.71  -3.54
iter:  18 22:40:26  -346.568347c -4.61  -3.76
iter:  19 22:40:34  -346.568351c -4.89  -3.95
Writing to output.gpw (mode='')

iter:  20 22:40:42  -346.568353c -5.13  -4.01c
iter:  21 22:40:50  -346.568353c -5.32  -4.05c
iter:  22 22:40:59  -346.568354c -5.52  -4.27c
iter:  23 22:41:07  -346.568355c -5.40  -4.36c
iter:  24 22:41:15  -346.568355c -5.68  -4.42c
Writing to output.gpw (mode='')

iter:  25 22:41:23  -346.568354c -5.62  -4.49c
iter:  26 22:41:31  -346.568355c -5.99  -4.54c
iter:  27 22:41:39  -346.568356c -5.95  -4.64c
iter:  28 22:41:47  -346.568355c -6.08  -4.88c
iter:  29 22:41:56  -346.568356c -6.50  -4.72c
Writing to output.gpw (mode='')

iter:  30 22:42:04  -346.568356c -6.34  -4.79c
iter:  31 22:42:12  -346.568357c -6.41  -4.92c
iter:  32 22:42:20  -346.568357c -6.78  -5.12c
iter:  33 22:42:28  -346.568357c -6.75  -5.23c
iter:  34 22:42:36  -346.568357c -6.70  -5.28c
Writing to output.gpw (mode='')

iter:  35 22:42:44  -346.568357c -6.82  -5.39c
iter:  36 22:42:52  -346.568357c -6.97  -5.41c
iter:  37 22:43:01  -346.568357c -7.20  -5.49c
iter:  38 22:43:09  -346.568357c -7.10  -5.50c
iter:  39 22:43:17  -346.568357c -7.18  -5.57c
Writing to output.gpw (mode='')

iter:  40 22:43:25  -346.568357c -7.37  -5.76c
iter:  41 22:43:33  -346.568357c -7.54c -5.86c

Converged after 41 iterations.

Dipole moment: (-1.489837, -8.673227, -0.019273) |e|*Ang

Energy contributions relative to reference atoms: (reference = -17528.314784)

Kinetic:       +199.212543
Potential:     -188.144422
External:        +0.000000
XC:            -358.683400
Entropy (-ST):   -0.146555
Local:           +1.120199
--------------------------
Free energy:   -346.641634
Extrapolated:  -346.568357

Dipole-layer corrected work functions: 3.382091, 3.419140 eV

Showing only first 2 kpts
 Kpt  Band  Eigenvalues  Occupancy
  0    37     -3.64578    1.98526
  0    38     -3.52885    1.85711
  0    39     -3.23135    0.06552
  0    40     -3.16670    0.01842

  1    37     -3.46744    1.58380
  1    38     -3.40890    1.08266
  1    39     -3.38228    0.81869
  1    40     -3.28198    0.17054


Fermi level: -3.40062

No gap
Writing to output.gpw (mode='')


Forces in eV/Ang:
  0 Li    0.03093    0.00080   -0.27113
  1 Li   -0.02945    0.00028   -0.27416
  2 Li   -0.00073   -0.00242   -0.27835
  3 Li   -0.00181   -0.00124   -0.27842
  4 Li   -0.00112   -0.00361   -0.27568
  5 Li    0.00130    0.02980   -0.27302
  6 Li   -0.00373    0.00087   -0.27929
  7 Li    0.00147    0.00362   -0.27678
  8 Li    0.00091   -0.02875   -0.27183
  9 Li    0.00001   -0.00302    0.28854
 10 Li   -0.00147    0.01139    0.24806
 11 Li   -0.00080    0.00198    0.29110
 12 Li   -0.00316   -0.00006    0.29486
 13 Li   -0.00191   -0.00713    0.24162
 14 Li    0.00343   -0.00586    0.30000
 15 Li   -0.00938    0.00454    0.24652
 16 Li    0.00314   -0.00425    0.26859
 17 Li    0.00823    0.00541    0.24847
 18 Li   -0.00681    0.00230    0.04145
 19 Li   -0.00355    0.00304    0.04200
 20 Li    0.00681   -0.00411   -0.16104
 21 Li   -0.01424   -0.01608    0.04478
 22 Li    0.01797   -0.01538    0.04818
 23 Li   -0.00171    0.00137    0.03618
 24 Li   -0.00643    0.01317    0.04085
 25 Li    0.01017    0.01210    0.04474
 26 Li   -0.00131    0.00856    0.05781
 27 Li    0.06107   -0.07531   -0.03448
 28 Li    0.01019    0.02427   -0.00846
 29 Li   -0.04878   -0.04828   -0.04957
 30 Li    0.03556    0.05256    0.00032
 31 Li    0.00744   -0.02552   -0.01370
 32 Li   -0.02225    0.02119    0.00402
 33 Li   -0.02338    0.00449   -0.04304
 34 Li   -0.00276    0.00125   -0.00619
 35 Li    0.03287    0.00204   -0.01225
 36 O    -3.06050    0.85875   12.57403
 37 O     0.07900   -0.18929   -0.10568
 38 C    -0.19365   -0.60654    0.18565
 39 C     0.95096    1.81583    0.45693
 40 C     0.20806   -0.04277    0.03059
 41 H    -0.02434    0.03503   -0.01018
 42 H     0.07654   -0.00778    0.09385
 43 H    -0.10900   -0.11029    0.34434
 44 H    -0.70426   -0.36890    0.74115
 45 H    -0.03061   -0.01580   -0.05054
 46 H    -0.01994    0.00480   -0.00250
 47 H     0.50742   -1.04254    1.01182
[...]
  0    37     -3.61278    1.96052
  0    38     -3.42629    1.08747
  0    39     -3.40288    0.85457
  0    40     -3.31102    0.21241

  1    37     -3.72495    1.99574
  1    38     -3.37888    0.63170
  1    39     -3.32055    0.25143
  1    40     -3.30306    0.18402


Fermi level: -3.41752

No gap
Writing to output.gpw (mode='')


Forces in eV/Ang:
  0 Li   -0.01064   -0.01205   -0.29058
  1 Li    0.00911    0.00913   -0.29333
  2 Li   -0.00131   -0.00096   -0.24349
  3 Li    0.01455    0.01393   -0.28537
  4 Li   -0.00846    0.00533   -0.29165
  5 Li   -0.01195   -0.01028   -0.29530
  6 Li    0.00651   -0.00839   -0.29481
  7 Li   -0.01421   -0.01600   -0.28297
  8 Li    0.01057    0.00783   -0.29320
  9 Li   -0.01774    0.01800    0.30888
 10 Li    0.02137    0.02646    0.28564
 11 Li    0.02254    0.02632    0.24954
 12 Li   -0.01546   -0.01776    0.25283
 13 Li    0.00158   -0.02617    0.29281
 14 Li    0.01512   -0.01501    0.31126
 15 Li   -0.02113   -0.00383    0.30462
 16 Li    0.00365    0.01672    0.28082
 17 Li    0.02065    0.02431    0.29709
 18 Li   -0.00203    0.00423   -0.00019
 19 Li   -0.01256    0.00360   -0.00681
 20 Li    0.00533   -0.00312    0.02515
 21 Li   -0.00502   -0.00207    0.00194
 22 Li    0.00246   -0.00462    0.00171
 23 Li    0.00168    0.00244    0.00067
 24 Li   -0.00200    0.00161    0.01248
 25 Li    0.00303    0.00174   -0.00037
 26 Li   -0.00027    0.00288   -0.00019
 27 Li   -0.00329    0.00678   -0.00448
 28 Li    0.00765   -0.00407    0.00400
 29 Li    0.00410   -0.00718    0.00703
 30 Li   -0.00110   -0.00047   -0.00203
 31 Li   -0.00066    0.00338   -0.00515
 32 Li    0.00206    0.00788    0.01334
 33 Li    0.00286   -0.00720    0.00015
 34 Li    0.00045   -0.00020   -0.00551
 35 Li   -0.00266    0.00591   -0.00673
 36 O     0.01320   -0.04203   -0.02475
 37 O    -0.00506    0.00054    0.00840
 38 C    -0.01809   -0.00397   -0.01357
 39 C     0.00949    0.03387   -0.00450
 40 C    -0.00292   -0.00424   -0.01164
 41 H     0.01698   -0.00264   -0.01566
 42 H    -0.02444    0.00323   -0.01572
 43 H     0.02020   -0.00271   -0.00381
 44 H    -0.00577   -0.00400    0.01307
 45 H    -0.00753   -0.02277   -0.00196
 46 H     0.04202   -0.01214    0.00009
 47 H    -0.00413    0.00224    0.01968
 48 H    -0.02362   -0.02040    0.00806
 49 N     0.02908   -0.01541    0.04098
 50 N    -0.03254    0.01162   -0.03848

System changes: positions 

Initializing position-dependent things.

Density initialized from wave functions
       .-----------------------.  
      /|                       |  
     / |                       |  
    /  |                       |  
   /   |                       |  
  /    |                       |  
 *     |                       |  
 |     |                       |  
 |     |                       |  
 |     |                       |  
 |     |                       |  
 |     |              H     H  |  
 |     |               C C     |  
 |     |             H   OH    |  
 |     |                  H    |  
 |     |                       |  
 |     Li      LiHH            |  
 |     |         C O           |  
 |   Li|     LiH     Li        |  
 |     |          Li      Li   |  
 |     |  LLi      Li     Li   |  
 |     |        Li   N NLi     |  
 |     |Li        Li           |  
 |   LLi     LLi     LLi       |  
 |     |  Li      Li      Li   |  
 | Li  |   Li      Li          |  
 |     |Li      Li      Li     |  
 Li    | Li      Li            |  
 |    Li      Li      Li       |  
 |     |                       |  
 |     |                       |  
 |     |                       |  
 |     |                       |  
 |     |                       |  
 |     |                       |  
 |     .-----------------------.  
 |    /                       /   
 |   /                       /    
 |  /                       /     
 | /                       /      
 |/                       /       
 *-----------------------*        

Positions:
   0 Li     1.617037    1.617037   10.000000    ( 0.0000,  0.0000,  0.0000)
   1 Li     4.851111    1.617037   10.000000    ( 0.0000,  0.0000,  0.0000)
   2 Li     8.085185    1.617037   10.000000    ( 0.0000,  0.0000,  0.0000)
   3 Li     1.617037    4.851111   10.000000    ( 0.0000,  0.0000,  0.0000)
   4 Li     4.851111    4.851111   10.000000    ( 0.0000,  0.0000,  0.0000)
   5 Li     8.085185    4.851111   10.000000    ( 0.0000,  0.0000,  0.0000)
   6 Li     1.617037    8.085185   10.000000    ( 0.0000,  0.0000,  0.0000)
   7 Li     4.851111    8.085185   10.000000    ( 0.0000,  0.0000,  0.0000)
   8 Li     8.085185    8.085185   10.000000    ( 0.0000,  0.0000,  0.0000)
   9 Li     0.000000    0.000000   11.617037    ( 0.0000,  0.0000,  0.0000)
  10 Li     3.234074    0.000000   11.617037    ( 0.0000,  0.0000,  0.0000)
  11 Li     6.468148    0.000000   11.617037    ( 0.0000,  0.0000,  0.0000)
  12 Li     0.000000    3.234074   11.617037    ( 0.0000,  0.0000,  0.0000)
  13 Li     3.234074    3.234074   11.617037    ( 0.0000,  0.0000,  0.0000)
  14 Li     6.468148    3.234074   11.617037    ( 0.0000,  0.0000,  0.0000)
  15 Li     0.000000    6.468148   11.617037    ( 0.0000,  0.0000,  0.0000)
  16 Li     3.234074    6.468148   11.617037    ( 0.0000,  0.0000,  0.0000)
  17 Li     6.468148    6.468148   11.617037    ( 0.0000,  0.0000,  0.0000)
  18 Li     1.608664    1.571631   13.512857    ( 0.0000,  0.0000,  0.0000)
  19 Li     4.882614    1.660012   13.519367    ( 0.0000,  0.0000,  0.0000)
  20 Li     8.093647    1.620310   13.524128    ( 0.0000,  0.0000,  0.0000)
  21 Li     1.575467    4.788723   13.489460    ( 0.0000,  0.0000,  0.0000)
  22 Li     4.805036    4.916061   13.487226    ( 0.0000,  0.0000,  0.0000)
  23 Li     8.045562    4.841425   13.502616    ( 0.0000,  0.0000,  0.0000)
  24 Li     1.663985    8.051982   13.479109    ( 0.0000,  0.0000,  0.0000)
  25 Li     4.911303    8.162016   13.512537    ( 0.0000,  0.0000,  0.0000)
  26 Li     8.115523    8.125271   13.522086    ( 0.0000,  0.0000,  0.0000)
  27 Li     0.113964   -0.104135   15.503484    ( 0.0000,  0.0000,  0.0000)
  28 Li     3.365817   -0.043000   15.445135    ( 0.0000,  0.0000,  0.0000)
  29 Li     6.709350    0.354270   15.693334    ( 0.0000,  0.0000,  0.0000)
  30 Li    -0.216059    3.031805   15.608651    ( 0.0000,  0.0000,  0.0000)
  31 Li     3.115656    3.277677   15.445312    ( 0.0000,  0.0000,  0.0000)
  32 Li     6.359599    3.406888   15.470398    ( 0.0000,  0.0000,  0.0000)
  33 Li     0.055437    6.352181   15.391113    ( 0.0000,  0.0000,  0.0000)
  34 Li     3.232785    6.470097   15.479063    ( 0.0000,  0.0000,  0.0000)
  35 Li     6.430663    6.633905   15.445348    ( 0.0000,  0.0000,  0.0000)
  36 O      6.846959    1.619250   18.821753    ( 0.0000,  0.0000,  0.0000)
  37 O      8.127737   -3.002139   19.591043    ( 0.0000,  0.0000,  0.0000)
  38 C      7.527429   -0.628799   19.297813    ( 0.0000,  0.0000,  0.0000)
  39 C      6.418914    0.402726   19.460960    ( 0.0000,  0.0000,  0.0000)
  40 C      7.061908   -2.044336   19.637124    ( 0.0000,  0.0000,  0.0000)
  41 H      7.867695   -0.607775   18.254685    ( 0.0000,  0.0000,  0.0000)
  42 H      8.385743   -0.363169   19.922376    ( 0.0000,  0.0000,  0.0000)
  43 H      5.488326    0.042294   18.995954    ( 0.0000,  0.0000,  0.0000)
  44 H      6.216954    0.575475   20.524468    ( 0.0000,  0.0000,  0.0000)
  45 H      6.246102   -2.337769   18.959048    ( 0.0000,  0.0000,  0.0000)
  46 H      6.668617   -2.093266   20.656255    ( 0.0000,  0.0000,  0.0000)
  47 H      6.212932    2.317419   19.027923    ( 0.0000,  0.0000,  0.0000)
  48 H      8.487763   -3.000780   18.692591    ( 0.0000,  0.0000,  0.0000)
  49 N      7.674247    2.126492   15.513951    ( 0.0000,  0.0000,  0.0000)
  50 N      8.546769    1.225419   15.547458    ( 0.0000,  0.0000,  0.0000)

Unit cell:
           periodic     x           y           z      points  spacing
  1. axis:    yes    9.702222    0.000000    0.000000    60     0.1617
  2. axis:    yes    0.000000    9.702222    0.000000    60     0.1617
  3. axis:    no     0.000000    0.000000   28.601111   180     0.1589

  Lengths:   9.702222   9.702222  28.601111
  Angles:   90.000000  90.000000  90.000000

Effective grid spacing dv^(1/3) = 0.1608

     iter     time        total  log10-change:
                         energy  eigst   dens
iter:   1 09:33:02  -353.639052  -1.69
iter:   2 09:33:10  -353.628452  -2.26  -2.05
iter:   3 09:33:18  -353.624383c -3.16  -2.25
iter:   4 09:33:26  -353.623560c -3.19  -2.57
Writing to output.gpw (mode='')

iter:   5 09:33:34  -353.623359c -3.12  -2.89
iter:   6 09:33:42  -353.623269c -2.97  -3.05
iter:   7 09:33:50  -353.623134c -3.43  -3.05
iter:   8 09:33:58  -353.622991c -4.01  -3.31
iter:   9 09:34:06  -353.622954c -4.46  -3.33
Writing to output.gpw (mode='')

iter:  10 09:34:14  -353.623079c -4.21  -3.29
iter:  11 09:34:22  -353.623039c -4.82  -3.55
iter:  12 09:34:36  -353.623005c -4.92  -3.70
iter:  13 09:34:44  -353.623012c -5.59  -3.84
iter:  14 09:34:52  -353.623003c -5.50  -3.92
Writing to output.gpw (mode='')

iter:  15 09:35:00  -353.623007c -6.06  -4.03c
iter:  16 09:35:08  -353.623031c -5.53  -4.10c
iter:  17 09:35:16  -353.623027c -6.26  -4.31c
iter:  18 09:35:24  -353.623023c -6.24  -4.41c
iter:  19 09:35:32  -353.623026c -6.28  -4.53c
Writing to output.gpw (mode='')

iter:  20 09:35:40  -353.623027c -6.46  -4.57c
iter:  21 09:35:48  -353.623021c -6.80  -4.61c
iter:  22 09:35:56  -353.623021c -7.14  -4.81c
iter:  23 09:36:04  -353.623022c -7.15  -4.94c
iter:  24 09:36:12  -353.623020c -7.48c -5.05c

Converged after 24 iterations.

Dipole moment: (-2.217393, -5.398501, -0.025887) |e|*Ang

Energy contributions relative to reference atoms: (reference = -17528.314784)

Kinetic:       +175.820012
Potential:     -169.459381
External:        +0.000000
XC:            -361.082340
Entropy (-ST):   -0.164015
Local:           +1.180696
--------------------------
Free energy:   -353.705028
Extrapolated:  -353.623020

Dipole-layer corrected work functions: 3.395854, 3.445618 eV

Showing only first 2 kpts
 Kpt  Band  Eigenvalues  Occupancy
  0    37     -3.61669    1.96105
  0    38     -3.42956    1.08800
  0    39     -3.40638    0.85745
  0    40     -3.31435    0.21288

  1    37     -3.72797    1.99572
  1    38     -3.38160    0.62746
  1    39     -3.32345    0.25006
  1    40     -3.30648    0.18473


Fermi level: -3.42074

No gap
Writing to output.gpw (mode='')


Forces in eV/Ang:
  0 Li   -0.01062   -0.01201   -0.29070
  1 Li    0.00937    0.00913   -0.29337
  2 Li   -0.00133   -0.00098   -0.24339
  3 Li    0.01464    0.01407   -0.28477
  4 Li   -0.00823    0.00548   -0.29209
  5 Li   -0.01180   -0.01038   -0.29532
  6 Li    0.00670   -0.00843   -0.29500
  7 Li   -0.01410   -0.01611   -0.28251
  8 Li    0.01070    0.00767   -0.29315
  9 Li   -0.01797    0.01886    0.30903
 10 Li    0.02044    0.02663    0.28566
 11 Li    0.02263    0.02632    0.24795
 12 Li   -0.01586   -0.01826    0.25114
 13 Li    0.00053   -0.02659    0.29301
 14 Li    0.01476   -0.01404    0.31129
 15 Li   -0.02197   -0.00406    0.30254
 16 Li    0.00238    0.01605    0.27829
 17 Li    0.02065    0.02430    0.29653
 18 Li   -0.00275    0.00390   -0.00176
 19 Li   -0.01445    0.00607   -0.00643
 20 Li    0.00555   -0.00462    0.01816
 21 Li   -0.00275   -0.00153    0.00074
 22 Li    0.00418   -0.00577    0.00360
 23 Li    0.00049    0.00278    0.00079
 24 Li   -0.00315    0.00502    0.01637
 25 Li    0.00283    0.00201   -0.00076
 26 Li    0.00034    0.00297    0.00026
 27 Li    0.00740   -0.00413   -0.00310
 28 Li    0.00594   -0.00451    0.00494
 29 Li    0.00249   -0.01250    0.00697
 30 Li   -0.00024   -0.00293   -0.00443
 31 Li    0.00080    0.00359   -0.00403
 32 Li    0.00864    0.00049    0.01578
 33 Li    0.00247   -0.00562    0.00034
 34 Li    0.00128   -0.00143   -0.00490
 35 Li   -0.00435    0.00520   -0.00527
 36 O     0.00284   -0.02622   -0.03103
 37 O    -0.02627    0.00226   -0.00236
 38 C    -0.01067    0.00534   -0.00818
 39 C    -0.00453    0.00517   -0.00234
 40 C    -0.00453    0.00367   -0.00650
 41 H     0.01880   -0.00394   -0.00321
 42 H    -0.03607    0.00896   -0.02639
 43 H     0.02381    0.00255    0.00354
 44 H    -0.00651    0.00689    0.00747
 45 H     0.01149   -0.02661    0.00674
 46 H     0.04679   -0.01350   -0.00522
 47 H    -0.00757   -0.01680    0.01586
 48 H    -0.01867   -0.02285    0.01160
 49 N     0.01678   -0.00306    0.03659
 50 N    -0.01448    0.00690   -0.01878

Timing:                                      incl.     excl.
-------------------------------------------------------------------
Density initialized from wave functions:     9.906     9.902   0.0% |
 Symmetrize density:                         0.004     0.004   0.0% |
Forces:                                     81.079    81.079   0.2% |
Hamiltonian:                               920.957     0.021   0.0% |
 Atomic:                                     0.036     0.035   0.0% |
  XC Correction:                             0.000     0.000   0.0% |
 Calculate atomic Hamiltonians:              0.064     0.064   0.0% |
 Communicate:                               13.059    13.059   0.0% |
 Hartree integrate/restrict:                 3.526     3.526   0.0% |
 Initialize Hamiltonian:                     0.001     0.001   0.0% |
 Poisson:                                   45.812    17.023   0.0% |
  Communicate from 1D:                       4.515     4.515   0.0% |
  Communicate from 2D:                       4.464     4.464   0.0% |
  Communicate to 1D:                         2.606     2.606   0.0% |
  Communicate to 2D:                         5.054     5.054   0.0% |
  FFT 1D:                                    5.845     5.845   0.0% |
  FFT 2D:                                    6.304     6.304   0.0% |
 XC 3D grid:                               857.574   137.754   0.3% |
  VdW-DF integral:                         719.821     5.750   0.0% |
   Convolution:                             63.261    63.261   0.1% |
   FFT:                                     27.661    27.661   0.1% |
   gather:                                 240.821   240.821   0.6% |
   hmm1:                                    24.813    24.813   0.1% |
   hmm2:                                    32.582    32.582   0.1% |
   iFFT:                                    28.557    28.557   0.1% |
   potential:                              292.628     7.733   0.0% |
    collect:                                47.004    47.004   0.1% |
    p1:                                    134.021   134.021   0.3% |
    p2:                                     49.931    49.931   0.1% |
    sum:                                    53.939    53.939   0.1% |
   splines:                                  3.747     3.747   0.0% |
 vbar:                                       0.864     0.864   0.0% |
LCAO initialization:                         1.261     0.183   0.0% |
 LCAO eigensolver:                           0.213     0.001   0.0% |
  Calculate projections:                     0.000     0.000   0.0% |
  DenseAtomicCorrection:                     0.000     0.000   0.0% |
  Distribute overlap matrix:                 0.190     0.190   0.0% |
  Orbital Layouts:                           0.020     0.020   0.0% |
  Potential matrix:                          0.002     0.002   0.0% |
  Sum over cells:                            0.001     0.001   0.0% |
 LCAO to grid:                               0.750     0.750   0.0% |
 Set positions (LCAO WFS):                   0.115     0.068   0.0% |
  Basic WFS set positions:                   0.001     0.001   0.0% |
  Basis functions set positions:             0.000     0.000   0.0% |
  P tci:                                     0.000     0.000   0.0% |
  ST tci:                                    0.012     0.012   0.0% |
  mktci:                                     0.033     0.033   0.0% |
Redistribute:                                0.076     0.076   0.0% |
SCF-cycle:                               41033.452   824.747   2.0% ||
 Davidson:                               11941.586  3522.753   8.3% |--|
  Apply hamiltonian:                       770.036   770.036   1.8% ||
  Subspace diag:                          2246.612     0.581   0.0% |
   calc_h_matrix:                         1171.471   386.867   0.9% |
    Apply hamiltonian:                     784.605   784.605   1.9% ||
   diagonalize:                             81.468    81.468   0.2% |
   rotate_psi:                             993.092   993.092   2.4% ||
  calc. matrices:                         3807.397  1964.380   4.7% |-|
   Apply hamiltonian:                     1843.016  1843.016   4.4% |-|
  diagonalize:                              34.829    34.829   0.1% |
  rotate_psi:                             1559.958  1559.958   3.7% ||
 Density:                                  216.137     0.116   0.0% |
  Atomic density matrices:                  23.995    23.995   0.1% |
  Mix:                                      94.471    94.471   0.2% |
  Multipole moments:                        11.683    11.683   0.0% |
  Pseudo density:                           85.872    85.744   0.2% |
   Symmetrize density:                       0.128     0.128   0.0% |
 Hamiltonian:                            28017.835     0.638   0.0% |
  Atomic:                                    1.192     1.180   0.0% |
   XC Correction:                            0.012     0.012   0.0% |
  Calculate atomic Hamiltonians:             1.965     1.965   0.0% |
  Communicate:                             413.338   413.338   1.0% |
  Hartree integrate/restrict:              102.609   102.609   0.2% |
  Poisson:                                1393.813   518.664   1.2% |
   Communicate from 1D:                    136.739   136.739   0.3% |
   Communicate from 2D:                    133.354   133.354   0.3% |
   Communicate to 1D:                       83.789    83.789   0.2% |
   Communicate to 2D:                      142.285   142.285   0.3% |
   FFT 1D:                                 177.088   177.088   0.4% |
   FFT 2D:                                 201.893   201.893   0.5% |
  XC 3D grid:                            26078.646  4150.521   9.8% |---|
   VdW-DF integral:                      21928.125   173.845   0.4% |
    Convolution:                          1913.431  1913.431   4.5% |-|
    FFT:                                   837.639   837.639   2.0% ||
    gather:                               7420.721  7420.721  17.6% |------|
    hmm1:                                  749.438   749.438   1.8% ||
    hmm2:                                  984.198   984.198   2.3% ||
    iFFT:                                  864.150   864.150   2.0% ||
    potential:                            8984.658   234.668   0.6% |
     collect:                             1411.170  1411.170   3.3% ||
     p1:                                  4044.701  4044.701   9.6% |---|
     p2:                                  1506.937  1506.937   3.6% ||
     sum:                                 1787.181  1787.181   4.2% |-|
    splines:                                 0.044     0.044   0.0% |
  vbar:                                     25.634    25.634   0.1% |
 Orthonormalize:                            33.146     0.022   0.0% |
  calc_s_matrix:                             5.220     5.220   0.0% |
  inverse-cholesky:                          8.279     8.279   0.0% |
  projections:                               0.004     0.004   0.0% |
  rotate_psi_s:                             19.621    19.621   0.0% |
Set symmetry:                                0.002     0.002   0.0% |
Other:                                     180.605   180.605   0.4% |
-------------------------------------------------------------------
Total:                                             42227.339 100.0%

Memory usage: 1.22 GiB
Date: Sat Mar 11 09:36:14 2023
