
  ___ ___ ___ _ _ _  
 |   |   |_  | | | | 
 | | | | | . | | | | 
 |__ |  _|___|_____|  22.8.0
 |___|_|             

User:   vazumah@f023
Date:   Thu Mar  9 13:58:12 2023
Arch:   x86_64
Pid:    1088
CWD:    /home/vazumah/Research_Projects/LiMEAS/LiNRR_proton_donors/N2_with_proton_donor/Li_BCC_100/adsorbates/CH3CH2OH_z/bridge/8.085_1.617/N2_y/barrier/6.51_1.77_15.57
Python: 3.10.6
gpaw:   /home/vazumah/anaconda3/envs/NAME/lib/python3.10/site-packages/gpaw
_gpaw:  /home/vazumah/anaconda3/envs/NAME/lib/python3.10/site-packages/
        _gpaw.cpython-310-x86_64-linux-gnu.so
ase:    /home/vazumah/anaconda3/envs/NAME/lib/python3.10/site-packages/ase (version 3.22.1)
numpy:  /home/vazumah/anaconda3/envs/NAME/lib/python3.10/site-packages/numpy (version 1.23.3)
scipy:  /home/vazumah/anaconda3/envs/NAME/lib/python3.10/site-packages/scipy (version 1.9.1)
libxc:  5.2.3
units:  Angstrom and eV
cores: 32
OpenMP: True
OMP_NUM_THREADS: 1

Reading from output.gpw
Reading input parameters:
  h: 0.16
  kpts: {size: [4, 4, 1]}
  occupations: {name: fermi-dirac,
                width: 0.05}
  poissonsolver: {dipolelayer: xy}
  xc: BEEF-vdW

Initialize ...

species:
  Li:
    name: Lithium
    id: 830b4218f175192f93f959cfc0aad614
    Z: 3.0
    valence: 1
    core: 2
    charge: 0.0
    file: /home/vazumah/anaconda3/envs/NAME/share/gpaw/Li.PBE.gz
    compensation charges: {type: gauss,
                           rc: 0.33,
                           lmax: 2}
    cutoffs: {filter: 1.91,
              core: 2.55}
    valence states:
      #              energy  rcut
      - 2s(1.00)    -2.874   1.058
      - 2p(0.00)    -1.090   1.058
      -  s          24.337   1.058
  
    # Using partial waves for Li as LCAO basis

  O:
    name: Oxygen
    id: 32ecd46bf208036f09c70b0ec9a88b78
    Z: 8.0
    valence: 6
    core: 2
    charge: 0.0
    file: /home/vazumah/anaconda3/envs/NAME/share/gpaw/O.PBE.gz
    compensation charges: {type: gauss,
                           rc: 0.21,
                           lmax: 2}
    cutoffs: {filter: 1.17,
              core: 0.83}
    valence states:
      #              energy  rcut
      - 2s(2.00)   -23.961   0.688
      - 2p(4.00)    -9.029   0.598
      -  s           3.251   0.688
      -  p          18.182   0.598
      -  d           0.000   0.619
  
    # Using partial waves for O as LCAO basis

  C:
    name: Carbon
    id: 4aa54d4b901d75f77cc0ea3eec22967b
    Z: 6.0
    valence: 4
    core: 2
    charge: 0.0
    file: /home/vazumah/anaconda3/envs/NAME/share/gpaw/C.PBE.gz
    compensation charges: {type: gauss,
                           rc: 0.20,
                           lmax: 2}
    cutoffs: {filter: 1.14,
              core: 1.14}
    valence states:
      #              energy  rcut
      - 2s(2.00)   -13.751   0.635
      - 2p(2.00)    -5.284   0.635
      -  s          13.461   0.635
      -  p          21.927   0.635
      -  d           0.000   0.635
  
    # Using partial waves for C as LCAO basis

  H:
    name: Hydrogen
    id: d65de229564ff8ea4db303e23b6d1ecf
    Z: 1.0
    valence: 1
    core: 0
    charge: 0.0
    file: /home/vazumah/anaconda3/envs/NAME/share/gpaw/H.PBE.gz
    compensation charges: {type: gauss,
                           rc: 0.15,
                           lmax: 2}
    cutoffs: {filter: 0.85,
              core: 0.53}
    valence states:
      #              energy  rcut
      - 1s(1.00)    -6.494   0.476
      -  s          20.717   0.476
      -  p           0.000   0.476
  
    # Using partial waves for H as LCAO basis

  N:
    name: Nitrogen
    id: f7500608b86eaa90eef8b1d9a670dc53
    Z: 7.0
    valence: 5
    core: 2
    charge: 0.0
    file: /home/vazumah/anaconda3/envs/NAME/share/gpaw/N.PBE.gz
    compensation charges: {type: gauss,
                           rc: 0.18,
                           lmax: 2}
    cutoffs: {filter: 1.11,
              core: 0.96}
    valence states:
      #              energy  rcut
      - 2s(2.00)   -18.583   0.603
      - 2p(3.00)    -7.089   0.529
      -  s           8.629   0.603
      -  p          20.123   0.529
      -  d           0.000   0.577
  
    # Using partial waves for N as LCAO basis

Reference energy: -14434.854043  # eV

Spin-paired calculation

Convergence criteria:
 Maximum [total energy] change in last 3 cyles: 0.0005 eV / electron
 Maximum integral of absolute [dens]ity change: 0.0001 electrons / valence electron
 Maximum integral of absolute [eigenst]ate change: 4e-08 eV^2 / valence electron
 Maximum number of scf [iter]ations: 333
 (Square brackets indicate name in SCF output, whereas a 'c' in
 the SCF output indicates the quantity has converged.)

Symmetries present (total): 1

  ( 1  0  0)
  ( 0  1  0)
  ( 0  0  1)

16 k-points: 4 x 4 x 1 Monkhorst-Pack grid
8 k-points in the irreducible part of the Brillouin zone
       k-points in crystal coordinates                weights
   0:     0.12500000   -0.37500000    0.00000000          2/16
   1:     0.12500000   -0.12500000    0.00000000          2/16
   2:     0.12500000    0.12500000    0.00000000          2/16
   3:     0.12500000    0.37500000    0.00000000          2/16
   4:     0.37500000   -0.37500000    0.00000000          2/16
   5:     0.37500000   -0.12500000    0.00000000          2/16
   6:     0.37500000    0.12500000    0.00000000          2/16
   7:     0.37500000    0.37500000    0.00000000          2/16

Wave functions: Uniform real-space grid
  Kinetic energy operator: 6*3+1=19 point O(h^6) finite-difference Laplacian
  ScaLapack parameters: grid=1x1, blocksize=None
  Wavefunction extrapolation:
    Improved wavefunction reuse through dual PAW basis 

Occupation numbers: Fermi-Dirac:
  width: 0.0500  # eV
 

Eigensolver
   Davidson(niter=2) 

Densities:
  Coarse grid: 60*60*156 grid
  Fine grid: 120*120*312 grid
  Total Charge: 0.000000 

Density mixing:
  Method: separate
  Backend: pulay
  Linear mixing parameter: 0.05
  old densities: 5
  Damping of long wavelength oscillations: 50 

Hamiltonian:
  XC and Coulomb potentials evaluated on a 120*120*312 grid
  Using the BEEF-vdW Exchange-Correlation functional
  Interpolation: tri-quintic (5. degree polynomial)
  Poisson solver: FastPoissonSolver using
    Stencil: 6*3+1=19 point O(h^6) finite-difference Laplacian
    FFT axes: [0, 1]
    FST axes: [2]

Dipole correction along z-axis 

XC parameters: BEEF-vdW with 2 nearest neighbor stencil

Memory estimate:
  Process memory now: 214.02 MiB
  Calculator: 307.36 MiB
    Density: 88.33 MiB
      Arrays: 27.47 MiB
      Localized functions: 50.43 MiB
      Mixer: 10.44 MiB
    Hamiltonian: 21.95 MiB
      Arrays: 17.96 MiB
      XC: 0.00 MiB
      Poisson: 0.00 MiB
      vbar: 3.99 MiB
    Wavefunctions: 197.08 MiB
      Arrays psit_nG: 91.85 MiB
      Eigensolver: 102.58 MiB
      Projections: 0.05 MiB
      Projectors: 2.60 MiB

Total number of cores used: 32
Parallelization over k-points: 8
Domain decomposition: 1 x 1 x 4

Number of atoms: 47
Number of atomic orbitals: 170
Number of bands in calculation: 44
Number of valence electrons: 66
Bands to converge: occupied

... initialized

Initializing position-dependent things.

Creating initial wave functions:
  44 bands from LCAO basis set

       .-----------------------.  
      /|                       |  
     / |                       |  
    /  |                       |  
   /   |                       |  
  /    |                       |  
 *     |                       |  
 |     |                       |  
 |     |                       |  
 |     |            H    H     |  
 |     |              H        |  
 |     |             H         |  
 |     |           H  CLi      |  
 |   Li|             Li H      |  
 |     |     Li                |  
 |     |  Li      Li      LLi  |  
 |     |  Li      Li           |  
 |     |Li      Li      Li     |  
 |Li   |  Li     N    Li       |  
 |   Li|     Li      Li        |  
 |    Li  Li  Li  Li      Li   |  
 | Li  |   Li      Li          |  
 |     |Li      Li      Li     |  
 Li    | Li      Li            |  
 |    Li      Li      Li       |  
 |     |                       |  
 |     |                       |  
 |     |                       |  
 |     |                       |  
 |     |                       |  
 |     |                       |  
 |     .-----------------------.  
 |    /                       /   
 |   /                       /    
 |  /                       /     
 | /                       /      
 |/                       /       
 *-----------------------*        

Positions:
   0 Li     1.617037    1.617037   10.000000    ( 0.0000,  0.0000,  0.0000)
   1 Li     4.851111    1.617037   10.000000    ( 0.0000,  0.0000,  0.0000)
   2 Li     8.085185    1.617037   10.000000    ( 0.0000,  0.0000,  0.0000)
   3 Li     1.617037    4.851111   10.000000    ( 0.0000,  0.0000,  0.0000)
   4 Li     4.851111    4.851111   10.000000    ( 0.0000,  0.0000,  0.0000)
   5 Li     8.085185    4.851111   10.000000    ( 0.0000,  0.0000,  0.0000)
   6 Li     1.617037    8.085185   10.000000    ( 0.0000,  0.0000,  0.0000)
   7 Li     4.851111    8.085185   10.000000    ( 0.0000,  0.0000,  0.0000)
   8 Li     8.085185    8.085185   10.000000    ( 0.0000,  0.0000,  0.0000)
   9 Li     0.000000    0.000000   11.617037    ( 0.0000,  0.0000,  0.0000)
  10 Li     3.234074    0.000000   11.617037    ( 0.0000,  0.0000,  0.0000)
  11 Li     6.468148    0.000000   11.617037    ( 0.0000,  0.0000,  0.0000)
  12 Li     0.000000    3.234074   11.617037    ( 0.0000,  0.0000,  0.0000)
  13 Li     3.234074    3.234074   11.617037    ( 0.0000,  0.0000,  0.0000)
  14 Li     6.468148    3.234074   11.617037    ( 0.0000,  0.0000,  0.0000)
  15 Li     0.000000    6.468148   11.617037    ( 0.0000,  0.0000,  0.0000)
  16 Li     3.234074    6.468148   11.617037    ( 0.0000,  0.0000,  0.0000)
  17 Li     6.468148    6.468148   11.617037    ( 0.0000,  0.0000,  0.0000)
  18 Li     1.613979    1.521639   13.183268    ( 0.0000,  0.0000,  0.0000)
  19 Li     4.789546    1.701892   13.177229    ( 0.0000,  0.0000,  0.0000)
  20 Li     8.221047    1.718801   14.122957    ( 0.0000,  0.0000,  0.0000)
  21 Li     1.427017    4.877706   13.588983    ( 0.0000,  0.0000,  0.0000)
  22 Li     4.841078    4.865464   13.602973    ( 0.0000,  0.0000,  0.0000)
  23 Li     8.077223    4.903885   13.791849    ( 0.0000,  0.0000,  0.0000)
  24 Li     1.665859    7.932674   13.544291    ( 0.0000,  0.0000,  0.0000)
  25 Li     4.942771    7.933574   13.507701    ( 0.0000,  0.0000,  0.0000)
  26 Li     8.090843    7.922487   13.715191    ( 0.0000,  0.0000,  0.0000)
  27 Li     0.256101    0.296751   15.330901    ( 0.0000,  0.0000,  0.0000)
  28 Li     3.502191    0.103592   15.031450    ( 0.0000,  0.0000,  0.0000)
  29 Li     6.419079   -0.075404   15.261419    ( 0.0000,  0.0000,  0.0000)
  30 Li    -0.020540    3.476354   15.666877    ( 0.0000,  0.0000,  0.0000)
  31 Li     2.683029    3.020537   15.026832    ( 0.0000,  0.0000,  0.0000)
  32 Li     6.201788    3.028600   15.486233    ( 0.0000,  0.0000,  0.0000)
  33 Li     0.087322    6.543540   15.813521    ( 0.0000,  0.0000,  0.0000)
  34 Li     3.253882    6.467348   15.594771    ( 0.0000,  0.0000,  0.0000)
  35 Li     6.382778    6.506861   15.807430    ( 0.0000,  0.0000,  0.0000)
  36 O      7.957213    2.510717   19.037597    ( 0.0000,  0.0000,  0.0000)
  37 C      8.033728    1.212901   19.658515    ( 0.0000,  0.0000,  0.0000)
  38 C      8.172045    1.275492   21.174638    ( 0.0000,  0.0000,  0.0000)
  39 H      7.163333    0.609708   19.368740    ( 0.0000,  0.0000,  0.0000)
  40 H      8.917201    0.735874   19.228225    ( 0.0000,  0.0000,  0.0000)
  41 H      8.304430    0.270413   21.588320    ( 0.0000,  0.0000,  0.0000)
  42 H      9.031030    1.888509   21.455767    ( 0.0000,  0.0000,  0.0000)
  43 H      7.278232    1.707396   21.631500    ( 0.0000,  0.0000,  0.0000)
  44 H      7.204855    2.987406   19.414604    ( 0.0000,  0.0000,  0.0000)
  45 N      6.142725    1.556782   14.376422    ( 0.0000,  0.0000,  0.0000)
  46 N     10.184254    2.038751   14.572530    ( 0.0000,  0.0000,  0.0000)

Unit cell:
           periodic     x           y           z      points  spacing
  1. axis:    yes    9.702222    0.000000    0.000000    60     0.1617
  2. axis:    yes    0.000000    9.702222    0.000000    60     0.1617
  3. axis:    no     0.000000    0.000000   24.851111   156     0.1593

  Lengths:   9.702222   9.702222  24.851111
  Angles:   90.000000  90.000000  90.000000

Effective grid spacing dv^(1/3) = 0.1609

     iter     time        total  log10-change:
                         energy  eigst   dens
iter:   1 13:58:57  -308.024366  +1.06
iter:   2 13:59:23  -308.662520  +0.38  -1.69
iter:   3 13:59:49  -308.817038  -0.10  -1.98
iter:   4 14:00:15  -308.877770  -0.48  -2.23
Writing to output.gpw (mode='')

iter:   5 14:00:43  -308.905370  -0.82  -2.48
iter:   6 14:01:09  -308.917787  -1.15  -2.60
iter:   7 14:01:34  -308.925332c -1.38  -2.86
iter:   8 14:02:00  -308.929978c -1.60  -2.94
iter:   9 14:02:26  -308.932595c -1.77  -2.85
Writing to output.gpw (mode='')

iter:  10 14:02:52  -308.934528c -1.94  -3.02
iter:  11 14:03:18  -308.935719c -2.22  -3.24
iter:  12 14:03:44  -308.936768c -2.31  -3.25
iter:  13 14:04:09  -308.937328c -2.47  -3.04
iter:  14 14:04:35  -308.937761c -2.55  -3.10
Writing to output.gpw (mode='')

iter:  15 14:05:01  -308.938105c -2.73  -3.29
iter:  16 14:05:27  -308.938375c -2.86  -3.25
iter:  17 14:05:53  -308.938505c -3.09  -3.22
iter:  18 14:06:19  -308.938606c -3.23  -3.40
iter:  19 14:06:45  -308.938697c -3.33  -3.54
Writing to output.gpw (mode='')

iter:  20 14:07:11  -308.938792c -3.47  -3.64
iter:  21 14:07:37  -308.938842c -3.63  -3.70
iter:  22 14:08:03  -308.938884c -3.73  -3.73
iter:  23 14:08:29  -308.938919c -3.71  -3.80
iter:  24 14:08:55  -308.938954c -3.91  -3.92
Writing to output.gpw (mode='')

iter:  25 14:09:21  -308.938970c -4.21  -4.04c
iter:  26 14:09:47  -308.938982c -4.31  -4.08c
iter:  27 14:10:13  -308.938993c -4.43  -4.09c
iter:  28 14:10:39  -308.939001c -4.46  -4.14c
iter:  29 14:11:05  -308.939006c -4.69  -4.18c
Writing to output.gpw (mode='')

iter:  30 14:11:31  -308.939010c -4.88  -4.16c
iter:  31 14:11:57  -308.939014c -4.88  -4.13c
iter:  32 14:12:23  -308.939016c -5.00  -4.14c
iter:  33 14:12:49  -308.939019c -5.08  -4.21c
iter:  34 14:13:15  -308.939020c -5.19  -4.19c
Writing to output.gpw (mode='')

iter:  35 14:13:41  -308.939022c -5.30  -4.14c
iter:  36 14:14:07  -308.939023c -5.34  -4.19c
iter:  37 14:14:33  -308.939024c -5.65  -4.08c
iter:  38 14:14:59  -308.939024c -5.64  -4.08c
iter:  39 14:15:25  -308.939025c -5.63  -4.05c
Writing to output.gpw (mode='')

iter:  40 14:15:52  -308.939027c -5.64  -4.07c
iter:  41 14:16:18  -308.939027c -6.07  -4.32c
iter:  42 14:16:44  -308.939030c -5.59  -4.24c
iter:  43 14:17:09  -308.939030c -6.06  -4.32c
iter:  44 14:17:39  -308.939029c -6.33  -4.33c
Writing to output.gpw (mode='')

iter:  45 14:18:09  -308.939030c -6.28  -4.34c
iter:  46 14:18:51  -308.939029c -6.28  -4.34c
iter:  47 14:19:21  -308.939028c -6.22  -4.40c
iter:  48 14:19:52  -308.939028c -6.50  -4.45c
iter:  49 14:20:22  -308.939028c -6.67  -4.65c
Writing to output.gpw (mode='')

iter:  50 14:20:53  -308.939028c -6.45  -4.70c
iter:  51 14:21:24  -308.939029c -6.75  -4.85c
iter:  52 14:21:56  -308.939029c -6.79  -5.03c
iter:  53 14:22:27  -308.939029c -6.94  -5.12c
iter:  54 14:22:58  -308.939029c -7.03  -5.18c
Writing to output.gpw (mode='')

iter:  55 14:23:29  -308.939029c -7.17  -5.22c
iter:  56 14:23:58  -308.939029c -7.22  -5.33c
iter:  57 14:24:29  -308.939029c -7.31  -5.39c
iter:  58 14:24:59  -308.939029c -7.44c -5.42c

Converged after 58 iterations.

Dipole moment: (-9.384815, -8.993105, 0.277338) |e|*Ang

Energy contributions relative to reference atoms: (reference = -14434.854043)

Kinetic:       +142.533423
Potential:     -134.068636
External:        +0.000000
XC:            -318.094090
Entropy (-ST):   -0.140951
Local:           +0.760750
--------------------------
Free energy:   -309.009504
Extrapolated:  -308.939029

Dipole-layer corrected work functions: 3.322927, 2.789788 eV

Showing only first 2 kpts
 Kpt  Band  Eigenvalues  Occupancy
  0    31     -3.21493    1.91950
  0    32     -3.09653    1.38139
  0    33     -2.93134    0.15166
  0    34     -2.80100    0.01203

  1    31     -3.34156    1.99336
  1    32     -3.15953    1.77460
  1    33     -2.91946    0.12154
  1    34     -2.86514    0.04273


Fermi level: -3.05636

Gap: 0.020 eV
Transition (v -> c):
  (s=0, k=7, n=32, [0.38, 0.38, 0.00]) -> (s=0, k=6, n=33, [0.38, 0.12, 0.00])
Writing to output.gpw (mode='')


Forces in eV/Ang:
  0 Li    0.04985    0.00367   -0.32239
  1 Li   -0.04542    0.00456   -0.36068
  2 Li   -0.00010    0.00753   -0.38423
  3 Li   -0.01129    0.04742   -0.28477
  4 Li    0.00583    0.01869   -0.28418
  5 Li    0.00355    0.03855   -0.25353
  6 Li    0.00161   -0.02410   -0.27975
  7 Li    0.01008   -0.02790   -0.27985
  8 Li   -0.00657   -0.03425   -0.27744
  9 Li   -0.12827   -0.12820    0.36323
 10 Li    0.00976   -0.16380    0.16314
 11 Li    0.08297    0.10475    0.65236
 12 Li   -0.04973   -0.03075    0.52578
 13 Li   -0.08737    0.16986    0.12757
 14 Li    0.11342   -0.04313    0.53060
 15 Li   -0.09869    0.00434    0.24175
 16 Li   -0.00302   -0.08157    0.28801
 17 Li    0.09746   -0.07706    0.24651
 18 Li   -0.15943    0.01202    0.15243
 19 Li    0.01190   -0.00226    0.11276
 20 Li   -0.25676    0.10670   -0.22588
 21 Li   -0.01024   -0.04006   -0.07751
 22 Li   -0.03363    0.00071   -0.00995
 23 Li   -0.09755    0.12675   -0.16447
 24 Li   -0.03490   -0.00175    0.01303
 25 Li   -0.04201   -0.03644   -0.05099
 26 Li    0.11740   -0.11987   -0.13185
 27 Li    0.23436    0.09456    0.02934
 28 Li    0.10353   -0.01755    0.02969
 29 Li   -0.00799    0.18971    0.06792
 30 Li   -0.04351   -0.11274    0.20635
 31 Li   -0.44226   -0.17163    0.00855
 32 Li   -0.14111    0.10563    0.10135
 33 Li   -0.07957    0.14248   -0.08837
 34 Li   -0.01945   -0.01355   -0.07047
 35 Li    0.09602   -0.06913   -0.09074
 36 O     0.04177   -0.02541    0.01140
 37 C     0.00176   -0.00701   -0.01510
 38 C    -0.03331    0.02660   -0.03789
 39 H    -0.00713   -0.01736    0.04866
 40 H    -0.01348    0.06386   -0.09299
 41 H     0.00780    0.05283   -0.03926
 42 H    -0.00562   -0.03638    0.00004
 43 H    -0.02211    0.01397    0.02638
 44 H     0.03234   -0.06865   -0.02434
 45 N     0.60045   -0.28069   -0.10117
 46 N     0.26492    0.28095    0.01301

System changes: positions 

Initializing position-dependent things.

Density initialized from wave functions
       .-----------------------.  
      /|                       |  
     / |                       |  
    /  |                       |  
   /   |                       |  
  /    |                       |  
 *     |                       |  
 |     |                       |  
 |     |                       |  
 |     |            H    H     |  
 |     |              H        |  
 |     |             H         |  
 |     |           H  CLi      |  
 |   Li|             Li H      |  
 |     |     Li                |  
 |     |  Li      Li      LLi  |  
 |     | Li       Li           |  
 |     |Li      Li      Li     |  
 |LiN  |  Li     N    Li       |  
 |   Li|     Li      Li        |  
 |    Li  Li  Li  Li      Li   |  
 | Li  |   Li      Li          |  
 |     |Li      Li      Li     |  
 Li    | Li      Li            |  
 |    Li      Li      Li       |  
 |     |                       |  
 |     |                       |  
 |     |                       |  
 |     |                       |  
 |     |                       |  
 |     |                       |  
 |     .-----------------------.  
 |    /                       /   
 |   /                       /    
 |  /                       /     
 | /                       /      
 |/                       /       
 *-----------------------*        

Positions:
   0 Li     1.617037    1.617037   10.000000    ( 0.0000,  0.0000,  0.0000)
   1 Li     4.851111    1.617037   10.000000    ( 0.0000,  0.0000,  0.0000)
   2 Li     8.085185    1.617037   10.000000    ( 0.0000,  0.0000,  0.0000)
   3 Li     1.617037    4.851111   10.000000    ( 0.0000,  0.0000,  0.0000)
   4 Li     4.851111    4.851111   10.000000    ( 0.0000,  0.0000,  0.0000)
   5 Li     8.085185    4.851111   10.000000    ( 0.0000,  0.0000,  0.0000)
   6 Li     1.617037    8.085185   10.000000    ( 0.0000,  0.0000,  0.0000)
   7 Li     4.851111    8.085185   10.000000    ( 0.0000,  0.0000,  0.0000)
   8 Li     8.085185    8.085185   10.000000    ( 0.0000,  0.0000,  0.0000)
   9 Li     0.000000    0.000000   11.617037    ( 0.0000,  0.0000,  0.0000)
  10 Li     3.234074    0.000000   11.617037    ( 0.0000,  0.0000,  0.0000)
  11 Li     6.468148    0.000000   11.617037    ( 0.0000,  0.0000,  0.0000)
  12 Li     0.000000    3.234074   11.617037    ( 0.0000,  0.0000,  0.0000)
  13 Li     3.234074    3.234074   11.617037    ( 0.0000,  0.0000,  0.0000)
  14 Li     6.468148    3.234074   11.617037    ( 0.0000,  0.0000,  0.0000)
  15 Li     0.000000    6.468148   11.617037    ( 0.0000,  0.0000,  0.0000)
  16 Li     3.234074    6.468148   11.617037    ( 0.0000,  0.0000,  0.0000)
  17 Li     6.468148    6.468148   11.617037    ( 0.0000,  0.0000,  0.0000)
  18 Li     1.612229    1.523436   13.173676    ( 0.0000,  0.0000,  0.0000)
  19 Li     4.789601    1.700549   13.170654    ( 0.0000,  0.0000,  0.0000)
  20 Li     8.236765    1.726147   14.104201    ( 0.0000,  0.0000,  0.0000)
  21 Li     1.423323    4.877995   13.588612    ( 0.0000,  0.0000,  0.0000)
  22 Li     4.837911    4.869607   13.601468    ( 0.0000,  0.0000,  0.0000)
  23 Li     8.078343    4.910442   13.794771    ( 0.0000,  0.0000,  0.0000)
  24 Li     1.668802    7.922984   13.540582    ( 0.0000,  0.0000,  0.0000)
  25 Li     4.939977    7.925369   13.504301    ( 0.0000,  0.0000,  0.0000)
  26 Li     8.090159    7.911458   13.714422    ( 0.0000,  0.0000,  0.0000)
  27 Li     0.260660    0.315723   15.320107    ( 0.0000,  0.0000,  0.0000)
  28 Li     3.502369    0.101182   15.022565    ( 0.0000,  0.0000,  0.0000)
  29 Li     6.429870   -0.091112   15.244300    ( 0.0000,  0.0000,  0.0000)
  30 Li    -0.031276    3.503509   15.659266    ( 0.0000,  0.0000,  0.0000)
  31 Li     2.657528    3.011269   15.016176    ( 0.0000,  0.0000,  0.0000)
  32 Li     6.199214    3.020953   15.480067    ( 0.0000,  0.0000,  0.0000)
  33 Li     0.088828    6.557939   15.818208    ( 0.0000,  0.0000,  0.0000)
  34 Li     3.253486    6.466170   15.592507    ( 0.0000,  0.0000,  0.0000)
  35 Li     6.382575    6.499497   15.811891    ( 0.0000,  0.0000,  0.0000)
  36 O      7.959114    2.508991   19.030789    ( 0.0000,  0.0000,  0.0000)
  37 C      8.034270    1.212066   19.654045    ( 0.0000,  0.0000,  0.0000)
  38 C      8.172035    1.277056   21.170153    ( 0.0000,  0.0000,  0.0000)
  39 H      7.163012    0.610539   19.363635    ( 0.0000,  0.0000,  0.0000)
  40 H      8.917689    0.732469   19.226421    ( 0.0000,  0.0000,  0.0000)
  41 H      8.303496    0.273379   21.587262    ( 0.0000,  0.0000,  0.0000)
  42 H      9.031311    1.889604   21.451656    ( 0.0000,  0.0000,  0.0000)
  43 H      7.278213    1.710385   21.625430    ( 0.0000,  0.0000,  0.0000)
  44 H      7.210061    2.988613   19.410783    ( 0.0000,  0.0000,  0.0000)
  45 N      6.135691    1.545016   14.369375    ( 0.0000,  0.0000,  0.0000)
  46 N     10.211697    2.067790   14.574424    ( 0.0000,  0.0000,  0.0000)

Unit cell:
           periodic     x           y           z      points  spacing
  1. axis:    yes    9.702222    0.000000    0.000000    60     0.1617
  2. axis:    yes    0.000000    9.702222    0.000000    60     0.1617
  3. axis:    no     0.000000    0.000000   24.851111   156     0.1593

  Lengths:   9.702222   9.702222  24.851111
  Angles:   90.000000  90.000000  90.000000

Effective grid spacing dv^(1/3) = 0.1609

     iter     time        total  log10-change:
                         energy  eigst   dens
iter:   1 14:25:40  -309.026284  -0.84
iter:   2 14:26:26  -308.979239  -1.50  -1.74
iter:   3 14:26:54  -308.973816  -2.12  -2.03
iter:   4 14:27:24  -308.964729c -1.89  -2.17
Writing to output.gpw (mode='')

iter:   5 14:27:54  -308.967397c -2.77  -2.46
iter:   6 14:28:23  -308.963950c -2.09  -2.36
iter:   7 14:28:53  -308.963595c -1.98  -2.61
iter:   8 14:29:21  -308.963605c -2.65  -2.68
iter:   9 14:29:51  -308.963140c -3.16  -2.70
Writing to output.gpw (mode='')

iter:  10 14:30:24  -308.963087c -3.03  -2.89
iter:  11 14:30:55  -308.963205c -3.41  -3.04
iter:  12 14:31:37  -308.963155c -3.86  -3.04
iter:  13 14:32:07  -308.963036c -3.68  -3.08
iter:  14 14:32:38  -308.963092c -4.02  -3.19
Writing to output.gpw (mode='')

iter:  15 14:33:09  -308.963083c -4.14  -3.31
iter:  16 14:33:41  -308.963066c -4.12  -3.39
iter:  17 14:34:22  -308.963062c -4.73  -3.47
iter:  18 14:34:51  -308.963050c -4.64  -3.53
iter:  19 14:35:20  -308.963061c -5.08  -3.81
Writing to output.gpw (mode='')

iter:  20 14:35:49  -308.963062c -5.47  -3.87
iter:  21 14:36:19  -308.963062c -5.58  -3.90
iter:  22 14:36:50  -308.963059c -5.55  -3.95
iter:  23 14:37:19  -308.963061c -5.61  -4.12c
iter:  24 14:37:48  -308.963061c -5.86  -4.30c
Writing to output.gpw (mode='')

iter:  25 14:38:19  -308.963062c -5.98  -4.38c
iter:  26 14:38:49  -308.963062c -6.04  -4.47c
iter:  27 14:39:18  -308.963062c -6.41  -4.59c
iter:  28 14:39:47  -308.963062c -6.45  -4.61c
iter:  29 14:40:22  -308.963062c -6.63  -4.75c
Writing to output.gpw (mode='')

iter:  30 14:40:53  -308.963062c -6.77  -4.84c
iter:  31 14:41:24  -308.963062c -6.86  -4.90c
iter:  32 14:41:55  -308.963062c -6.99  -4.95c
iter:  33 14:42:25  -308.963062c -7.10  -5.04c
iter:  34 14:42:54  -308.963062c -7.40c -5.19c

Converged after 34 iterations.

Dipole moment: (-8.666513, -8.818247, 0.279152) |e|*Ang

Energy contributions relative to reference atoms: (reference = -14434.854043)

Kinetic:       +142.425687
Potential:     -133.964204
External:        +0.000000
XC:            -318.114693
Entropy (-ST):   -0.140554
Local:           +0.760425
--------------------------
Free energy:   -309.033339
Extrapolated:  -308.963062

Dipole-layer corrected work functions: 3.323828, 2.787201 eV

Showing only first 2 kpts
 Kpt  Band  Eigenvalues  Occupancy
  0    31     -3.21069    1.91407
  0    32     -3.09513    1.37665
  0    33     -2.93313    0.15921
  0    34     -2.80150    0.01236

  1    31     -3.33665    1.99280
  1    32     -3.16298    1.79119
  1    33     -2.91772    0.11950
  1    34     -2.86400    0.04249


Fermi level: -3.05551

Gap: 0.021 eV
Transition (v -> c):
  (s=0, k=7, n=32, [0.38, 0.38, 0.00]) -> (s=0, k=6, n=33, [0.38, 0.12, 0.00])
Writing to output.gpw (mode='')


Forces in eV/Ang:
  0 Li    0.04960    0.00348   -0.32145
  1 Li   -0.04541    0.00418   -0.36168
  2 Li   -0.00038    0.00782   -0.38035
  3 Li   -0.01121    0.04899   -0.28508
  4 Li    0.00600    0.01840   -0.28422
  5 Li    0.00345    0.03885   -0.25253
  6 Li    0.00231   -0.02407   -0.28040
  7 Li    0.01019   -0.02767   -0.28023
  8 Li   -0.00655   -0.03438   -0.27901
  9 Li   -0.12989   -0.14201    0.35399
 10 Li    0.00730   -0.16982    0.15940
 11 Li    0.08486    0.10507    0.66177
 12 Li   -0.04814   -0.02236    0.52110
 13 Li   -0.08687    0.17554    0.12278
 14 Li    0.11516   -0.04055    0.53117
 15 Li   -0.09978    0.00225    0.23625
 16 Li   -0.00409   -0.08528    0.28166
 17 Li    0.09795   -0.07992    0.24171
 18 Li   -0.14558   -0.00000    0.13799
 19 Li   -0.01640    0.00472    0.09451
 20 Li   -0.27727    0.11056   -0.20275
 21 Li   -0.01334   -0.05080   -0.07824
 22 Li   -0.03118   -0.00646   -0.00841
 23 Li   -0.10895    0.13199   -0.17603
 24 Li   -0.04266    0.00920    0.01845
 25 Li   -0.03859   -0.02984   -0.04924
 26 Li    0.12770   -0.11221   -0.13628
 27 Li    0.24736    0.10996    0.03045
 28 Li    0.11684   -0.01011    0.03029
 29 Li   -0.01450    0.21422    0.07257
 30 Li   -0.03251   -0.13885    0.21836
 31 Li   -0.47319   -0.18404    0.01409
 32 Li   -0.14114    0.07946    0.08182
 33 Li   -0.08222    0.14735   -0.09192
 34 Li   -0.01927   -0.01199   -0.06855
 35 Li    0.09853   -0.07085   -0.09413
 36 O     0.05320   -0.02573    0.00734
 37 C     0.00329   -0.00712   -0.01425
 38 C    -0.03747    0.02689   -0.03677
 39 H    -0.00319   -0.02370    0.05048
 40 H    -0.01750    0.06867   -0.10412
 41 H     0.00603    0.04716   -0.04644
 42 H    -0.00646   -0.03380   -0.00650
 43 H    -0.02457    0.01559    0.02736
 44 H     0.03020   -0.06929   -0.02527
 45 N     0.67656   -0.31163   -0.08723
 46 N     0.24229    0.34055    0.01074

System changes: positions 

Initializing position-dependent things.

Density initialized from wave functions
       .-----------------------.  
      /|                       |  
     / |                       |  
    /  |                       |  
   /   |                       |  
  /    |                       |  
 *     |                       |  
 |     |                       |  
 |     |                       |  
 |     |            H    H     |  
 |     |              H        |  
 |     |             H         |  
 |     |           H  CLi      |  
 |   Li|             Li H      |  
 |     |     Li                |  
 |     |  Li      Li      LLi  |  
 |     | Li       Li           |  
 |     |Li      Li      Li     |  
 |LiN  |  Li     N    Li       |  
 |   Li|     Li      Li        |  
 |    Li  Li  Li  Li      Li   |  
 | Li  |   Li      Li          |  
 |     |Li      Li      Li     |  
 Li    | Li      Li            |  
 |    Li      Li      Li       |  
 |     |                       |  
 |     |                       |  
 |     |                       |  
 |     |                       |  
 |     |                       |  
 |     |                       |  
 |     .-----------------------.  
 |    /                       /   
 |   /                       /    
 |  /                       /     
 | /                       /      
 |/                       /       
 *-----------------------*        

Positions:
   0 Li     1.617037    1.617037   10.000000    ( 0.0000,  0.0000,  0.0000)
   1 Li     4.851111    1.617037   10.000000    ( 0.0000,  0.0000,  0.0000)
   2 Li     8.085185    1.617037   10.000000    ( 0.0000,  0.0000,  0.0000)
   3 Li     1.617037    4.851111   10.000000    ( 0.0000,  0.0000,  0.0000)
   4 Li     4.851111    4.851111   10.000000    ( 0.0000,  0.0000,  0.0000)
   5 Li     8.085185    4.851111   10.000000    ( 0.0000,  0.0000,  0.0000)
   6 Li     1.617037    8.085185   10.000000    ( 0.0000,  0.0000,  0.0000)
   7 Li     4.851111    8.085185   10.000000    ( 0.0000,  0.0000,  0.0000)
   8 Li     8.085185    8.085185   10.000000    ( 0.0000,  0.0000,  0.0000)
   9 Li     0.000000    0.000000   11.617037    ( 0.0000,  0.0000,  0.0000)
  10 Li     3.234074    0.000000   11.617037    ( 0.0000,  0.0000,  0.0000)
  11 Li     6.468148    0.000000   11.617037    ( 0.0000,  0.0000,  0.0000)
  12 Li     0.000000    3.234074   11.617037    ( 0.0000,  0.0000,  0.0000)
  13 Li     3.234074    3.234074   11.617037    ( 0.0000,  0.0000,  0.0000)
  14 Li     6.468148    3.234074   11.617037    ( 0.0000,  0.0000,  0.0000)
  15 Li     0.000000    6.468148   11.617037    ( 0.0000,  0.0000,  0.0000)
  16 Li     3.234074    6.468148   11.617037    ( 0.0000,  0.0000,  0.0000)
  17 Li     6.468148    6.468148   11.617037    ( 0.0000,  0.0000,  0.0000)
  18 Li     1.610352    1.525350   13.164369    ( 0.0000,  0.0000,  0.0000)
  19 Li     4.789809    1.699142   13.164406    ( 0.0000,  0.0000,  0.0000)
  20 Li     8.252591    1.733511   14.085123    ( 0.0000,  0.0000,  0.0000)
  21 Li     1.419724    4.878258   13.588146    ( 0.0000,  0.0000,  0.0000)
  22 Li     4.834635    4.873874   13.599831    ( 0.0000,  0.0000,  0.0000)
  23 Li     8.079418    4.917113   13.797435    ( 0.0000,  0.0000,  0.0000)
  24 Li     1.671817    7.913209   13.536748    ( 0.0000,  0.0000,  0.0000)
  25 Li     4.937088    7.917197   13.500836    ( 0.0000,  0.0000,  0.0000)
  26 Li     8.089528    7.900310   13.713394    ( 0.0000,  0.0000,  0.0000)
  27 Li     0.265248    0.334368   15.309492    ( 0.0000,  0.0000,  0.0000)
  28 Li     3.502444    0.098604   15.013978    ( 0.0000,  0.0000,  0.0000)
  29 Li     6.441084   -0.106819   15.227457    ( 0.0000,  0.0000,  0.0000)
  30 Li    -0.042463    3.530571   15.651779    ( 0.0000,  0.0000,  0.0000)
  31 Li     2.632056    3.002118   15.005818    ( 0.0000,  0.0000,  0.0000)
  32 Li     6.196614    3.013707   15.474061    ( 0.0000,  0.0000,  0.0000)
  33 Li     0.090224    6.572342   15.822597    ( 0.0000,  0.0000,  0.0000)
  34 Li     3.253065    6.464979   15.590039    ( 0.0000,  0.0000,  0.0000)
  35 Li     6.382495    6.492105   15.816049    ( 0.0000,  0.0000,  0.0000)
  36 O      7.960963    2.507292   19.024076    ( 0.0000,  0.0000,  0.0000)
  37 C      8.034806    1.211243   19.649624    ( 0.0000,  0.0000,  0.0000)
  38 C      8.172046    1.278592   21.165717    ( 0.0000,  0.0000,  0.0000)
  39 H      7.162681    0.611398   19.358566    ( 0.0000,  0.0000,  0.0000)
  40 H      8.918174    0.729096   19.224660    ( 0.0000,  0.0000,  0.0000)
  41 H      8.302587    0.276323   21.586252    ( 0.0000,  0.0000,  0.0000)
  42 H      9.031619    1.890647   21.447624    ( 0.0000,  0.0000,  0.0000)
  43 H      7.278221    1.713332   21.619430    ( 0.0000,  0.0000,  0.0000)
  44 H      7.215176    2.989777   19.407025    ( 0.0000,  0.0000,  0.0000)
  45 N      6.128524    1.533336   14.362782    ( 0.0000,  0.0000,  0.0000)
  46 N     10.239341    2.096611   14.576701    ( 0.0000,  0.0000,  0.0000)

Unit cell:
           periodic     x           y           z      points  spacing
  1. axis:    yes    9.702222    0.000000    0.000000    60     0.1617
  2. axis:    yes    0.000000    9.702222    0.000000    60     0.1617
  3. axis:    no     0.000000    0.000000   24.851111   156     0.1593

  Lengths:   9.702222   9.702222  24.851111
  Angles:   90.000000  90.000000  90.000000

Effective grid spacing dv^(1/3) = 0.1609

     iter     time        total  log10-change:
                         energy  eigst   dens
iter:   1 14:43:33  -309.048086  -0.85
iter:   2 14:44:01  -309.000808  -1.50  -1.74
iter:   3 14:44:31  -308.995175  -2.12  -2.02
iter:   4 14:45:02  -308.986001c -1.87  -2.17
Writing to output.gpw (mode='')

iter:   5 14:45:35  -308.988706c -2.76  -2.46
iter:   6 14:46:08  -308.985180c -2.07  -2.36
iter:   7 14:46:41  -308.984816c -1.99  -2.61
iter:   8 14:47:14  -308.984848c -2.64  -2.68
iter:   9 14:48:08  -308.984365c -3.10  -2.70
Writing to output.gpw (mode='')

iter:  10 14:49:02  -308.984320c -3.00  -2.88
iter:  11 14:49:58  -308.984455c -3.35  -3.02
iter:  12 14:50:51  -308.984427c -3.78  -3.00
iter:  13 14:51:45  -308.984254c -3.46  -3.03
iter:  14 14:52:36  -308.984240c -3.95  -3.26
Writing to output.gpw (mode='')

iter:  15 14:54:12  -308.984253c -4.17  -3.34
iter:  16 14:55:19  -308.984241c -4.62  -3.33
iter:  17 14:58:05  -308.984247c -4.76  -3.39
iter:  18 15:02:43  -308.984251c -4.48  -3.39
iter:  19 15:04:42  -308.984262c -4.70  -3.44
Writing to output.gpw (mode='')

iter:  20 15:06:05  -308.984266c -4.68  -3.63
iter:  21 15:07:26  -308.984268c -5.18  -3.69
iter:  22 15:08:56  -308.984262c -5.37  -3.76
iter:  23 15:10:49  -308.984258c -5.24  -3.92
iter:  24 15:13:10  -308.984258c -5.90  -4.01c
Writing to output.gpw (mode='')

iter:  25 15:15:53  -308.984258c -5.52  -4.05c
iter:  26 15:18:49  -308.984256c -5.63  -4.11c
iter:  27 15:21:14  -308.984258c -6.48  -4.27c
iter:  28 15:24:26  -308.984259c -6.09  -4.39c
iter:  29 15:30:58  -308.984258c -6.37  -4.70c
Writing to output.gpw (mode='')

iter:  30 15:38:02  -308.984258c -6.76  -4.76c
iter:  31 15:44:27  -308.984259c -6.61  -4.78c
iter:  32 15:49:38  -308.984259c -6.69  -4.84c
iter:  33 15:56:16  -308.984259c -6.83  -4.92c
iter:  34 16:01:55  -308.984259c -7.26  -5.04c
Writing to output.gpw (mode='')

iter:  35 16:07:14  -308.984259c -7.33  -5.06c
iter:  36 16:13:43  -308.984259c -7.42c -5.23c

Converged after 36 iterations.

Dipole moment: (-7.981721, -8.629616, 0.281111) |e|*Ang

Energy contributions relative to reference atoms: (reference = -14434.854043)

Kinetic:       +142.349080
Potential:     -133.881765
External:        +0.000000
XC:            -318.141075
Entropy (-ST):   -0.140159
Local:           +0.759582
--------------------------
Free energy:   -309.054338
Extrapolated:  -308.984259

Dipole-layer corrected work functions: 3.324862, 2.784471 eV

Showing only first 2 kpts
 Kpt  Band  Eigenvalues  Occupancy
  0    31     -3.20629    1.90803
  0    32     -3.09360    1.37076
  0    33     -2.93487    0.16696
  0    34     -2.80210    0.01272

  1    31     -3.33145    1.99214
  1    32     -3.16649    1.80695
  1    33     -2.91626    0.11815
  1    34     -2.86278    0.04218


Fermi level: -3.05467

Gap: 0.022 eV
Transition (v -> c):
  (s=0, k=7, n=32, [0.38, 0.38, 0.00]) -> (s=0, k=6, n=33, [0.38, 0.12, 0.00])
Writing to output.gpw (mode='')


Forces in eV/Ang:
  0 Li    0.04929    0.00317   -0.32043
  1 Li   -0.04540    0.00367   -0.36256
  2 Li   -0.00064    0.00806   -0.37626
  3 Li   -0.01113    0.05056   -0.28541
  4 Li    0.00623    0.01813   -0.28420
  5 Li    0.00337    0.03917   -0.25148
  6 Li    0.00304   -0.02397   -0.28110
  7 Li    0.01031   -0.02738   -0.28066
  8 Li   -0.00657   -0.03453   -0.28063
  9 Li   -0.13138   -0.15576    0.34489
 10 Li    0.00478   -0.17570    0.15560
 11 Li    0.08676    0.10534    0.67088
 12 Li   -0.04656   -0.01362    0.51547
 13 Li   -0.08639    0.18104    0.11823
 14 Li    0.11691   -0.03791    0.53161
 15 Li   -0.10082   -0.00016    0.23055
 16 Li   -0.00518   -0.08895    0.27500
 17 Li    0.09832   -0.08263    0.23673
 18 Li   -0.13415   -0.01092    0.12612
 19 Li   -0.04579    0.01233    0.07487
 20 Li   -0.29630    0.11429   -0.18042
 21 Li   -0.01613   -0.06234   -0.07828
 22 Li   -0.02816   -0.01355   -0.00698
 23 Li   -0.12112    0.13700   -0.18801
 24 Li   -0.05077    0.02073    0.02414
 25 Li   -0.03501   -0.02278   -0.04724
 26 Li    0.13848   -0.10391   -0.14080
 27 Li    0.26075    0.12578    0.03280
 28 Li    0.13030   -0.00236    0.03096
 29 Li   -0.02170    0.24045    0.07605
 30 Li   -0.01792   -0.17017    0.22689
 31 Li   -0.49471   -0.19182    0.02197
 32 Li   -0.14053    0.05276    0.06167
 33 Li   -0.08474    0.15223   -0.09567
 34 Li   -0.01907   -0.01015   -0.06632
 35 Li    0.10104   -0.07267   -0.09738
 36 O     0.07362   -0.02389    0.00326
 37 C     0.00441   -0.00757   -0.01152
 38 C    -0.04527    0.02966   -0.03070
 39 H    -0.00021   -0.02990    0.05416
 40 H    -0.02076    0.07475   -0.11473
 41 H     0.00411    0.04143   -0.05364
 42 H    -0.00648   -0.03093   -0.01290
 43 H    -0.02726    0.01627    0.02859
 44 H     0.02928   -0.07025   -0.02638
 45 N     0.71333   -0.27647   -0.03089
 46 N     0.16776    0.32584    0.02145

System changes: positions 

Initializing position-dependent things.

Density initialized from wave functions
       .-----------------------.  
      /|                       |  
     / |                       |  
    /  |                       |  
   /   |                       |  
  /    |                       |  
 *     |                       |  
 |     |                       |  
 |     |                       |  
 |     |            H    H     |  
 |     |              H        |  
 |     |             H         |  
 |     |           H  CLi      |  
 |   Li|             Li H      |  
 |     |     Li                |  
 |     |  Li      Li      LLi  |  
 |     | Li       Li           |  
 |  N  |Li      Li      Li     |  
 |Li   |  Li     N     Li      |  
 |   Li|     Li      Li        |  
 |    Li  Li  Li  Li      Li   |  
 | Li  |   Li      Li          |  
 |     |Li      Li      Li     |  
 Li    | Li      Li            |  
 |    Li      Li      Li       |  
 |     |                       |  
 |     |                       |  
 |     |                       |  
 |     |                       |  
 |     |                       |  
 |     |                       |  
 |     .-----------------------.  
 |    /                       /   
 |   /                       /    
 |  /                       /     
 | /                       /      
 |/                       /       
 *-----------------------*        

Positions:
   0 Li     1.617037    1.617037   10.000000    ( 0.0000,  0.0000,  0.0000)
   1 Li     4.851111    1.617037   10.000000    ( 0.0000,  0.0000,  0.0000)
   2 Li     8.085185    1.617037   10.000000    ( 0.0000,  0.0000,  0.0000)
   3 Li     1.617037    4.851111   10.000000    ( 0.0000,  0.0000,  0.0000)
   4 Li     4.851111    4.851111   10.000000    ( 0.0000,  0.0000,  0.0000)
   5 Li     8.085185    4.851111   10.000000    ( 0.0000,  0.0000,  0.0000)
   6 Li     1.617037    8.085185   10.000000    ( 0.0000,  0.0000,  0.0000)
   7 Li     4.851111    8.085185   10.000000    ( 0.0000,  0.0000,  0.0000)
   8 Li     8.085185    8.085185   10.000000    ( 0.0000,  0.0000,  0.0000)
   9 Li     0.000000    0.000000   11.617037    ( 0.0000,  0.0000,  0.0000)
  10 Li     3.234074    0.000000   11.617037    ( 0.0000,  0.0000,  0.0000)
  11 Li     6.468148    0.000000   11.617037    ( 0.0000,  0.0000,  0.0000)
  12 Li     0.000000    3.234074   11.617037    ( 0.0000,  0.0000,  0.0000)
  13 Li     3.234074    3.234074   11.617037    ( 0.0000,  0.0000,  0.0000)
  14 Li     6.468148    3.234074   11.617037    ( 0.0000,  0.0000,  0.0000)
  15 Li     0.000000    6.468148   11.617037    ( 0.0000,  0.0000,  0.0000)
  16 Li     3.234074    6.468148   11.617037    ( 0.0000,  0.0000,  0.0000)
  17 Li     6.468148    6.468148   11.617037    ( 0.0000,  0.0000,  0.0000)
  18 Li     1.607796    1.527519   13.157195    ( 0.0000,  0.0000,  0.0000)
  19 Li     4.789800    1.697657   13.159949    ( 0.0000,  0.0000,  0.0000)
  20 Li     8.268245    1.741339   14.061841    ( 0.0000,  0.0000,  0.0000)
  21 Li     1.416824    4.878043   13.586789    ( 0.0000,  0.0000,  0.0000)
  22 Li     4.831093    4.878189   13.597976    ( 0.0000,  0.0000,  0.0000)
  23 Li     8.079077    4.924498   13.797420    ( 0.0000,  0.0000,  0.0000)
  24 Li     1.674317    7.904231   13.533315    ( 0.0000,  0.0000,  0.0000)
  25 Li     4.933879    7.909583   13.497177    ( 0.0000,  0.0000,  0.0000)
  26 Li     8.090440    7.888940   13.710510    ( 0.0000,  0.0000,  0.0000)
  27 Li     0.271888    0.352558   15.301077    ( 0.0000,  0.0000,  0.0000)
  28 Li     3.503282    0.095355   15.007444    ( 0.0000,  0.0000,  0.0000)
  29 Li     6.450888   -0.118835   15.215289    ( 0.0000,  0.0000,  0.0000)
  30 Li    -0.052860    3.551518   15.647906    ( 0.0000,  0.0000,  0.0000)
  31 Li     2.605433    2.993249   14.997680    ( 0.0000,  0.0000,  0.0000)
  32 Li     6.192433    3.007865   15.469682    ( 0.0000,  0.0000,  0.0000)
  33 Li     0.090043    6.586536   15.824795    ( 0.0000,  0.0000,  0.0000)
  34 Li     3.252422    6.463744   15.586646    ( 0.0000,  0.0000,  0.0000)
  35 Li     6.384026    6.484779   15.817997    ( 0.0000,  0.0000,  0.0000)
  36 O      7.962945    2.505832   19.017818    ( 0.0000,  0.0000,  0.0000)
  37 C      8.035324    1.210557   19.645695    ( 0.0000,  0.0000,  0.0000)
  38 C      8.171981    1.279971   21.161820    ( 0.0000,  0.0000,  0.0000)
  39 H      7.162277    0.612335   19.353941    ( 0.0000,  0.0000,  0.0000)
  40 H      8.918562    0.726295   19.222885    ( 0.0000,  0.0000,  0.0000)
  41 H      8.301844    0.278987   21.585407    ( 0.0000,  0.0000,  0.0000)
  42 H      9.032108    1.891136   21.444460    ( 0.0000,  0.0000,  0.0000)
  43 H      7.278299    1.715781   21.614148    ( 0.0000,  0.0000,  0.0000)
  44 H      7.219419    2.990443   19.403748    ( 0.0000,  0.0000,  0.0000)
  45 N      6.121336    1.521558   14.358898    ( 0.0000,  0.0000,  0.0000)
  46 N     10.267567    2.124726   14.580283    ( 0.0000,  0.0000,  0.0000)

Unit cell:
           periodic     x           y           z      points  spacing
  1. axis:    yes    9.702222    0.000000    0.000000    60     0.1617
  2. axis:    yes    0.000000    9.702222    0.000000    60     0.1617
  3. axis:    no     0.000000    0.000000   24.851111   156     0.1593

  Lengths:   9.702222   9.702222  24.851111
  Angles:   90.000000  90.000000  90.000000

Effective grid spacing dv^(1/3) = 0.1609

     iter     time        total  log10-change:
                         energy  eigst   dens
iter:   1 16:19:46  -309.075091  -0.88
iter:   2 16:26:19  -309.025943  -1.54  -1.74
iter:   3 16:34:33  -309.020181  -2.16  -2.03
iter:   4 16:42:16  -309.011598c -1.87  -2.18
Writing to output.gpw (mode='')

iter:   5 16:49:07  -309.014069c -2.77  -2.48
iter:   6 16:55:46  -309.010772c -2.07  -2.37
iter:   7 17:02:42  -309.010443c -2.07  -2.64
iter:   8 17:12:20  -309.010598c -2.62  -2.70
iter:   9 17:19:27  -309.010315c -2.87  -2.68
Writing to output.gpw (mode='')

iter:  10 17:25:25  -309.010462c -2.99  -2.76
iter:  11 17:31:16  -309.010348c -3.33  -2.78
iter:  12 17:36:09  -309.010124c -3.48  -2.85
iter:  13 17:41:03  -309.009892c -3.39  -2.97
iter:  14 17:47:14  -309.009880c -4.15  -3.19
Writing to output.gpw (mode='')

iter:  15 17:55:00  -309.009887c -4.21  -3.29
iter:  16 18:02:22  -309.009883c -3.91  -3.43
iter:  17 18:09:02  -309.009877c -4.65  -3.50
iter:  18 18:14:40  -309.009875c -4.76  -3.65
iter:  19 18:22:17  -309.009878c -4.95  -3.72
Writing to output.gpw (mode='')

iter:  20 18:27:45  -309.009877c -4.89  -3.81
iter:  21 18:33:35  -309.009880c -5.16  -3.95
iter:  22 18:39:06  -309.009881c -5.57  -4.04c
iter:  23 18:44:06  -309.009882c -5.59  -4.17c
iter:  24 18:48:15  -309.009882c -5.92  -4.29c
Writing to output.gpw (mode='')

iter:  25 18:53:23  -309.009882c -5.91  -4.36c
iter:  26 18:59:45  -309.009882c -6.10  -4.43c
iter:  27 19:06:10  -309.009881c -6.36  -4.50c
iter:  28 19:14:54  -309.009881c -6.38  -4.57c
iter:  29 19:21:22  -309.009881c -6.60  -4.68c
Writing to output.gpw (mode='')

iter:  30 19:28:04  -309.009880c -6.77  -4.81c
iter:  31 19:34:09  -309.009881c -6.93  -4.88c
iter:  32 19:40:06  -309.009881c -7.06  -4.95c
iter:  33 19:45:07  -309.009881c -7.14  -4.98c
iter:  34 19:51:17  -309.009881c -7.26  -5.19c
Writing to output.gpw (mode='')

iter:  35 19:57:19  -309.009881c -7.31  -5.25c
iter:  36 20:00:54  -309.009881c -7.47c -5.41c

Converged after 36 iterations.

Dipole moment: (-7.327882, -8.471512, 0.283703) |e|*Ang

Energy contributions relative to reference atoms: (reference = -14434.854043)

Kinetic:       +142.305408
Potential:     -133.831868
External:        +0.000000
XC:            -318.172788
Entropy (-ST):   -0.139857
Local:           +0.759295
--------------------------
Free energy:   -309.079810
Extrapolated:  -309.009881

Dipole-layer corrected work functions: 3.326477, 2.781102 eV

Showing only first 2 kpts
 Kpt  Band  Eigenvalues  Occupancy
  0    31     -3.20178    1.90144
  0    32     -3.09196    1.36419
  0    33     -2.93643    0.17457
  0    34     -2.80254    0.01306

  1    31     -3.32561    1.99133
  1    32     -3.16957    1.82034
  1    33     -2.91582    0.11913
  1    34     -2.86116    0.04157


Fermi level: -3.05379

Gap: 0.023 eV
Transition (v -> c):
  (s=0, k=7, n=32, [0.38, 0.38, 0.00]) -> (s=0, k=6, n=33, [0.38, 0.12, 0.00])
Writing to output.gpw (mode='')


Forces in eV/Ang:
  0 Li    0.04878    0.00274   -0.31891
  1 Li   -0.04533    0.00314   -0.36297
  2 Li   -0.00077    0.00831   -0.37126
  3 Li   -0.01088    0.05216   -0.28584
  4 Li    0.00643    0.01793   -0.28408
  5 Li    0.00328    0.03950   -0.24994
  6 Li    0.00379   -0.02399   -0.28204
  7 Li    0.01028   -0.02720   -0.28117
  8 Li   -0.00649   -0.03475   -0.28196
  9 Li   -0.13182   -0.16896    0.33496
 10 Li    0.00157   -0.18036    0.15269
 11 Li    0.08852    0.10540    0.67887
 12 Li   -0.04462   -0.00449    0.50702
 13 Li   -0.08597    0.18536    0.11439
 14 Li    0.11783   -0.03515    0.53066
 15 Li   -0.10099   -0.00285    0.22422
 16 Li   -0.00654   -0.09210    0.26857
 17 Li    0.09786   -0.08514    0.23123
 18 Li   -0.11888   -0.02368    0.10807
 19 Li   -0.07031    0.02036    0.05684
 20 Li   -0.31254    0.11403   -0.14779
 21 Li   -0.02078   -0.07506   -0.07501
 22 Li   -0.02504   -0.02058   -0.00596
 23 Li   -0.12959    0.13766   -0.19500
 24 Li   -0.05791    0.03226    0.02889
 25 Li   -0.02914   -0.01420   -0.04387
 26 Li    0.14471   -0.08967   -0.14208
 27 Li    0.26863    0.14402    0.03261
 28 Li    0.14259    0.00632    0.03079
 29 Li   -0.02178    0.24999    0.07993
 30 Li   -0.01031   -0.18616    0.23390
 31 Li   -0.49889   -0.19332    0.03205
 32 Li   -0.13656    0.02308    0.03793
 33 Li   -0.08540    0.15468   -0.09801
 34 Li   -0.01838   -0.00793   -0.06274
 35 Li    0.10134   -0.07362   -0.09925
 36 O     0.07147   -0.01767    0.02579
 37 C     0.00716   -0.00878   -0.01215
 38 C    -0.04531    0.03233   -0.02003
 39 H     0.00351   -0.03437    0.06269
 40 H    -0.02149    0.07792   -0.12199
 41 H     0.00065    0.03492   -0.06094
 42 H    -0.00881   -0.02763   -0.02114
 43 H    -0.03358    0.02070    0.03358
 44 H     0.04702   -0.07871   -0.04069
 45 N     0.79836   -0.22555   -0.00155
 46 N     0.13552    0.26246    0.01884

System changes: positions 

Initializing position-dependent things.

Density initialized from wave functions
       .-----------------------.  
      /|                       |  
     / |                       |  
    /  |                       |  
   /   |                       |  
  /    |                       |  
 *     |                       |  
 |     |                       |  
 |     |                       |  
 |     |            H    H     |  
 |     |              H        |  
 |     |             H         |  
 |     |           H  CLi      |  
 |   Li|             Li H      |  
 |     |     Li                |  
 |     |  Li      Li      LLi  |  
 |     | Li       Li           |  
 |  N  |Li      Li      Li     |  
 |Li   |  Li     N     Li      |  
 |   Li|     Li      Li        |  
 |    Li  Li  Li  Li      Li   |  
 | Li  |   Li      Li          |  
 |     |Li      Li      Li     |  
 Li    | Li      Li            |  
 |    Li      Li      Li       |  
 |     |                       |  
 |     |                       |  
 |     |                       |  
 |     |                       |  
 |     |                       |  
 |     |                       |  
 |     .-----------------------.  
 |    /                       /   
 |   /                       /    
 |  /                       /     
 | /                       /      
 |/                       /       
 *-----------------------*        

Positions:
   0 Li     1.617037    1.617037   10.000000    ( 0.0000,  0.0000,  0.0000)
   1 Li     4.851111    1.617037   10.000000    ( 0.0000,  0.0000,  0.0000)
   2 Li     8.085185    1.617037   10.000000    ( 0.0000,  0.0000,  0.0000)
   3 Li     1.617037    4.851111   10.000000    ( 0.0000,  0.0000,  0.0000)
   4 Li     4.851111    4.851111   10.000000    ( 0.0000,  0.0000,  0.0000)
   5 Li     8.085185    4.851111   10.000000    ( 0.0000,  0.0000,  0.0000)
   6 Li     1.617037    8.085185   10.000000    ( 0.0000,  0.0000,  0.0000)
   7 Li     4.851111    8.085185   10.000000    ( 0.0000,  0.0000,  0.0000)
   8 Li     8.085185    8.085185   10.000000    ( 0.0000,  0.0000,  0.0000)
   9 Li     0.000000    0.000000   11.617037    ( 0.0000,  0.0000,  0.0000)
  10 Li     3.234074    0.000000   11.617037    ( 0.0000,  0.0000,  0.0000)
  11 Li     6.468148    0.000000   11.617037    ( 0.0000,  0.0000,  0.0000)
  12 Li     0.000000    3.234074   11.617037    ( 0.0000,  0.0000,  0.0000)
  13 Li     3.234074    3.234074   11.617037    ( 0.0000,  0.0000,  0.0000)
  14 Li     6.468148    3.234074   11.617037    ( 0.0000,  0.0000,  0.0000)
  15 Li     0.000000    6.468148   11.617037    ( 0.0000,  0.0000,  0.0000)
  16 Li     3.234074    6.468148   11.617037    ( 0.0000,  0.0000,  0.0000)
  17 Li     6.468148    6.468148   11.617037    ( 0.0000,  0.0000,  0.0000)
  18 Li     1.604031    1.529972   13.152712    ( 0.0000,  0.0000,  0.0000)
  19 Li     4.789949    1.696043   13.157885    ( 0.0000,  0.0000,  0.0000)
  20 Li     8.283023    1.749660   14.036781    ( 0.0000,  0.0000,  0.0000)
  21 Li     1.414635    4.877126   13.584469    ( 0.0000,  0.0000,  0.0000)
  22 Li     4.826941    4.882870   13.595448    ( 0.0000,  0.0000,  0.0000)
  23 Li     8.077337    4.933123   13.794276    ( 0.0000,  0.0000,  0.0000)
  24 Li     1.676620    7.895646   13.529728    ( 0.0000,  0.0000,  0.0000)
  25 Li     4.930171    7.902575   13.493153    ( 0.0000,  0.0000,  0.0000)
  26 Li     8.092832    7.876976   13.705159    ( 0.0000,  0.0000,  0.0000)
  27 Li     0.280515    0.369744   15.294885    ( 0.0000,  0.0000,  0.0000)
  28 Li     3.504622    0.091325   15.003440    ( 0.0000,  0.0000,  0.0000)
  29 Li     6.461569   -0.127604   15.207186    ( 0.0000,  0.0000,  0.0000)
  30 Li    -0.064510    3.567488   15.647234    ( 0.0000,  0.0000,  0.0000)
  31 Li     2.577418    2.984585   14.992344    ( 0.0000,  0.0000,  0.0000)
  32 Li     6.186976    3.003823   15.466657    ( 0.0000,  0.0000,  0.0000)
  33 Li     0.088233    6.600782   15.824255    ( 0.0000,  0.0000,  0.0000)
  34 Li     3.251524    6.462466   15.581841    ( 0.0000,  0.0000,  0.0000)
  35 Li     6.387271    6.477290   15.817167    ( 0.0000,  0.0000,  0.0000)
  36 O      7.964945    2.504694   19.012565    ( 0.0000,  0.0000,  0.0000)
  37 C      8.035848    1.209973   19.642230    ( 0.0000,  0.0000,  0.0000)
  38 C      8.171874    1.281208   21.158541    ( 0.0000,  0.0000,  0.0000)
  39 H      7.161841    0.613251   19.349938    ( 0.0000,  0.0000,  0.0000)
  40 H      8.918832    0.724217   19.220874    ( 0.0000,  0.0000,  0.0000)
  41 H      8.301241    0.281339   21.584579    ( 0.0000,  0.0000,  0.0000)
  42 H      9.032728    1.891083   21.441938    ( 0.0000,  0.0000,  0.0000)
  43 H      7.278374    1.717876   21.609711    ( 0.0000,  0.0000,  0.0000)
  44 H      7.223064    2.990371   19.400705    ( 0.0000,  0.0000,  0.0000)
  45 N      6.116628    1.509795   14.357726    ( 0.0000,  0.0000,  0.0000)
  46 N     10.296741    2.151684   14.584990    ( 0.0000,  0.0000,  0.0000)

Unit cell:
           periodic     x           y           z      points  spacing
  1. axis:    yes    9.702222    0.000000    0.000000    60     0.1617
  2. axis:    yes    0.000000    9.702222    0.000000    60     0.1617
  3. axis:    no     0.000000    0.000000   24.851111   156     0.1593

  Lengths:   9.702222   9.702222  24.851111
  Angles:   90.000000  90.000000  90.000000

Effective grid spacing dv^(1/3) = 0.1609

     iter     time        total  log10-change:
                         energy  eigst   dens
iter:   1 20:06:03  -309.107714  -0.89
iter:   2 20:11:07  -309.056926  -1.55  -1.73
iter:   3 20:15:12  -309.050949  -2.18  -2.03
iter:   4 20:21:58  -309.042732c -1.86  -2.19
Writing to output.gpw (mode='')

iter:   5 20:30:00  -309.044971c -2.76  -2.49
iter:   6 20:37:48  -309.042009c -2.07  -2.38
iter:   7 20:45:39  -309.041664c -2.14  -2.67
iter:   8 20:52:25  -309.041903c -2.62  -2.71
iter:   9 20:59:39  -309.041984c -2.55  -2.67
Writing to output.gpw (mode='')

iter:  10 21:06:46  -309.042126c -2.91  -2.67
iter:  11 21:15:45  -309.042009c -3.26  -2.68
iter:  12 21:26:51  -309.041843c -3.26  -2.71
iter:  13 21:34:49  -309.041155c -3.22  -2.75
iter:  14 21:44:50  -309.041062c -3.73  -2.98
Writing to output.gpw (mode='')

iter:  15 21:54:34  -309.041049c -3.53  -3.08
iter:  16 22:04:56  -309.041043c -3.51  -3.15
iter:  17 22:14:08  -309.041045c -3.96  -3.29
iter:  18 22:22:44  -309.041050c -4.20  -3.45
iter:  19 22:31:20  -309.041048c -4.85  -3.49
Writing to output.gpw (mode='')

iter:  20 22:39:23  -309.041060c -4.60  -3.59
iter:  21 22:46:24  -309.041057c -5.21  -3.73
iter:  22 22:53:45  -309.041058c -4.97  -3.89
iter:  23 23:01:28  -309.041058c -5.45  -3.83
iter:  24 23:10:00  -309.041059c -5.55  -3.91
Writing to output.gpw (mode='')

iter:  25 23:19:18  -309.041058c -5.65  -3.95
iter:  26 23:27:03  -309.041059c -5.52  -4.19c
iter:  27 23:35:06  -309.041058c -5.96  -4.34c
iter:  28 23:43:12  -309.041057c -6.31  -4.38c
iter:  29 23:51:42  -309.041056c -6.30  -4.51c
Writing to output.gpw (mode='')

iter:  30 23:58:55  -309.041057c -6.58  -4.60c
iter:  31 00:06:34  -309.041057c -6.74  -4.64c
iter:  32 00:16:17  -309.041057c -6.77  -4.74c
iter:  33 00:23:27  -309.041057c -7.09  -4.90c
iter:  34 00:31:49  -309.041057c -6.98  -4.93c
Writing to output.gpw (mode='')

iter:  35 00:39:20  -309.041057c -7.25  -5.05c
iter:  36 00:48:53  -309.041057c -7.19  -5.17c
iter:  37 00:58:26  -309.041057c -7.64c -5.18c

Converged after 37 iterations.

Dipole moment: (-6.671969, -8.336205, 0.286582) |e|*Ang

Energy contributions relative to reference atoms: (reference = -14434.854043)

Kinetic:       +142.344382
Potential:     -133.849740
External:        +0.000000
XC:            -318.224870
Entropy (-ST):   -0.139606
Local:           +0.758974
--------------------------
Free energy:   -309.110860
Extrapolated:  -309.041057

Dipole-layer corrected work functions: 3.328647, 2.777739 eV

Showing only first 2 kpts
 Kpt  Band  Eigenvalues  Occupancy
  0    31     -3.19744    1.89418
  0    32     -3.09062    1.35771
  0    33     -2.93811    0.18197
  0    34     -2.80322    0.01339

  1    31     -3.31957    1.99033
  1    32     -3.17269    1.83212
  1    33     -2.91622    0.12137
  1    34     -2.85979    0.04094


Fermi level: -3.05319

Gap: 0.024 eV
Transition (v -> c):
  (s=0, k=7, n=32, [0.38, 0.38, 0.00]) -> (s=0, k=6, n=33, [0.38, 0.12, 0.00])
Writing to output.gpw (mode='')


Forces in eV/Ang:
  0 Li    0.04799    0.00212   -0.31682
  1 Li   -0.04511    0.00252   -0.36278
  2 Li   -0.00084    0.00852   -0.36586
  3 Li   -0.01047    0.05379   -0.28634
  4 Li    0.00670    0.01776   -0.28382
  5 Li    0.00312    0.03985   -0.24802
  6 Li    0.00455   -0.02405   -0.28325
  7 Li    0.01009   -0.02702   -0.28169
  8 Li   -0.00634   -0.03502   -0.28305
  9 Li   -0.13119   -0.18127    0.32453
 10 Li   -0.00247   -0.18314    0.15113
 11 Li    0.09034    0.10547    0.68591
 12 Li   -0.04254    0.00481    0.49597
 13 Li   -0.08557    0.18772    0.11195
 14 Li    0.11805   -0.03253    0.52888
 15 Li   -0.10000   -0.00606    0.21703
 16 Li   -0.00816   -0.09483    0.26180
 17 Li    0.09632   -0.08733    0.22478
 18 Li   -0.09487   -0.04053    0.07812
 19 Li   -0.08283    0.02754    0.04701
 20 Li   -0.32345    0.11049   -0.11017
 21 Li   -0.02729   -0.08888   -0.06832
 22 Li   -0.02158   -0.02765   -0.00508
 23 Li   -0.13477    0.13345   -0.19724
 24 Li   -0.06433    0.04432    0.03311
 25 Li   -0.02058   -0.00384   -0.03881
 26 Li    0.14652   -0.06932   -0.14013
 27 Li    0.27098    0.16484    0.03004
 28 Li    0.15320    0.01483    0.02992
 29 Li   -0.01795    0.24262    0.08460
 30 Li   -0.00395   -0.19536    0.23394
 31 Li   -0.47957   -0.18542    0.04639
 32 Li   -0.13043   -0.00886    0.01124
 33 Li   -0.08453    0.15486   -0.09880
 34 Li   -0.01720   -0.00550   -0.05748
 35 Li    0.09973   -0.07373   -0.09956
 36 O     0.06630   -0.02291    0.04450
 37 C     0.00890   -0.00675   -0.00855
 38 C    -0.04236    0.03099   -0.01287
 39 H     0.00771   -0.03706    0.06847
 40 H    -0.01918    0.07702   -0.12568
 41 H    -0.00390    0.02681   -0.06616
 42 H    -0.01025   -0.02178   -0.02931
 43 H    -0.03943    0.02778    0.03710
 44 H     0.05340   -0.07650   -0.05027
 45 N     0.82817   -0.19414   -0.03646
 46 N     0.04284    0.29069    0.03248

System changes: positions 

Initializing position-dependent things.

Density initialized from wave functions
       .-----------------------.  
      /|                       |  
     / |                       |  
    /  |                       |  
   /   |                       |  
  /    |                       |  
 *     |                       |  
 |     |                       |  
 |     |                       |  
 |     |            H    H     |  
 |     |              H        |  
 |     |             H         |  
 |     |           H  CLi      |  
 |   Li|             Li H      |  
 |     |     Li                |  
 |     |  Li      Li      LLi  |  
 |     | Li       Li           |  
 |  N  |Li      Li      Li     |  
 |Li   |  Li     N     Li      |  
 |   Li|     Li      Li        |  
 |    Li  Li  Li  Li      Li   |  
 | Li  |   Li      Li          |  
 |     |Li      Li      Li     |  
 Li    | Li      Li            |  
 |    Li      Li      Li       |  
 |     |                       |  
 |     |                       |  
 |     |                       |  
 |     |                       |  
 |     |                       |  
 |     |                       |  
 |     .-----------------------.  
 |    /                       /   
 |   /                       /    
 |  /                       /     
 | /                       /      
 |/                       /       
 *-----------------------*        

Positions:
   0 Li     1.617037    1.617037   10.000000    ( 0.0000,  0.0000,  0.0000)
   1 Li     4.851111    1.617037   10.000000    ( 0.0000,  0.0000,  0.0000)
   2 Li     8.085185    1.617037   10.000000    ( 0.0000,  0.0000,  0.0000)
   3 Li     1.617037    4.851111   10.000000    ( 0.0000,  0.0000,  0.0000)
   4 Li     4.851111    4.851111   10.000000    ( 0.0000,  0.0000,  0.0000)
   5 Li     8.085185    4.851111   10.000000    ( 0.0000,  0.0000,  0.0000)
   6 Li     1.617037    8.085185   10.000000    ( 0.0000,  0.0000,  0.0000)
   7 Li     4.851111    8.085185   10.000000    ( 0.0000,  0.0000,  0.0000)
   8 Li     8.085185    8.085185   10.000000    ( 0.0000,  0.0000,  0.0000)
   9 Li     0.000000    0.000000   11.617037    ( 0.0000,  0.0000,  0.0000)
  10 Li     3.234074    0.000000   11.617037    ( 0.0000,  0.0000,  0.0000)
  11 Li     6.468148    0.000000   11.617037    ( 0.0000,  0.0000,  0.0000)
  12 Li     0.000000    3.234074   11.617037    ( 0.0000,  0.0000,  0.0000)
  13 Li     3.234074    3.234074   11.617037    ( 0.0000,  0.0000,  0.0000)
  14 Li     6.468148    3.234074   11.617037    ( 0.0000,  0.0000,  0.0000)
  15 Li     0.000000    6.468148   11.617037    ( 0.0000,  0.0000,  0.0000)
  16 Li     3.234074    6.468148   11.617037    ( 0.0000,  0.0000,  0.0000)
  17 Li     6.468148    6.468148   11.617037    ( 0.0000,  0.0000,  0.0000)
  18 Li     1.598543    1.532379   13.150801    ( 0.0000,  0.0000,  0.0000)
  19 Li     4.792108    1.694466   13.159377    ( 0.0000,  0.0000,  0.0000)
  20 Li     8.297019    1.758380   14.010921    ( 0.0000,  0.0000,  0.0000)
  21 Li     1.412600    4.875371   13.581533    ( 0.0000,  0.0000,  0.0000)
  22 Li     4.822355    4.887688   13.592328    ( 0.0000,  0.0000,  0.0000)
  23 Li     8.074833    4.942496   13.789122    ( 0.0000,  0.0000,  0.0000)
  24 Li     1.678767    7.887337   13.525796    ( 0.0000,  0.0000,  0.0000)
  25 Li     4.926158    7.896078   13.488730    ( 0.0000,  0.0000,  0.0000)
  26 Li     8.095997    7.864850   13.698100    ( 0.0000,  0.0000,  0.0000)
  27 Li     0.290422    0.385712   15.288914    ( 0.0000,  0.0000,  0.0000)
  28 Li     3.506130    0.086873   15.001047    ( 0.0000,  0.0000,  0.0000)
  29 Li     6.474415   -0.136089   15.200179    ( 0.0000,  0.0000,  0.0000)
  30 Li    -0.078316    3.582300   15.647023    ( 0.0000,  0.0000,  0.0000)
  31 Li     2.548129    2.975708   14.988903    ( 0.0000,  0.0000,  0.0000)
  32 Li     6.180957    3.002055   15.463771    ( 0.0000,  0.0000,  0.0000)
  33 Li     0.085766    6.615509   15.821868    ( 0.0000,  0.0000,  0.0000)
  34 Li     3.250473    6.461149   15.575985    ( 0.0000,  0.0000,  0.0000)
  35 Li     6.391290    6.469499   15.814471    ( 0.0000,  0.0000,  0.0000)
  36 O      7.967040    2.503563   19.008221    ( 0.0000,  0.0000,  0.0000)
  37 C      8.036386    1.209413   19.639004    ( 0.0000,  0.0000,  0.0000)
  38 C      8.171740    1.282409   21.155530    ( 0.0000,  0.0000,  0.0000)
  39 H      7.161339    0.614077   19.346396    ( 0.0000,  0.0000,  0.0000)
  40 H      8.919075    0.722585   19.218504    ( 0.0000,  0.0000,  0.0000)
  41 H      8.300733    0.283657   21.583723    ( 0.0000,  0.0000,  0.0000)
  42 H      9.033409    1.890726   21.439627    ( 0.0000,  0.0000,  0.0000)
  43 H      7.278401    1.719920   21.605812    ( 0.0000,  0.0000,  0.0000)
  44 H      7.226498    2.989756   19.397693    ( 0.0000,  0.0000,  0.0000)
  45 N      6.114976    1.497479   14.357270    ( 0.0000,  0.0000,  0.0000)
  46 N     10.324337    2.179738   14.592163    ( 0.0000,  0.0000,  0.0000)

Unit cell:
           periodic     x           y           z      points  spacing
  1. axis:    yes    9.702222    0.000000    0.000000    60     0.1617
  2. axis:    yes    0.000000    9.702222    0.000000    60     0.1617
  3. axis:    no     0.000000    0.000000   24.851111   156     0.1593

  Lengths:   9.702222   9.702222  24.851111
  Angles:   90.000000  90.000000  90.000000

Effective grid spacing dv^(1/3) = 0.1609

     iter     time        total  log10-change:
                         energy  eigst   dens
iter:   1 01:06:57  -309.136639  -0.88
iter:   2 01:15:06  -309.088084  -1.54  -1.74
iter:   3 01:24:18  -309.082148  -2.15  -2.03
iter:   4 01:31:22  -309.073932c -1.86  -2.18
Writing to output.gpw (mode='')

iter:   5 01:38:07  -309.075833c -2.76  -2.50
iter:   6 01:47:40  -309.073244c -2.06  -2.39
iter:   7 01:56:02  -309.072944c -2.14  -2.66
iter:   8 02:04:37  -309.073230c -2.61  -2.71
iter:   9 02:13:42  -309.073352c -2.51  -2.66
Writing to output.gpw (mode='')

iter:  10 02:22:24  -309.073281c -2.96  -2.66
iter:  11 02:29:03  -309.073114c -3.33  -2.70
iter:  12 02:37:19  -309.072791c -3.49  -2.74
iter:  13 02:45:01  -309.072269c -3.23  -2.83
iter:  14 02:52:03  -309.072280c -3.94  -3.09
Writing to output.gpw (mode='')

iter:  15 02:59:04  -309.072272c -3.99  -3.17
iter:  16 03:04:23  -309.072264c -3.62  -3.21
iter:  17 03:09:03  -309.072284c -4.18  -3.26
iter:  18 03:13:43  -309.072292c -4.44  -3.58
iter:  19 03:18:40  -309.072282c -4.80  -3.64
Writing to output.gpw (mode='')

iter:  20 03:22:35  -309.072280c -4.87  -3.76
iter:  21 03:25:59  -309.072281c -5.20  -3.90
iter:  22 03:32:09  -309.072284c -5.53  -3.96
iter:  23 03:35:19  -309.072285c -5.68  -4.02c
iter:  24 03:40:49  -309.072284c -5.77  -4.16c
Writing to output.gpw (mode='')

iter:  25 03:44:07  -309.072281c -5.95  -4.31c
iter:  26 03:47:14  -309.072283c -6.14  -4.44c
iter:  27 03:51:56  -309.072283c -6.25  -4.53c
iter:  28 03:55:15  -309.072284c -6.38  -4.63c
iter:  29 03:57:29  -309.072283c -6.60  -4.76c
Writing to output.gpw (mode='')

iter:  30 04:00:26  -309.072283c -6.71  -4.95c
iter:  31 04:03:22  -309.072283c -6.80  -4.99c
iter:  32 04:06:02  -309.072283c -6.97  -5.13c
iter:  33 04:09:18  -309.072283c -7.30  -5.22c
iter:  34 04:11:10  -309.072283c -7.42c -5.22c

Converged after 34 iterations.

Dipole moment: (-6.049247, -8.189213, 0.289009) |e|*Ang

Energy contributions relative to reference atoms: (reference = -14434.854043)

Kinetic:       +142.507176
Potential:     -133.959845
External:        +0.000000
XC:            -318.308880
Entropy (-ST):   -0.139425
Local:           +0.758978
--------------------------
Free energy:   -309.141996
Extrapolated:  -309.072283

Dipole-layer corrected work functions: 3.331061, 2.775487 eV

Showing only first 2 kpts
 Kpt  Band  Eigenvalues  Occupancy
  0    31     -3.19340    1.88563
  0    32     -3.09001    1.35169
  0    33     -2.94078    0.19073
  0    34     -2.80459    0.01374

  1    31     -3.31403    1.98919
  1    32     -3.17615    1.84221
  1    33     -2.91734    0.12376
  1    34     -2.85919    0.04040


Fermi level: -3.05327

Gap: 0.025 eV
Transition (v -> c):
  (s=0, k=7, n=32, [0.38, 0.38, 0.00]) -> (s=0, k=6, n=33, [0.38, 0.12, 0.00])
Writing to output.gpw (mode='')


Forces in eV/Ang:
  0 Li    0.04677    0.00136   -0.31414
  1 Li   -0.04465    0.00178   -0.36197
  2 Li   -0.00090    0.00873   -0.36035
  3 Li   -0.01003    0.05542   -0.28669
  4 Li    0.00714    0.01765   -0.28351
  5 Li    0.00288    0.04035   -0.24586
  6 Li    0.00531   -0.02410   -0.28458
  7 Li    0.00987   -0.02684   -0.28217
  8 Li   -0.00621   -0.03545   -0.28406
  9 Li   -0.12996   -0.19331    0.31351
 10 Li   -0.00674   -0.18295    0.15229
 11 Li    0.09218    0.10598    0.69286
 12 Li   -0.04060    0.01436    0.48284
 13 Li   -0.08438    0.18697    0.11249
 14 Li    0.11787   -0.03016    0.52666
 15 Li   -0.09815   -0.00979    0.20899
 16 Li   -0.01004   -0.09743    0.25456
 17 Li    0.09391   -0.08921    0.21756
 18 Li   -0.07169   -0.05450    0.04963
 19 Li   -0.10552    0.03629    0.02713
 20 Li   -0.33430    0.10498   -0.06894
 21 Li   -0.03429   -0.10342   -0.05931
 22 Li   -0.01804   -0.03396   -0.00459
 23 Li   -0.13873    0.12641   -0.19783
 24 Li   -0.07009    0.05635    0.03710
 25 Li   -0.01080    0.00726   -0.03305
 26 Li    0.14683   -0.04626   -0.13717
 27 Li    0.26888    0.19064    0.02826
 28 Li    0.16336    0.02177    0.02920
 29 Li   -0.01444    0.23171    0.08976
 30 Li    0.00027   -0.19739    0.23711
 31 Li   -0.43030   -0.16329    0.06874
 32 Li   -0.12264   -0.05054   -0.02106
 33 Li   -0.08323    0.15438   -0.09868
 34 Li   -0.01574   -0.00283   -0.05128
 35 Li    0.09743   -0.07370   -0.09902
 36 O     0.07218   -0.03118    0.05012
 37 C     0.00994   -0.00709   -0.00258
 38 C    -0.03974    0.02962   -0.01102
 39 H     0.01282   -0.03915    0.07029
 40 H    -0.01732    0.07349   -0.12583
 41 H    -0.00896    0.01581   -0.06888
 42 H    -0.01015   -0.01361   -0.03706
 43 H    -0.04164    0.03508    0.03708
 44 H     0.04568   -0.06531   -0.05197
 45 N     0.82721   -0.16964   -0.01056
 46 N    -0.04087    0.19701    0.05869

System changes: positions 

Initializing position-dependent things.

Density initialized from wave functions
       .-----------------------.  
      /|                       |  
     / |                       |  
    /  |                       |  
   /   |                       |  
  /    |                       |  
 *     |                       |  
 |     |                       |  
 |     |                       |  
 |     |            H    H     |  
 |     |              H        |  
 |     |             H         |  
 |     |           H  CLi      |  
 |   Li|             Li H      |  
 |     |     Li                |  
 |     |  Li      Li      LLi  |  
 |     | Li       Li           |  
 |  N  |Li      Li      Li     |  
 |Li   |  Li     N     Li      |  
 |   Li|     Li      Li        |  
 |    Li  Li  Li  Li      Li   |  
 | Li  |   Li      Li          |  
 |     |Li      Li      Li     |  
 Li    | Li      Li            |  
 |    Li      Li      Li       |  
 |     |                       |  
 |     |                       |  
 |     |                       |  
 |     |                       |  
 |     |                       |  
 |     |                       |  
 |     .-----------------------.  
 |    /                       /   
 |   /                       /    
 |  /                       /     
 | /                       /      
 |/                       /       
 *-----------------------*        

Positions:
   0 Li     1.617037    1.617037   10.000000    ( 0.0000,  0.0000,  0.0000)
   1 Li     4.851111    1.617037   10.000000    ( 0.0000,  0.0000,  0.0000)
   2 Li     8.085185    1.617037   10.000000    ( 0.0000,  0.0000,  0.0000)
   3 Li     1.617037    4.851111   10.000000    ( 0.0000,  0.0000,  0.0000)
   4 Li     4.851111    4.851111   10.000000    ( 0.0000,  0.0000,  0.0000)
   5 Li     8.085185    4.851111   10.000000    ( 0.0000,  0.0000,  0.0000)
   6 Li     1.617037    8.085185   10.000000    ( 0.0000,  0.0000,  0.0000)
   7 Li     4.851111    8.085185   10.000000    ( 0.0000,  0.0000,  0.0000)
   8 Li     8.085185    8.085185   10.000000    ( 0.0000,  0.0000,  0.0000)
   9 Li     0.000000    0.000000   11.617037    ( 0.0000,  0.0000,  0.0000)
  10 Li     3.234074    0.000000   11.617037    ( 0.0000,  0.0000,  0.0000)
  11 Li     6.468148    0.000000   11.617037    ( 0.0000,  0.0000,  0.0000)
  12 Li     0.000000    3.234074   11.617037    ( 0.0000,  0.0000,  0.0000)
  13 Li     3.234074    3.234074   11.617037    ( 0.0000,  0.0000,  0.0000)
  14 Li     6.468148    3.234074   11.617037    ( 0.0000,  0.0000,  0.0000)
  15 Li     0.000000    6.468148   11.617037    ( 0.0000,  0.0000,  0.0000)
  16 Li     3.234074    6.468148   11.617037    ( 0.0000,  0.0000,  0.0000)
  17 Li     6.468148    6.468148   11.617037    ( 0.0000,  0.0000,  0.0000)
  18 Li     1.590517    1.535186   13.154718    ( 0.0000,  0.0000,  0.0000)
  19 Li     4.795488    1.692778   13.167215    ( 0.0000,  0.0000,  0.0000)
  20 Li     8.308784    1.768195   13.980375    ( 0.0000,  0.0000,  0.0000)
  21 Li     1.411936    4.871758   13.576510    ( 0.0000,  0.0000,  0.0000)
  22 Li     4.816563    4.893040   13.587827    ( 0.0000,  0.0000,  0.0000)
  23 Li     8.069150    4.954325   13.777003    ( 0.0000,  0.0000,  0.0000)
  24 Li     1.680207    7.880310   13.521717    ( 0.0000,  0.0000,  0.0000)
  25 Li     4.921212    7.891132   13.483522    ( 0.0000,  0.0000,  0.0000)
  26 Li     8.102499    7.851926   13.685650    ( 0.0000,  0.0000,  0.0000)
  27 Li     0.304889    0.399553   15.287387    ( 0.0000,  0.0000,  0.0000)
  28 Li     3.508959    0.080786   15.004210    ( 0.0000,  0.0000,  0.0000)
  29 Li     6.488957   -0.137937   15.202054    ( 0.0000,  0.0000,  0.0000)
  30 Li    -0.094618    3.586027   15.653468    ( 0.0000,  0.0000,  0.0000)
  31 Li     2.516224    2.967425   14.991927    ( 0.0000,  0.0000,  0.0000)
  32 Li     6.172055    3.004642   15.463598    ( 0.0000,  0.0000,  0.0000)
  33 Li     0.079816    6.630461   15.813426    ( 0.0000,  0.0000,  0.0000)
  34 Li     3.248872    6.459750   15.567126    ( 0.0000,  0.0000,  0.0000)
  35 Li     6.398985    6.461352   15.805643    ( 0.0000,  0.0000,  0.0000)
  36 O      7.969495    2.502727   19.005803    ( 0.0000,  0.0000,  0.0000)
  37 C      8.036911    1.209090   19.636941    ( 0.0000,  0.0000,  0.0000)
  38 C      8.171496    1.283252   21.153608    ( 0.0000,  0.0000,  0.0000)
  39 H      7.160770    0.614798   19.344190    ( 0.0000,  0.0000,  0.0000)
  40 H      8.919097    0.722502   19.215562    ( 0.0000,  0.0000,  0.0000)
  41 H      8.300523    0.285295   21.582948    ( 0.0000,  0.0000,  0.0000)
  42 H      9.034414    1.889231   21.438751    ( 0.0000,  0.0000,  0.0000)
  43 H      7.278468    1.721258   21.603763    ( 0.0000,  0.0000,  0.0000)
  44 H      7.228058    2.987840   19.395483    ( 0.0000,  0.0000,  0.0000)
  45 N      6.118313    1.483575   14.361974    ( 0.0000,  0.0000,  0.0000)
  46 N     10.351460    2.206733   14.603808    ( 0.0000,  0.0000,  0.0000)

Unit cell:
           periodic     x           y           z      points  spacing
  1. axis:    yes    9.702222    0.000000    0.000000    60     0.1617
  2. axis:    yes    0.000000    9.702222    0.000000    60     0.1617
  3. axis:    no     0.000000    0.000000   24.851111   156     0.1593

  Lengths:   9.702222   9.702222  24.851111
  Angles:   90.000000  90.000000  90.000000

Effective grid spacing dv^(1/3) = 0.1609

     iter     time        total  log10-change:
                         energy  eigst   dens
iter:   1 04:14:50  -309.182369  -0.86
iter:   2 04:16:53  -309.130598  -1.51  -1.72
iter:   3 04:19:32  -309.124331  -2.09  -2.01
iter:   4 04:22:24  -309.115867c -1.84  -2.16
Writing to output.gpw (mode='')

iter:   5 04:25:04  -309.117419c -2.70  -2.50
iter:   6 04:28:23  -309.114947c -2.07  -2.39
iter:   7 04:30:55  -309.114965c -2.18  -2.70
iter:   8 04:33:03  -309.115441c -2.55  -2.73
iter:   9 04:36:04  -309.116021c -2.39  -2.65
Writing to output.gpw (mode='')

iter:  10 04:38:37  -309.115063c -3.26  -2.61
iter:  11 04:41:50  -309.114670c -3.51  -2.75
iter:  12 04:45:54  -309.114371c -3.42  -2.89
iter:  13 04:49:12  -309.114305c -3.37  -3.10
iter:  14 04:51:58  -309.114367c -4.04  -3.19
Writing to output.gpw (mode='')

iter:  15 04:55:37  -309.114363c -4.20  -3.34
iter:  16 04:59:01  -309.114337c -3.94  -3.41
iter:  17 05:01:42  -309.114346c -4.58  -3.54
iter:  18 05:04:00  -309.114340c -4.71  -3.73
iter:  19 05:06:57  -309.114347c -5.02  -3.80
Writing to output.gpw (mode='')

iter:  20 05:09:19  -309.114349c -5.21  -3.93
iter:  21 05:11:57  -309.114356c -5.41  -4.00
iter:  22 05:16:52  -309.114356c -5.58  -4.11c
iter:  23 05:21:49  -309.114351c -5.64  -4.17c
iter:  24 05:26:36  -309.114352c -5.87  -4.25c
Writing to output.gpw (mode='')

iter:  25 05:31:48  -309.114355c -5.84  -4.32c
iter:  26 05:35:00  -309.114354c -6.11  -4.54c
iter:  27 05:39:23  -309.114355c -6.17  -4.66c
iter:  28 05:43:57  -309.114355c -6.51  -4.70c
iter:  29 05:48:38  -309.114354c -6.59  -4.76c
Writing to output.gpw (mode='')

iter:  30 05:52:41  -309.114353c -6.74  -4.90c
iter:  31 05:57:39  -309.114353c -6.65  -4.96c
iter:  32 06:01:57  -309.114353c -7.02  -5.04c
iter:  33 06:06:08  -309.114354c -7.01  -5.12c
iter:  34 06:11:58  -309.114354c -7.14  -5.18c
Writing to output.gpw (mode='')

iter:  35 06:17:02  -309.114354c -7.23  -5.22c
iter:  36 06:20:51  -309.114354c -7.46c -5.37c

Converged after 36 iterations.

Dipole moment: (-5.403793, -8.096587, 0.291973) |e|*Ang

Energy contributions relative to reference atoms: (reference = -14434.854043)

Kinetic:       +142.784733
Potential:     -134.170394
External:        +0.000000
XC:            -318.417822
Entropy (-ST):   -0.139409
Local:           +0.758835
--------------------------
Free energy:   -309.184058
Extrapolated:  -309.114354

Dipole-layer corrected work functions: 3.334594, 2.773322 eV

Showing only first 2 kpts
 Kpt  Band  Eigenvalues  Occupancy
  0    31     -3.18998    1.87644
  0    32     -3.09028    1.34803
  0    33     -2.94413    0.20011
  0    34     -2.80672    0.01414

  1    31     -3.30827    1.98771
  1    32     -3.17923    1.84905
  1    33     -2.92006    0.12857
  1    34     -2.85921    0.03988


Fermi level: -3.05396

No gap
Writing to output.gpw (mode='')


Forces in eV/Ang:
  0 Li    0.04499    0.00036   -0.31014
  1 Li   -0.04386    0.00091   -0.35986
  2 Li   -0.00084    0.00892   -0.35394
  3 Li   -0.00923    0.05697   -0.28695
  4 Li    0.00763    0.01764   -0.28312
  5 Li    0.00255    0.04095   -0.24286
  6 Li    0.00610   -0.02423   -0.28635
  7 Li    0.00925   -0.02670   -0.28265
  8 Li   -0.00589   -0.03607   -0.28436
  9 Li   -0.12641   -0.20342    0.30076
 10 Li   -0.01225   -0.17798    0.15704
 11 Li    0.09386    0.10677    0.69829
 12 Li   -0.03861    0.02396    0.46419
 13 Li   -0.08243    0.18124    0.11641
 14 Li    0.11578   -0.02809    0.52198
 15 Li   -0.09346   -0.01439    0.19868
 16 Li   -0.01261   -0.09914    0.24701
 17 Li    0.08891   -0.09039    0.20819
 18 Li   -0.03802   -0.07156    0.00718
 19 Li   -0.11638    0.04427    0.01299
 20 Li   -0.34222    0.08936   -0.01080
 21 Li   -0.04572   -0.11895   -0.04303
 22 Li   -0.01436   -0.03969   -0.00430
 23 Li   -0.13369    0.10815   -0.18703
 24 Li   -0.07343    0.06827    0.03954
 25 Li    0.00453    0.02176   -0.02417
 26 Li    0.13681   -0.01047   -0.12695
 27 Li    0.25223    0.22184    0.02173
 28 Li    0.17099    0.02786    0.02685
 29 Li    0.00029    0.17753    0.10024
 30 Li   -0.01052   -0.16821    0.23821
 31 Li   -0.33664   -0.12404    0.09770
 32 Li   -0.10991   -0.10695   -0.06520
 33 Li   -0.07872    0.14860   -0.09509
 34 Li   -0.01322    0.00005   -0.04186
 35 Li    0.09052   -0.07171   -0.09491
 36 O     0.04597   -0.01621    0.05942
 37 C     0.00896   -0.01217   -0.00320
 38 C    -0.02629    0.02107   -0.00946
 39 H     0.02183   -0.03668    0.07103
 40 H    -0.01308    0.05960   -0.11662
 41 H    -0.01641    0.00261   -0.06899
[...]
iter:  19 14:31:50  -309.263450c -5.16  -3.88
Writing to output.gpw (mode='')

iter:  20 14:36:44  -309.263450c -5.36  -3.92
iter:  21 14:42:03  -309.263444c -5.32  -3.95
iter:  22 14:45:47  -309.263444c -5.47  -4.10c
iter:  23 14:50:52  -309.263443c -5.63  -4.20c
iter:  24 14:55:01  -309.263443c -5.93  -4.31c
Writing to output.gpw (mode='')

iter:  25 14:59:02  -309.263444c -5.95  -4.36c
iter:  26 15:04:24  -309.263446c -6.11  -4.50c
iter:  27 15:08:59  -309.263446c -6.31  -4.63c
iter:  28 15:14:21  -309.263446c -6.29  -4.72c
iter:  29 15:19:03  -309.263445c -6.41  -4.84c
Writing to output.gpw (mode='')

iter:  30 15:24:18  -309.263445c -6.67  -4.88c
iter:  31 15:29:05  -309.263445c -6.80  -4.97c
iter:  32 15:33:38  -309.263445c -7.01  -5.25c
iter:  33 15:38:17  -309.263445c -6.79  -5.21c
iter:  34 15:43:20  -309.263445c -7.06  -5.21c
Writing to output.gpw (mode='')

iter:  35 15:48:47  -309.263445c -7.24  -5.33c
iter:  36 15:54:35  -309.263445c -7.25  -5.37c
iter:  37 16:00:40  -309.263445c -7.38  -5.51c
iter:  38 16:04:27  -309.263445c -7.45c -5.56c

Converged after 38 iterations.

Dipole moment: (-3.900303, -8.166234, 0.293968) |e|*Ang

Energy contributions relative to reference atoms: (reference = -14434.854043)

Kinetic:       +143.921921
Potential:     -135.102546
External:        +0.000000
XC:            -318.773403
Entropy (-ST):   -0.139978
Local:           +0.760573
--------------------------
Free energy:   -309.333434
Extrapolated:  -309.263445

Dipole-layer corrected work functions: 3.345556, 2.780448 eV

Showing only first 2 kpts
 Kpt  Band  Eigenvalues  Occupancy
  0    31     -3.19261    1.86070
  0    32     -3.10218    1.37293
  0    33     -2.95766    0.21687
  0    34     -2.82128    0.01578

  1    31     -3.30435    1.98411
  1    32     -3.18395    1.83653
  1    33     -2.93238    0.13669
  1    34     -2.86857    0.04012


Fermi level: -3.06300

No gap
Writing to output.gpw (mode='')


Forces in eV/Ang:
  0 Li    0.03676   -0.00182   -0.29582
  1 Li   -0.03870   -0.00154   -0.34563
  2 Li   -0.00128    0.00912   -0.34704
  3 Li   -0.00639    0.05856   -0.28545
  4 Li    0.00949    0.01849   -0.28194
  5 Li    0.00084    0.04435   -0.23314
  6 Li    0.00662   -0.02444   -0.29156
  7 Li    0.00572   -0.02646   -0.28184
  8 Li   -0.00373   -0.03952   -0.27931
  9 Li   -0.10593   -0.20110    0.27151
 10 Li   -0.02806   -0.11787    0.20897
 11 Li    0.09776    0.11111    0.69274
 12 Li   -0.03985    0.02980    0.41089
 13 Li   -0.06727    0.11607    0.16620
 14 Li    0.09733   -0.02996    0.50049
 15 Li   -0.05886   -0.03003    0.16097
 16 Li   -0.02194   -0.09683    0.22641
 17 Li    0.05619   -0.08210    0.17146
 18 Li    0.13962   -0.13319   -0.22524
 19 Li   -0.03320    0.03672    0.04257
 20 Li   -0.29160    0.00838    0.15951
 21 Li   -0.09012   -0.14237    0.02593
 22 Li   -0.00950   -0.04299   -0.00137
 23 Li   -0.07675    0.00239   -0.10313
 24 Li   -0.06024    0.08701    0.03965
 25 Li    0.06198    0.05768    0.00821
 26 Li    0.06602    0.11797   -0.06757
 27 Li    0.12110    0.33866   -0.01473
 28 Li    0.15870    0.00566    0.01650
 29 Li    0.05047   -0.15539    0.17222
 30 Li   -0.09368    0.02651    0.24651
 31 Li   -0.13272   -0.02125    0.13962
 32 Li   -0.05366   -0.30117   -0.18901
 33 Li   -0.05105    0.10983   -0.06201
 34 Li   -0.00192    0.00325   -0.00290
 35 Li    0.04908   -0.05519   -0.06090
 36 O    -0.05673    0.02049   -0.00414
 37 C     0.01381    0.00449   -0.02440
 38 C     0.03213   -0.02167   -0.01336
 39 H     0.03520   -0.00057    0.03932
 40 H     0.01372   -0.04173   -0.01523
 41 H    -0.03705   -0.05194   -0.02925
 42 H    -0.00950    0.03773   -0.04297
 43 H    -0.00061    0.01162   -0.01555
 44 H     0.01489    0.03589   -0.06546
 45 N     0.61733    0.41919   -0.15917
 46 N    -0.26604   -0.15986    0.00900

System changes: positions 

Initializing position-dependent things.

Density initialized from wave functions
       .-----------------------.  
      /|                       |  
     / |                       |  
    /  |                       |  
   /   |                       |  
  /    |                       |  
 *     |                       |  
 |     |                       |  
 |     |                       |  
 |     |            H    H     |  
 |     |              H        |  
 |     |             H         |  
 |     |           H  CLi      |  
 |   Li|             Li H      |  
 |     |     Li                |  
 |     |  Li      Li      LLi  |  
 |     | Li       Li           |  
 |  N  |Li      Li      Li     |  
 |Li   |  Li     N     Li      |  
 |   Li|     LLi     Li        |  
 |    Li  Li      Li      Li   |  
 | Li  |   Li      Li          |  
 |     |Li      Li      Li     |  
 Li    | Li      Li            |  
 |    Li      Li      Li       |  
 |     |                       |  
 |     |                       |  
 |     |                       |  
 |     |                       |  
 |     |                       |  
 |     |                       |  
 |     .-----------------------.  
 |    /                       /   
 |   /                       /    
 |  /                       /     
 | /                       /      
 |/                       /       
 *-----------------------*        

Positions:
   0 Li     1.617037    1.617037   10.000000    ( 0.0000,  0.0000,  0.0000)
   1 Li     4.851111    1.617037   10.000000    ( 0.0000,  0.0000,  0.0000)
   2 Li     8.085185    1.617037   10.000000    ( 0.0000,  0.0000,  0.0000)
   3 Li     1.617037    4.851111   10.000000    ( 0.0000,  0.0000,  0.0000)
   4 Li     4.851111    4.851111   10.000000    ( 0.0000,  0.0000,  0.0000)
   5 Li     8.085185    4.851111   10.000000    ( 0.0000,  0.0000,  0.0000)
   6 Li     1.617037    8.085185   10.000000    ( 0.0000,  0.0000,  0.0000)
   7 Li     4.851111    8.085185   10.000000    ( 0.0000,  0.0000,  0.0000)
   8 Li     8.085185    8.085185   10.000000    ( 0.0000,  0.0000,  0.0000)
   9 Li     0.000000    0.000000   11.617037    ( 0.0000,  0.0000,  0.0000)
  10 Li     3.234074    0.000000   11.617037    ( 0.0000,  0.0000,  0.0000)
  11 Li     6.468148    0.000000   11.617037    ( 0.0000,  0.0000,  0.0000)
  12 Li     0.000000    3.234074   11.617037    ( 0.0000,  0.0000,  0.0000)
  13 Li     3.234074    3.234074   11.617037    ( 0.0000,  0.0000,  0.0000)
  14 Li     6.468148    3.234074   11.617037    ( 0.0000,  0.0000,  0.0000)
  15 Li     0.000000    6.468148   11.617037    ( 0.0000,  0.0000,  0.0000)
  16 Li     3.234074    6.468148   11.617037    ( 0.0000,  0.0000,  0.0000)
  17 Li     6.468148    6.468148   11.617037    ( 0.0000,  0.0000,  0.0000)
  18 Li     1.534385    1.540330   13.238959    ( 0.0000,  0.0000,  0.0000)
  19 Li     4.838252    1.688958   13.277690    ( 0.0000,  0.0000,  0.0000)
  20 Li     8.278282    1.793873   13.941499    ( 0.0000,  0.0000,  0.0000)
  21 Li     1.421736    4.837229   13.546345    ( 0.0000,  0.0000,  0.0000)
  22 Li     4.787734    4.911722   13.555713    ( 0.0000,  0.0000,  0.0000)
  23 Li     8.028992    5.006210   13.675804    ( 0.0000,  0.0000,  0.0000)
  24 Li     1.680777    7.876744   13.500708    ( 0.0000,  0.0000,  0.0000)
  25 Li     4.901715    7.903863   13.462803    ( 0.0000,  0.0000,  0.0000)
  26 Li     8.144125    7.821849   13.596242    ( 0.0000,  0.0000,  0.0000)
  27 Li     0.371305    0.382877   15.321484    ( 0.0000,  0.0000,  0.0000)
  28 Li     3.521293    0.051801   15.078440    ( 0.0000,  0.0000,  0.0000)
  29 Li     6.591777   -0.102385   15.275925    ( 0.0000,  0.0000,  0.0000)
  30 Li    -0.203552    3.520916   15.714830    ( 0.0000,  0.0000,  0.0000)
  31 Li     2.434812    2.958158   15.080278    ( 0.0000,  0.0000,  0.0000)
  32 Li     6.137710    3.067800   15.476331    ( 0.0000,  0.0000,  0.0000)
  33 Li     0.036756    6.664341   15.723990    ( 0.0000,  0.0000,  0.0000)
  34 Li     3.240222    6.456677   15.511086    ( 0.0000,  0.0000,  0.0000)
  35 Li     6.447977    6.439067   15.714443    ( 0.0000,  0.0000,  0.0000)
  36 O      7.976408    2.507454   19.026691    ( 0.0000,  0.0000,  0.0000)
  37 C      8.037577    1.209829   19.644554    ( 0.0000,  0.0000,  0.0000)
  38 C      8.170526    1.279879   21.160985    ( 0.0000,  0.0000,  0.0000)
  39 H      7.160477    0.612484   19.358257    ( 0.0000,  0.0000,  0.0000)
  40 H      8.916375    0.739757   19.200031    ( 0.0000,  0.0000,  0.0000)
  41 H      8.302718    0.280025   21.580035    ( 0.0000,  0.0000,  0.0000)
  42 H      9.038326    1.876586   21.446660    ( 0.0000,  0.0000,  0.0000)
  43 H      7.279410    1.717774   21.620849    ( 0.0000,  0.0000,  0.0000)
  44 H      7.213050    2.968600   19.397298    ( 0.0000,  0.0000,  0.0000)
  45 N      6.242820    1.458291   14.424369    ( 0.0000,  0.0000,  0.0000)
  46 N     10.359896    2.243986   14.675523    ( 0.0000,  0.0000,  0.0000)

Unit cell:
           periodic     x           y           z      points  spacing
  1. axis:    yes    9.702222    0.000000    0.000000    60     0.1617
  2. axis:    yes    0.000000    9.702222    0.000000    60     0.1617
  3. axis:    no     0.000000    0.000000   24.851111   156     0.1593

  Lengths:   9.702222   9.702222  24.851111
  Angles:   90.000000  90.000000  90.000000

Effective grid spacing dv^(1/3) = 0.1609

     iter     time        total  log10-change:
                         energy  eigst   dens
iter:   1 16:09:18  -309.326774  -0.71
iter:   2 16:14:44  -309.317411  -1.50  -1.88
iter:   3 16:19:04  -309.307113c -2.06  -1.99
iter:   4 16:23:46  -309.300943c -1.74  -2.14
Writing to output.gpw (mode='')

iter:   5 16:28:35  -309.300703c -2.59  -2.43
iter:   6 16:34:34  -309.299513c -2.33  -2.46
iter:   7 16:37:17  -309.300153c -2.22  -2.70
iter:   8 16:40:27  -309.299601c -2.90  -2.75
iter:   9 16:43:23  -309.299750c -3.07  -3.06
Writing to output.gpw (mode='')

iter:  10 16:47:01  -309.299681c -3.56  -3.04
iter:  11 16:50:56  -309.299685c -3.68  -3.09
iter:  12 16:54:55  -309.299686c -3.92  -3.32
iter:  13 16:59:29  -309.299751c -4.03  -3.37
iter:  14 17:05:12  -309.299746c -4.34  -3.49
Writing to output.gpw (mode='')

iter:  15 17:10:15  -309.299717c -4.41  -3.51
iter:  16 17:14:08  -309.299725c -4.71  -3.75
iter:  17 17:18:31  -309.299716c -4.88  -3.81
iter:  18 17:22:30  -309.299707c -4.95  -3.84
iter:  19 17:28:05  -309.299728c -5.09  -3.86
Writing to output.gpw (mode='')

iter:  20 17:33:33  -309.299725c -5.38  -4.07c
iter:  21 17:40:16  -309.299722c -5.57  -4.12c
iter:  22 17:45:34  -309.299723c -5.59  -4.16c
iter:  23 17:51:24  -309.299727c -5.73  -4.37c
iter:  24 17:56:12  -309.299727c -5.93  -4.45c
Writing to output.gpw (mode='')

iter:  25 18:03:59  -309.299727c -5.92  -4.48c
iter:  26 18:11:14  -309.299726c -6.09  -4.63c
iter:  27 18:16:54  -309.299727c -6.24  -4.76c
iter:  28 18:21:53  -309.299727c -6.46  -4.77c
iter:  29 18:27:36  -309.299727c -6.58  -4.83c
Writing to output.gpw (mode='')

iter:  30 18:32:58  -309.299727c -6.81  -5.06c
iter:  31 18:37:51  -309.299727c -6.88  -5.13c
iter:  32 18:43:06  -309.299726c -6.75  -5.14c
iter:  33 18:47:43  -309.299726c -7.03  -5.20c
iter:  34 18:52:45  -309.299726c -7.28  -5.39c
Writing to output.gpw (mode='')

iter:  35 18:57:45  -309.299726c -7.40  -5.39c
iter:  36 19:02:46  -309.299726c -7.44c -5.39c

Converged after 36 iterations.

Dipole moment: (-3.581978, -8.197134, 0.292810) |e|*Ang

Energy contributions relative to reference atoms: (reference = -14434.854043)

Kinetic:       +144.077779
Potential:     -135.240399
External:        +0.000000
XC:            -318.827866
Entropy (-ST):   -0.139903
Local:           +0.760712
--------------------------
Free energy:   -309.369678
Extrapolated:  -309.299726

Dipole-layer corrected work functions: 3.347105, 2.784223 eV

Showing only first 2 kpts
 Kpt  Band  Eigenvalues  Occupancy
  0    31     -3.19498    1.85994
  0    32     -3.10623    1.38475
  0    33     -2.95958    0.21400
  0    34     -2.82495    0.01610

  1    31     -3.30530    1.98356
  1    32     -3.18430    1.82945
  1    33     -2.93360    0.13307
  1    34     -2.87217    0.04087


Fermi level: -3.06566

No gap
Writing to output.gpw (mode='')


Forces in eV/Ang:
  0 Li    0.03483   -0.00192   -0.29355
  1 Li   -0.03722   -0.00211   -0.34180
  2 Li   -0.00177    0.00903   -0.34991
  3 Li   -0.00593    0.05837   -0.28430
  4 Li    0.01011    0.01884   -0.28145
  5 Li    0.00044    0.04572   -0.23128
  6 Li    0.00620   -0.02422   -0.29198
  7 Li    0.00483   -0.02632   -0.28111
  8 Li   -0.00314   -0.04071   -0.27713
  9 Li   -0.10160   -0.19446    0.26873
 10 Li   -0.02925   -0.09990    0.22400
 11 Li    0.09892    0.11257    0.68722
 12 Li   -0.04351    0.02539    0.40388
 13 Li   -0.06173    0.09577    0.18164
 14 Li    0.09167   -0.03300    0.49769
 15 Li   -0.04661   -0.03462    0.14999
 16 Li   -0.02418   -0.09560    0.21971
 17 Li    0.04484   -0.07711    0.16013
 18 Li    0.17933   -0.14150   -0.27281
 19 Li    0.01403    0.02675    0.06576
 20 Li   -0.23045   -0.00487    0.16263
 21 Li   -0.09976   -0.14210    0.04142
 22 Li   -0.00781   -0.04486    0.00165
 23 Li   -0.06119   -0.03011   -0.07914
 24 Li   -0.05531    0.09114    0.04149
 25 Li    0.07498    0.06247    0.01528
 26 Li    0.04649    0.14812   -0.04935
 27 Li    0.08723    0.35701   -0.02258
 28 Li    0.14850   -0.00708    0.01361
 29 Li    0.03950   -0.20579    0.17404
 30 Li   -0.08984    0.04700    0.23104
 31 Li   -0.14522   -0.01835    0.13119
 32 Li   -0.04230   -0.32718   -0.20240
 33 Li   -0.04318    0.09937   -0.05121
 34 Li    0.00092    0.00239    0.00831
 35 Li    0.03696   -0.04851   -0.04900
 36 O    -0.06406    0.02674   -0.02484
 37 C     0.01922    0.00993   -0.02903
 38 C     0.04127   -0.02637   -0.01776
 39 H     0.03025    0.01035    0.01826
 40 H     0.01729   -0.06677    0.01823
 41 H    -0.03773   -0.05881   -0.01535
 42 H    -0.00378    0.04214   -0.03316
 43 H     0.01837   -0.00069   -0.03446
 44 H    -0.00267    0.06425   -0.05787
 45 N     0.46953    0.49477   -0.26460
 46 N    -0.28234   -0.14915    0.06565

System changes: positions 

Initializing position-dependent things.

Density initialized from wave functions
       .-----------------------.  
      /|                       |  
     / |                       |  
    /  |                       |  
   /   |                       |  
  /    |                       |  
 *     |                       |  
 |     |                       |  
 |     |                       |  
 |     |            H    H     |  
 |     |              H        |  
 |     |             H         |  
 |     |           H  CLi      |  
 |   Li|             Li H      |  
 |     |     Li                |  
 |     |  Li      Li      LLi  |  
 |     | Li       Li           |  
 |  N  |Li      Li      Li     |  
 |Li   |  Li     N     Li      |  
 |   Li|     LLi     Li        |  
 |    Li  Li      Li      Li   |  
 | Li  |   Li      Li          |  
 |     |Li      Li      Li     |  
 Li    | Li      Li            |  
 |    Li      Li      Li       |  
 |     |                       |  
 |     |                       |  
 |     |                       |  
 |     |                       |  
 |     |                       |  
 |     |                       |  
 |     .-----------------------.  
 |    /                       /   
 |   /                       /    
 |  /                       /     
 | /                       /      
 |/                       /       
 *-----------------------*        

Positions:
   0 Li     1.617037    1.617037   10.000000    ( 0.0000,  0.0000,  0.0000)
   1 Li     4.851111    1.617037   10.000000    ( 0.0000,  0.0000,  0.0000)
   2 Li     8.085185    1.617037   10.000000    ( 0.0000,  0.0000,  0.0000)
   3 Li     1.617037    4.851111   10.000000    ( 0.0000,  0.0000,  0.0000)
   4 Li     4.851111    4.851111   10.000000    ( 0.0000,  0.0000,  0.0000)
   5 Li     8.085185    4.851111   10.000000    ( 0.0000,  0.0000,  0.0000)
   6 Li     1.617037    8.085185   10.000000    ( 0.0000,  0.0000,  0.0000)
   7 Li     4.851111    8.085185   10.000000    ( 0.0000,  0.0000,  0.0000)
   8 Li     8.085185    8.085185   10.000000    ( 0.0000,  0.0000,  0.0000)
   9 Li     0.000000    0.000000   11.617037    ( 0.0000,  0.0000,  0.0000)
  10 Li     3.234074    0.000000   11.617037    ( 0.0000,  0.0000,  0.0000)
  11 Li     6.468148    0.000000   11.617037    ( 0.0000,  0.0000,  0.0000)
  12 Li     0.000000    3.234074   11.617037    ( 0.0000,  0.0000,  0.0000)
  13 Li     3.234074    3.234074   11.617037    ( 0.0000,  0.0000,  0.0000)
  14 Li     6.468148    3.234074   11.617037    ( 0.0000,  0.0000,  0.0000)
  15 Li     0.000000    6.468148   11.617037    ( 0.0000,  0.0000,  0.0000)
  16 Li     3.234074    6.468148   11.617037    ( 0.0000,  0.0000,  0.0000)
  17 Li     6.468148    6.468148   11.617037    ( 0.0000,  0.0000,  0.0000)
  18 Li     1.524253    1.539439   13.256555    ( 0.0000,  0.0000,  0.0000)
  19 Li     4.850765    1.688392   13.306291    ( 0.0000,  0.0000,  0.0000)
  20 Li     8.261317    1.796446   13.954123    ( 0.0000,  0.0000,  0.0000)
  21 Li     1.423349    4.828009   13.541031    ( 0.0000,  0.0000,  0.0000)
  22 Li     4.781296    4.915240   13.547767    ( 0.0000,  0.0000,  0.0000)
  23 Li     8.020933    5.015985   13.653107    ( 0.0000,  0.0000,  0.0000)
  24 Li     1.681230    7.877704   13.495311    ( 0.0000,  0.0000,  0.0000)
  25 Li     4.898882    7.909475   13.459114    ( 0.0000,  0.0000,  0.0000)
  26 Li     8.151949    7.819262   13.576069    ( 0.0000,  0.0000,  0.0000)
  27 Li     0.382483    0.375644   15.330384    ( 0.0000,  0.0000,  0.0000)
  28 Li     3.523593    0.045984   15.097543    ( 0.0000,  0.0000,  0.0000)
  29 Li     6.620512   -0.097209   15.293077    ( 0.0000,  0.0000,  0.0000)
  30 Li    -0.233074    3.507781   15.727939    ( 0.0000,  0.0000,  0.0000)
  31 Li     2.423827    2.958451   15.104253    ( 0.0000,  0.0000,  0.0000)
  32 Li     6.133153    3.080970   15.477251    ( 0.0000,  0.0000,  0.0000)
  33 Li     0.027666    6.669082   15.702554    ( 0.0000,  0.0000,  0.0000)
  34 Li     3.238564    6.456382   15.498808    ( 0.0000,  0.0000,  0.0000)
  35 Li     6.457978    6.435261   15.692664    ( 0.0000,  0.0000,  0.0000)
  36 O      7.976712    2.509342   19.032897    ( 0.0000,  0.0000,  0.0000)
  37 C      8.037776    1.210307   19.646807    ( 0.0000,  0.0000,  0.0000)
  38 C      8.170783    1.278438   21.163109    ( 0.0000,  0.0000,  0.0000)
  39 H      7.160880    0.611595   19.362967    ( 0.0000,  0.0000,  0.0000)
  40 H      8.915883    0.743565   19.197237    ( 0.0000,  0.0000,  0.0000)
  41 H      8.302926    0.277507   21.579260    ( 0.0000,  0.0000,  0.0000)
  42 H      9.038880    1.874492   21.448168    ( 0.0000,  0.0000,  0.0000)
  43 H      7.280081    1.716474   21.625490    ( 0.0000,  0.0000,  0.0000)
  44 H      7.208435    2.965334   19.397880    ( 0.0000,  0.0000,  0.0000)
  45 N      6.281339    1.463472   14.433828    ( 0.0000,  0.0000,  0.0000)
  46 N     10.347997    2.241030   14.691152    ( 0.0000,  0.0000,  0.0000)

Unit cell:
           periodic     x           y           z      points  spacing
  1. axis:    yes    9.702222    0.000000    0.000000    60     0.1617
  2. axis:    yes    0.000000    9.702222    0.000000    60     0.1617
  3. axis:    no     0.000000    0.000000   24.851111   156     0.1593

  Lengths:   9.702222   9.702222  24.851111
  Angles:   90.000000  90.000000  90.000000

Effective grid spacing dv^(1/3) = 0.1609

     iter     time        total  log10-change:
                         energy  eigst   dens
iter:   1 19:10:31  -309.358849  -0.74
iter:   2 19:14:59  -309.350234  -1.53  -1.89
iter:   3 19:21:24  -309.339609c -2.09  -2.00
iter:   4 19:26:30  -309.334150c -1.76  -2.16
Writing to output.gpw (mode='')

iter:   5 19:32:15  -309.333717c -2.61  -2.42
iter:   6 19:38:39  -309.332444c -2.27  -2.46
iter:   7 19:43:50  -309.333011c -2.27  -2.72
iter:   8 19:47:47  -309.332505c -2.95  -2.79
