
  ___ ___ ___ _ _ _  
 |   |   |_  | | | | 
 | | | | | . | | | | 
 |__ |  _|___|_____|  22.8.0
 |___|_|             

User:   vazumah@f005
Date:   Thu Mar  2 03:08:18 2023
Arch:   x86_64
Pid:    14620
CWD:    /home/vazumah/Research_Projects/LiMEAS/LiNRR_proton_donors/N2_with_proton_donor/Li_BCC_100/adsorbates/CH3CH2OH_z/bridge/8.085_1.617/N2_y/barrier/6.51_1.77_15.57
Python: 3.10.6
gpaw:   /home/vazumah/anaconda3/envs/NAME/lib/python3.10/site-packages/gpaw
_gpaw:  /home/vazumah/anaconda3/envs/NAME/lib/python3.10/site-packages/
        _gpaw.cpython-310-x86_64-linux-gnu.so
ase:    /home/vazumah/anaconda3/envs/NAME/lib/python3.10/site-packages/ase (version 3.22.1)
numpy:  /home/vazumah/anaconda3/envs/NAME/lib/python3.10/site-packages/numpy (version 1.23.3)
scipy:  /home/vazumah/anaconda3/envs/NAME/lib/python3.10/site-packages/scipy (version 1.9.1)
libxc:  5.2.3
units:  Angstrom and eV
cores: 32
OpenMP: True
OMP_NUM_THREADS: 1

Input parameters:
  h: 0.16
  kpts: {size: [4, 4, 1]}
  occupations: {name: fermi-dirac,
                width: 0.05}
  poissonsolver: {dipolelayer: xy}
  xc: BEEF-vdW

System changes: positions, numbers, cell, pbc, initial_charges, initial_magmoms 

Initialize ...

species:
  Li:
    name: Lithium
    id: 830b4218f175192f93f959cfc0aad614
    Z: 3.0
    valence: 1
    core: 2
    charge: 0.0
    file: /home/vazumah/anaconda3/envs/NAME/share/gpaw/Li.PBE.gz
    compensation charges: {type: gauss,
                           rc: 0.33,
                           lmax: 2}
    cutoffs: {filter: 1.91,
              core: 2.55}
    valence states:
      #              energy  rcut
      - 2s(1.00)    -2.874   1.058
      - 2p(0.00)    -1.090   1.058
      -  s          24.337   1.058
  
    # Using partial waves for Li as LCAO basis

  O:
    name: Oxygen
    id: 32ecd46bf208036f09c70b0ec9a88b78
    Z: 8.0
    valence: 6
    core: 2
    charge: 0.0
    file: /home/vazumah/anaconda3/envs/NAME/share/gpaw/O.PBE.gz
    compensation charges: {type: gauss,
                           rc: 0.21,
                           lmax: 2}
    cutoffs: {filter: 1.17,
              core: 0.83}
    valence states:
      #              energy  rcut
      - 2s(2.00)   -23.961   0.688
      - 2p(4.00)    -9.029   0.598
      -  s           3.251   0.688
      -  p          18.182   0.598
      -  d           0.000   0.619
  
    # Using partial waves for O as LCAO basis

  C:
    name: Carbon
    id: 4aa54d4b901d75f77cc0ea3eec22967b
    Z: 6.0
    valence: 4
    core: 2
    charge: 0.0
    file: /home/vazumah/anaconda3/envs/NAME/share/gpaw/C.PBE.gz
    compensation charges: {type: gauss,
                           rc: 0.20,
                           lmax: 2}
    cutoffs: {filter: 1.14,
              core: 1.14}
    valence states:
      #              energy  rcut
      - 2s(2.00)   -13.751   0.635
      - 2p(2.00)    -5.284   0.635
      -  s          13.461   0.635
      -  p          21.927   0.635
      -  d           0.000   0.635
  
    # Using partial waves for C as LCAO basis

  H:
    name: Hydrogen
    id: d65de229564ff8ea4db303e23b6d1ecf
    Z: 1.0
    valence: 1
    core: 0
    charge: 0.0
    file: /home/vazumah/anaconda3/envs/NAME/share/gpaw/H.PBE.gz
    compensation charges: {type: gauss,
                           rc: 0.15,
                           lmax: 2}
    cutoffs: {filter: 0.85,
              core: 0.53}
    valence states:
      #              energy  rcut
      - 1s(1.00)    -6.494   0.476
      -  s          20.717   0.476
      -  p           0.000   0.476
  
    # Using partial waves for H as LCAO basis

  N:
    name: Nitrogen
    id: f7500608b86eaa90eef8b1d9a670dc53
    Z: 7.0
    valence: 5
    core: 2
    charge: 0.0
    file: /home/vazumah/anaconda3/envs/NAME/share/gpaw/N.PBE.gz
    compensation charges: {type: gauss,
                           rc: 0.18,
                           lmax: 2}
    cutoffs: {filter: 1.11,
              core: 0.96}
    valence states:
      #              energy  rcut
      - 2s(2.00)   -18.583   0.603
      - 2p(3.00)    -7.089   0.529
      -  s           8.629   0.603
      -  p          20.123   0.529
      -  d           0.000   0.577
  
    # Using partial waves for N as LCAO basis

Reference energy: -14434.854043  # eV

Spin-paired calculation

Convergence criteria:
 Maximum [total energy] change in last 3 cyles: 0.0005 eV / electron
 Maximum integral of absolute [dens]ity change: 0.0001 electrons / valence electron
 Maximum integral of absolute [eigenst]ate change: 4e-08 eV^2 / valence electron
 Maximum number of scf [iter]ations: 333
 (Square brackets indicate name in SCF output, whereas a 'c' in
 the SCF output indicates the quantity has converged.)

Symmetries present (total): 1

  ( 1  0  0)
  ( 0  1  0)
  ( 0  0  1)

16 k-points: 4 x 4 x 1 Monkhorst-Pack grid
8 k-points in the irreducible part of the Brillouin zone
       k-points in crystal coordinates                weights
   0:     0.12500000   -0.37500000    0.00000000          2/16
   1:     0.12500000   -0.12500000    0.00000000          2/16
   2:     0.12500000    0.12500000    0.00000000          2/16
   3:     0.12500000    0.37500000    0.00000000          2/16
   4:     0.37500000   -0.37500000    0.00000000          2/16
   5:     0.37500000   -0.12500000    0.00000000          2/16
   6:     0.37500000    0.12500000    0.00000000          2/16
   7:     0.37500000    0.37500000    0.00000000          2/16

Wave functions: Uniform real-space grid
  Kinetic energy operator: 6*3+1=19 point O(h^6) finite-difference Laplacian
  ScaLapack parameters: grid=1x1, blocksize=None
  Wavefunction extrapolation:
    Improved wavefunction reuse through dual PAW basis 

Occupation numbers: Fermi-Dirac:
  width: 0.0500  # eV
 

Eigensolver
   Davidson(niter=2) 

Densities:
  Coarse grid: 60*60*156 grid
  Fine grid: 120*120*312 grid
  Total Charge: 0.000000 

Density mixing:
  Method: separate
  Backend: pulay
  Linear mixing parameter: 0.05
  old densities: 5
  Damping of long wavelength oscillations: 50 

Hamiltonian:
  XC and Coulomb potentials evaluated on a 120*120*312 grid
  Using the BEEF-vdW Exchange-Correlation functional
  Interpolation: tri-quintic (5. degree polynomial)
  Poisson solver: FastPoissonSolver using
    Stencil: 6*3+1=19 point O(h^6) finite-difference Laplacian
    FFT axes: [0, 1]
    FST axes: [2]

Dipole correction along z-axis 

XC parameters: BEEF-vdW with 2 nearest neighbor stencil

Memory estimate:
  Process memory now: 212.91 MiB
  Calculator: 307.36 MiB
    Density: 88.33 MiB
      Arrays: 27.47 MiB
      Localized functions: 50.43 MiB
      Mixer: 10.44 MiB
    Hamiltonian: 21.95 MiB
      Arrays: 17.96 MiB
      XC: 0.00 MiB
      Poisson: 0.00 MiB
      vbar: 3.99 MiB
    Wavefunctions: 197.08 MiB
      Arrays psit_nG: 91.85 MiB
      Eigensolver: 102.58 MiB
      Projections: 0.05 MiB
      Projectors: 2.60 MiB

Total number of cores used: 32
Parallelization over k-points: 8
Domain decomposition: 1 x 1 x 4

Number of atoms: 47
Number of atomic orbitals: 170
Number of bands in calculation: 44
Number of valence electrons: 66
Bands to converge: occupied

... initialized

Initializing position-dependent things.

Density initialized from atomic densities
Creating initial wave functions:
  44 bands from LCAO basis set

       .-----------------------.  
      /|                       |  
     / |                       |  
    /  |                       |  
   /   |                       |  
  /    |                       |  
 *     |                       |  
 |     |                       |  
 |     |                       |  
 |     |            H    H     |  
 |     |              H        |  
 |     |            H O        |  
 |     Li      Li  H  C H      |  
 |     |                       |  
 |   Li|     Li      Li        |  
 |     |  Li      Li      Li   |  
 |     |   Li     NLi     Li   |  
 |     |Li      LiLi    LiN    |  
 |     |                       |  
 |   LLi     LLi     LLi       |  
 |     |  Li      Li      Li   |  
 | Li  |   Li      Li          |  
 |     |Li      Li      Li     |  
 Li    | Li      Li            |  
 |    Li      Li      Li       |  
 |     |                       |  
 |     |                       |  
 |     |                       |  
 |     |                       |  
 |     |                       |  
 |     |                       |  
 |     .-----------------------.  
 |    /                       /   
 |   /                       /    
 |  /                       /     
 | /                       /      
 |/                       /       
 *-----------------------*        

Positions:
   0 Li     1.617037    1.617037   10.000000    ( 0.0000,  0.0000,  0.0000)
   1 Li     4.851111    1.617037   10.000000    ( 0.0000,  0.0000,  0.0000)
   2 Li     8.085185    1.617037   10.000000    ( 0.0000,  0.0000,  0.0000)
   3 Li     1.617037    4.851111   10.000000    ( 0.0000,  0.0000,  0.0000)
   4 Li     4.851111    4.851111   10.000000    ( 0.0000,  0.0000,  0.0000)
   5 Li     8.085185    4.851111   10.000000    ( 0.0000,  0.0000,  0.0000)
   6 Li     1.617037    8.085185   10.000000    ( 0.0000,  0.0000,  0.0000)
   7 Li     4.851111    8.085185   10.000000    ( 0.0000,  0.0000,  0.0000)
   8 Li     8.085185    8.085185   10.000000    ( 0.0000,  0.0000,  0.0000)
   9 Li     0.000000    0.000000   11.617037    ( 0.0000,  0.0000,  0.0000)
  10 Li     3.234074    0.000000   11.617037    ( 0.0000,  0.0000,  0.0000)
  11 Li     6.468148    0.000000   11.617037    ( 0.0000,  0.0000,  0.0000)
  12 Li     0.000000    3.234074   11.617037    ( 0.0000,  0.0000,  0.0000)
  13 Li     3.234074    3.234074   11.617037    ( 0.0000,  0.0000,  0.0000)
  14 Li     6.468148    3.234074   11.617037    ( 0.0000,  0.0000,  0.0000)
  15 Li     0.000000    6.468148   11.617037    ( 0.0000,  0.0000,  0.0000)
  16 Li     3.234074    6.468148   11.617037    ( 0.0000,  0.0000,  0.0000)
  17 Li     6.468148    6.468148   11.617037    ( 0.0000,  0.0000,  0.0000)
  18 Li     1.595509    1.594341   13.521113    ( 0.0000,  0.0000,  0.0000)
  19 Li     4.875757    1.669805   13.523007    ( 0.0000,  0.0000,  0.0000)
  20 Li     8.084601    1.619304   13.573205    ( 0.0000,  0.0000,  0.0000)
  21 Li     1.537970    4.787371   13.515473    ( 0.0000,  0.0000,  0.0000)
  22 Li     4.813147    4.877897   13.504320    ( 0.0000,  0.0000,  0.0000)
  23 Li     8.033336    4.828877   13.530236    ( 0.0000,  0.0000,  0.0000)
  24 Li     1.653345    8.047130   13.481953    ( 0.0000,  0.0000,  0.0000)
  25 Li     4.911990    8.143315   13.494306    ( 0.0000,  0.0000,  0.0000)
  26 Li     8.125773    8.099628   13.516332    ( 0.0000,  0.0000,  0.0000)
  27 Li     0.122820   -0.114585   15.486523    ( 0.0000,  0.0000,  0.0000)
  28 Li     3.369991   -0.045509   15.433870    ( 0.0000,  0.0000,  0.0000)
  29 Li     6.701148    0.204638   15.590293    ( 0.0000,  0.0000,  0.0000)
  30 Li    -0.305390    2.980364   15.691723    ( 0.0000,  0.0000,  0.0000)
  31 Li     3.083623    3.281383   15.463522    ( 0.0000,  0.0000,  0.0000)
  32 Li     6.319692    3.337664   15.554884    ( 0.0000,  0.0000,  0.0000)
  33 Li     0.047264    6.350009   15.456463    ( 0.0000,  0.0000,  0.0000)
  34 Li     3.243262    6.476191   15.445465    ( 0.0000,  0.0000,  0.0000)
  35 Li     6.419510    6.599247   15.450516    ( 0.0000,  0.0000,  0.0000)
  36 O      7.889996    2.545694   19.227444    ( 0.0000,  0.0000,  0.0000)
  37 C      8.020026    1.225021   19.777759    ( 0.0000,  0.0000,  0.0000)
  38 C      8.194501    1.224440   21.291760    ( 0.0000,  0.0000,  0.0000)
  39 H      7.159011    0.607327   19.488645    ( 0.0000,  0.0000,  0.0000)
  40 H      8.900117    0.803689   19.287345    ( 0.0000,  0.0000,  0.0000)
  41 H      8.352089    0.206024   21.656245    ( 0.0000,  0.0000,  0.0000)
  42 H      9.054614    1.831527   21.579376    ( 0.0000,  0.0000,  0.0000)
  43 H      7.307568    1.625626   21.791403    ( 0.0000,  0.0000,  0.0000)
  44 H      7.058133    2.920631   19.540742    ( 0.0000,  0.0000,  0.0000)
  45 N      6.510420    1.771151   15.572589    ( 0.0000,  0.0000,  0.0000)
  46 N      9.610937    1.432890   15.589123    ( 0.0000,  0.0000,  0.0000)

Unit cell:
           periodic     x           y           z      points  spacing
  1. axis:    yes    9.702222    0.000000    0.000000    60     0.1617
  2. axis:    yes    0.000000    9.702222    0.000000    60     0.1617
  3. axis:    no     0.000000    0.000000   24.851111   156     0.1593

  Lengths:   9.702222   9.702222  24.851111
  Angles:   90.000000  90.000000  90.000000

Effective grid spacing dv^(1/3) = 0.1609

     iter     time        total  log10-change:
                         energy  eigst   dens
iter:   1 03:14:28  -488.447111
iter:   2 03:20:03  -159.794197  +2.38  -0.04
iter:   3 03:24:39  -113.007890  +2.78  -0.24
iter:   4 03:26:12  -134.195235  +2.94  -0.31
Writing to output.gpw (mode='')

iter:   5 03:27:45  -187.186166  +2.74  -0.42
iter:   6 03:29:44  -242.433929  +2.57  -0.56
iter:   7 03:31:24  -289.132292  +2.46  -0.61
iter:   8 03:33:06  -315.297414  +2.23  -0.64
iter:   9 03:37:29  -346.011696  +2.16  -0.63
Writing to output.gpw (mode='')

iter:  10 03:44:22  -351.905910  +1.85  -0.59
iter:  11 03:58:54  -334.972845  +1.39  -0.57
iter:  12 04:13:32  -329.312458  +1.14  -0.62
iter:  13 04:25:41  -329.577181  +0.92  -0.63
iter:  14 04:36:11  -337.519319  +1.24  -0.62
Writing to output.gpw (mode='')

iter:  15 04:46:11  -322.438052  +1.09  -0.56
iter:  16 04:59:42  -321.328478  +0.60  -0.53
iter:  17 05:12:47  -318.172626  +0.74  -0.59
iter:  18 05:21:08  -310.310734  +0.63  -0.59
iter:  19 05:29:24  -308.553795  +0.86  -0.83
Writing to output.gpw (mode='')

iter:  20 05:37:48  -305.667082  +0.57  -0.84
iter:  21 05:46:16  -305.618977  +0.75  -0.95
iter:  22 05:54:45  -305.021377  -0.05  -0.88
iter:  23 06:03:23  -304.954810  -0.20  -1.03
iter:  24 06:16:46  -304.128039  -0.26  -1.06
Writing to output.gpw (mode='')

iter:  25 06:26:07  -304.047195  +0.20  -1.28
iter:  26 06:30:54  -304.021080  -0.32  -1.33
iter:  27 06:35:37  -303.931417  -0.60  -1.37
iter:  28 06:40:29  -303.919490  -0.87  -1.48
iter:  29 06:45:00  -303.820148  -0.55  -1.51
Writing to output.gpw (mode='')

iter:  30 06:49:39  -303.821590  -1.25  -1.90
iter:  31 06:54:15  -303.815834c -1.52  -1.96
iter:  32 06:59:00  -303.818997c -1.37  -2.09
iter:  33 07:03:37  -303.821195c -1.55  -2.22
iter:  34 07:08:15  -303.821438c -1.96  -2.34
Writing to output.gpw (mode='')

iter:  35 07:12:53  -303.821408c -1.97  -2.41
iter:  36 07:17:15  -303.822241c -2.31  -2.59
iter:  37 07:21:54  -303.823002c -2.43  -2.64
iter:  38 07:26:33  -303.823685c -2.42  -2.73
iter:  39 07:30:29  -303.824125c -2.57  -2.74
Writing to output.gpw (mode='')

iter:  40 07:33:42  -303.824344c -2.72  -2.77
iter:  41 07:40:37  -303.824559c -2.58  -2.91
iter:  42 07:46:33  -303.824765c -2.92  -3.04
iter:  43 07:54:46  -303.824889c -3.07  -3.13
iter:  44 08:01:48  -303.825010c -3.17  -3.29
Writing to output.gpw (mode='')

iter:  45 08:08:53  -303.825116c -3.29  -3.34
iter:  46 08:19:47  -303.825239c -3.18  -3.34
iter:  47 08:28:41  -303.825310c -3.57  -3.41
iter:  48 08:38:10  -303.825363c -3.81  -3.49
iter:  49 08:48:24  -303.825425c -3.63  -3.52
Writing to output.gpw (mode='')

iter:  50 08:55:10  -303.825456c -3.82  -3.65
iter:  51 09:00:54  -303.825493c -3.91  -3.74
iter:  52 09:05:42  -303.825518c -3.80  -3.92
iter:  53 09:08:40  -303.825548c -3.80  -4.03c
iter:  54 09:12:56  -303.825561c -4.17  -4.04c
Writing to output.gpw (mode='')

iter:  55 09:17:32  -303.825575c -4.16  -4.19c
iter:  56 09:21:26  -303.825588c -4.06  -4.21c
iter:  57 09:29:34  -303.825596c -4.34  -4.21c
iter:  58 09:36:07  -303.825604c -4.60  -4.30c
iter:  59 09:43:21  -303.825609c -4.55  -4.45c
Writing to output.gpw (mode='')

iter:  60 09:51:38  -303.825612c -4.91  -4.54c
iter:  61 10:01:36  -303.825615c -4.93  -4.56c
iter:  62 10:10:17  -303.825618c -4.71  -4.62c
iter:  63 10:18:21  -303.825620c -5.14  -4.65c
iter:  64 10:29:53  -303.825622c -5.25  -4.80c
Writing to output.gpw (mode='')

iter:  65 10:40:30  -303.825624c -5.24  -4.90c
iter:  66 10:51:58  -303.825625c -5.48  -5.15c
iter:  67 11:03:54  -303.825625c -5.48  -5.20c
iter:  68 11:15:42  -303.825626c -5.58  -5.18c
iter:  69 11:26:21  -303.825626c -5.53  -5.11c
Writing to output.gpw (mode='')

iter:  70 11:38:40  -303.825627c -5.67  -5.08c
iter:  71 11:45:41  -303.825627c -5.76  -5.11c
iter:  72 11:56:47  -303.825627c -5.85  -5.16c
iter:  73 12:08:11  -303.825628c -5.93  -5.18c
iter:  74 12:19:32  -303.825628c -5.90  -5.20c
Writing to output.gpw (mode='')

iter:  75 12:30:16  -303.825628c -6.07  -5.32c
iter:  76 12:37:33  -303.825628c -6.17  -5.26c
iter:  77 12:43:31  -303.825629c -6.22  -5.10c
iter:  78 12:51:40  -303.825629c -6.35  -5.36c
iter:  79 13:00:31  -303.825629c -6.30  -5.28c
Writing to output.gpw (mode='')

iter:  80 13:07:23  -303.825629c -6.45  -5.50c
iter:  81 13:14:23  -303.825629c -6.53  -5.48c
iter:  82 13:21:10  -303.825629c -6.54  -5.37c
iter:  83 13:30:09  -303.825629c -6.62  -5.40c
iter:  84 13:38:52  -303.825629c -6.69  -5.46c
Writing to output.gpw (mode='')

iter:  85 13:45:24  -303.825629c -6.78  -5.26c
iter:  86 13:54:19  -303.825629c -6.65  -5.24c
iter:  87 14:03:15  -303.825629c -6.76  -5.29c
iter:  88 14:12:04  -303.825629c -6.86  -5.39c
iter:  89 14:22:47  -303.825629c -6.92  -5.46c
Writing to output.gpw (mode='')

iter:  90 14:33:31  -303.825629c -6.89  -5.42c
iter:  91 14:43:38  -303.825629c -7.02  -5.52c
iter:  92 14:56:05  -303.825629c -6.91  -5.49c
iter:  93 15:08:02  -303.825629c -7.09  -5.47c
iter:  94 15:19:56  -303.825630c -7.11  -5.45c
Writing to output.gpw (mode='')

iter:  95 15:32:42  -303.825630c -7.19  -5.51c
iter:  96 15:44:11  -303.825630c -7.29  -5.55c
iter:  97 15:53:53  -303.825630c -7.30  -5.71c
iter:  98 16:08:30  -303.825630c -7.36  -5.86c
iter:  99 16:25:03  -303.825630c -7.45c -5.94c

Converged after 99 iterations.

Dipole moment: (4.642212, -3.932595, 0.013594) |e|*Ang

Energy contributions relative to reference atoms: (reference = -14434.854043)

Kinetic:       +163.296284
Potential:     -148.530422
External:        +0.000000
XC:            -319.315109
Entropy (-ST):   -0.177531
Local:           +0.812383
--------------------------
Free energy:   -303.914395
Extrapolated:  -303.825630

Dipole-layer corrected work functions: 3.462036, 3.435904 eV

Showing only first 2 kpts
 Kpt  Band  Eigenvalues  Occupancy
  0    31     -3.61225    1.92646
  0    32     -3.50869    1.53503
  0    33     -3.44734    0.98366
  0    34     -3.21951    0.02012

  1    31     -3.67145    1.97691
  1    32     -3.53840    1.71350
  1    33     -3.47480    1.25269
  1    34     -3.27222    0.05666


Fermi level: -3.44897

No gap
Writing to output.gpw (mode='')


Forces in eV/Ang:
  0 Li    0.01377    0.00135   -0.29568
  1 Li   -0.01449    0.00194   -0.29475
  2 Li    0.00084    0.00093   -0.23869
  3 Li    0.00751    0.00678   -0.28816
  4 Li   -0.00121    0.00828   -0.28593
  5 Li    0.00271    0.01323   -0.27425
  6 Li    0.00334   -0.00881   -0.28535
  7 Li   -0.00683   -0.00865   -0.28773
  8 Li   -0.00284   -0.01368   -0.27345
  9 Li   -0.02193   -0.00133    0.24827
 10 Li    0.01298    0.05294    0.30519
 11 Li    0.03946    0.01100    0.22029
 12 Li   -0.04514   -0.00082    0.20450
 13 Li   -0.02098   -0.03888    0.30191
 14 Li    0.02431    0.00852    0.23535
 15 Li   -0.00981   -0.01685    0.28661
 16 Li    0.00141   -0.01158    0.26917
 17 Li   -0.00021    0.00307    0.28544
 18 Li   -0.52629   -0.04822    0.58868
 19 Li    0.52708    0.01667    0.62555
 20 Li    0.00514   -0.00342    1.21054
 21 Li    0.04361    0.05297   -0.04485
 22 Li   -0.04185    0.03003   -0.01882
 23 Li    0.00059    0.09776   -0.05012
 24 Li    0.03966   -0.03154   -0.01011
 25 Li   -0.02874   -0.05340   -0.03808
 26 Li    0.00512   -0.11445   -0.06178
 27 Li    0.58809   -4.29717    0.00834
 28 Li    0.01601    0.11219    0.08443
 29 Li    0.70941   -3.88776    0.34413
 30 Li   -0.82106    4.17563    0.63168
 31 Li   -0.00548   -0.10364    0.07761
 32 Li   -0.46694    3.99028    0.24483
 33 Li   -0.03352    0.02391    0.01364
 34 Li   -0.00572   -0.00505   -0.03349
 35 Li    0.03086   -0.03234    0.00666
 36 O     0.02247    0.03165    0.09238
 37 C     0.00373    0.04143   -0.09394
 38 C    -0.03012    0.02349   -0.02474
 39 H    -0.01052    0.01024   -0.01374
 40 H     0.00213    0.02556   -0.02019
 41 H    -0.01463   -0.01441    0.00257
 42 H     0.00157    0.00705    0.00119
 43 H     0.00816   -0.00120   -0.00000
 44 H    -0.03333   -0.03105   -0.01920
 45 N    -0.64249    0.03946   -1.67780
 46 N     0.62391   -0.07701   -1.69915

System changes: positions 

Initializing position-dependent things.

Density initialized from wave functions
       .-----------------------.  
      /|                       |  
     / |                       |  
    /  |                       |  
   /   |                       |  
  /    |                       |  
 *     |                       |  
 |     |                       |  
 |     |                       |  
 |     |            H    H     |  
 |     |              H        |  
 |     |            H O        |  
 |     Li      Li  H  C H      |  
 |     |                       |  
 |   Li|     Li      Li        |  
 |     |  Li      Li      Li   |  
 |     |   Li     NLi     Li   |  
 |     |Li      LiLi    LiN    |  
 |     |                       |  
 |   LLi     LLi     LLi       |  
 |     |  Li      Li      Li   |  
 | Li  |   Li      Li          |  
 |     |Li      Li      Li     |  
 Li    | Li      Li            |  
 |    Li      Li      Li       |  
 |     |                       |  
 |     |                       |  
 |     |                       |  
 |     |                       |  
 |     |                       |  
 |     |                       |  
 |     .-----------------------.  
 |    /                       /   
 |   /                       /    
 |  /                       /     
 | /                       /      
 |/                       /       
 *-----------------------*        

Positions:
   0 Li     1.617037    1.617037   10.000000    ( 0.0000,  0.0000,  0.0000)
   1 Li     4.851111    1.617037   10.000000    ( 0.0000,  0.0000,  0.0000)
   2 Li     8.085185    1.617037   10.000000    ( 0.0000,  0.0000,  0.0000)
   3 Li     1.617037    4.851111   10.000000    ( 0.0000,  0.0000,  0.0000)
   4 Li     4.851111    4.851111   10.000000    ( 0.0000,  0.0000,  0.0000)
   5 Li     8.085185    4.851111   10.000000    ( 0.0000,  0.0000,  0.0000)
   6 Li     1.617037    8.085185   10.000000    ( 0.0000,  0.0000,  0.0000)
   7 Li     4.851111    8.085185   10.000000    ( 0.0000,  0.0000,  0.0000)
   8 Li     8.085185    8.085185   10.000000    ( 0.0000,  0.0000,  0.0000)
   9 Li     0.000000    0.000000   11.617037    ( 0.0000,  0.0000,  0.0000)
  10 Li     3.234074    0.000000   11.617037    ( 0.0000,  0.0000,  0.0000)
  11 Li     6.468148    0.000000   11.617037    ( 0.0000,  0.0000,  0.0000)
  12 Li     0.000000    3.234074   11.617037    ( 0.0000,  0.0000,  0.0000)
  13 Li     3.234074    3.234074   11.617037    ( 0.0000,  0.0000,  0.0000)
  14 Li     6.468148    3.234074   11.617037    ( 0.0000,  0.0000,  0.0000)
  15 Li     0.000000    6.468148   11.617037    ( 0.0000,  0.0000,  0.0000)
  16 Li     3.234074    6.468148   11.617037    ( 0.0000,  0.0000,  0.0000)
  17 Li     6.468148    6.468148   11.617037    ( 0.0000,  0.0000,  0.0000)
  18 Li     1.590655    1.593897   13.526542    ( 0.0000,  0.0000,  0.0000)
  19 Li     4.880618    1.669958   13.528776    ( 0.0000,  0.0000,  0.0000)
  20 Li     8.084648    1.619273   13.584369    ( 0.0000,  0.0000,  0.0000)
  21 Li     1.538372    4.787859   13.515060    ( 0.0000,  0.0000,  0.0000)
  22 Li     4.812761    4.878174   13.504146    ( 0.0000,  0.0000,  0.0000)
  23 Li     8.033341    4.829779   13.529774    ( 0.0000,  0.0000,  0.0000)
  24 Li     1.653711    8.046839   13.481860    ( 0.0000,  0.0000,  0.0000)
  25 Li     4.911725    8.142822   13.493955    ( 0.0000,  0.0000,  0.0000)
  26 Li     8.125820    8.098573   13.515762    ( 0.0000,  0.0000,  0.0000)
  27 Li     0.128244   -0.154215   15.486600    ( 0.0000,  0.0000,  0.0000)
  28 Li     3.370139   -0.044474   15.434649    ( 0.0000,  0.0000,  0.0000)
  29 Li     6.707690    0.168783   15.593467    ( 0.0000,  0.0000,  0.0000)
  30 Li    -0.312962    3.018873   15.697549    ( 0.0000,  0.0000,  0.0000)
  31 Li     3.083573    3.280427   15.464237    ( 0.0000,  0.0000,  0.0000)
  32 Li     6.315385    3.374464   15.557142    ( 0.0000,  0.0000,  0.0000)
  33 Li     0.046955    6.350229   15.456589    ( 0.0000,  0.0000,  0.0000)
  34 Li     3.243209    6.476144   15.445157    ( 0.0000,  0.0000,  0.0000)
  35 Li     6.419795    6.598949   15.450577    ( 0.0000,  0.0000,  0.0000)
  36 O      7.890203    2.545986   19.228296    ( 0.0000,  0.0000,  0.0000)
  37 C      8.020060    1.225403   19.776892    ( 0.0000,  0.0000,  0.0000)
  38 C      8.194223    1.224656   21.291531    ( 0.0000,  0.0000,  0.0000)
  39 H      7.158914    0.607421   19.488519    ( 0.0000,  0.0000,  0.0000)
  40 H      8.900136    0.803925   19.287159    ( 0.0000,  0.0000,  0.0000)
  41 H      8.351954    0.205891   21.656269    ( 0.0000,  0.0000,  0.0000)
  42 H      9.054629    1.831592   21.579387    ( 0.0000,  0.0000,  0.0000)
  43 H      7.307644    1.625615   21.791403    ( 0.0000,  0.0000,  0.0000)
  44 H      7.057825    2.920345   19.540565    ( 0.0000,  0.0000,  0.0000)
  45 N      6.504494    1.771515   15.557115    ( 0.0000,  0.0000,  0.0000)
  46 N      9.616691    1.432179   15.573453    ( 0.0000,  0.0000,  0.0000)

Unit cell:
           periodic     x           y           z      points  spacing
  1. axis:    yes    9.702222    0.000000    0.000000    60     0.1617
  2. axis:    yes    0.000000    9.702222    0.000000    60     0.1617
  3. axis:    no     0.000000    0.000000   24.851111   156     0.1593

  Lengths:   9.702222   9.702222  24.851111
  Angles:   90.000000  90.000000  90.000000

Effective grid spacing dv^(1/3) = 0.1609

     iter     time        total  log10-change:
                         energy  eigst   dens
iter:   1 16:38:32  -304.591944  -0.53
iter:   2 16:50:29  -304.529757  -0.96  -1.52
iter:   3 17:03:48  -304.493559  -1.73  -1.76
iter:   4 17:17:04  -304.485662  -1.65  -2.05
Writing to output.gpw (mode='')

iter:   5 17:27:33  -304.484807c -1.97  -2.19
iter:   6 17:38:21  -304.478467c -1.86  -2.22
iter:   7 17:47:21  -304.478233c -2.05  -2.46
iter:   8 17:54:44  -304.477781c -2.62  -2.48
iter:   9 18:03:34  -304.477472c -2.69  -2.58
Writing to output.gpw (mode='')

iter:  10 18:12:38  -304.477422c -3.01  -2.71
iter:  11 18:22:11  -304.477503c -3.18  -2.84
iter:  12 18:32:35  -304.477630c -3.22  -2.97
iter:  13 18:40:15  -304.477574c -3.90  -3.01
iter:  14 18:49:03  -304.477585c -4.14  -3.06
Writing to output.gpw (mode='')

iter:  15 18:56:48  -304.477583c -4.13  -3.06
iter:  16 19:04:39  -304.477610c -4.44  -3.08
iter:  17 19:10:43  -304.477676c -3.95  -3.11
iter:  18 19:18:17  -304.477636c -4.39  -3.18
iter:  19 19:25:18  -304.477658c -4.38  -3.43
Writing to output.gpw (mode='')

iter:  20 19:31:44  -304.477663c -4.65  -3.58
iter:  21 19:38:18  -304.477664c -5.07  -3.68
iter:  22 19:50:24  -304.477662c -4.91  -3.74
iter:  23 20:01:48  -304.477656c -4.97  -3.92
iter:  24 20:15:32  -304.477655c -5.37  -3.97
Writing to output.gpw (mode='')

iter:  25 20:25:43  -304.477652c -5.38  -4.11c
iter:  26 20:37:13  -304.477651c -5.80  -4.23c
iter:  27 20:45:25  -304.477651c -5.84  -4.32c
iter:  28 20:52:53  -304.477653c -6.00  -4.42c
iter:  29 21:03:28  -304.477653c -6.23  -4.63c
Writing to output.gpw (mode='')

iter:  30 21:13:57  -304.477653c -6.28  -4.68c
iter:  31 21:24:36  -304.477654c -6.34  -4.81c
iter:  32 21:33:34  -304.477654c -6.66  -4.97c
iter:  33 21:47:13  -304.477654c -6.78  -5.00c
iter:  34 21:55:20  -304.477654c -6.83  -5.07c
Writing to output.gpw (mode='')

iter:  35 22:05:12  -304.477654c -6.96  -5.13c
iter:  36 22:16:49  -304.477654c -7.01  -5.25c
iter:  37 22:27:28  -304.477654c -7.23  -5.32c
iter:  38 22:35:24  -304.477654c -7.22  -5.36c
iter:  39 22:46:08  -304.477654c -7.38  -5.41c
Writing to output.gpw (mode='')

iter:  40 22:56:04  -304.477654c -7.53c -5.65c

Converged after 40 iterations.

Dipole moment: (4.100207, -3.194605, 0.019146) |e|*Ang

Energy contributions relative to reference atoms: (reference = -14434.854043)

Kinetic:       +158.041610
Potential:     -144.891008
External:        +0.000000
XC:            -318.334298
Entropy (-ST):   -0.176350
Local:           +0.794217
--------------------------
Free energy:   -304.565830
Extrapolated:  -304.477654

Dipole-layer corrected work functions: 3.460193, 3.423388 eV

Showing only first 2 kpts
 Kpt  Band  Eigenvalues  Occupancy
  0    31     -3.61043    1.93369
  0    32     -3.50175    1.53675
  0    33     -3.43544    0.93661
  0    34     -3.20818    0.01853

  1    31     -3.66184    1.97577
  1    32     -3.53103    1.71256
  1    33     -3.46923    1.26773
  1    34     -3.26854    0.06065


Fermi level: -3.44179

No gap

Forces in eV/Ang:
  0 Li    0.01471    0.00113   -0.29622
  1 Li   -0.01537    0.00218   -0.29528
  2 Li    0.00076    0.00105   -0.23974
  3 Li    0.00745    0.00731   -0.28768
  4 Li   -0.00091    0.00880   -0.28586
  5 Li    0.00261    0.01458   -0.27290
  6 Li    0.00310   -0.00934   -0.28510
  7 Li   -0.00687   -0.00909   -0.28738
  8 Li   -0.00278   -0.01504   -0.27222
  9 Li   -0.02196    0.00069    0.25187
 10 Li    0.01320    0.05518    0.30570
 11 Li    0.03936    0.01248    0.22303
 12 Li   -0.04527   -0.00248    0.20723
 13 Li   -0.02088   -0.04137    0.30285
 14 Li    0.02417    0.00647    0.23852
 15 Li   -0.00992   -0.01663    0.28407
 16 Li    0.00144   -0.01164    0.26929
 17 Li   -0.00003    0.00299    0.28292
 18 Li   -0.53572   -0.05154    0.59991
 19 Li    0.53645    0.01913    0.63633
 20 Li    0.00524   -0.00349    1.21514
 21 Li    0.04150    0.05273   -0.04183
 22 Li   -0.04388    0.03288   -0.02193
 23 Li    0.00034    0.10087   -0.05137
 24 Li    0.04339   -0.03577   -0.01497
 25 Li   -0.02752   -0.05373   -0.03614
 26 Li    0.00510   -0.11897   -0.06531
 27 Li    0.45232   -3.35076    0.09541
 28 Li    0.01659    0.11083    0.08288
 29 Li    0.59988   -2.98461    0.34748
 30 Li   -0.67709    3.13518    0.57588
 31 Li   -0.00615   -0.10233    0.07595
 32 Li   -0.35912    3.12482    0.27481
 33 Li   -0.03859    0.02029    0.01158
 34 Li   -0.00578   -0.00478   -0.03092
 35 Li    0.03611   -0.03153    0.00491
 36 O     0.02516    0.04419    0.07309
 37 C    -0.00308    0.03050   -0.05580
 38 C    -0.01350    0.00739   -0.02879
 39 H    -0.00890    0.01264   -0.01821
 40 H     0.00786    0.02340   -0.02543
 41 H    -0.01676   -0.00271   -0.00317
 42 H    -0.00392    0.00417   -0.00162
 43 H     0.00085    0.00250    0.00028
 44 H    -0.03730   -0.02870   -0.01711
 45 N    -0.68668    0.02461   -1.72981
 46 N     0.61972    0.01693   -1.70338

System changes: positions 

Initializing position-dependent things.

Density initialized from wave functions
       .-----------------------.  
      /|                       |  
     / |                       |  
    /  |                       |  
   /   |                       |  
  /    |                       |  
 *     |                       |  
 |     |                       |  
 |     |                       |  
 |     |            H    H     |  
 |     |              H        |  
 |     |            H O        |  
 |     Li      Li  H  C H      |  
 |     |                       |  
 |   Li|     Li      Li        |  
 |     |  Li      LLi     Li   |  
 |     |   Li             Li   |  
 |     |Li      LiLi    LiN    |  
 |     |                       |  
 |   LLi     LLi     LLi       |  
 |     |  Li      Li      Li   |  
 | Li  |   Li      Li          |  
 |     |Li      Li      Li     |  
 Li    | Li      Li            |  
 |    Li      Li      Li       |  
 |     |                       |  
 |     |                       |  
 |     |                       |  
 |     |                       |  
 |     |                       |  
 |     |                       |  
 |     .-----------------------.  
 |    /                       /   
 |   /                       /    
 |  /                       /     
 | /                       /      
 |/                       /       
 *-----------------------*        

Positions:
   0 Li     1.617037    1.617037   10.000000    ( 0.0000,  0.0000,  0.0000)
   1 Li     4.851111    1.617037   10.000000    ( 0.0000,  0.0000,  0.0000)
   2 Li     8.085185    1.617037   10.000000    ( 0.0000,  0.0000,  0.0000)
   3 Li     1.617037    4.851111   10.000000    ( 0.0000,  0.0000,  0.0000)
   4 Li     4.851111    4.851111   10.000000    ( 0.0000,  0.0000,  0.0000)
   5 Li     8.085185    4.851111   10.000000    ( 0.0000,  0.0000,  0.0000)
   6 Li     1.617037    8.085185   10.000000    ( 0.0000,  0.0000,  0.0000)
   7 Li     4.851111    8.085185   10.000000    ( 0.0000,  0.0000,  0.0000)
   8 Li     8.085185    8.085185   10.000000    ( 0.0000,  0.0000,  0.0000)
   9 Li     0.000000    0.000000   11.617037    ( 0.0000,  0.0000,  0.0000)
  10 Li     3.234074    0.000000   11.617037    ( 0.0000,  0.0000,  0.0000)
  11 Li     6.468148    0.000000   11.617037    ( 0.0000,  0.0000,  0.0000)
  12 Li     0.000000    3.234074   11.617037    ( 0.0000,  0.0000,  0.0000)
  13 Li     3.234074    3.234074   11.617037    ( 0.0000,  0.0000,  0.0000)
  14 Li     6.468148    3.234074   11.617037    ( 0.0000,  0.0000,  0.0000)
  15 Li     0.000000    6.468148   11.617037    ( 0.0000,  0.0000,  0.0000)
  16 Li     3.234074    6.468148   11.617037    ( 0.0000,  0.0000,  0.0000)
  17 Li     6.468148    6.468148   11.617037    ( 0.0000,  0.0000,  0.0000)
  18 Li     1.583625    1.593210   13.534417    ( 0.0000,  0.0000,  0.0000)
  19 Li     4.887657    1.670218   13.537124    ( 0.0000,  0.0000,  0.0000)
  20 Li     8.084717    1.619227   13.600241    ( 0.0000,  0.0000,  0.0000)
  21 Li     1.538904    4.788546   13.514527    ( 0.0000,  0.0000,  0.0000)
  22 Li     4.812180    4.878615   13.503847    ( 0.0000,  0.0000,  0.0000)
  23 Li     8.033345    4.831108   13.529098    ( 0.0000,  0.0000,  0.0000)
  24 Li     1.654293    8.046354   13.481643    ( 0.0000,  0.0000,  0.0000)
  25 Li     4.911371    8.142120   13.493492    ( 0.0000,  0.0000,  0.0000)
  26 Li     8.125886    8.097001   13.514895    ( 0.0000,  0.0000,  0.0000)
  27 Li     0.133556   -0.193828   15.488222    ( 0.0000,  0.0000,  0.0000)
  28 Li     3.370358   -0.043034   15.435723    ( 0.0000,  0.0000,  0.0000)
  29 Li     6.715041    0.133760   15.598014    ( 0.0000,  0.0000,  0.0000)
  30 Li    -0.321171    3.055266   15.704820    ( 0.0000,  0.0000,  0.0000)
  31 Li     3.083490    3.279098   15.465221    ( 0.0000,  0.0000,  0.0000)
  32 Li     6.311168    3.411480   15.560857    ( 0.0000,  0.0000,  0.0000)
  33 Li     0.046429    6.350478   15.456731    ( 0.0000,  0.0000,  0.0000)
  34 Li     3.243133    6.476083   15.444764    ( 0.0000,  0.0000,  0.0000)
  35 Li     6.420289    6.598541   15.450634    ( 0.0000,  0.0000,  0.0000)
  36 O      7.890543    2.546617   19.229166    ( 0.0000,  0.0000,  0.0000)
  37 C      8.019990    1.225754   19.776330    ( 0.0000,  0.0000,  0.0000)
  38 C      8.194119    1.224683   21.291138    ( 0.0000,  0.0000,  0.0000)
  39 H      7.158805    0.607597   19.488262    ( 0.0000,  0.0000,  0.0000)
  40 H      8.900264    0.804221   19.286805    ( 0.0000,  0.0000,  0.0000)
  41 H      8.351726    0.205907   21.656203    ( 0.0000,  0.0000,  0.0000)
  42 H      9.054554    1.831634   21.579354    ( 0.0000,  0.0000,  0.0000)
  43 H      7.307623    1.625664   21.791408    ( 0.0000,  0.0000,  0.0000)
  44 H      7.057322    2.919981   19.540351    ( 0.0000,  0.0000,  0.0000)
  45 N      6.495345    1.771772   15.534324    ( 0.0000,  0.0000,  0.0000)
  46 N      9.624758    1.432807   15.551213    ( 0.0000,  0.0000,  0.0000)

Unit cell:
           periodic     x           y           z      points  spacing
  1. axis:    yes    9.702222    0.000000    0.000000    60     0.1617
  2. axis:    yes    0.000000    9.702222    0.000000    60     0.1617
  3. axis:    no     0.000000    0.000000   24.851111   156     0.1593

  Lengths:   9.702222   9.702222  24.851111
  Angles:   90.000000  90.000000  90.000000

Effective grid spacing dv^(1/3) = 0.1609

     iter     time        total  log10-change:
                         energy  eigst   dens
iter:   1 23:05:58  -305.144832  -0.55
iter:   2 23:12:10  -305.078931  -1.03  -1.53
iter:   3 23:16:20  -305.049058  -1.76  -1.79
iter:   4 23:23:34  -305.042215  -1.59  -2.04
Writing to output.gpw (mode='')

iter:   5 23:29:55  -305.040228c -2.02  -2.16
iter:   6 23:35:51  -305.032735c -1.85  -2.21
iter:   7 23:42:33  -305.032983c -1.92  -2.48
iter:   8 23:49:48  -305.032607c -2.54  -2.46
iter:   9 23:55:23  -305.031867c -2.70  -2.53
Writing to output.gpw (mode='')

iter:  10 00:01:30  -305.031864c -3.14  -2.71
iter:  11 00:07:57  -305.031898c -3.23  -2.81
iter:  12 00:14:03  -305.031892c -3.53  -2.94
iter:  13 00:20:06  -305.031919c -3.71  -3.00
iter:  14 00:24:48  -305.032066c -3.76  -3.01
Writing to output.gpw (mode='')

iter:  15 00:31:22  -305.032053c -4.15  -3.21
iter:  16 00:35:59  -305.032055c -4.32  -3.33
iter:  17 00:41:44  -305.032042c -4.29  -3.40
iter:  18 00:46:57  -305.032034c -4.43  -3.52
iter:  19 00:51:53  -305.032029c -4.79  -3.68
Writing to output.gpw (mode='')

iter:  20 00:59:15  -305.032027c -4.96  -3.82
iter:  21 01:09:21  -305.032020c -5.10  -3.95
iter:  22 01:18:24  -305.032019c -5.23  -4.07c
iter:  23 01:30:56  -305.032018c -5.57  -4.17c
iter:  24 01:39:32  -305.032019c -5.65  -4.30c
Writing to output.gpw (mode='')

iter:  25 01:43:43  -305.032020c -5.78  -4.40c
iter:  26 01:48:55  -305.032020c -5.99  -4.53c
iter:  27 01:52:25  -305.032020c -6.14  -4.60c
iter:  28 01:58:11  -305.032021c -6.10  -4.71c
iter:  29 02:06:42  -305.032022c -6.43  -4.85c
Writing to output.gpw (mode='')

iter:  30 02:15:38  -305.032022c -6.48  -4.91c
iter:  31 02:27:13  -305.032022c -6.66  -5.02c
iter:  32 02:34:53  -305.032023c -6.77  -5.05c
iter:  33 02:40:18  -305.032022c -6.87  -5.16c
iter:  34 02:48:55  -305.032023c -6.78  -5.23c
Writing to output.gpw (mode='')

iter:  35 02:59:38  -305.032023c -7.15  -5.35c
iter:  36 03:08:27  -305.032022c -7.22  -5.40c
iter:  37 03:16:42  -305.032022c -7.25  -5.49c
iter:  38 03:27:03  -305.032022c -7.51c -5.54c

Converged after 38 iterations.

Dipole moment: (3.322884, -2.470897, 0.028563) |e|*Ang

Energy contributions relative to reference atoms: (reference = -14434.854043)

Kinetic:       +153.309184
Potential:     -141.587402
External:        +0.000000
XC:            -317.447048
Entropy (-ST):   -0.175488
Local:           +0.780987
--------------------------
Free energy:   -305.119766
Extrapolated:  -305.032022

Dipole-layer corrected work functions: 3.457645, 3.402737 eV

Showing only first 2 kpts
 Kpt  Band  Eigenvalues  Occupancy
  0    31     -3.60413    1.94015
  0    32     -3.48880    1.52711
  0    33     -3.41750    0.87378
  0    34     -3.19018    0.01632

  1    31     -3.65130    1.97627
  1    32     -3.51947    1.71278
  1    33     -3.45948    1.28476
  1    34     -3.26038    0.06483


Fermi level: -3.43019

No gap
Writing to output.gpw (mode='')


Forces in eV/Ang:
  0 Li    0.01569    0.00092   -0.29702
  1 Li   -0.01634    0.00238   -0.29610
  2 Li    0.00073    0.00115   -0.24155
  3 Li    0.00745    0.00789   -0.28737
  4 Li   -0.00065    0.00934   -0.28564
  5 Li    0.00253    0.01605   -0.27136
  6 Li    0.00288   -0.00987   -0.28471
  7 Li   -0.00696   -0.00957   -0.28715
  8 Li   -0.00273   -0.01651   -0.27084
  9 Li   -0.02243    0.00316    0.25594
 10 Li    0.01337    0.05874    0.30751
 11 Li    0.03991    0.01461    0.22658
 12 Li   -0.04590   -0.00475    0.21066
 13 Li   -0.02088   -0.04524    0.30518
 14 Li    0.02445    0.00378    0.24247
 15 Li   -0.01007   -0.01661    0.28131
 16 Li    0.00151   -0.01169    0.26917
 17 Li    0.00018    0.00305    0.28020
 18 Li   -0.54989   -0.05491    0.61571
 19 Li    0.55087    0.02210    0.65224
 20 Li    0.00521   -0.00328    1.21785
 21 Li    0.03909    0.05226   -0.03820
 22 Li   -0.04519    0.03509   -0.02393
 23 Li   -0.00022    0.10332   -0.05152
 24 Li    0.04650   -0.03961   -0.01887
 25 Li   -0.02599   -0.05375   -0.03340
 26 Li    0.00551   -0.12315   -0.06767
 27 Li    0.33677   -2.51876    0.16901
 28 Li    0.01767    0.10869    0.07974
 29 Li    0.50188   -2.20547    0.34653
 30 Li   -0.55636    2.29376    0.52623
 31 Li   -0.00669   -0.10034    0.07277
 32 Li   -0.26694    2.36897    0.29857
 33 Li   -0.04430    0.01607    0.00960
 34 Li   -0.00580   -0.00439   -0.02832
 35 Li    0.04197   -0.03021    0.00323
 36 O     0.02182    0.04823    0.06062
 37 C     0.00278    0.02097   -0.03890
 38 C    -0.01252    0.00612   -0.02202
 39 H    -0.00799    0.01560   -0.02131
 40 H     0.00514    0.02402   -0.02500
 41 H    -0.01661   -0.00038   -0.00626
 42 H    -0.00653    0.00175   -0.00446
 43 H     0.00264    0.00165   -0.00405
 44 H    -0.03684   -0.02574   -0.01714
 45 N    -0.66711    0.00737   -1.76534
 46 N     0.63703    0.03515   -1.74292

System changes: positions 

Initializing position-dependent things.

Density initialized from wave functions
       .-----------------------.  
      /|                       |  
     / |                       |  
    /  |                       |  
   /   |                       |  
  /    |                       |  
 *     |                       |  
 |     |                       |  
 |     |                       |  
 |     |            H    H     |  
 |     |              H        |  
 |     |            H O        |  
 |     Li      Li  H  C H      |  
 |     |                       |  
 |   Li|     Li      Li        |  
 |     |  Li      LLi     Li   |  
 |     |   Li                  |  
 |     |Li      LiLi    LiN    |  
 |     |                       |  
 |   LLi     LLi     LLi       |  
 |     |  Li      Li      Li   |  
 | Li  |   Li      Li          |  
 |     |Li      Li      Li     |  
 Li    | Li      Li            |  
 |    Li      Li      Li       |  
 |     |                       |  
 |     |                       |  
 |     |                       |  
 |     |                       |  
 |     |                       |  
 |     |                       |  
 |     .-----------------------.  
 |    /                       /   
 |   /                       /    
 |  /                       /     
 | /                       /      
 |/                       /       
 *-----------------------*        

Positions:
   0 Li     1.617037    1.617037   10.000000    ( 0.0000,  0.0000,  0.0000)
   1 Li     4.851111    1.617037   10.000000    ( 0.0000,  0.0000,  0.0000)
   2 Li     8.085185    1.617037   10.000000    ( 0.0000,  0.0000,  0.0000)
   3 Li     1.617037    4.851111   10.000000    ( 0.0000,  0.0000,  0.0000)
   4 Li     4.851111    4.851111   10.000000    ( 0.0000,  0.0000,  0.0000)
   5 Li     8.085185    4.851111   10.000000    ( 0.0000,  0.0000,  0.0000)
   6 Li     1.617037    8.085185   10.000000    ( 0.0000,  0.0000,  0.0000)
   7 Li     4.851111    8.085185   10.000000    ( 0.0000,  0.0000,  0.0000)
   8 Li     8.085185    8.085185   10.000000    ( 0.0000,  0.0000,  0.0000)
   9 Li     0.000000    0.000000   11.617037    ( 0.0000,  0.0000,  0.0000)
  10 Li     3.234074    0.000000   11.617037    ( 0.0000,  0.0000,  0.0000)
  11 Li     6.468148    0.000000   11.617037    ( 0.0000,  0.0000,  0.0000)
  12 Li     0.000000    3.234074   11.617037    ( 0.0000,  0.0000,  0.0000)
  13 Li     3.234074    3.234074   11.617037    ( 0.0000,  0.0000,  0.0000)
  14 Li     6.468148    3.234074   11.617037    ( 0.0000,  0.0000,  0.0000)
  15 Li     0.000000    6.468148   11.617037    ( 0.0000,  0.0000,  0.0000)
  16 Li     3.234074    6.468148   11.617037    ( 0.0000,  0.0000,  0.0000)
  17 Li     6.468148    6.468148   11.617037    ( 0.0000,  0.0000,  0.0000)
  18 Li     1.574158    1.592255   13.545020    ( 0.0000,  0.0000,  0.0000)
  19 Li     4.897141    1.670607   13.548352    ( 0.0000,  0.0000,  0.0000)
  20 Li     8.084807    1.619170   13.621142    ( 0.0000,  0.0000,  0.0000)
  21 Li     1.539566    4.789441   13.513884    ( 0.0000,  0.0000,  0.0000)
  22 Li     4.811397    4.879228   13.503425    ( 0.0000,  0.0000,  0.0000)
  23 Li     8.033340    4.832892   13.528210    ( 0.0000,  0.0000,  0.0000)
  24 Li     1.655105    8.045658   13.481301    ( 0.0000,  0.0000,  0.0000)
  25 Li     4.910930    8.141197   13.492927    ( 0.0000,  0.0000,  0.0000)
  26 Li     8.125981    8.094872   13.513721    ( 0.0000,  0.0000,  0.0000)
  27 Li     0.138806   -0.233350   15.491457    ( 0.0000,  0.0000,  0.0000)
  28 Li     3.370663   -0.041176   15.437084    ( 0.0000,  0.0000,  0.0000)
  29 Li     6.723223    0.099438   15.603968    ( 0.0000,  0.0000,  0.0000)
  30 Li    -0.330155    3.090586   15.713627    ( 0.0000,  0.0000,  0.0000)
  31 Li     3.083373    3.277382   15.466462    ( 0.0000,  0.0000,  0.0000)
  32 Li     6.307008    3.448748   15.566093    ( 0.0000,  0.0000,  0.0000)
  33 Li     0.045650    6.350739   15.456888    ( 0.0000,  0.0000,  0.0000)
  34 Li     3.243034    6.476009   15.444289    ( 0.0000,  0.0000,  0.0000)
  35 Li     6.421029    6.598026   15.450682    ( 0.0000,  0.0000,  0.0000)
  36 O      7.890926    2.547491   19.230132    ( 0.0000,  0.0000,  0.0000)
  37 C      8.020015    1.226071   19.775806    ( 0.0000,  0.0000,  0.0000)
  38 C      8.193965    1.224729   21.290748    ( 0.0000,  0.0000,  0.0000)
  39 H      7.158675    0.607874   19.487879    ( 0.0000,  0.0000,  0.0000)
  40 H      8.900372    0.804625   19.286357    ( 0.0000,  0.0000,  0.0000)
  41 H      8.351434    0.205943   21.656074    ( 0.0000,  0.0000,  0.0000)
  42 H      9.054421    1.831653   21.579266    ( 0.0000,  0.0000,  0.0000)
  43 H      7.307642    1.625705   21.791338    ( 0.0000,  0.0000,  0.0000)
  44 H      7.056676    2.919549   19.540065    ( 0.0000,  0.0000,  0.0000)
  45 N      6.483751    1.771839   15.503853    ( 0.0000,  0.0000,  0.0000)
  46 N      9.635671    1.433756   15.521298    ( 0.0000,  0.0000,  0.0000)

Unit cell:
           periodic     x           y           z      points  spacing
  1. axis:    yes    9.702222    0.000000    0.000000    60     0.1617
  2. axis:    yes    0.000000    9.702222    0.000000    60     0.1617
  3. axis:    no     0.000000    0.000000   24.851111   156     0.1593

  Lengths:   9.702222   9.702222  24.851111
  Angles:   90.000000  90.000000  90.000000

Effective grid spacing dv^(1/3) = 0.1609

     iter     time        total  log10-change:
                         energy  eigst   dens
iter:   1 03:36:04  -305.633253  -0.54
iter:   2 03:46:06  -305.564337  -1.06  -1.53
iter:   3 03:54:42  -305.537546  -1.76  -1.80
iter:   4 04:05:50  -305.529932  -1.55  -2.03
Writing to output.gpw (mode='')

iter:   5 04:16:59  -305.526661c -2.04  -2.15
iter:   6 04:27:24  -305.519248c -1.76  -2.22
iter:   7 04:35:33  -305.519923c -1.88  -2.45
iter:   8 04:42:31  -305.519301c -2.54  -2.43
iter:   9 04:52:25  -305.518396c -2.69  -2.53
Writing to output.gpw (mode='')

iter:  10 05:02:10  -305.518416c -3.09  -2.71
iter:  11 05:11:10  -305.518423c -3.27  -2.78
iter:  12 05:20:02  -305.518414c -3.51  -2.96
iter:  13 05:29:00  -305.518430c -3.60  -3.04
iter:  14 05:37:59  -305.518540c -3.80  -3.11
Writing to output.gpw (mode='')

iter:  15 05:45:44  -305.518540c -4.13  -3.29
iter:  16 05:51:27  -305.518544c -4.34  -3.36
iter:  17 05:59:11  -305.518534c -4.22  -3.42
iter:  18 06:08:05  -305.518538c -4.67  -3.62
iter:  19 06:15:39  -305.518538c -4.91  -3.65
Writing to output.gpw (mode='')

iter:  20 06:21:37  -305.518531c -5.06  -3.75
iter:  21 06:26:26  -305.518529c -5.26  -3.86
iter:  22 06:32:32  -305.518527c -5.38  -3.89
iter:  23 06:42:00  -305.518520c -5.48  -3.92
iter:  24 06:50:26  -305.518518c -5.75  -4.17c
Writing to output.gpw (mode='')

iter:  25 06:59:43  -305.518517c -5.57  -4.32c
iter:  26 07:09:39  -305.518518c -5.90  -4.66c
iter:  27 07:18:05  -305.518518c -6.13  -4.68c
iter:  28 07:23:51  -305.518518c -6.10  -4.70c
iter:  29 07:28:23  -305.518519c -6.16  -4.86c
Writing to output.gpw (mode='')

iter:  30 07:33:18  -305.518519c -6.42  -4.92c
iter:  31 07:39:00  -305.518520c -6.53  -5.05c
iter:  32 07:44:48  -305.518520c -6.66  -5.13c
iter:  33 07:50:33  -305.518520c -6.74  -5.23c
iter:  34 07:54:07  -305.518520c -6.90  -5.37c
Writing to output.gpw (mode='')

iter:  35 07:59:27  -305.518520c -7.08  -5.39c
iter:  36 08:04:04  -305.518520c -7.00  -5.42c
iter:  37 08:08:16  -305.518520c -7.26  -5.56c
iter:  38 08:14:29  -305.518520c -7.36  -5.68c
iter:  39 08:19:05  -305.518520c -7.38  -5.89c
Writing to output.gpw (mode='')

iter:  40 08:25:37  -305.518520c -7.61c -5.91c

Converged after 40 iterations.

Dipole moment: (2.238867, -1.781133, 0.041529) |e|*Ang

Energy contributions relative to reference atoms: (reference = -14434.854043)

Kinetic:       +149.022724
Potential:     -138.574925
External:        +0.000000
XC:            -316.650512
Entropy (-ST):   -0.174711
Local:           +0.771548
--------------------------
Free energy:   -305.605876
Extrapolated:  -305.518520

Dipole-layer corrected work functions: 3.454058, 3.374226 eV

Showing only first 2 kpts
 Kpt  Band  Eigenvalues  Occupancy
  0    31     -3.59325    1.94587
  0    32     -3.47012    1.50783
  0    33     -3.39302    0.79186
  0    34     -3.16584    0.01384

  1    31     -3.63989    1.97835
  1    32     -3.50385    1.71487
  1    33     -3.44515    1.30051
  1    34     -3.24762    0.06909


Fermi level: -3.41414

No gap

Forces in eV/Ang:
  0 Li    0.01680    0.00073   -0.29808
  1 Li   -0.01746    0.00256   -0.29719
  2 Li    0.00072    0.00126   -0.24437
  3 Li    0.00752    0.00856   -0.28716
  4 Li   -0.00043    0.00992   -0.28525
  5 Li    0.00247    0.01770   -0.26950
  6 Li    0.00267   -0.01043   -0.28413
  7 Li   -0.00711   -0.01015   -0.28699
  8 Li   -0.00267   -0.01815   -0.26913
  9 Li   -0.02313    0.00613    0.26090
 10 Li    0.01357    0.06352    0.31049
 11 Li    0.04085    0.01739    0.23114
 12 Li   -0.04682   -0.00764    0.21500
 13 Li   -0.02092   -0.05043    0.30884
 14 Li    0.02495    0.00047    0.24749
 15 Li   -0.01026   -0.01686    0.27829
 16 Li    0.00159   -0.01171    0.26889
 17 Li    0.00043    0.00329    0.27723
 18 Li   -0.56897   -0.05856    0.63600
 19 Li    0.56972    0.02553    0.67163
 20 Li    0.00515   -0.00305    1.21608
 21 Li    0.03632    0.05166   -0.03389
 22 Li   -0.04569    0.03672   -0.02485
 23 Li   -0.00118    0.10514   -0.05042
 24 Li    0.04881   -0.04290   -0.02171
 25 Li   -0.02410   -0.05354   -0.02985
 26 Li    0.00637   -0.12673   -0.06862
 27 Li    0.24238   -1.80281    0.22201
 28 Li    0.01872    0.10564    0.07487
 29 Li    0.40975   -1.53280    0.33396
 30 Li   -0.44503    1.57227    0.47154
 31 Li   -0.00741   -0.09750    0.06788
 32 Li   -0.19150    1.69996    0.31167
 33 Li   -0.05065    0.01121    0.00772
 34 Li   -0.00575   -0.00400   -0.02565
 35 Li    0.04840   -0.02836    0.00171
 36 O     0.01949    0.04657    0.04804
 37 C     0.00271    0.01643   -0.02407
 38 C    -0.00874    0.00276   -0.01746
 39 H    -0.00529    0.01923   -0.02369
 40 H     0.00479    0.02334   -0.02463
 41 H    -0.01623    0.00133   -0.00868
 42 H    -0.00810   -0.00000   -0.00658
 43 H     0.00154    0.00207   -0.00717
 44 H    -0.03657   -0.02181   -0.01687
 45 N    -0.67559   -0.01589   -1.77504
 46 N     0.67244    0.07676   -1.79575

System changes: positions 

Initializing position-dependent things.

Density initialized from wave functions
       .-----------------------.  
      /|                       |  
     / |                       |  
    /  |                       |  
   /   |                       |  
  /    |                       |  
 *     |                       |  
 |     |                       |  
 |     |                       |  
 |     |            H    H     |  
 |     |              H        |  
 |     |            H O        |  
 |     Li      Li  H  C H      |  
 |     |                       |  
 |   Li|     Li      Li        |  
 |     |  Li      LLi     Li   |  
 |     |   Li                  |  
 |     |Li      LiLi    LiN    |  
 |     |                       |  
 |   LLi     LLi     LLi       |  
 |     |  Li      Li      Li   |  
 | Li  |   Li      Li          |  
 |     |Li      Li      Li     |  
 Li    | Li      Li            |  
 |    Li      Li      Li       |  
 |     |                       |  
 |     |                       |  
 |     |                       |  
 |     |                       |  
 |     |                       |  
 |     |                       |  
 |     .-----------------------.  
 |    /                       /   
 |   /                       /    
 |  /                       /     
 | /                       /      
 |/                       /       
 *-----------------------*        

Positions:
   0 Li     1.617037    1.617037   10.000000    ( 0.0000,  0.0000,  0.0000)
   1 Li     4.851111    1.617037   10.000000    ( 0.0000,  0.0000,  0.0000)
   2 Li     8.085185    1.617037   10.000000    ( 0.0000,  0.0000,  0.0000)
   3 Li     1.617037    4.851111   10.000000    ( 0.0000,  0.0000,  0.0000)
   4 Li     4.851111    4.851111   10.000000    ( 0.0000,  0.0000,  0.0000)
   5 Li     8.085185    4.851111   10.000000    ( 0.0000,  0.0000,  0.0000)
   6 Li     1.617037    8.085185   10.000000    ( 0.0000,  0.0000,  0.0000)
   7 Li     4.851111    8.085185   10.000000    ( 0.0000,  0.0000,  0.0000)
   8 Li     8.085185    8.085185   10.000000    ( 0.0000,  0.0000,  0.0000)
   9 Li     0.000000    0.000000   11.617037    ( 0.0000,  0.0000,  0.0000)
  10 Li     3.234074    0.000000   11.617037    ( 0.0000,  0.0000,  0.0000)
  11 Li     6.468148    0.000000   11.617037    ( 0.0000,  0.0000,  0.0000)
  12 Li     0.000000    3.234074   11.617037    ( 0.0000,  0.0000,  0.0000)
  13 Li     3.234074    3.234074   11.617037    ( 0.0000,  0.0000,  0.0000)
  14 Li     6.468148    3.234074   11.617037    ( 0.0000,  0.0000,  0.0000)
  15 Li     0.000000    6.468148   11.617037    ( 0.0000,  0.0000,  0.0000)
  16 Li     3.234074    6.468148   11.617037    ( 0.0000,  0.0000,  0.0000)
  17 Li     6.468148    6.468148   11.617037    ( 0.0000,  0.0000,  0.0000)
  18 Li     1.562279    1.591034   13.558305    ( 0.0000,  0.0000,  0.0000)
  19 Li     4.909036    1.671134   13.562387    ( 0.0000,  0.0000,  0.0000)
  20 Li     8.084915    1.619105   13.646680    ( 0.0000,  0.0000,  0.0000)
  21 Li     1.540335    4.790527   13.513161    ( 0.0000,  0.0000,  0.0000)
  22 Li     4.810435    4.879998   13.502899    ( 0.0000,  0.0000,  0.0000)
  23 Li     8.033319    4.835098   13.527144    ( 0.0000,  0.0000,  0.0000)
  24 Li     1.656128    8.044762   13.480846    ( 0.0000,  0.0000,  0.0000)
  25 Li     4.910419    8.140072   13.492290    ( 0.0000,  0.0000,  0.0000)
  26 Li     8.126111    8.092217   13.512276    ( 0.0000,  0.0000,  0.0000)
  27 Li     0.143975   -0.272016   15.496094    ( 0.0000,  0.0000,  0.0000)
  28 Li     3.371053   -0.038949   15.438673    ( 0.0000,  0.0000,  0.0000)
  29 Li     6.731957    0.066529   15.611038    ( 0.0000,  0.0000,  0.0000)
  30 Li    -0.339627    3.124179   15.723623    ( 0.0000,  0.0000,  0.0000)
  31 Li     3.083218    3.275327   15.467904    ( 0.0000,  0.0000,  0.0000)
  32 Li     6.302921    3.485240   15.572648    ( 0.0000,  0.0000,  0.0000)
  33 Li     0.044602    6.350987   15.457053    ( 0.0000,  0.0000,  0.0000)
  34 Li     3.242913    6.475924   15.443745    ( 0.0000,  0.0000,  0.0000)
  35 Li     6.422029    6.597425   15.450721    ( 0.0000,  0.0000,  0.0000)
  36 O      7.891355    2.548507   19.231146    ( 0.0000,  0.0000,  0.0000)
  37 C      8.020049    1.226410   19.775336    ( 0.0000,  0.0000,  0.0000)
  38 C      8.193812    1.224756   21.290347    ( 0.0000,  0.0000,  0.0000)
  39 H      7.158557    0.608267   19.487381    ( 0.0000,  0.0000,  0.0000)
  40 H      8.900492    0.805111   19.285824    ( 0.0000,  0.0000,  0.0000)
  41 H      8.351085    0.205995   21.655888    ( 0.0000,  0.0000,  0.0000)
  42 H      9.054244    1.831653   21.579131    ( 0.0000,  0.0000,  0.0000)
  43 H      7.307657    1.625758   21.791204    ( 0.0000,  0.0000,  0.0000)
  44 H      7.055896    2.919080   19.539716    ( 0.0000,  0.0000,  0.0000)
  45 N      6.469470    1.771571   15.466521    ( 0.0000,  0.0000,  0.0000)
  46 N      9.649614    1.435449   15.483845    ( 0.0000,  0.0000,  0.0000)

Unit cell:
           periodic     x           y           z      points  spacing
  1. axis:    yes    9.702222    0.000000    0.000000    60     0.1617
  2. axis:    yes    0.000000    9.702222    0.000000    60     0.1617
  3. axis:    no     0.000000    0.000000   24.851111   156     0.1593

  Lengths:   9.702222   9.702222  24.851111
  Angles:   90.000000  90.000000  90.000000

Effective grid spacing dv^(1/3) = 0.1609

     iter     time        total  log10-change:
                         energy  eigst   dens
iter:   1 08:30:34  -306.057780  -0.53
iter:   2 08:36:09  -305.991032  -1.08  -1.55
iter:   3 08:39:59  -305.967741  -1.75  -1.81
iter:   4 08:44:22  -305.958741c -1.53  -2.02
Writing to output.gpw (mode='')

iter:   5 08:47:58  -305.954016c -2.07  -2.15
iter:   6 08:53:10  -305.948054c -1.65  -2.25
iter:   7 09:00:42  -305.948570c -1.97  -2.42
iter:   8 09:04:51  -305.947581c -2.60  -2.43
iter:   9 09:08:08  -305.946882c -2.69  -2.56
Writing to output.gpw (mode='')

iter:  10 09:11:27  -305.946907c -3.09  -2.71
iter:  11 09:14:58  -305.946885c -3.30  -2.75
iter:  12 09:21:48  -305.946921c -3.09  -2.96
iter:  13 09:29:41  -305.946908c -3.91  -3.07
iter:  14 09:36:03  -305.946917c -4.03  -3.15
Writing to output.gpw (mode='')

iter:  15 09:43:57  -305.946974c -3.96  -3.24
iter:  16 09:48:42  -305.946997c -4.12  -3.26
iter:  17 09:53:56  -305.946991c -4.60  -3.30
iter:  18 09:58:53  -305.946970c -4.11  -3.39
iter:  19 10:05:52  -305.946954c -4.80  -3.51
Writing to output.gpw (mode='')

iter:  20 10:13:26  -305.946953c -4.81  -3.79
iter:  21 10:19:26  -305.946952c -5.18  -3.89
iter:  22 10:23:51  -305.946946c -5.04  -3.95
iter:  23 10:29:35  -305.946945c -5.29  -4.09c
iter:  24 10:36:47  -305.946945c -5.56  -4.18c
Writing to output.gpw (mode='')

iter:  25 10:40:47  -305.946946c -5.76  -4.27c
iter:  26 10:44:59  -305.946947c -5.93  -4.29c
iter:  27 10:50:25  -305.946952c -5.95  -4.36c
iter:  28 10:57:02  -305.946951c -6.24  -4.61c
iter:  29 11:00:49  -305.946952c -6.35  -4.69c
Writing to output.gpw (mode='')

iter:  30 11:05:37  -305.946953c -6.37  -4.79c
iter:  31 11:10:30  -305.946953c -6.45  -4.86c
iter:  32 11:16:05  -305.946952c -6.63  -4.92c
iter:  33 11:22:17  -305.946952c -6.92  -5.08c
iter:  34 11:27:25  -305.946952c -6.94  -5.19c
Writing to output.gpw (mode='')

iter:  35 11:33:51  -305.946952c -7.00  -5.31c
iter:  36 11:37:27  -305.946952c -6.85  -5.34c
iter:  37 11:42:48  -305.946952c -7.16  -5.42c
iter:  38 11:48:47  -305.946952c -7.14  -5.45c
iter:  39 11:55:22  -305.946952c -7.39  -5.57c
Writing to output.gpw (mode='')

iter:  40 11:59:13  -305.946952c -7.50c -5.66c

Converged after 40 iterations.

Dipole moment: (0.810796, -1.154755, 0.057215) |e|*Ang

Energy contributions relative to reference atoms: (reference = -14434.854043)

Kinetic:       +145.217752
Potential:     -135.883610
External:        +0.000000
XC:            -315.959418
Entropy (-ST):   -0.173889
Local:           +0.765269
--------------------------
Free energy:   -306.033897
Extrapolated:  -305.946952

Dipole-layer corrected work functions: 3.449220, 3.339234 eV

Showing only first 2 kpts
 Kpt  Band  Eigenvalues  Occupancy
  0    31     -3.57799    1.95057
  0    32     -3.44671    1.48140
  0    33     -3.36237    0.69176
  0    34     -3.13719    0.01164

  1    31     -3.62787    1.98148
  1    32     -3.48485    1.71929
  1    33     -3.42638    1.31087
  1    34     -3.23069    0.07318


Fermi level: -3.39423

No gap

Forces in eV/Ang:
  0 Li    0.01806    0.00056   -0.29936
  1 Li   -0.01873    0.00269   -0.29851
  2 Li    0.00070    0.00136   -0.24839
  3 Li    0.00765    0.00938   -0.28699
  4 Li   -0.00024    0.01055   -0.28471
  5 Li    0.00241    0.01953   -0.26723
  6 Li    0.00247   -0.01103   -0.28337
  7 Li   -0.00730   -0.01089   -0.28688
  8 Li   -0.00259   -0.01995   -0.26703
  9 Li   -0.02381    0.00950    0.26688
 10 Li    0.01378    0.06929    0.31447
 11 Li    0.04190    0.02073    0.23676
 12 Li   -0.04779   -0.01108    0.22041
 13 Li   -0.02096   -0.05669    0.31362
 14 Li    0.02536   -0.00329    0.25360
 15 Li   -0.01046   -0.01744    0.27502
 16 Li    0.00168   -0.01172    0.26856
 17 Li    0.00072    0.00374    0.27406
 18 Li   -0.59204   -0.06226    0.65939
 19 Li    0.59136    0.02932    0.69264
 20 Li    0.00523   -0.00245    1.20726
 21 Li    0.03323    0.05096   -0.02900
 22 Li   -0.04528    0.03781   -0.02471
 23 Li   -0.00247    0.10643   -0.04814
 24 Li    0.05022   -0.04571   -0.02348
 25 Li   -0.02188   -0.05312   -0.02562
 26 Li    0.00761   -0.12978   -0.06820
 27 Li    0.16767   -1.18707    0.25310
 28 Li    0.01995    0.10180    0.06825
 29 Li    0.32173   -0.96321    0.30794
 30 Li   -0.34262    0.96805    0.41019
 31 Li   -0.00843   -0.09393    0.06130
 32 Li   -0.13327    1.12091    0.30649
 33 Li   -0.05743    0.00575    0.00615
 34 Li   -0.00570   -0.00359   -0.02295
 35 Li    0.05525   -0.02600    0.00057
 36 O     0.01430    0.04304    0.03589
 37 C     0.00368    0.01289   -0.01277
 38 C    -0.00622    0.00027   -0.01335
 39 H    -0.00276    0.02245   -0.02558
 40 H     0.00368    0.02258   -0.02287
 41 H    -0.01542    0.00162   -0.01045
 42 H    -0.00852   -0.00122   -0.00814
 43 H     0.00028    0.00248   -0.01009
 44 H    -0.03381   -0.01785   -0.01742
 45 N    -0.71853   -0.01575   -1.74645
 46 N     0.66812    0.11123   -1.78433

System changes: positions 

Initializing position-dependent things.

Density initialized from wave functions
       .-----------------------.  
      /|                       |  
     / |                       |  
    /  |                       |  
   /   |                       |  
  /    |                       |  
 *     |                       |  
 |     |                       |  
 |     |                       |  
 |     |            H    H     |  
 |     |              H        |  
 |     |            H O        |  
 |     Li      Li  H  C H      |  
 |     |                       |  
 |   Li|     Li      Li        |  
 |     |  Li      LLi     Li   |  
 |     |   Li                  |  
 |     |Li      LiLi    LiN    |  
 |     |                       |  
 |   LLi     LLi     LLi       |  
 |     |  Li      Li      Li   |  
 | Li  |   Li      Li          |  
 |     |Li      Li      Li     |  
 Li    | Li      Li            |  
 |    Li      Li      Li       |  
 |     |                       |  
 |     |                       |  
 |     |                       |  
 |     |                       |  
 |     |                       |  
 |     |                       |  
 |     .-----------------------.  
 |    /                       /   
 |   /                       /    
 |  /                       /     
 | /                       /      
 |/                       /       
 *-----------------------*        

Positions:
   0 Li     1.617037    1.617037   10.000000    ( 0.0000,  0.0000,  0.0000)
   1 Li     4.851111    1.617037   10.000000    ( 0.0000,  0.0000,  0.0000)
   2 Li     8.085185    1.617037   10.000000    ( 0.0000,  0.0000,  0.0000)
   3 Li     1.617037    4.851111   10.000000    ( 0.0000,  0.0000,  0.0000)
   4 Li     4.851111    4.851111   10.000000    ( 0.0000,  0.0000,  0.0000)
   5 Li     8.085185    4.851111   10.000000    ( 0.0000,  0.0000,  0.0000)
   6 Li     1.617037    8.085185   10.000000    ( 0.0000,  0.0000,  0.0000)
   7 Li     4.851111    8.085185   10.000000    ( 0.0000,  0.0000,  0.0000)
   8 Li     8.085185    8.085185   10.000000    ( 0.0000,  0.0000,  0.0000)
   9 Li     0.000000    0.000000   11.617037    ( 0.0000,  0.0000,  0.0000)
  10 Li     3.234074    0.000000   11.617037    ( 0.0000,  0.0000,  0.0000)
  11 Li     6.468148    0.000000   11.617037    ( 0.0000,  0.0000,  0.0000)
  12 Li     0.000000    3.234074   11.617037    ( 0.0000,  0.0000,  0.0000)
  13 Li     3.234074    3.234074   11.617037    ( 0.0000,  0.0000,  0.0000)
  14 Li     6.468148    3.234074   11.617037    ( 0.0000,  0.0000,  0.0000)
  15 Li     0.000000    6.468148   11.617037    ( 0.0000,  0.0000,  0.0000)
  16 Li     3.234074    6.468148   11.617037    ( 0.0000,  0.0000,  0.0000)
  17 Li     6.468148    6.468148   11.617037    ( 0.0000,  0.0000,  0.0000)
  18 Li     1.550033    1.589761   13.571964    ( 0.0000,  0.0000,  0.0000)
  19 Li     4.921278    1.671712   13.576767    ( 0.0000,  0.0000,  0.0000)
  20 Li     8.085026    1.619048   13.672220    ( 0.0000,  0.0000,  0.0000)
  21 Li     1.541069    4.791610   13.512497    ( 0.0000,  0.0000,  0.0000)
  22 Li     4.809478    4.880783   13.502379    ( 0.0000,  0.0000,  0.0000)
  23 Li     8.033280    4.837328   13.526106    ( 0.0000,  0.0000,  0.0000)
  24 Li     1.657170    8.043830   13.480372    ( 0.0000,  0.0000,  0.0000)
  25 Li     4.909934    8.138947   13.491704    ( 0.0000,  0.0000,  0.0000)
  26 Li     8.126258    8.089514   13.510836    ( 0.0000,  0.0000,  0.0000)
  27 Li     0.148363   -0.303927   15.501035    ( 0.0000,  0.0000,  0.0000)
  28 Li     3.371460   -0.036761   15.440181    ( 0.0000,  0.0000,  0.0000)
  29 Li     6.739696    0.039845   15.617773    ( 0.0000,  0.0000,  0.0000)
  30 Li    -0.347961    3.151267   15.732907    ( 0.0000,  0.0000,  0.0000)
  31 Li     3.083050    3.273308   15.469265    ( 0.0000,  0.0000,  0.0000)
  32 Li     6.299438    3.515332   15.579109    ( 0.0000,  0.0000,  0.0000)
  33 Li     0.043464    6.351166   15.457201    ( 0.0000,  0.0000,  0.0000)
  34 Li     3.242792    6.475843   15.443232    ( 0.0000,  0.0000,  0.0000)
  35 Li     6.423121    6.596852   15.450747    ( 0.0000,  0.0000,  0.0000)
  36 O      7.891711    2.549463   19.232026    ( 0.0000,  0.0000,  0.0000)
  37 C      8.020100    1.226721   19.774966    ( 0.0000,  0.0000,  0.0000)
  38 C      8.193675    1.224768   21.290001    ( 0.0000,  0.0000,  0.0000)
  39 H      7.158471    0.608703   19.486862    ( 0.0000,  0.0000,  0.0000)
  40 H      8.900592    0.805591   19.285318    ( 0.0000,  0.0000,  0.0000)
  41 H      8.350749    0.206037   21.655684    ( 0.0000,  0.0000,  0.0000)
  42 H      9.054068    1.831642   21.578978    ( 0.0000,  0.0000,  0.0000)
  43 H      7.307661    1.625813   21.791031    ( 0.0000,  0.0000,  0.0000)
  44 H      7.055155    2.918659   19.539354    ( 0.0000,  0.0000,  0.0000)
  45 N      6.454536    1.771339   15.429488    ( 0.0000,  0.0000,  0.0000)
  46 N      9.663550    1.437514   15.446408    ( 0.0000,  0.0000,  0.0000)

Unit cell:
           periodic     x           y           z      points  spacing
  1. axis:    yes    9.702222    0.000000    0.000000    60     0.1617
  2. axis:    yes    0.000000    9.702222    0.000000    60     0.1617
  3. axis:    no     0.000000    0.000000   24.851111   156     0.1593

  Lengths:   9.702222   9.702222  24.851111
  Angles:   90.000000  90.000000  90.000000

Effective grid spacing dv^(1/3) = 0.1609

     iter     time        total  log10-change:
                         energy  eigst   dens
iter:   1 12:07:28  -306.356548  -0.66
iter:   2 12:13:14  -306.310446  -1.24  -1.63
iter:   3 12:19:55  -306.295591  -1.88  -1.90
iter:   4 12:23:35  -306.287481c -1.67  -2.09
Writing to output.gpw (mode='')

iter:   5 12:29:02  -306.283125c -2.19  -2.23
iter:   6 12:32:46  -306.280580c -1.71  -2.36
iter:   7 12:38:17  -306.280097c -2.31  -2.44
iter:   8 12:43:29  -306.279345c -2.76  -2.52
iter:   9 12:47:48  -306.279118c -2.87  -2.70
Writing to output.gpw (mode='')

iter:  10 12:51:59  -306.279122c -3.25  -2.77
iter:  11 12:58:19  -306.279094c -3.34  -2.81
iter:  12 13:03:08  -306.279131c -3.24  -3.06
iter:  13 13:08:19  -306.279127c -3.94  -3.14
iter:  14 13:13:25  -306.279119c -4.16  -3.19
Writing to output.gpw (mode='')

iter:  15 13:20:11  -306.279170c -4.05  -3.31
iter:  16 13:23:41  -306.279171c -4.56  -3.34
iter:  17 13:28:15  -306.279154c -4.56  -3.39
iter:  18 13:35:40  -306.279138c -4.48  -3.63
iter:  19 13:44:34  -306.279138c -5.05  -3.83
Writing to output.gpw (mode='')

iter:  20 13:51:10  -306.279135c -4.95  -3.91
iter:  21 13:55:21  -306.279131c -5.24  -4.08c
iter:  22 14:01:04  -306.279130c -5.45  -4.13c
iter:  23 14:05:23  -306.279132c -5.58  -4.19c
iter:  24 14:13:29  -306.279135c -5.70  -4.26c
Writing to output.gpw (mode='')

iter:  25 14:17:08  -306.279139c -5.80  -4.40c
iter:  26 14:21:53  -306.279139c -6.20  -4.56c
iter:  27 14:24:32  -306.279139c -6.22  -4.61c
iter:  28 14:28:34  -306.279139c -6.34  -4.65c
iter:  29 14:31:55  -306.279138c -6.34  -4.80c
Writing to output.gpw (mode='')

iter:  30 14:35:10  -306.279138c -6.53  -5.02c
iter:  31 14:38:36  -306.279138c -6.64  -5.09c
iter:  32 14:43:09  -306.279138c -6.72  -5.24c
iter:  33 14:46:55  -306.279138c -6.86  -5.34c
iter:  34 14:50:31  -306.279138c -6.95  -5.56c
Writing to output.gpw (mode='')

iter:  35 14:53:50  -306.279138c -7.04  -5.54c
iter:  36 14:57:00  -306.279138c -7.09  -5.54c
iter:  37 15:00:31  -306.279138c -7.18  -5.58c
iter:  38 15:04:07  -306.279138c -7.38  -5.72c
iter:  39 15:07:28  -306.279138c -7.42c -5.75c

Converged after 39 iterations.

Dipole moment: (-0.643775, -0.685541, 0.072257) |e|*Ang

Energy contributions relative to reference atoms: (reference = -14434.854043)

Kinetic:       +142.364348
Potential:     -133.857499
External:        +0.000000
XC:            -315.460201
Entropy (-ST):   -0.173044
Local:           +0.760737
--------------------------
Free energy:   -306.365660
Extrapolated:  -306.279138

Dipole-layer corrected work functions: 3.443887, 3.304985 eV

Showing only first 2 kpts
 Kpt  Band  Eigenvalues  Occupancy
  0    31     -3.56146    1.95362
  0    32     -3.42353    1.45498
  0    33     -3.33133    0.59376
  0    34     -3.11208    0.01047

  1    31     -3.61690    1.98445
  1    32     -3.46638    1.72561
  1    33     -3.40665    1.31143
  1    34     -3.21309    0.07632


Fermi level: -3.37444

No gap
Writing to output.gpw (mode='')


Forces in eV/Ang:
  0 Li    0.01929    0.00044   -0.30061
  1 Li   -0.01995    0.00275   -0.29980
  2 Li    0.00069    0.00144   -0.25298
  3 Li    0.00776    0.01026   -0.28683
  4 Li   -0.00010    0.01114   -0.28415
  5 Li    0.00235    0.02128   -0.26492
  6 Li    0.00229   -0.01162   -0.28258
  7 Li   -0.00747   -0.01168   -0.28679
  8 Li   -0.00251   -0.02166   -0.26490
  9 Li   -0.02419    0.01262    0.27302
 10 Li    0.01392    0.07498    0.31874
 11 Li    0.04269    0.02401    0.24258
 12 Li   -0.04849   -0.01448    0.22612
 13 Li   -0.02098   -0.06282    0.31861
 14 Li    0.02544   -0.00683    0.25996
 15 Li   -0.01062   -0.01822    0.27198
 16 Li    0.00177   -0.01172    0.26829
 17 Li    0.00098    0.00434    0.27116
 18 Li   -0.61321   -0.06555    0.67934
 19 Li    0.60975    0.03289    0.70896
 20 Li    0.00529   -0.00165    1.19157
 21 Li    0.03039    0.05032   -0.02439
 22 Li   -0.04414    0.03826   -0.02375
 23 Li   -0.00375    0.10709   -0.04532
 24 Li    0.05068   -0.04774   -0.02412
 25 Li   -0.01979   -0.05263   -0.02149
 26 Li    0.00893   -0.13196   -0.06673
 27 Li    0.11853   -0.73124    0.26128
 28 Li    0.02145    0.09781    0.06107
 29 Li    0.24856   -0.54362    0.27376
 30 Li   -0.25999    0.53472    0.34930
 31 Li   -0.00928   -0.09023    0.05421
 32 Li   -0.09598    0.69397    0.28726
 33 Li   -0.06335    0.00070    0.00510
 34 Li   -0.00571   -0.00318   -0.02064
 35 Li    0.06126   -0.02359   -0.00009
 36 O     0.01031    0.03820    0.02489
 37 C     0.00377    0.01072   -0.00509
 38 C    -0.00425   -0.00152   -0.01042
 39 H    -0.00060    0.02464   -0.02675
 40 H     0.00299    0.02167   -0.02080
 41 H    -0.01452    0.00127   -0.01159
 42 H    -0.00835   -0.00201   -0.00903
 43 H    -0.00110    0.00292   -0.01227
 44 H    -0.03152   -0.01380   -0.01769
 45 N    -0.75996   -0.01663   -1.77916
 46 N     0.69184    0.05223   -1.75504

System changes: positions 

Initializing position-dependent things.

Density initialized from wave functions
       .-----------------------.  
      /|                       |  
     / |                       |  
    /  |                       |  
   /   |                       |  
  /    |                       |  
 *     |                       |  
 |     |                       |  
 |     |                       |  
 |     |            H    H     |  
 |     |              H        |  
 |     |            H O        |  
 |     Li      Li  H  C H      |  
 |     |                       |  
 |   Li|     Li      Li        |  
 |     |  Li      LLi     Li   |  
 |     |   Li                  |  
 |     |Li      LiLi    LiN    |  
 |     |                       |  
 |   LLi     LLi     LLi       |  
 |     |  Li      Li      Li   |  
 | Li  |   Li      Li          |  
 |     |Li      Li      Li     |  
 Li    | Li      Li            |  
 |    Li      Li      Li       |  
 |     |                       |  
 |     |                       |  
 |     |                       |  
 |     |                       |  
 |     |                       |  
 |     |                       |  
 |     .-----------------------.  
 |    /                       /   
 |   /                       /    
 |  /                       /     
 | /                       /      
 |/                       /       
 *-----------------------*        

Positions:
   0 Li     1.617037    1.617037   10.000000    ( 0.0000,  0.0000,  0.0000)
   1 Li     4.851111    1.617037   10.000000    ( 0.0000,  0.0000,  0.0000)
   2 Li     8.085185    1.617037   10.000000    ( 0.0000,  0.0000,  0.0000)
   3 Li     1.617037    4.851111   10.000000    ( 0.0000,  0.0000,  0.0000)
   4 Li     4.851111    4.851111   10.000000    ( 0.0000,  0.0000,  0.0000)
   5 Li     8.085185    4.851111   10.000000    ( 0.0000,  0.0000,  0.0000)
   6 Li     1.617037    8.085185   10.000000    ( 0.0000,  0.0000,  0.0000)
   7 Li     4.851111    8.085185   10.000000    ( 0.0000,  0.0000,  0.0000)
   8 Li     8.085185    8.085185   10.000000    ( 0.0000,  0.0000,  0.0000)
   9 Li     0.000000    0.000000   11.617037    ( 0.0000,  0.0000,  0.0000)
  10 Li     3.234074    0.000000   11.617037    ( 0.0000,  0.0000,  0.0000)
  11 Li     6.468148    0.000000   11.617037    ( 0.0000,  0.0000,  0.0000)
  12 Li     0.000000    3.234074   11.617037    ( 0.0000,  0.0000,  0.0000)
  13 Li     3.234074    3.234074   11.617037    ( 0.0000,  0.0000,  0.0000)
  14 Li     6.468148    3.234074   11.617037    ( 0.0000,  0.0000,  0.0000)
  15 Li     0.000000    6.468148   11.617037    ( 0.0000,  0.0000,  0.0000)
  16 Li     3.234074    6.468148   11.617037    ( 0.0000,  0.0000,  0.0000)
  17 Li     6.468148    6.468148   11.617037    ( 0.0000,  0.0000,  0.0000)
  18 Li     1.537669    1.588464   13.585706    ( 0.0000,  0.0000,  0.0000)
  19 Li     4.933600    1.672327   13.591170    ( 0.0000,  0.0000,  0.0000)
  20 Li     8.085135    1.619002   13.697223    ( 0.0000,  0.0000,  0.0000)
  21 Li     1.541759    4.792671   13.511900    ( 0.0000,  0.0000,  0.0000)
  22 Li     4.808550    4.881561   13.501881    ( 0.0000,  0.0000,  0.0000)
  23 Li     8.033225    4.839536   13.525121    ( 0.0000,  0.0000,  0.0000)
  24 Li     1.658200    8.042887   13.479902    ( 0.0000,  0.0000,  0.0000)
  25 Li     4.909482    8.137843   13.491179    ( 0.0000,  0.0000,  0.0000)
  26 Li     8.126422    8.086821   13.509438    ( 0.0000,  0.0000,  0.0000)
  27 Li     0.152210   -0.330525   15.505910    ( 0.0000,  0.0000,  0.0000)
  28 Li     3.371882   -0.034652   15.441575    ( 0.0000,  0.0000,  0.0000)
  29 Li     6.746493    0.017982   15.623957    ( 0.0000,  0.0000,  0.0000)
  30 Li    -0.355260    3.173490   15.741323    ( 0.0000,  0.0000,  0.0000)
  31 Li     3.082874    3.271363   15.470516    ( 0.0000,  0.0000,  0.0000)
  32 Li     6.296361    3.540417   15.585188    ( 0.0000,  0.0000,  0.0000)
  33 Li     0.042267    6.351281   15.457336    ( 0.0000,  0.0000,  0.0000)
  34 Li     3.242672    6.475769   15.442752    ( 0.0000,  0.0000,  0.0000)
  35 Li     6.424273    6.596317   15.450766    ( 0.0000,  0.0000,  0.0000)
  36 O      7.892008    2.550328   19.232768    ( 0.0000,  0.0000,  0.0000)
  37 C      8.020155    1.227012   19.774665    ( 0.0000,  0.0000,  0.0000)
  38 C      8.193551    1.224769   21.289698    ( 0.0000,  0.0000,  0.0000)
  39 H      7.158413    0.609159   19.486338    ( 0.0000,  0.0000,  0.0000)
  40 H      8.900679    0.806054   19.284851    ( 0.0000,  0.0000,  0.0000)
  41 H      8.350431    0.206063   21.655475    ( 0.0000,  0.0000,  0.0000)
  42 H      9.053903    1.831624   21.578819    ( 0.0000,  0.0000,  0.0000)
  43 H      7.307651    1.625871   21.790834    ( 0.0000,  0.0000,  0.0000)
  44 H      7.054458    2.918294   19.538992    ( 0.0000,  0.0000,  0.0000)
  45 N      6.439248    1.771124   15.392525    ( 0.0000,  0.0000,  0.0000)
  46 N      9.677623    1.438650   15.409874    ( 0.0000,  0.0000,  0.0000)

Unit cell:
           periodic     x           y           z      points  spacing
  1. axis:    yes    9.702222    0.000000    0.000000    60     0.1617
  2. axis:    yes    0.000000    9.702222    0.000000    60     0.1617
  3. axis:    no     0.000000    0.000000   24.851111   156     0.1593

  Lengths:   9.702222   9.702222  24.851111
  Angles:   90.000000  90.000000  90.000000

Effective grid spacing dv^(1/3) = 0.1609

     iter     time        total  log10-change:
                         energy  eigst   dens
iter:   1 15:10:25  -306.605889  -0.76
iter:   2 15:14:06  -306.573668  -1.36  -1.70
iter:   3 15:16:51  -306.563567  -1.98  -1.97
iter:   4 15:20:44  -306.556169c -1.75  -2.14
Writing to output.gpw (mode='')

iter:   5 15:26:02  -306.552501c -2.23  -2.29
iter:   6 15:31:28  -306.551395c -1.80  -2.43
iter:   7 15:35:08  -306.550307c -2.59  -2.47
iter:   8 15:40:30  -306.549923c -2.80  -2.62
iter:   9 15:45:03  -306.549852c -3.10  -2.81
Writing to output.gpw (mode='')

iter:  10 15:48:25  -306.549833c -3.37  -2.83
iter:  11 15:51:57  -306.549823c -3.31  -2.88
iter:  12 15:55:17  -306.549896c -3.34  -3.17
iter:  13 15:58:35  -306.549857c -4.02  -3.13
iter:  14 16:01:36  -306.549857c -3.99  -3.28
Writing to output.gpw (mode='')

iter:  15 16:07:12  -306.549857c -4.55  -3.49
iter:  16 16:10:29  -306.549864c -4.46  -3.58
iter:  17 16:14:22  -306.549855c -4.72  -3.68
iter:  18 16:18:32  -306.549850c -4.86  -3.88
iter:  19 16:22:09  -306.549847c -5.04  -3.92
Writing to output.gpw (mode='')

iter:  20 16:25:27  -306.549848c -5.31  -3.90
iter:  21 16:29:22  -306.549849c -5.31  -3.95
iter:  22 16:33:50  -306.549850c -5.74  -4.31c
iter:  23 16:39:16  -306.549852c -5.75  -4.39c
iter:  24 16:43:09  -306.549855c -5.76  -4.51c
Writing to output.gpw (mode='')

iter:  25 16:46:43  -306.549856c -6.01  -4.65c
iter:  26 16:50:31  -306.549856c -6.25  -4.66c
iter:  27 16:54:16  -306.549856c -6.30  -4.74c
iter:  28 16:57:52  -306.549855c -6.47  -4.84c
iter:  29 17:02:02  -306.549855c -6.48  -4.89c
Writing to output.gpw (mode='')

iter:  30 17:06:29  -306.549854c -6.55  -4.96c
iter:  31 17:10:45  -306.549855c -6.61  -5.11c
iter:  32 17:15:31  -306.549855c -6.91  -5.15c
iter:  33 17:19:28  -306.549855c -6.93  -5.26c
iter:  34 17:23:34  -306.549855c -7.00  -5.39c
Writing to output.gpw (mode='')

iter:  35 17:28:20  -306.549855c -6.97  -5.56c
[...]
iter:  28 19:30:16  -308.451787c -6.57  -4.82c
iter:  29 19:34:26  -308.451787c -6.66  -4.84c
Writing to output.gpw (mode='')

iter:  30 19:37:51  -308.451787c -6.93  -4.89c
iter:  31 19:41:58  -308.451788c -6.88  -5.06c
iter:  32 19:44:32  -308.451788c -7.02  -5.19c
iter:  33 19:47:57  -308.451788c -6.97  -5.25c
iter:  34 19:53:22  -308.451787c -7.17  -5.42c
Writing to output.gpw (mode='')

iter:  35 19:59:25  -308.451788c -7.47c -5.46c

Converged after 35 iterations.

Dipole moment: (-12.738128, -4.196031, 0.247473) |e|*Ang

Energy contributions relative to reference atoms: (reference = -14434.854043)

Kinetic:       +145.984185
Potential:     -136.781804
External:        +0.000000
XC:            -318.350574
Entropy (-ST):   -0.148150
Local:           +0.770480
--------------------------
Free energy:   -308.525862
Extrapolated:  -308.451788

Dipole-layer corrected work functions: 3.366535, 2.890808 eV

Showing only first 2 kpts
 Kpt  Band  Eigenvalues  Occupancy
  0    31     -3.31622    1.95409
  0    32     -3.15904    1.29468
  0    33     -2.91562    0.02783
  0    34     -2.87720    0.01300

  1    31     -3.41374    1.99334
  1    32     -3.21970    1.72127
  1    33     -3.07445    0.50533
  1    34     -2.94384    0.04841


Fermi level: -3.12867

No gap

Forces in eV/Ang:
  0 Li    0.02817    0.00337   -0.31091
  1 Li   -0.02813    0.00025   -0.31161
  2 Li    0.00152    0.00149   -0.36834
  3 Li    0.00175    0.02646   -0.28416
  4 Li    0.00403    0.02435   -0.27763
  5 Li    0.00180    0.04113   -0.24562
  6 Li   -0.00470   -0.02471   -0.27465
  7 Li   -0.00065   -0.02729   -0.28419
  8 Li   -0.00306   -0.03988   -0.24807
  9 Li   -0.03354    0.04900    0.40519
 10 Li    0.01683    0.10185    0.34214
 11 Li    0.05669    0.05913    0.36908
 12 Li   -0.05871   -0.05513    0.35085
 13 Li   -0.03220   -0.09434    0.33859
 14 Li    0.02786   -0.05191    0.39561
 15 Li    0.00432   -0.03990    0.21790
 16 Li    0.00693   -0.01481    0.24151
 17 Li   -0.00906    0.01154    0.22098
 18 Li   -0.07033   -0.02182    0.02816
 19 Li   -0.14988    0.00267   -0.18073
 20 Li   -0.02373    0.01022   -0.25585
 21 Li   -0.00480    0.01965    0.00579
 22 Li    0.01930   -0.01360    0.03574
 23 Li   -0.00814   -0.02273    0.03778
 24 Li   -0.01947    0.00655    0.04236
 25 Li    0.00902   -0.02149    0.01133
 26 Li    0.01092    0.01243    0.05128
 27 Li    0.02564   -0.10004    0.09797
 28 Li    0.04472    0.00118   -0.05559
 29 Li   -0.13428   -0.16207    0.14887
 30 Li    0.08258    0.30536    0.29758
 31 Li   -0.03460   -0.00092   -0.05784
 32 Li   -0.02160    0.03498    0.08042
 33 Li    0.00469    0.01583    0.05604
 34 Li    0.00216    0.00010    0.03609
 35 Li   -0.00786   -0.00090    0.05588
 36 O     0.00092   -0.00844   -0.03253
 37 C     0.00489   -0.00262    0.00103
 38 C    -0.00181    0.00294   -0.00098
 39 H     0.00654    0.00520   -0.00784
 40 H    -0.00151   -0.00751   -0.00434
 41 H    -0.00657   -0.00023   -0.00718
 42 H    -0.00483    0.00748   -0.00805
 43 H    -0.00562    0.00657   -0.01306
 44 H     0.01588    0.00882   -0.00947
 45 N    -0.15913    0.02689   -0.15924
 46 N     0.44153   -0.11112   -0.44978

System changes: positions 

Initializing position-dependent things.

Density initialized from wave functions
       .-----------------------.  
      /|                       |  
     / |                       |  
    /  |                       |  
   /   |                       |  
  /    |                       |  
 *     |                       |  
 |     |                       |  
 |     |                       |  
 |     |            H    H     |  
 |     |              H        |  
 |     |            H O        |  
 |     Li          H  C H      |  
 |     |                       |  
 |     |     Li      Li      Li|  
 |     |  Li      LLi     Li   |  
 |     |   Li                  |  
 |N    |Li      LiLi    Li     |  
 |     | Li           Li       |  
 |   LLi     LLi     Li        |  
 |     |  Li      Li      Li   |  
 | Li  |   Li      Li          |  
 |     |Li      Li      Li     |  
 Li    | Li      Li            |  
 |    Li      Li      Li       |  
 |     |                       |  
 |     |                       |  
 |     |                       |  
 |     |                       |  
 |     |                       |  
 |     |                       |  
 |     .-----------------------.  
 |    /                       /   
 |   /                       /    
 |  /                       /     
 | /                       /      
 |/                       /       
 *-----------------------*        

Positions:
   0 Li     1.617037    1.617037   10.000000    ( 0.0000,  0.0000,  0.0000)
   1 Li     4.851111    1.617037   10.000000    ( 0.0000,  0.0000,  0.0000)
   2 Li     8.085185    1.617037   10.000000    ( 0.0000,  0.0000,  0.0000)
   3 Li     1.617037    4.851111   10.000000    ( 0.0000,  0.0000,  0.0000)
   4 Li     4.851111    4.851111   10.000000    ( 0.0000,  0.0000,  0.0000)
   5 Li     8.085185    4.851111   10.000000    ( 0.0000,  0.0000,  0.0000)
   6 Li     1.617037    8.085185   10.000000    ( 0.0000,  0.0000,  0.0000)
   7 Li     4.851111    8.085185   10.000000    ( 0.0000,  0.0000,  0.0000)
   8 Li     8.085185    8.085185   10.000000    ( 0.0000,  0.0000,  0.0000)
   9 Li     0.000000    0.000000   11.617037    ( 0.0000,  0.0000,  0.0000)
  10 Li     3.234074    0.000000   11.617037    ( 0.0000,  0.0000,  0.0000)
  11 Li     6.468148    0.000000   11.617037    ( 0.0000,  0.0000,  0.0000)
  12 Li     0.000000    3.234074   11.617037    ( 0.0000,  0.0000,  0.0000)
  13 Li     3.234074    3.234074   11.617037    ( 0.0000,  0.0000,  0.0000)
  14 Li     6.468148    3.234074   11.617037    ( 0.0000,  0.0000,  0.0000)
  15 Li     0.000000    6.468148   11.617037    ( 0.0000,  0.0000,  0.0000)
  16 Li     3.234074    6.468148   11.617037    ( 0.0000,  0.0000,  0.0000)
  17 Li     6.468148    6.468148   11.617037    ( 0.0000,  0.0000,  0.0000)
  18 Li     1.498336    1.582050   13.600438    ( 0.0000,  0.0000,  0.0000)
  19 Li     4.960084    1.673684   13.600123    ( 0.0000,  0.0000,  0.0000)
  20 Li     8.065926    1.629589   14.229122    ( 0.0000,  0.0000,  0.0000)
  21 Li     1.555097    4.836953   13.515043    ( 0.0000,  0.0000,  0.0000)
  22 Li     4.793128    4.904826   13.507386    ( 0.0000,  0.0000,  0.0000)
  23 Li     8.019779    4.912994   13.522093    ( 0.0000,  0.0000,  0.0000)
  24 Li     1.682162    8.007345   13.486173    ( 0.0000,  0.0000,  0.0000)
  25 Li     4.905011    8.088337   13.498309    ( 0.0000,  0.0000,  0.0000)
  26 Li     8.145591    7.986795   13.496951    ( 0.0000,  0.0000,  0.0000)
  27 Li     0.219025   -0.219361   15.598597    ( 0.0000,  0.0000,  0.0000)
  28 Li     3.411311    0.007517   15.417059    ( 0.0000,  0.0000,  0.0000)
  29 Li     6.662197    0.179751   15.685542    ( 0.0000,  0.0000,  0.0000)
  30 Li    -0.272629    2.978671   15.815484    ( 0.0000,  0.0000,  0.0000)
  31 Li     3.055119    3.234200   15.439993    ( 0.0000,  0.0000,  0.0000)
  32 Li     6.224361    3.446032   15.666912    ( 0.0000,  0.0000,  0.0000)
  33 Li    -0.022387    6.342999   15.485579    ( 0.0000,  0.0000,  0.0000)
  34 Li     3.238652    6.474452   15.451823    ( 0.0000,  0.0000,  0.0000)
  35 Li     6.486457    6.587719   15.477299    ( 0.0000,  0.0000,  0.0000)
  36 O      7.893591    2.559364   19.216685    ( 0.0000,  0.0000,  0.0000)
  37 C      8.020136    1.234512   19.764146    ( 0.0000,  0.0000,  0.0000)
  38 C      8.187751    1.229138   21.278623    ( 0.0000,  0.0000,  0.0000)
  39 H      7.160550    0.615488   19.471860    ( 0.0000,  0.0000,  0.0000)
  40 H      8.904760    0.815787   19.279379    ( 0.0000,  0.0000,  0.0000)
  41 H      8.339731    0.208168   21.639193    ( 0.0000,  0.0000,  0.0000)
  42 H      9.049309    1.830508   21.574147    ( 0.0000,  0.0000,  0.0000)
  43 H      7.301130    1.630278   21.777262    ( 0.0000,  0.0000,  0.0000)
  44 H      7.054196    2.928515   19.519479    ( 0.0000,  0.0000,  0.0000)
  45 N      6.234598    1.781034   14.882032    ( 0.0000,  0.0000,  0.0000)
  46 N      9.869975    1.472967   14.915810    ( 0.0000,  0.0000,  0.0000)

Unit cell:
           periodic     x           y           z      points  spacing
  1. axis:    yes    9.702222    0.000000    0.000000    60     0.1617
  2. axis:    yes    0.000000    9.702222    0.000000    60     0.1617
  3. axis:    no     0.000000    0.000000   24.851111   156     0.1593

  Lengths:   9.702222   9.702222  24.851111
  Angles:   90.000000  90.000000  90.000000

Effective grid spacing dv^(1/3) = 0.1609

     iter     time        total  log10-change:
                         energy  eigst   dens
iter:   1 20:03:59  -308.530805  -0.81
iter:   2 20:08:59  -308.497130  -1.54  -1.77
iter:   3 20:11:34  -308.491137  -2.17  -2.02
iter:   4 20:14:10  -308.482617c -1.92  -2.19
Writing to output.gpw (mode='')

iter:   5 20:17:41  -308.483044c -2.63  -2.53
iter:   6 20:22:21  -308.482748c -2.42  -2.63
iter:   7 20:26:55  -308.482874c -2.20  -2.74
iter:   8 20:30:37  -308.482736c -3.02  -2.78
iter:   9 20:35:23  -308.482916c -3.07  -3.03
Writing to output.gpw (mode='')

iter:  10 20:39:36  -308.482828c -3.53  -2.99
iter:  11 20:43:52  -308.482912c -3.59  -3.21
iter:  12 20:47:54  -308.482894c -4.05  -3.24
iter:  13 20:55:01  -308.482909c -4.15  -3.27
iter:  14 21:00:33  -308.482877c -4.09  -3.36
Writing to output.gpw (mode='')

iter:  15 21:03:38  -308.482860c -4.41  -3.54
iter:  16 21:06:38  -308.482860c -4.59  -3.58
iter:  17 21:10:42  -308.482887c -4.71  -3.62
iter:  18 21:14:33  -308.482874c -4.63  -3.81
iter:  19 21:18:11  -308.482873c -5.16  -3.93
Writing to output.gpw (mode='')

iter:  20 21:21:45  -308.482877c -5.32  -4.01c
iter:  21 21:25:59  -308.482883c -5.43  -4.04c
iter:  22 21:31:08  -308.482881c -5.58  -4.07c
iter:  23 21:35:55  -308.482882c -5.82  -4.17c
iter:  24 21:39:54  -308.482885c -5.77  -4.20c
Writing to output.gpw (mode='')

iter:  25 21:47:17  -308.482886c -5.97  -4.44c
iter:  26 21:51:53  -308.482886c -6.26  -4.49c
iter:  27 21:56:00  -308.482886c -6.44  -4.50c
iter:  28 21:59:24  -308.482885c -6.34  -4.55c
iter:  29 22:03:22  -308.482884c -6.47  -4.81c
Writing to output.gpw (mode='')

iter:  30 22:06:44  -308.482885c -6.66  -4.85c
iter:  31 22:09:21  -308.482885c -6.76  -4.84c
iter:  32 22:12:06  -308.482884c -6.72  -4.79c
iter:  33 22:14:43  -308.482884c -7.16  -4.73c
iter:  34 22:18:35  -308.482884c -7.05  -4.71c
Writing to output.gpw (mode='')

iter:  35 22:21:17  -308.482885c -6.92  -4.74c
iter:  36 22:27:34  -308.482884c -7.32  -4.73c
iter:  37 22:30:58  -308.482885c -7.25  -4.65c
iter:  38 22:34:15  -308.482886c -7.14  -4.91c
iter:  39 22:36:58  -308.482886c -7.32  -5.07c
Writing to output.gpw (mode='')

iter:  40 22:39:28  -308.482886c -7.57c -5.28c

Converged after 40 iterations.

Dipole moment: (-12.812898, -4.481738, 0.255887) |e|*Ang

Energy contributions relative to reference atoms: (reference = -14434.854043)

Kinetic:       +145.194261
Potential:     -136.224896
External:        +0.000000
XC:            -318.148489
Entropy (-ST):   -0.147853
Local:           +0.770165
--------------------------
Free energy:   -308.556812
Extrapolated:  -308.482886

Dipole-layer corrected work functions: 3.364590, 2.872687 eV

Showing only first 2 kpts
 Kpt  Band  Eigenvalues  Occupancy
  0    31     -3.30760    1.95534
  0    32     -3.14918    1.29622
  0    33     -2.90424    0.02709
  0    34     -2.86709    0.01298

  1    31     -3.40039    1.99288
  1    32     -3.20833    1.71482
  1    33     -3.06067    0.47756
  1    34     -2.93151    0.04629


Fermi level: -3.11864

No gap

Forces in eV/Ang:
  0 Li    0.02990    0.00369   -0.30936
  1 Li   -0.02970    0.00018   -0.31144
  2 Li    0.00147    0.00151   -0.36890
  3 Li    0.00188    0.02661   -0.28385
  4 Li    0.00396    0.02454   -0.27799
  5 Li    0.00173    0.04098   -0.24487
  6 Li   -0.00470   -0.02491   -0.27430
  7 Li   -0.00046   -0.02759   -0.28446
  8 Li   -0.00334   -0.03968   -0.24744
  9 Li   -0.03498    0.04814    0.40909
 10 Li    0.01882    0.08974    0.32851
 11 Li    0.05765    0.05902    0.37602
 12 Li   -0.05996   -0.05422    0.35503
 13 Li   -0.03206   -0.08250    0.32361
 14 Li    0.02806   -0.05327    0.40068
 15 Li    0.00283   -0.03996    0.21678
 16 Li    0.00721   -0.01465    0.24334
 17 Li   -0.00723    0.01116    0.22043
 18 Li   -0.15480   -0.03584    0.11737
 19 Li   -0.17280    0.00471   -0.19860
 20 Li   -0.02527    0.00883   -0.23346
 21 Li   -0.01047    0.01456    0.00656
 22 Li    0.02398   -0.02233    0.03856
 23 Li   -0.00488   -0.03158    0.04263
 24 Li   -0.02449    0.01421    0.04401
 25 Li    0.01285   -0.01432    0.01151
 26 Li    0.00741    0.02432    0.05614
 27 Li    0.02417   -0.06329    0.05799
 28 Li    0.04546    0.00856   -0.05887
 29 Li   -0.13610   -0.14845    0.10955
 30 Li    0.07456    0.35165    0.29672
 31 Li   -0.03454   -0.00868   -0.06028
 32 Li   -0.01766   -0.03996    0.02194
 33 Li    0.01151    0.01403    0.05938
 34 Li    0.00308    0.00032    0.04024
 35 Li   -0.01475    0.00176    0.05961
 36 O    -0.00279   -0.01343   -0.03907
 37 C     0.00660   -0.00297    0.00397
 38 C     0.00046    0.00071    0.00191
 39 H     0.00908    0.01145   -0.01059
 40 H    -0.00344   -0.01130   -0.00366
 41 H    -0.00490   -0.00360   -0.00315
 42 H    -0.00365    0.00942   -0.01024
 43 H    -0.00604    0.00750   -0.01627
 44 H     0.01685    0.00912   -0.00892
 45 N    -0.06187    0.07671   -0.03808
 46 N     0.46079   -0.11182   -0.51161

System changes: positions 

Initializing position-dependent things.

Density initialized from wave functions
       .-----------------------.  
      /|                       |  
     / |                       |  
    /  |                       |  
   /   |                       |  
  /    |                       |  
 *     |                       |  
 |     |                       |  
 |     |                       |  
 |     |            H    H     |  
 |     |              H        |  
 |     |            H O        |  
 |     Li          H  C H      |  
 |     |                       |  
 |     |     Li      Li      Li|  
 |     |  Li      LLi     Li   |  
 |     |   Li                  |  
 |     |Li      LNLi    Li     |  
 |N    | Li           Li       |  
 |   LLi     LLi     Li        |  
 |     |  Li      Li      Li   |  
 | Li  |   Li      Li          |  
 |     |Li      Li      Li     |  
 Li    | Li      Li            |  
 |    Li      Li      Li       |  
 |     |                       |  
 |     |                       |  
 |     |                       |  
 |     |                       |  
 |     |                       |  
 |     |                       |  
 |     .-----------------------.  
 |    /                       /   
 |   /                       /    
 |  /                       /     
 | /                       /      
 |/                       /       
 *-----------------------*        

Positions:
   0 Li     1.617037    1.617037   10.000000    ( 0.0000,  0.0000,  0.0000)
   1 Li     4.851111    1.617037   10.000000    ( 0.0000,  0.0000,  0.0000)
   2 Li     8.085185    1.617037   10.000000    ( 0.0000,  0.0000,  0.0000)
   3 Li     1.617037    4.851111   10.000000    ( 0.0000,  0.0000,  0.0000)
   4 Li     4.851111    4.851111   10.000000    ( 0.0000,  0.0000,  0.0000)
   5 Li     8.085185    4.851111   10.000000    ( 0.0000,  0.0000,  0.0000)
   6 Li     1.617037    8.085185   10.000000    ( 0.0000,  0.0000,  0.0000)
   7 Li     4.851111    8.085185   10.000000    ( 0.0000,  0.0000,  0.0000)
   8 Li     8.085185    8.085185   10.000000    ( 0.0000,  0.0000,  0.0000)
   9 Li     0.000000    0.000000   11.617037    ( 0.0000,  0.0000,  0.0000)
  10 Li     3.234074    0.000000   11.617037    ( 0.0000,  0.0000,  0.0000)
  11 Li     6.468148    0.000000   11.617037    ( 0.0000,  0.0000,  0.0000)
  12 Li     0.000000    3.234074   11.617037    ( 0.0000,  0.0000,  0.0000)
  13 Li     3.234074    3.234074   11.617037    ( 0.0000,  0.0000,  0.0000)
  14 Li     6.468148    3.234074   11.617037    ( 0.0000,  0.0000,  0.0000)
  15 Li     0.000000    6.468148   11.617037    ( 0.0000,  0.0000,  0.0000)
  16 Li     3.234074    6.468148   11.617037    ( 0.0000,  0.0000,  0.0000)
  17 Li     6.468148    6.468148   11.617037    ( 0.0000,  0.0000,  0.0000)
  18 Li     1.523018    1.584017   13.569023    ( 0.0000,  0.0000,  0.0000)
  19 Li     4.939639    1.673065   13.573556    ( 0.0000,  0.0000,  0.0000)
  20 Li     8.064153    1.631466   14.223930    ( 0.0000,  0.0000,  0.0000)
  21 Li     1.555769    4.841620   13.516141    ( 0.0000,  0.0000,  0.0000)
  22 Li     4.793854    4.905708   13.510946    ( 0.0000,  0.0000,  0.0000)
  23 Li     8.017741    4.915692   13.525354    ( 0.0000,  0.0000,  0.0000)
  24 Li     1.681930    8.005378   13.490596    ( 0.0000,  0.0000,  0.0000)
  25 Li     4.905399    8.082783   13.500128    ( 0.0000,  0.0000,  0.0000)
  26 Li     8.148220    7.981348   13.501055    ( 0.0000,  0.0000,  0.0000)
  27 Li     0.223291   -0.207680   15.613967    ( 0.0000,  0.0000,  0.0000)
  28 Li     3.417390    0.008353   15.409654    ( 0.0000,  0.0000,  0.0000)
  29 Li     6.639579    0.191620   15.701569    ( 0.0000,  0.0000,  0.0000)
  30 Li    -0.251694    2.962660   15.836226    ( 0.0000,  0.0000,  0.0000)
  31 Li     3.050091    3.233659   15.431921    ( 0.0000,  0.0000,  0.0000)
  32 Li     6.218801    3.437637   15.681567    ( 0.0000,  0.0000,  0.0000)
  33 Li    -0.026377    6.344152   15.492196    ( 0.0000,  0.0000,  0.0000)
  34 Li     3.238544    6.474372   15.455587    ( 0.0000,  0.0000,  0.0000)
  35 Li     6.490036    6.586984   15.483860    ( 0.0000,  0.0000,  0.0000)
  36 O      7.894278    2.559171   19.213216    ( 0.0000,  0.0000,  0.0000)
  37 C      8.020167    1.234815   19.762653    ( 0.0000,  0.0000,  0.0000)
  38 C      8.186966    1.230103   21.277112    ( 0.0000,  0.0000,  0.0000)
  39 H      7.160810    0.614998   19.471051    ( 0.0000,  0.0000,  0.0000)
  40 H      8.905261    0.815930   19.278873    ( 0.0000,  0.0000,  0.0000)
  41 H      8.338405    0.208932   21.637053    ( 0.0000,  0.0000,  0.0000)
  42 H      9.048559    1.830843   21.573655    ( 0.0000,  0.0000,  0.0000)
  43 H      7.300272    1.630974   21.775820    ( 0.0000,  0.0000,  0.0000)
  44 H      7.056062    2.930214   19.517205    ( 0.0000,  0.0000,  0.0000)
  45 N      6.210388    1.777737   14.853751    ( 0.0000,  0.0000,  0.0000)
  46 N      9.888642    1.480529   14.893513    ( 0.0000,  0.0000,  0.0000)

Unit cell:
           periodic     x           y           z      points  spacing
  1. axis:    yes    9.702222    0.000000    0.000000    60     0.1617
  2. axis:    yes    0.000000    9.702222    0.000000    60     0.1617
  3. axis:    no     0.000000    0.000000   24.851111   156     0.1593

  Lengths:   9.702222   9.702222  24.851111
  Angles:   90.000000  90.000000  90.000000

Effective grid spacing dv^(1/3) = 0.1609

     iter     time        total  log10-change:
                         energy  eigst   dens
iter:   1 22:43:24  -308.566945  -0.77
iter:   2 22:46:33  -308.527703  -1.51  -1.74
iter:   3 22:50:01  -308.520749  -2.15  -1.99
iter:   4 22:53:37  -308.511358c -1.88  -2.17
Writing to output.gpw (mode='')

iter:   5 22:58:06  -308.512053c -2.65  -2.52
iter:   6 23:02:35  -308.511584c -2.40  -2.59
iter:   7 23:05:29  -308.511592c -2.13  -2.69
iter:   8 23:07:39  -308.511450c -2.98  -2.78
iter:   9 23:14:20  -308.511634c -3.06  -3.01
Writing to output.gpw (mode='')

iter:  10 23:19:19  -308.511566c -3.50  -2.98
iter:  11 23:23:49  -308.511642c -3.64  -3.19
iter:  12 23:29:13  -308.511627c -3.98  -3.22
iter:  13 23:34:31  -308.511622c -4.04  -3.25
iter:  14 23:41:08  -308.511646c -4.14  -3.40
Writing to output.gpw (mode='')

iter:  15 23:45:28  -308.511608c -4.27  -3.47
iter:  16 23:49:41  -308.511604c -4.46  -3.61
