
  ___ ___ ___ _ _ _  
 |   |   |_  | | | | 
 | | | | | . | | | | 
 |__ |  _|___|_____|  22.8.0
 |___|_|             

User:   vazumah@f010
Date:   Wed Mar  8 12:31:22 2023
Arch:   x86_64
Pid:    53574
CWD:    /home/vazumah/Research_Projects/LiMEAS/LiNRR_proton_donors/on_pure_surface/Li_BCC100/adsorbates/ethanediol_y/ontop/9.702_9.702
Python: 3.10.6
gpaw:   /home/vazumah/anaconda3/envs/NAME/lib/python3.10/site-packages/gpaw
_gpaw:  /home/vazumah/anaconda3/envs/NAME/lib/python3.10/site-packages/
        _gpaw.cpython-310-x86_64-linux-gnu.so
ase:    /home/vazumah/anaconda3/envs/NAME/lib/python3.10/site-packages/ase (version 3.22.1)
numpy:  /home/vazumah/anaconda3/envs/NAME/lib/python3.10/site-packages/numpy (version 1.23.3)
scipy:  /home/vazumah/anaconda3/envs/NAME/lib/python3.10/site-packages/scipy (version 1.9.1)
libxc:  5.2.3
units:  Angstrom and eV
cores: 32
OpenMP: True
OMP_NUM_THREADS: 1

Input parameters:
  h: 0.16
  kpts: {size: [4, 4, 1]}
  occupations: {name: fermi-dirac,
                width: 0.05}
  poissonsolver: {dipolelayer: xy}
  xc: BEEF-vdW

System changes: positions, numbers, cell, pbc, initial_charges, initial_magmoms 

Initialize ...

species:
  Li:
    name: Lithium
    id: 830b4218f175192f93f959cfc0aad614
    Z: 3.0
    valence: 1
    core: 2
    charge: 0.0
    file: /home/vazumah/anaconda3/envs/NAME/share/gpaw/Li.PBE.gz
    compensation charges: {type: gauss,
                           rc: 0.33,
                           lmax: 2}
    cutoffs: {filter: 1.91,
              core: 2.55}
    valence states:
      #              energy  rcut
      - 2s(1.00)    -2.874   1.058
      - 2p(0.00)    -1.090   1.058
      -  s          24.337   1.058
  
    # Using partial waves for Li as LCAO basis

  O:
    name: Oxygen
    id: 32ecd46bf208036f09c70b0ec9a88b78
    Z: 8.0
    valence: 6
    core: 2
    charge: 0.0
    file: /home/vazumah/anaconda3/envs/NAME/share/gpaw/O.PBE.gz
    compensation charges: {type: gauss,
                           rc: 0.21,
                           lmax: 2}
    cutoffs: {filter: 1.17,
              core: 0.83}
    valence states:
      #              energy  rcut
      - 2s(2.00)   -23.961   0.688
      - 2p(4.00)    -9.029   0.598
      -  s           3.251   0.688
      -  p          18.182   0.598
      -  d           0.000   0.619
  
    # Using partial waves for O as LCAO basis

  C:
    name: Carbon
    id: 4aa54d4b901d75f77cc0ea3eec22967b
    Z: 6.0
    valence: 4
    core: 2
    charge: 0.0
    file: /home/vazumah/anaconda3/envs/NAME/share/gpaw/C.PBE.gz
    compensation charges: {type: gauss,
                           rc: 0.20,
                           lmax: 2}
    cutoffs: {filter: 1.14,
              core: 1.14}
    valence states:
      #              energy  rcut
      - 2s(2.00)   -13.751   0.635
      - 2p(2.00)    -5.284   0.635
      -  s          13.461   0.635
      -  p          21.927   0.635
      -  d           0.000   0.635
  
    # Using partial waves for C as LCAO basis

  H:
    name: Hydrogen
    id: d65de229564ff8ea4db303e23b6d1ecf
    Z: 1.0
    valence: 1
    core: 0
    charge: 0.0
    file: /home/vazumah/anaconda3/envs/NAME/share/gpaw/H.PBE.gz
    compensation charges: {type: gauss,
                           rc: 0.15,
                           lmax: 2}
    cutoffs: {filter: 0.85,
              core: 0.53}
    valence states:
      #              energy  rcut
      - 1s(1.00)    -6.494   0.476
      -  s          20.717   0.476
      -  p           0.000   0.476
  
    # Using partial waves for H as LCAO basis

Reference energy: -13512.263335  # eV

Spin-paired calculation

Convergence criteria:
 Maximum [total energy] change in last 3 cyles: 0.0005 eV / electron
 Maximum integral of absolute [dens]ity change: 0.0001 electrons / valence electron
 Maximum integral of absolute [eigenst]ate change: 4e-08 eV^2 / valence electron
 Maximum number of scf [iter]ations: 333
 (Square brackets indicate name in SCF output, whereas a 'c' in
 the SCF output indicates the quantity has converged.)

Symmetries present (total): 1

  ( 1  0  0)
  ( 0  1  0)
  ( 0  0  1)

16 k-points: 4 x 4 x 1 Monkhorst-Pack grid
8 k-points in the irreducible part of the Brillouin zone
       k-points in crystal coordinates                weights
   0:     0.12500000   -0.37500000    0.00000000          2/16
   1:     0.12500000   -0.12500000    0.00000000          2/16
   2:     0.12500000    0.12500000    0.00000000          2/16
   3:     0.12500000    0.37500000    0.00000000          2/16
   4:     0.37500000   -0.37500000    0.00000000          2/16
   5:     0.37500000   -0.12500000    0.00000000          2/16
   6:     0.37500000    0.12500000    0.00000000          2/16
   7:     0.37500000    0.37500000    0.00000000          2/16

Wave functions: Uniform real-space grid
  Kinetic energy operator: 6*3+1=19 point O(h^6) finite-difference Laplacian
  ScaLapack parameters: grid=1x1, blocksize=None
  Wavefunction extrapolation:
    Improved wavefunction reuse through dual PAW basis 

Occupation numbers: Fermi-Dirac:
  width: 0.0500  # eV
 

Eigensolver
   Davidson(niter=2) 

Densities:
  Coarse grid: 60*60*156 grid
  Fine grid: 120*120*312 grid
  Total Charge: 0.000000 

Density mixing:
  Method: separate
  Backend: pulay
  Linear mixing parameter: 0.05
  old densities: 5
  Damping of long wavelength oscillations: 50 

Hamiltonian:
  XC and Coulomb potentials evaluated on a 120*120*312 grid
  Using the BEEF-vdW Exchange-Correlation functional
  Interpolation: tri-quintic (5. degree polynomial)
  Poisson solver: FastPoissonSolver using
    Stencil: 6*3+1=19 point O(h^6) finite-difference Laplacian
    FFT axes: [0, 1]
    FST axes: [2]

Dipole correction along z-axis 

XC parameters: BEEF-vdW with 2 nearest neighbor stencil

Memory estimate:
  Process memory now: 212.31 MiB
  Calculator: 298.81 MiB
    Density: 88.21 MiB
      Arrays: 27.47 MiB
      Localized functions: 50.30 MiB
      Mixer: 10.44 MiB
    Hamiltonian: 21.93 MiB
      Arrays: 17.96 MiB
      XC: 0.00 MiB
      Poisson: 0.00 MiB
      vbar: 3.97 MiB
    Wavefunctions: 188.67 MiB
      Arrays psit_nG: 87.67 MiB
      Eigensolver: 98.38 MiB
      Projections: 0.04 MiB
      Projectors: 2.58 MiB

Total number of cores used: 32
Parallelization over k-points: 8
Domain decomposition: 1 x 1 x 4

Number of atoms: 46
Number of atomic orbitals: 166
Number of bands in calculation: 42
Number of valence electrons: 62
Bands to converge: occupied

... initialized

Initializing position-dependent things.

Density initialized from atomic densities
Creating initial wave functions:
  42 bands from LCAO basis set

       .-----------------------.  
      /|                       |  
     / |                       |  
    /  |                       |  
   /   |                       |  
  /    |                       |  
 *     |                       |  
 |     H                       |  
 |     |                       |  
 |     |                       |  
 |     |                       |  
 |   H |                       |  
 | O C |                       |  
 |     |H                H     |  
 O  CLH|     Li      Li        |  
 |  H  |  Li      Li      Li   |  
 | Li  |   Li      Li          |  
 |     |Li      Li      Li     |  
 Li    | Li      Li            |  
 |   LLi     LLi     LLi       |  
 |     |  Li      Li      Li   |  
 | Li  |   Li      Li          |  
 |     |Li      Li      Li     |  
 Li    | Li      Li            |  
 |    Li      Li      Li       |  
 |     |                       |  
 |     |                       |  
 |     |                       |  
 |     |                       |  
 |     |                       |  
 |     |                       |  
 |     .-----------------------.  
 |    /                       /   
 |   /                       /    
 |  /                       /     
 | /                       /      
 |/                       /       
 *-----------------------*        

Positions:
   0 Li     1.617037    1.617037   10.000000    ( 0.0000,  0.0000,  0.0000)
   1 Li     4.851111    1.617037   10.000000    ( 0.0000,  0.0000,  0.0000)
   2 Li     8.085185    1.617037   10.000000    ( 0.0000,  0.0000,  0.0000)
   3 Li     1.617037    4.851111   10.000000    ( 0.0000,  0.0000,  0.0000)
   4 Li     4.851111    4.851111   10.000000    ( 0.0000,  0.0000,  0.0000)
   5 Li     8.085185    4.851111   10.000000    ( 0.0000,  0.0000,  0.0000)
   6 Li     1.617037    8.085185   10.000000    ( 0.0000,  0.0000,  0.0000)
   7 Li     4.851111    8.085185   10.000000    ( 0.0000,  0.0000,  0.0000)
   8 Li     8.085185    8.085185   10.000000    ( 0.0000,  0.0000,  0.0000)
   9 Li     0.000000    0.000000   11.617037    ( 0.0000,  0.0000,  0.0000)
  10 Li     3.234074    0.000000   11.617037    ( 0.0000,  0.0000,  0.0000)
  11 Li     6.468148    0.000000   11.617037    ( 0.0000,  0.0000,  0.0000)
  12 Li     0.000000    3.234074   11.617037    ( 0.0000,  0.0000,  0.0000)
  13 Li     3.234074    3.234074   11.617037    ( 0.0000,  0.0000,  0.0000)
  14 Li     6.468148    3.234074   11.617037    ( 0.0000,  0.0000,  0.0000)
  15 Li     0.000000    6.468148   11.617037    ( 0.0000,  0.0000,  0.0000)
  16 Li     3.234074    6.468148   11.617037    ( 0.0000,  0.0000,  0.0000)
  17 Li     6.468148    6.468148   11.617037    ( 0.0000,  0.0000,  0.0000)
  18 Li     1.617038    1.617038   13.469728    ( 0.0000,  0.0000,  0.0000)
  19 Li     4.851111    1.617038   13.469729    ( 0.0000,  0.0000,  0.0000)
  20 Li     8.085184    1.617038   13.469728    ( 0.0000,  0.0000,  0.0000)
  21 Li     1.617038    4.851111   13.469729    ( 0.0000,  0.0000,  0.0000)
  22 Li     4.851111    4.851111   13.469730    ( 0.0000,  0.0000,  0.0000)
  23 Li     8.085184    4.851111   13.469729    ( 0.0000,  0.0000,  0.0000)
  24 Li     1.617038    8.085184   13.469728    ( 0.0000,  0.0000,  0.0000)
  25 Li     4.851111    8.085184   13.469729    ( 0.0000,  0.0000,  0.0000)
  26 Li     8.085184    8.085184   13.469728    ( 0.0000,  0.0000,  0.0000)
  27 Li    -0.000000   -0.000000   15.445939    ( 0.0000,  0.0000,  0.0000)
  28 Li     3.234074    0.000000   15.445939    ( 0.0000,  0.0000,  0.0000)
  29 Li     6.468148    0.000000   15.445939    ( 0.0000,  0.0000,  0.0000)
  30 Li     0.000000    3.234074   15.445939    ( 0.0000,  0.0000,  0.0000)
  31 Li     3.234076    3.234076   15.445938    ( 0.0000,  0.0000,  0.0000)
  32 Li     6.468146    3.234076   15.445938    ( 0.0000,  0.0000,  0.0000)
  33 Li     0.000000    6.468148   15.445939    ( 0.0000,  0.0000,  0.0000)
  34 Li     3.234076    6.468146   15.445938    ( 0.0000,  0.0000,  0.0000)
  35 Li     6.468146    6.468146   15.445938    ( 0.0000,  0.0000,  0.0000)
  36 O      9.702222    9.702222   18.445939    ( 0.0000,  0.0000,  0.0000)
  37 O      9.746216   12.600420   18.213250    ( 0.0000,  0.0000,  0.0000)
  38 C     10.873434   10.430783   18.033562    ( 0.0000,  0.0000,  0.0000)
  39 C     10.887124   11.839968   18.602713    ( 0.0000,  0.0000,  0.0000)
  40 H     11.787824    9.902657   18.326395    ( 0.0000,  0.0000,  0.0000)
  41 H     10.826136   10.463532   16.943996    ( 0.0000,  0.0000,  0.0000)
  42 H     11.761390   12.376687   18.226232    ( 0.0000,  0.0000,  0.0000)
  43 H     10.962625   11.790239   19.701774    ( 0.0000,  0.0000,  0.0000)
  44 H      9.776737    9.532798   19.393261    ( 0.0000,  0.0000,  0.0000)
  45 H      8.979095   12.020954   18.309689    ( 0.0000,  0.0000,  0.0000)

Unit cell:
           periodic     x           y           z      points  spacing
  1. axis:    yes    9.702222    0.000000    0.000000    60     0.1617
  2. axis:    yes    0.000000    9.702222    0.000000    60     0.1617
  3. axis:    no     0.000000    0.000000   24.851111   156     0.1593

  Lengths:   9.702222   9.702222  24.851111
  Angles:   90.000000  90.000000  90.000000

Effective grid spacing dv^(1/3) = 0.1609

     iter     time        total  log10-change:
                         energy  eigst   dens
iter:   1 12:34:21  -486.922772
iter:   2 12:35:52  -127.524810  +2.44  -0.06
iter:   3 12:37:24   -84.499070  +3.25  -0.19
iter:   4 12:39:14  -148.240686  +2.89  -0.22
Writing to output.gpw (mode='')

iter:   5 12:42:09  -231.899467  +2.81  -0.34
iter:   6 12:45:55  -263.715477  +2.72  -0.42
iter:   7 12:47:48  -321.823827  +2.59  -0.60
iter:   8 12:49:43  -337.788162  +2.36  -0.49
iter:   9 12:52:09  -314.489837  +2.03  -0.47
Writing to output.gpw (mode='')

iter:  10 12:55:34  -318.437630  +1.62  -0.51
iter:  11 12:59:05  -395.731698  +2.34  -0.48
iter:  12 13:04:19  -350.483004  +1.50  -0.37
iter:  13 13:09:01  -295.619798  +1.51  -0.39
iter:  14 13:12:46  -296.276397  +0.89  -0.72
Writing to output.gpw (mode='')

iter:  15 13:15:55  -292.883101  +0.78  -0.73
iter:  16 13:18:26  -292.060264  +0.68  -0.82
iter:  17 13:22:39  -291.338669  -0.03  -0.88
iter:  18 13:26:14  -292.191896  +0.62  -0.97
iter:  19 13:30:32  -292.146173  +0.96  -1.01
Writing to output.gpw (mode='')

iter:  20 13:34:42  -290.975061  -0.26  -1.01
iter:  21 13:40:20  -290.913083  +0.35  -1.20
iter:  22 13:45:59  -290.808700  -0.39  -1.29
iter:  23 13:51:23  -290.702970  -0.65  -1.42
iter:  24 13:57:04  -290.681589  -0.30  -1.56
Writing to output.gpw (mode='')

iter:  25 14:01:14  -290.688792c -0.89  -1.79
iter:  26 14:05:19  -290.682887c -1.30  -1.81
iter:  27 14:08:02  -290.677064c -1.13  -1.88
iter:  28 14:11:21  -290.681055c -1.49  -2.22
iter:  29 14:15:27  -290.683400c -1.61  -2.29
Writing to output.gpw (mode='')

iter:  30 14:18:19  -290.685747c -1.68  -2.37
iter:  31 14:21:45  -290.688038c -1.74  -2.48
iter:  32 14:25:09  -290.689087c -2.06  -2.55
iter:  33 14:28:31  -290.690225c -1.95  -2.64
iter:  34 14:31:28  -290.691268c -2.33  -2.90
Writing to output.gpw (mode='')

iter:  35 14:35:26  -290.692043c -2.42  -2.99
iter:  36 14:39:50  -290.692833c -2.24  -3.01
iter:  37 14:43:16  -290.693538c -2.52  -3.08
iter:  38 14:47:02  -290.694165c -2.40  -3.20
iter:  39 14:49:49  -290.694609c -2.74  -3.27
Writing to output.gpw (mode='')

iter:  40 14:53:41  -290.694995c -2.76  -3.26
iter:  41 14:57:44  -290.695366c -2.70  -3.25
iter:  42 15:01:56  -290.695753c -2.56  -3.23
iter:  43 15:06:44  -290.696186c -2.50  -3.24
iter:  44 15:10:52  -290.696442c -2.83  -3.24
Writing to output.gpw (mode='')

iter:  45 15:13:29  -290.696666c -2.95  -3.24
iter:  46 15:15:21  -290.696888c -3.10  -3.29
iter:  47 15:17:28  -290.697017c -3.32  -3.51
iter:  48 15:19:44  -290.697135c -3.30  -3.59
iter:  49 15:22:22  -290.697230c -3.36  -3.81
Writing to output.gpw (mode='')

iter:  50 15:26:22  -290.697331c -3.21  -3.88
iter:  51 15:28:20  -290.697402c -3.51  -3.99
iter:  52 15:31:41  -290.697462c -3.62  -4.02c
iter:  53 15:35:59  -290.697517c -3.53  -4.28c
iter:  54 15:39:06  -290.697557c -3.70  -4.38c
Writing to output.gpw (mode='')

iter:  55 15:41:48  -290.697598c -3.57  -4.39c
iter:  56 15:44:37  -290.697630c -3.82  -4.36c
iter:  57 15:50:27  -290.697657c -3.87  -4.30c
iter:  58 15:53:44  -290.697683c -3.83  -4.23c
iter:  59 15:56:38  -290.697710c -3.77  -4.23c
Writing to output.gpw (mode='')

iter:  60 16:01:48  -290.697728c -4.02  -4.25c
iter:  61 16:06:04  -290.697744c -4.11  -4.19c
iter:  62 16:09:59  -290.697758c -3.99  -4.18c
iter:  63 16:14:40  -290.697769c -4.18  -4.15c
iter:  64 16:20:08  -290.697778c -4.25  -4.15c
Writing to output.gpw (mode='')

iter:  65 16:26:35  -290.697786c -4.38  -4.14c
iter:  66 16:32:22  -290.697794c -4.49  -3.99
iter:  67 16:37:12  -290.697800c -4.51  -4.33c
iter:  68 16:40:17  -290.697805c -4.44  -4.44c
iter:  69 16:42:53  -290.697810c -4.49  -4.53c
Writing to output.gpw (mode='')

iter:  70 16:47:16  -290.697814c -4.58  -4.57c
iter:  71 16:52:07  -290.697817c -4.61  -4.55c
iter:  72 16:56:30  -290.697820c -4.86  -4.51c
iter:  73 16:59:48  -290.697822c -4.95  -4.48c
iter:  74 17:03:33  -290.697824c -4.93  -4.42c
Writing to output.gpw (mode='')

iter:  75 17:07:49  -290.697826c -4.94  -4.44c
iter:  76 17:11:27  -290.697828c -4.87  -4.48c
iter:  77 17:15:23  -290.697829c -4.89  -4.45c
iter:  78 17:19:38  -290.697830c -5.04  -4.44c
iter:  79 17:23:43  -290.697831c -5.08  -4.50c
Writing to output.gpw (mode='')

iter:  80 17:28:10  -290.697832c -5.14  -4.55c
iter:  81 17:31:34  -290.697833c -5.25  -4.82c
iter:  82 17:35:47  -290.697834c -5.38  -4.89c
iter:  83 17:39:34  -290.697834c -5.21  -4.94c
iter:  84 17:43:45  -290.697835c -5.21  -5.07c
Writing to output.gpw (mode='')

iter:  85 17:47:10  -290.697835c -5.50  -5.19c
iter:  86 17:51:16  -290.697836c -5.48  -5.22c
iter:  87 17:54:56  -290.697836c -5.59  -5.31c
iter:  88 18:00:09  -290.697836c -5.68  -5.36c
iter:  89 18:04:10  -290.697836c -5.61  -5.54c
Writing to output.gpw (mode='')

iter:  90 18:07:49  -290.697836c -5.68  -5.62c
iter:  91 18:12:50  -290.697836c -5.74  -5.67c
iter:  92 18:16:29  -290.697836c -5.81  -5.70c
iter:  93 18:21:19  -290.697836c -5.83  -5.70c
iter:  94 18:25:46  -290.697837c -5.96  -5.62c
Writing to output.gpw (mode='')

iter:  95 18:30:00  -290.697837c -6.01  -5.66c
iter:  96 18:34:05  -290.697837c -6.07  -5.62c
iter:  97 18:37:44  -290.697837c -6.05  -5.49c
iter:  98 18:43:05  -290.697837c -6.03  -5.50c
iter:  99 18:47:29  -290.697837c -5.92  -5.48c
Writing to output.gpw (mode='')

iter: 100 18:51:27  -290.697837c -6.08  -5.44c
iter: 101 18:55:12  -290.697837c -6.23  -5.42c
iter: 102 19:00:25  -290.697837c -6.37  -5.39c
iter: 103 19:03:32  -290.697837c -6.36  -5.23c
iter: 104 19:07:41  -290.697837c -6.31  -5.39c
Writing to output.gpw (mode='')

iter: 105 19:12:33  -290.697837c -6.49  -5.46c
iter: 106 19:17:05  -290.697837c -6.54  -5.64c
iter: 107 19:22:24  -290.697837c -6.52  -5.54c
iter: 108 19:27:43  -290.697837c -6.57  -5.71c
iter: 109 19:32:01  -290.697837c -6.50  -5.81c
Writing to output.gpw (mode='')

iter: 110 19:37:08  -290.697837c -6.63  -5.97c
iter: 111 19:41:02  -290.697837c -6.66  -6.01c
iter: 112 19:44:54  -290.697837c -6.61  -6.06c
iter: 113 19:49:28  -290.697837c -6.55  -6.13c
iter: 114 19:54:05  -290.697837c -6.65  -6.21c
Writing to output.gpw (mode='')

iter: 115 19:57:57  -290.697837c -6.79  -6.24c
iter: 116 20:01:32  -290.697837c -6.80  -6.32c
iter: 117 20:05:07  -290.697837c -6.89  -6.60c
iter: 118 20:10:17  -290.697837c -6.88  -6.67c
iter: 119 20:14:05  -290.697837c -6.98  -6.69c
Writing to output.gpw (mode='')

iter: 120 20:18:48  -290.697837c -7.01  -6.65c
iter: 121 20:23:09  -290.697837c -7.02  -6.43c
iter: 122 20:27:00  -290.697837c -7.04  -6.46c
iter: 123 20:32:50  -290.697837c -7.18  -6.44c
iter: 124 20:35:40  -290.697837c -7.19  -6.38c
Writing to output.gpw (mode='')

iter: 125 20:39:21  -290.697837c -7.17  -6.38c
iter: 126 20:44:30  -290.697837c -7.24  -6.32c
iter: 127 20:49:47  -290.697837c -7.30  -6.22c
iter: 128 20:55:51  -290.697837c -7.39  -6.28c
iter: 129 21:02:12  -290.697837c -7.48c -6.24c

Converged after 129 iterations.

Dipole moment: (-17.502592, -9.561422, 0.431458) |e|*Ang

Energy contributions relative to reference atoms: (reference = -13512.263335)

Kinetic:       +140.350755
Potential:     -131.566335
External:        +0.000000
XC:            -300.015197
Entropy (-ST):   -0.151015
Local:           +0.608448
--------------------------
Free energy:   -290.773344
Extrapolated:  -290.697837

Dipole-layer corrected work functions: 3.390271, 2.560861 eV

Showing only first 2 kpts
 Kpt  Band  Eigenvalues  Occupancy
  0    29     -3.22898    1.98749
  0    30     -3.15035    1.94112
  0    31     -2.80931    0.06944
  0    32     -2.72391    0.01295

  1    29     -3.00095    1.24853
  1    30     -2.96580    0.90263
  1    31     -2.93773    0.63873
  1    32     -2.91961    0.49233


Fermi level: -2.97557

No gap
Writing to output.gpw (mode='')


Forces in eV/Ang:
  0 Li    0.00338    0.00121   -0.26771
  1 Li    0.00461    0.00037   -0.27094
  2 Li   -0.00749    0.00068   -0.26893
  3 Li    0.00094    0.00750   -0.27128
  4 Li   -0.00245   -0.00167   -0.27837
  5 Li    0.00125    0.00010   -0.27335
  6 Li    0.00115   -0.00820   -0.27059
  7 Li   -0.00258    0.00086   -0.27512
  8 Li    0.00126   -0.00109   -0.27028
  9 Li    0.00298   -0.00157    0.27204
 10 Li    0.00154   -0.00215    0.25827
 11 Li   -0.00533    0.00150    0.25510
 12 Li   -0.00172    0.00521    0.26784
 13 Li    0.00795    0.00540    0.25242
 14 Li   -0.00675   -0.00733    0.25778
 15 Li    0.00003   -0.00447    0.24835
 16 Li   -0.00377   -0.00392    0.25391
 17 Li    0.00402    0.00648    0.26566
 18 Li    0.00280    0.00504    0.00807
 19 Li   -0.01142   -0.00330    0.05702
 20 Li    0.00706   -0.00337    0.04391
 21 Li   -0.00154   -0.00663    0.03948
 22 Li    0.00341    0.00356    0.03041
 23 Li   -0.00142   -0.00103    0.02926
 24 Li   -0.00350    0.00060    0.04531
 25 Li   -0.00356    0.00043    0.03938
 26 Li    0.00754    0.00506    0.03688
 27 Li   -0.20111   -0.16264   -0.19885
 28 Li    0.10362   -0.04329   -0.15459
 29 Li   -0.01589    0.01397   -0.01459
 30 Li   -0.03293    0.05445    0.20002
 31 Li    0.07648    0.04269   -0.12231
 32 Li   -0.03041   -0.01220   -0.03483
 33 Li    0.01029    0.00472   -0.02407
 34 Li    0.00011    0.00188   -0.02852
 35 Li   -0.01083   -0.00025   -0.02360
 36 O    -0.00545    0.06949   -0.11606
 37 O    -0.02523    0.10442   -0.31697
 38 C    -0.14972   -0.07047    0.69711
 39 C     0.15303   -0.03773    0.06132
 40 H     0.07761   -0.05037   -0.07139
 41 H     0.21481    0.17442   -0.09051
 42 H     0.05668    0.02986    0.03316
 43 H     0.01733    0.01592   -0.08034
 44 H    -0.02972   -0.08717    0.01995
 45 H    -0.20653   -0.04207    0.02927

System changes: positions 

Initializing position-dependent things.

Density initialized from wave functions
       .-----------------------.  
      /|                       |  
     / |                       |  
    /  |                       |  
   /   |                       |  
  /    |                       |  
 *     |                       |  
 |     H                       |  
 |     |                       |  
 |     |                       |  
 |     |                       |  
 |   H |                       |  
 | O C |       Li              Li 
 |     |H                H     |  
 |  CLH|     Li      Li  O     |  
 |  H  |  Li      Li      Li   |  
 |     |   Li      Li      Li  |  
 |     |Li      Li      Li     |  
 |     |         Li            |  
 |   LLi     LLi     LLi       |  
 |     |  Li      Li      Li   |  
 | Li  |   Li      Li          |  
 |     |Li      Li      Li     |  
 Li    | Li      Li            |  
 |    Li      Li      Li       |  
 |     |                       |  
 |     |                       |  
 |     |                       |  
 |     |                       |  
 |     |                       |  
 |     |                       |  
 |     .-----------------------.  
 |    /                       /   
 |   /                       /    
 |  /                       /     
 | /                       /      
 |/                       /       
 *-----------------------*        

Positions:
   0 Li     1.617037    1.617037   10.000000    ( 0.0000,  0.0000,  0.0000)
   1 Li     4.851111    1.617037   10.000000    ( 0.0000,  0.0000,  0.0000)
   2 Li     8.085185    1.617037   10.000000    ( 0.0000,  0.0000,  0.0000)
   3 Li     1.617037    4.851111   10.000000    ( 0.0000,  0.0000,  0.0000)
   4 Li     4.851111    4.851111   10.000000    ( 0.0000,  0.0000,  0.0000)
   5 Li     8.085185    4.851111   10.000000    ( 0.0000,  0.0000,  0.0000)
   6 Li     1.617037    8.085185   10.000000    ( 0.0000,  0.0000,  0.0000)
   7 Li     4.851111    8.085185   10.000000    ( 0.0000,  0.0000,  0.0000)
   8 Li     8.085185    8.085185   10.000000    ( 0.0000,  0.0000,  0.0000)
   9 Li     0.000000    0.000000   11.617037    ( 0.0000,  0.0000,  0.0000)
  10 Li     3.234074    0.000000   11.617037    ( 0.0000,  0.0000,  0.0000)
  11 Li     6.468148    0.000000   11.617037    ( 0.0000,  0.0000,  0.0000)
  12 Li     0.000000    3.234074   11.617037    ( 0.0000,  0.0000,  0.0000)
  13 Li     3.234074    3.234074   11.617037    ( 0.0000,  0.0000,  0.0000)
  14 Li     6.468148    3.234074   11.617037    ( 0.0000,  0.0000,  0.0000)
  15 Li     0.000000    6.468148   11.617037    ( 0.0000,  0.0000,  0.0000)
  16 Li     3.234074    6.468148   11.617037    ( 0.0000,  0.0000,  0.0000)
  17 Li     6.468148    6.468148   11.617037    ( 0.0000,  0.0000,  0.0000)
  18 Li     1.617078    1.617110   13.469843    ( 0.0000,  0.0000,  0.0000)
  19 Li     4.850948    1.616991   13.470544    ( 0.0000,  0.0000,  0.0000)
  20 Li     8.085285    1.616990   13.470355    ( 0.0000,  0.0000,  0.0000)
  21 Li     1.617016    4.851016   13.470294    ( 0.0000,  0.0000,  0.0000)
  22 Li     4.851160    4.851162   13.470165    ( 0.0000,  0.0000,  0.0000)
  23 Li     8.085163    4.851096   13.470147    ( 0.0000,  0.0000,  0.0000)
  24 Li     1.616988    8.085193   13.470375    ( 0.0000,  0.0000,  0.0000)
  25 Li     4.851060    8.085190   13.470292    ( 0.0000,  0.0000,  0.0000)
  26 Li     8.085292    8.085256   13.470255    ( 0.0000,  0.0000,  0.0000)
  27 Li    -0.002873   -0.002323   15.443099    ( 0.0000,  0.0000,  0.0000)
  28 Li     3.235554   -0.000618   15.443730    ( 0.0000,  0.0000,  0.0000)
  29 Li     6.467921    0.000200   15.445730    ( 0.0000,  0.0000,  0.0000)
  30 Li    -0.000470    3.234852   15.448796    ( 0.0000,  0.0000,  0.0000)
  31 Li     3.235169    3.234686   15.444191    ( 0.0000,  0.0000,  0.0000)
  32 Li     6.467711    3.233902   15.445440    ( 0.0000,  0.0000,  0.0000)
  33 Li     0.000147    6.468216   15.445595    ( 0.0000,  0.0000,  0.0000)
  34 Li     3.234078    6.468172   15.445531    ( 0.0000,  0.0000,  0.0000)
  35 Li     6.467991    6.468142   15.445601    ( 0.0000,  0.0000,  0.0000)
  36 O      9.702144    9.703215   18.444281    ( 0.0000,  0.0000,  0.0000)
  37 O      9.745855   12.601912   18.208722    ( 0.0000,  0.0000,  0.0000)
  38 C     10.871295   10.429776   18.043521    ( 0.0000,  0.0000,  0.0000)
  39 C     10.889310   11.839429   18.603589    ( 0.0000,  0.0000,  0.0000)
  40 H     11.788933    9.901938   18.325375    ( 0.0000,  0.0000,  0.0000)
  41 H     10.829205   10.466024   16.942703    ( 0.0000,  0.0000,  0.0000)
  42 H     11.762199   12.377113   18.226706    ( 0.0000,  0.0000,  0.0000)
  43 H     10.962873   11.790466   19.700626    ( 0.0000,  0.0000,  0.0000)
  44 H      9.776312    9.531552   19.393545    ( 0.0000,  0.0000,  0.0000)
  45 H      8.976145   12.020353   18.310107    ( 0.0000,  0.0000,  0.0000)

Unit cell:
           periodic     x           y           z      points  spacing
  1. axis:    yes    9.702222    0.000000    0.000000    60     0.1617
  2. axis:    yes    0.000000    9.702222    0.000000    60     0.1617
  3. axis:    no     0.000000    0.000000   24.851111   156     0.1593

  Lengths:   9.702222   9.702222  24.851111
  Angles:   90.000000  90.000000  90.000000

Effective grid spacing dv^(1/3) = 0.1609

     iter     time        total  log10-change:
                         energy  eigst   dens
iter:   1 21:08:04  -290.711654  -2.05
iter:   2 21:12:01  -290.710818  -2.70  -2.44
iter:   3 21:17:46  -290.710323c -3.31  -2.52
iter:   4 21:23:03  -290.709208c -2.51  -2.70
Writing to output.gpw (mode='')

iter:   5 21:29:13  -290.708957c -3.65  -2.75
iter:   6 21:37:50  -290.708774c -3.16  -2.98
iter:   7 21:44:01  -290.708979c -3.07  -3.09
iter:   8 21:48:55  -290.708789c -3.85  -3.04
iter:   9 21:56:54  -290.708776c -4.21  -3.23
Writing to output.gpw (mode='')

iter:  10 22:03:35  -290.708749c -4.16  -3.34
iter:  11 22:08:50  -290.708736c -4.33  -3.56
iter:  12 22:15:41  -290.708741c -5.16  -3.65
iter:  13 22:21:59  -290.708756c -5.06  -3.72
iter:  14 22:27:24  -290.708757c -5.13  -3.82
Writing to output.gpw (mode='')

iter:  15 22:35:27  -290.708750c -5.33  -3.88
iter:  16 22:39:28  -290.708750c -6.12  -4.02c
iter:  17 22:44:36  -290.708750c -6.07  -4.03c
iter:  18 22:50:11  -290.708746c -5.63  -4.12c
iter:  19 22:54:39  -290.708745c -6.24  -4.33c
Writing to output.gpw (mode='')

iter:  20 22:59:53  -290.708746c -6.42  -4.45c
iter:  21 23:06:20  -290.708746c -6.80  -4.53c
iter:  22 23:12:00  -290.708747c -6.76  -4.74c
iter:  23 23:17:37  -290.708747c -7.28  -4.80c
iter:  24 23:23:55  -290.708747c -7.37  -4.94c
Writing to output.gpw (mode='')

iter:  25 23:33:12  -290.708747c -7.47c -5.09c

Converged after 25 iterations.

Dipole moment: (-17.422027, -9.603062, 0.434020) |e|*Ang

Energy contributions relative to reference atoms: (reference = -13512.263335)

Kinetic:       +139.941295
Potential:     -131.280665
External:        +0.000000
XC:            -299.902130
Entropy (-ST):   -0.151036
Local:           +0.608270
--------------------------
Free energy:   -290.784265
Extrapolated:  -290.708747

Dipole-layer corrected work functions: 3.389923, 2.555587 eV

Showing only first 2 kpts
 Kpt  Band  Eigenvalues  Occupancy
  0    29     -3.22613    1.98748
  0    30     -3.14743    1.94101
  0    31     -2.80639    0.06929
  0    32     -2.72106    0.01294

  1    29     -2.99810    1.24820
  1    30     -2.96298    0.90253
  1    31     -2.93499    0.63930
  1    32     -2.91668    0.49148


Fermi level: -2.97275

No gap

Forces in eV/Ang:
  0 Li    0.00345    0.00120   -0.26790
  1 Li    0.00460    0.00034   -0.27104
  2 Li   -0.00756    0.00060   -0.26900
  3 Li    0.00097    0.00753   -0.27126
  4 Li   -0.00248   -0.00165   -0.27837
  5 Li    0.00130    0.00017   -0.27326
  6 Li    0.00113   -0.00822   -0.27081
  7 Li   -0.00256    0.00095   -0.27515
  8 Li    0.00127   -0.00106   -0.27041
  9 Li    0.00288   -0.00170    0.27271
 10 Li    0.00169   -0.00221    0.25906
 11 Li   -0.00529    0.00157    0.25574
 12 Li   -0.00179    0.00522    0.26837
 13 Li    0.00817    0.00542    0.25310
 14 Li   -0.00692   -0.00736    0.25826
 15 Li    0.00006   -0.00424    0.24874
 16 Li   -0.00389   -0.00389    0.25450
 17 Li    0.00408    0.00639    0.26613
 18 Li    0.00199    0.00527    0.00786
 19 Li   -0.01060   -0.00313    0.05451
 20 Li    0.00659   -0.00232    0.04194
 21 Li   -0.00213   -0.00677    0.03864
 22 Li    0.00360    0.00386    0.02891
 23 Li   -0.00103   -0.00148    0.02889
 24 Li   -0.00326   -0.00000    0.04283
 25 Li   -0.00305   -0.00011    0.03750
 26 Li    0.00636    0.00403    0.03485
 27 Li   -0.19132   -0.15579   -0.18693
 28 Li    0.09843   -0.04153   -0.14996
 29 Li   -0.01643    0.01343   -0.01429
 30 Li   -0.03152    0.05075    0.20531
 31 Li    0.07549    0.04188   -0.12025
 32 Li   -0.03040   -0.01188   -0.03415
 33 Li    0.00982    0.00421   -0.02374
 34 Li    0.00029    0.00152   -0.02779
 35 Li   -0.01039    0.00006   -0.02286
 36 O    -0.03943    0.01796    0.09310
 37 O    -0.07905   -0.06554   -0.25691
 38 C    -0.02969   -0.01821    0.10414
 39 C     0.03249    0.03072    0.05342
 40 H     0.07114   -0.06634   -0.01094
 41 H     0.21277    0.15841    0.20481
 42 H     0.07018    0.01130    0.02363
 43 H     0.00955    0.05600   -0.00947
 44 H    -0.07600   -0.08855   -0.07671
 45 H    -0.06153    0.06722    0.00612

System changes: positions 

Initializing position-dependent things.

Density initialized from wave functions
       .-----------------------.  
      /|                       |  
     / |                       |  
    /  |                       |  
   /   |                       |  
  /    |                       |  
 *     |                       |  
 |     H                       |  
 |     |                       |  
 |     |                       |  
 |     |                       |  
 |   H |                       |  
 |   C |       Li              Li 
 | O   |H                H     |  
 |  CLH|     Li      Li  O     |  
 |  H  |  Li      Li      Li   |  
 |     |   Li      Li      Li  |  
 |     |Li      Li      Li     |  
 |     |         Li            |  
 |   LLi     LLi     LLi       |  
 |     |  Li      Li      Li   |  
 | Li  |   Li      Li          |  
 |     |Li      Li      Li     |  
 Li    | Li      Li            |  
 |    Li      Li      Li       |  
 |     |                       |  
 |     |                       |  
 |     |                       |  
 |     |                       |  
 |     |                       |  
 |     |                       |  
 |     .-----------------------.  
 |    /                       /   
 |   /                       /    
 |  /                       /     
 | /                       /      
 |/                       /       
 *-----------------------*        

Positions:
   0 Li     1.617037    1.617037   10.000000    ( 0.0000,  0.0000,  0.0000)
   1 Li     4.851111    1.617037   10.000000    ( 0.0000,  0.0000,  0.0000)
   2 Li     8.085185    1.617037   10.000000    ( 0.0000,  0.0000,  0.0000)
   3 Li     1.617037    4.851111   10.000000    ( 0.0000,  0.0000,  0.0000)
   4 Li     4.851111    4.851111   10.000000    ( 0.0000,  0.0000,  0.0000)
   5 Li     8.085185    4.851111   10.000000    ( 0.0000,  0.0000,  0.0000)
   6 Li     1.617037    8.085185   10.000000    ( 0.0000,  0.0000,  0.0000)
   7 Li     4.851111    8.085185   10.000000    ( 0.0000,  0.0000,  0.0000)
   8 Li     8.085185    8.085185   10.000000    ( 0.0000,  0.0000,  0.0000)
   9 Li     0.000000    0.000000   11.617037    ( 0.0000,  0.0000,  0.0000)
  10 Li     3.234074    0.000000   11.617037    ( 0.0000,  0.0000,  0.0000)
  11 Li     6.468148    0.000000   11.617037    ( 0.0000,  0.0000,  0.0000)
  12 Li     0.000000    3.234074   11.617037    ( 0.0000,  0.0000,  0.0000)
  13 Li     3.234074    3.234074   11.617037    ( 0.0000,  0.0000,  0.0000)
  14 Li     6.468148    3.234074   11.617037    ( 0.0000,  0.0000,  0.0000)
  15 Li     0.000000    6.468148   11.617037    ( 0.0000,  0.0000,  0.0000)
  16 Li     3.234074    6.468148   11.617037    ( 0.0000,  0.0000,  0.0000)
  17 Li     6.468148    6.468148   11.617037    ( 0.0000,  0.0000,  0.0000)
  18 Li     1.617161    1.617302   13.470136    ( 0.0000,  0.0000,  0.0000)
  19 Li     4.850547    1.616874   13.472585    ( 0.0000,  0.0000,  0.0000)
  20 Li     8.085533    1.616892   13.471926    ( 0.0000,  0.0000,  0.0000)
  21 Li     1.616945    4.850768   13.471729    ( 0.0000,  0.0000,  0.0000)
  22 Li     4.851290    4.851301   13.471249    ( 0.0000,  0.0000,  0.0000)
  23 Li     8.085121    4.851047   13.471218    ( 0.0000,  0.0000,  0.0000)
  24 Li     1.616865    8.085200   13.471984    ( 0.0000,  0.0000,  0.0000)
  25 Li     4.850942    8.085192   13.471698    ( 0.0000,  0.0000,  0.0000)
  26 Li     8.085540    8.085417   13.471564    ( 0.0000,  0.0000,  0.0000)
  27 Li    -0.010047   -0.008152   15.436062    ( 0.0000,  0.0000,  0.0000)
  28 Li     3.239247   -0.002171   15.438143    ( 0.0000,  0.0000,  0.0000)
  29 Li     6.467321    0.000702   15.445200    ( 0.0000,  0.0000,  0.0000)
  30 Li    -0.001650    3.236767   15.456311    ( 0.0000,  0.0000,  0.0000)
  31 Li     3.237966    3.236241   15.439729    ( 0.0000,  0.0000,  0.0000)
  32 Li     6.466589    3.233460   15.444172    ( 0.0000,  0.0000,  0.0000)
  33 Li     0.000515    6.468377   15.444715    ( 0.0000,  0.0000,  0.0000)
  34 Li     3.234087    6.468233   15.444497    ( 0.0000,  0.0000,  0.0000)
  35 Li     6.467603    6.468140   15.444749    ( 0.0000,  0.0000,  0.0000)
  36 O      9.701083    9.704475   18.445292    ( 0.0000,  0.0000,  0.0000)
  37 O      9.743562   12.601464   18.198545    ( 0.0000,  0.0000,  0.0000)
  38 C     10.868808   10.428498   18.054238    ( 0.0000,  0.0000,  0.0000)
  39 C     10.891907   11.839770   18.605652    ( 0.0000,  0.0000,  0.0000)
  40 H     11.791633    9.899675   18.324271    ( 0.0000,  0.0000,  0.0000)
  41 H     10.837080   10.472055   16.946837    ( 0.0000,  0.0000,  0.0000)
  42 H     11.764633   12.377745   18.227688    ( 0.0000,  0.0000,  0.0000)
  43 H     10.963315   11.792068   19.699455    ( 0.0000,  0.0000,  0.0000)
  44 H      9.774044    9.528301   19.391835    ( 0.0000,  0.0000,  0.0000)
  45 H      8.972193   12.021567   18.310601    ( 0.0000,  0.0000,  0.0000)

Unit cell:
           periodic     x           y           z      points  spacing
  1. axis:    yes    9.702222    0.000000    0.000000    60     0.1617
  2. axis:    yes    0.000000    9.702222    0.000000    60     0.1617
  3. axis:    no     0.000000    0.000000   24.851111   156     0.1593

  Lengths:   9.702222   9.702222  24.851111
  Angles:   90.000000  90.000000  90.000000

Effective grid spacing dv^(1/3) = 0.1609

     iter     time        total  log10-change:
                         energy  eigst   dens
iter:   1 23:40:33  -290.725943  -1.78
iter:   2 23:46:07  -290.724947  -2.48  -2.32
iter:   3 23:53:51  -290.724446c -2.98  -2.52
iter:   4 00:01:35  -290.722873c -2.66  -2.57
Writing to output.gpw (mode='')

iter:   5 00:07:19  -290.722699c -3.43  -2.77
iter:   6 00:14:45  -290.722479c -2.98  -2.95
iter:   7 00:21:40  -290.722564c -3.08  -3.01
iter:   8 00:27:40  -290.722447c -3.72  -3.00
iter:   9 00:33:17  -290.722459c -3.91  -3.23
Writing to output.gpw (mode='')

iter:  10 00:37:58  -290.722432c -4.27  -3.34
iter:  11 00:43:09  -290.722442c -4.45  -3.57
iter:  12 00:47:37  -290.722437c -4.86  -3.67
iter:  13 00:53:38  -290.722440c -5.29  -3.76
iter:  14 01:00:34  -290.722440c -5.15  -3.85
Writing to output.gpw (mode='')

iter:  15 01:08:03  -290.722436c -5.37  -3.89
iter:  16 01:13:44  -290.722433c -5.54  -3.94
iter:  17 01:19:57  -290.722432c -5.66  -4.13c
iter:  18 01:26:53  -290.722433c -5.83  -4.18c
iter:  19 01:34:19  -290.722432c -6.34  -4.30c
Writing to output.gpw (mode='')

iter:  20 01:41:39  -290.722431c -6.38  -4.54c
iter:  21 01:47:54  -290.722431c -6.66  -4.64c
iter:  22 01:52:36  -290.722431c -6.51  -4.81c
iter:  23 01:58:53  -290.722431c -6.82  -4.92c
iter:  24 02:04:43  -290.722431c -7.23  -5.00c
Writing to output.gpw (mode='')

iter:  25 02:09:20  -290.722431c -7.37  -5.04c
iter:  26 02:17:04  -290.722432c -7.45c -5.09c

Converged after 26 iterations.

Dipole moment: (-17.032802, -9.601572, 0.437763) |e|*Ang

Energy contributions relative to reference atoms: (reference = -13512.263335)

Kinetic:       +139.723656
Potential:     -131.129124
External:        +0.000000
XC:            -299.849232
Entropy (-ST):   -0.151030
Local:           +0.607782
--------------------------
Free energy:   -290.797947
Extrapolated:  -290.722432

Dipole-layer corrected work functions: 3.389435, 2.547904 eV

Showing only first 2 kpts
 Kpt  Band  Eigenvalues  Occupancy
  0    29     -3.22192    1.98745
  0    30     -3.14328    1.94093
  0    31     -2.80204    0.06894
  0    32     -2.71683    0.01291

  1    29     -2.99393    1.24739
  1    30     -2.95880    0.90162
  1    31     -2.93115    0.64149
  1    32     -2.91254    0.49108


Fermi level: -2.96867

No gap
Writing to output.gpw (mode='')


Forces in eV/Ang:
  0 Li    0.00360    0.00116   -0.26822
  1 Li    0.00452    0.00028   -0.27138
  2 Li   -0.00763    0.00043   -0.26913
  3 Li    0.00105    0.00758   -0.27128
  4 Li   -0.00251   -0.00157   -0.27852
  5 Li    0.00137    0.00031   -0.27309
  6 Li    0.00109   -0.00825   -0.27126
  7 Li   -0.00254    0.00107   -0.27521
  8 Li    0.00126   -0.00103   -0.27073
  9 Li    0.00266   -0.00204    0.27427
 10 Li    0.00203   -0.00239    0.26094
 11 Li   -0.00521    0.00172    0.25757
 12 Li   -0.00202    0.00527    0.26931
 13 Li    0.00871    0.00548    0.25466
 14 Li   -0.00732   -0.00739    0.25958
 15 Li    0.00006   -0.00373    0.24989
 16 Li   -0.00409   -0.00379    0.25612
 17 Li    0.00424    0.00621    0.26719
 18 Li   -0.00017    0.00585    0.00834
 19 Li   -0.00858   -0.00272    0.04823
 20 Li    0.00578    0.00027    0.03788
 21 Li   -0.00363   -0.00717    0.03664
 22 Li    0.00418    0.00470    0.02515
 23 Li   -0.00008   -0.00250    0.02815
 24 Li   -0.00276   -0.00121    0.03728
 25 Li   -0.00156   -0.00151    0.03276
 26 Li    0.00330    0.00139    0.02959
 27 Li   -0.17152   -0.14183   -0.16453
 28 Li    0.09035   -0.03869   -0.14165
 29 Li   -0.01734    0.01224   -0.01339
 30 Li   -0.02911    0.04420    0.21338
 31 Li    0.07280    0.03988   -0.11507
 32 Li   -0.03011   -0.01107   -0.03278
 33 Li    0.00882    0.00331   -0.02279
 34 Li    0.00054    0.00090   -0.02606
 35 Li   -0.00935    0.00067   -0.02122
 36 O    -0.07809    0.01297    0.06379
 37 O     0.01572   -0.16917   -0.16956
 38 C     0.17001    0.03063   -0.28815
 39 C    -0.11323    0.07691   -0.03520
 40 H     0.00646   -0.05482    0.04931
 41 H     0.15776    0.11764    0.34848
 42 H     0.05140   -0.01344    0.02039
 43 H    -0.01669    0.11237    0.09181
 44 H    -0.09155   -0.11828    0.02124
 45 H     0.00640    0.10021   -0.00566

System changes: positions 

Initializing position-dependent things.

Density initialized from wave functions
       .-----------------------.  
      /|                       |  
     / |                       |  
    /  |                       |  
   /   |                       |  
  /    |                       |  
 *     |                       |  
 |     H                       |  
 |     |                       |  
 |     |                       |  
 |     |                       |  
 |   H |                       |  
 |   C |       Li              Li 
 | O   |H                H     |  
 |  CLH|     Li      Li  O     |  
 |  H  |  Li      Li      Li   |  
 |     |   Li      Li      Li  |  
 |     |Li      Li      Li     |  
 |     |         Li            |  
 |   LLi     LLi     LLi       |  
 |     |  Li      Li      Li   |  
 | Li  |   Li      Li          |  
 |     |Li      Li      Li     |  
 Li    | Li      Li            |  
 |    Li      Li      Li       |  
 |     |                       |  
 |     |                       |  
 |     |                       |  
 |     |                       |  
 |     |                       |  
 |     |                       |  
 |     .-----------------------.  
 |    /                       /   
 |   /                       /    
 |  /                       /     
 | /                       /      
 |/                       /       
 *-----------------------*        

Positions:
   0 Li     1.617037    1.617037   10.000000    ( 0.0000,  0.0000,  0.0000)
   1 Li     4.851111    1.617037   10.000000    ( 0.0000,  0.0000,  0.0000)
   2 Li     8.085185    1.617037   10.000000    ( 0.0000,  0.0000,  0.0000)
   3 Li     1.617037    4.851111   10.000000    ( 0.0000,  0.0000,  0.0000)
   4 Li     4.851111    4.851111   10.000000    ( 0.0000,  0.0000,  0.0000)
   5 Li     8.085185    4.851111   10.000000    ( 0.0000,  0.0000,  0.0000)
   6 Li     1.617037    8.085185   10.000000    ( 0.0000,  0.0000,  0.0000)
   7 Li     4.851111    8.085185   10.000000    ( 0.0000,  0.0000,  0.0000)
   8 Li     8.085185    8.085185   10.000000    ( 0.0000,  0.0000,  0.0000)
   9 Li     0.000000    0.000000   11.617037    ( 0.0000,  0.0000,  0.0000)
  10 Li     3.234074    0.000000   11.617037    ( 0.0000,  0.0000,  0.0000)
  11 Li     6.468148    0.000000   11.617037    ( 0.0000,  0.0000,  0.0000)
  12 Li     0.000000    3.234074   11.617037    ( 0.0000,  0.0000,  0.0000)
  13 Li     3.234074    3.234074   11.617037    ( 0.0000,  0.0000,  0.0000)
  14 Li     6.468148    3.234074   11.617037    ( 0.0000,  0.0000,  0.0000)
  15 Li     0.000000    6.468148   11.617037    ( 0.0000,  0.0000,  0.0000)
  16 Li     3.234074    6.468148   11.617037    ( 0.0000,  0.0000,  0.0000)
  17 Li     6.468148    6.468148   11.617037    ( 0.0000,  0.0000,  0.0000)
  18 Li     1.617302    1.617803   13.470888    ( 0.0000,  0.0000,  0.0000)
  19 Li     4.849602    1.616591   13.477527    ( 0.0000,  0.0000,  0.0000)
  20 Li     8.086135    1.616727   13.475755    ( 0.0000,  0.0000,  0.0000)
  21 Li     1.616717    4.850130   13.475282    ( 0.0000,  0.0000,  0.0000)
  22 Li     4.851638    4.851677   13.473862    ( 0.0000,  0.0000,  0.0000)
  23 Li     8.085043    4.850891   13.473891    ( 0.0000,  0.0000,  0.0000)
  24 Li     1.616570    8.085180   13.475864    ( 0.0000,  0.0000,  0.0000)
  25 Li     4.850690    8.085154   13.475089    ( 0.0000,  0.0000,  0.0000)
  26 Li     8.086070    8.085738   13.474697    ( 0.0000,  0.0000,  0.0000)
  27 Li    -0.027499   -0.022397   15.419033    ( 0.0000,  0.0000,  0.0000)
  28 Li     3.248300   -0.005996   15.424327    ( 0.0000,  0.0000,  0.0000)
  29 Li     6.465782    0.001929   15.443892    ( 0.0000,  0.0000,  0.0000)
  30 Li    -0.004547    3.241390   15.475482    ( 0.0000,  0.0000,  0.0000)
  31 Li     3.244926    3.240094   15.428656    ( 0.0000,  0.0000,  0.0000)
  32 Li     6.463773    3.232372   15.441021    ( 0.0000,  0.0000,  0.0000)
  33 Li     0.001410    6.468756   15.442529    ( 0.0000,  0.0000,  0.0000)
  34 Li     3.234116    6.468365   15.441947    ( 0.0000,  0.0000,  0.0000)
  35 Li     6.466657    6.468156   15.442654    ( 0.0000,  0.0000,  0.0000)
  36 O      9.697271    9.707682   18.446074    ( 0.0000,  0.0000,  0.0000)
  37 O      9.741106   12.597582   18.175556    ( 0.0000,  0.0000,  0.0000)
  38 C     10.868644   10.426684   18.070613    ( 0.0000,  0.0000,  0.0000)
  39 C     10.894120   11.841881   18.607967    ( 0.0000,  0.0000,  0.0000)
  40 H     11.796333    9.894415   18.323237    ( 0.0000,  0.0000,  0.0000)
  41 H     10.855113   10.485966   16.960836    ( 0.0000,  0.0000,  0.0000)
  42 H     11.770092   12.378596   18.230092    ( 0.0000,  0.0000,  0.0000)
  43 H     10.963598   11.797800   19.699562    ( 0.0000,  0.0000,  0.0000)
  44 H      9.767999    9.519141   19.391116    ( 0.0000,  0.0000,  0.0000)
  45 H      8.963918   12.025288   18.311548    ( 0.0000,  0.0000,  0.0000)

Unit cell:
           periodic     x           y           z      points  spacing
  1. axis:    yes    9.702222    0.000000    0.000000    60     0.1617
  2. axis:    yes    0.000000    9.702222    0.000000    60     0.1617
  3. axis:    no     0.000000    0.000000   24.851111   156     0.1593

  Lengths:   9.702222   9.702222  24.851111
  Angles:   90.000000  90.000000  90.000000

Effective grid spacing dv^(1/3) = 0.1609

     iter     time        total  log10-change:
                         energy  eigst   dens
iter:   1 02:26:27  -290.756924  -1.20
iter:   2 02:31:53  -290.752039  -1.87  -1.99
iter:   3 02:36:34  -290.750151c -2.39  -2.22
iter:   4 02:41:08  -290.745861c -2.36  -2.27
Writing to output.gpw (mode='')

iter:   5 02:45:44  -290.745473c -2.87  -2.51
iter:   6 02:52:41  -290.744823c -2.56  -2.61
iter:   7 03:00:40  -290.744785c -2.58  -2.72
iter:   8 03:09:38  -290.744754c -3.08  -2.91
iter:   9 03:15:26  -290.744768c -3.25  -2.96
Writing to output.gpw (mode='')

iter:  10 03:19:08  -290.744725c -3.45  -3.04
iter:  11 03:24:14  -290.744706c -4.02  -3.33
iter:  12 03:28:13  -290.744714c -4.22  -3.43
iter:  13 03:31:55  -290.744706c -4.65  -3.49
iter:  14 03:34:52  -290.744706c -4.43  -3.61
Writing to output.gpw (mode='')

iter:  15 03:41:00  -290.744703c -4.73  -3.71
iter:  16 03:46:28  -290.744697c -5.13  -3.71
iter:  17 03:50:18  -290.744683c -5.02  -3.80
iter:  18 03:55:54  -290.744685c -5.65  -4.04c
iter:  19 03:59:54  -290.744689c -5.40  -4.12c
Writing to output.gpw (mode='')

iter:  20 04:05:11  -290.744687c -5.97  -4.13c
iter:  21 04:10:31  -290.744685c -5.74  -4.22c
iter:  22 04:16:28  -290.744687c -6.24  -4.38c
iter:  23 04:21:55  -290.744686c -6.05  -4.47c
iter:  24 04:26:16  -290.744686c -6.43  -4.71c
Writing to output.gpw (mode='')

iter:  25 04:31:22  -290.744686c -6.59  -4.75c
iter:  26 04:37:02  -290.744687c -6.78  -4.92c
iter:  27 04:41:38  -290.744687c -6.87  -4.98c
iter:  28 04:45:21  -290.744687c -6.93  -5.18c
iter:  29 04:51:51  -290.744687c -6.98  -5.26c
Writing to output.gpw (mode='')

iter:  30 04:58:04  -290.744687c -7.09  -5.29c
iter:  31 05:03:18  -290.744687c -7.37  -5.32c
iter:  32 05:07:05  -290.744687c -7.51c -5.40c

Converged after 32 iterations.

Dipole moment: (-16.176149, -9.591121, 0.443397) |e|*Ang

Energy contributions relative to reference atoms: (reference = -13512.263335)

Kinetic:       +139.212477
Potential:     -130.763604
External:        +0.000000
XC:            -299.725561
Entropy (-ST):   -0.150981
Local:           +0.607490
--------------------------
Free energy:   -290.820178
Extrapolated:  -290.744687

Dipole-layer corrected work functions: 3.388566, 2.536205 eV

Showing only first 2 kpts
 Kpt  Band  Eigenvalues  Occupancy
  0    29     -3.21533    1.98738
  0    30     -3.13689    1.94081
  0    31     -2.79525    0.06827
  0    32     -2.71022    0.01282

  1    29     -2.98745    1.24551
  1    30     -2.95236    0.90011
  1    31     -2.92556    0.64757
  1    32     -2.90621    0.49072


Fermi level: -2.96239

No gap
Writing to output.gpw (mode='')


Forces in eV/Ang:
  0 Li    0.00392    0.00111   -0.26902
  1 Li    0.00445    0.00010   -0.27222
  2 Li   -0.00789    0.00007   -0.26943
  3 Li    0.00122    0.00775   -0.27134
  4 Li   -0.00257   -0.00139   -0.27893
  5 Li    0.00154    0.00056   -0.27269
  6 Li    0.00105   -0.00839   -0.27238
  7 Li   -0.00252    0.00139   -0.27526
  8 Li    0.00120   -0.00094   -0.27152
  9 Li    0.00212   -0.00286    0.27807
 10 Li    0.00282   -0.00282    0.26545
 11 Li   -0.00500    0.00217    0.26195
 12 Li   -0.00264    0.00553    0.27107
 13 Li    0.01004    0.00566    0.25839
 14 Li   -0.00828   -0.00755    0.26273
 15 Li    0.00001   -0.00263    0.25264
 16 Li   -0.00451   -0.00365    0.25995
 17 Li    0.00461    0.00578    0.26961
 18 Li   -0.00553    0.00724    0.00962
 19 Li   -0.00374   -0.00176    0.03271
 20 Li    0.00428    0.00667    0.02886
 21 Li   -0.00736   -0.00825    0.03191
 22 Li    0.00575    0.00687    0.01564
 23 Li    0.00224   -0.00496    0.02659
 24 Li   -0.00152   -0.00399    0.02396
 25 Li    0.00222   -0.00498    0.02111
 26 Li   -0.00445   -0.00536    0.01600
 27 Li   -0.12940   -0.11191   -0.11676
 28 Li    0.07330   -0.03255   -0.12324
 29 Li   -0.01909    0.00970   -0.01067
 30 Li   -0.02412    0.03045    0.22802
 31 Li    0.06588    0.03515   -0.10192
 32 Li   -0.02892   -0.00922   -0.02945
 33 Li    0.00656    0.00132   -0.02014
 34 Li    0.00101   -0.00039   -0.02186
 35 Li   -0.00688    0.00193   -0.01720
 36 O    -0.06350    0.00006    0.14101
 37 O     0.08348   -0.30919   -0.00498
 38 C     0.38402    0.11943   -0.65147
 39 C    -0.19987    0.09262   -0.09349
 40 H    -0.06894   -0.04261    0.16446
 41 H     0.03318    0.02394    0.35596
 42 H    -0.01680   -0.05366    0.02162
 43 H    -0.08529    0.20710    0.16749
 44 H    -0.11762   -0.12338   -0.00513
 45 H     0.15139    0.16249   -0.03508

System changes: positions 

Initializing position-dependent things.

Density initialized from wave functions
       .-----------------------.  
      /|                       |  
     / |                       |  
    /  |                       |  
   /   |                       |  
  /    |                       |  
 *     |                       |  
 |     H                       |  
 |     |                       |  
 |     |                       |  
 |     |                       |  
 |   H |                       |  
 |   C |       Li              Li 
 | O   |H                H     |  
 |  CLH|     Li      Li  O     |  
 |  H  |  Li      Li      Li   |  
 |     |   Li      Li      Li  |  
 |     |Li      Li      Li     |  
 |     |         Li            |  
 |   LLi     LLi     LLi       |  
 |     |  Li      Li      Li   |  
 | Li  |   Li      Li          |  
 |     |Li      Li      Li     |  
 Li    | Li      Li            |  
 |    Li      Li      Li       |  
 |     |                       |  
 |     |                       |  
 |     |                       |  
 |     |                       |  
 |     |                       |  
 |     |                       |  
 |     .-----------------------.  
 |    /                       /   
 |   /                       /    
 |  /                       /     
 | /                       /      
 |/                       /       
 *-----------------------*        

Positions:
   0 Li     1.617037    1.617037   10.000000    ( 0.0000,  0.0000,  0.0000)
   1 Li     4.851111    1.617037   10.000000    ( 0.0000,  0.0000,  0.0000)
   2 Li     8.085185    1.617037   10.000000    ( 0.0000,  0.0000,  0.0000)
   3 Li     1.617037    4.851111   10.000000    ( 0.0000,  0.0000,  0.0000)
   4 Li     4.851111    4.851111   10.000000    ( 0.0000,  0.0000,  0.0000)
   5 Li     8.085185    4.851111   10.000000    ( 0.0000,  0.0000,  0.0000)
   6 Li     1.617037    8.085185   10.000000    ( 0.0000,  0.0000,  0.0000)
   7 Li     4.851111    8.085185   10.000000    ( 0.0000,  0.0000,  0.0000)
   8 Li     8.085185    8.085185   10.000000    ( 0.0000,  0.0000,  0.0000)
   9 Li     0.000000    0.000000   11.617037    ( 0.0000,  0.0000,  0.0000)
  10 Li     3.234074    0.000000   11.617037    ( 0.0000,  0.0000,  0.0000)
  11 Li     6.468148    0.000000   11.617037    ( 0.0000,  0.0000,  0.0000)
  12 Li     0.000000    3.234074   11.617037    ( 0.0000,  0.0000,  0.0000)
  13 Li     3.234074    3.234074   11.617037    ( 0.0000,  0.0000,  0.0000)
  14 Li     6.468148    3.234074   11.617037    ( 0.0000,  0.0000,  0.0000)
  15 Li     0.000000    6.468148   11.617037    ( 0.0000,  0.0000,  0.0000)
  16 Li     3.234074    6.468148   11.617037    ( 0.0000,  0.0000,  0.0000)
  17 Li     6.468148    6.468148   11.617037    ( 0.0000,  0.0000,  0.0000)
  18 Li     1.617347    1.618498   13.471911    ( 0.0000,  0.0000,  0.0000)
  19 Li     4.848486    1.616245   13.483609    ( 0.0000,  0.0000,  0.0000)
  20 Li     8.086885    1.616676   13.480546    ( 0.0000,  0.0000,  0.0000)
  21 Li     1.616322    4.849266   13.479823    ( 0.0000,  0.0000,  0.0000)
  22 Li     4.852134    4.852228   13.477043    ( 0.0000,  0.0000,  0.0000)
  23 Li     8.085002    4.850622   13.477358    ( 0.0000,  0.0000,  0.0000)
  24 Li     1.616215    8.085081   13.480610    ( 0.0000,  0.0000,  0.0000)
  25 Li     4.850459    8.085013   13.479237    ( 0.0000,  0.0000,  0.0000)
  26 Li     8.086563    8.085985   13.478456    ( 0.0000,  0.0000,  0.0000)
  27 Li    -0.049309   -0.040315   15.397923    ( 0.0000,  0.0000,  0.0000)
  28 Li     3.259741   -0.010856   15.406672    ( 0.0000,  0.0000,  0.0000)
  29 Li     6.463717    0.003473   15.442245    ( 0.0000,  0.0000,  0.0000)
  30 Li    -0.008219    3.247101   15.501018    ( 0.0000,  0.0000,  0.0000)
  31 Li     3.253880    3.245028   15.414467    ( 0.0000,  0.0000,  0.0000)
  32 Li     6.460108    3.230992   15.436972    ( 0.0000,  0.0000,  0.0000)
  33 Li     0.002526    6.469201   15.439729    ( 0.0000,  0.0000,  0.0000)
  34 Li     3.234166    6.468506   15.438710    ( 0.0000,  0.0000,  0.0000)
  35 Li     6.465480    6.468208   15.440009    ( 0.0000,  0.0000,  0.0000)
  36 O      9.692644    9.711658   18.448590    ( 0.0000,  0.0000,  0.0000)
  37 O      9.739901   12.589071   18.149633    ( 0.0000,  0.0000,  0.0000)
  38 C     10.874019   10.426557   18.083334    ( 0.0000,  0.0000,  0.0000)
  39 C     10.894798   11.844994   18.609369    ( 0.0000,  0.0000,  0.0000)
  40 H     11.800468    9.887880   18.324811    ( 0.0000,  0.0000,  0.0000)
  41 H     10.875494   10.501782   16.979039    ( 0.0000,  0.0000,  0.0000)
  42 H     11.775446   12.378676   18.233293    ( 0.0000,  0.0000,  0.0000)
  43 H     10.962180   11.807767   19.701673    ( 0.0000,  0.0000,  0.0000)
  44 H      9.759467    9.506939   19.389873    ( 0.0000,  0.0000,  0.0000)
  45 H      8.956591   12.031597   18.312063    ( 0.0000,  0.0000,  0.0000)

Unit cell:
           periodic     x           y           z      points  spacing
  1. axis:    yes    9.702222    0.000000    0.000000    60     0.1617
  2. axis:    yes    0.000000    9.702222    0.000000    60     0.1617
  3. axis:    no     0.000000    0.000000   24.851111   156     0.1593

  Lengths:   9.702222   9.702222  24.851111
  Angles:   90.000000  90.000000  90.000000

Effective grid spacing dv^(1/3) = 0.1609

     iter     time        total  log10-change:
                         energy  eigst   dens
iter:   1 05:11:41  -290.794958  -1.07
iter:   2 05:15:45  -290.778279  -1.72  -1.81
iter:   3 05:19:41  -290.774278c -2.27  -2.08
iter:   4 05:21:54  -290.769689c -2.36  -2.22
Writing to output.gpw (mode='')

iter:   5 05:26:18  -290.769003c -2.72  -2.42
iter:   6 05:29:48  -290.768300c -2.46  -2.54
iter:   7 05:32:41  -290.768223c -2.50  -2.67
iter:   8 05:36:08  -290.768232c -3.02  -2.91
iter:   9 05:38:40  -290.768206c -3.30  -2.90
Writing to output.gpw (mode='')

iter:  10 05:41:17  -290.768198c -3.25  -3.01
iter:  11 05:44:23  -290.768154c -3.94  -3.27
iter:  12 05:47:11  -290.768166c -4.05  -3.38
iter:  13 05:50:13  -290.768159c -4.51  -3.45
iter:  14 05:52:49  -290.768156c -4.32  -3.56
Writing to output.gpw (mode='')

iter:  15 05:56:20  -290.768140c -4.77  -3.70
iter:  16 05:58:43  -290.768139c -4.94  -3.81
iter:  17 06:01:50  -290.768140c -5.01  -3.86
iter:  18 06:04:44  -290.768139c -5.41  -3.96
iter:  19 06:07:24  -290.768141c -5.48  -4.10c
Writing to output.gpw (mode='')

iter:  20 06:10:14  -290.768142c -5.72  -4.21c
iter:  21 06:12:26  -290.768142c -5.81  -4.30c
iter:  22 06:14:35  -290.768142c -5.87  -4.37c
iter:  23 06:17:38  -290.768142c -6.01  -4.44c
iter:  24 06:19:56  -290.768143c -6.31  -4.50c
Writing to output.gpw (mode='')

iter:  25 06:23:17  -290.768143c -6.45  -4.63c
iter:  26 06:25:24  -290.768143c -6.39  -4.73c
iter:  27 06:27:34  -290.768143c -6.74  -4.92c
iter:  28 06:31:50  -290.768143c -6.71  -5.03c
iter:  29 06:34:00  -290.768143c -6.88  -5.10c
Writing to output.gpw (mode='')

iter:  30 06:37:01  -290.768143c -6.95  -5.14c
iter:  31 06:41:26  -290.768143c -7.09  -5.29c
iter:  32 06:44:01  -290.768143c -7.19  -5.38c
iter:  33 06:48:02  -290.768143c -7.20  -5.51c
iter:  34 06:50:58  -290.768143c -7.41c -5.58c

Converged after 34 iterations.

Dipole moment: (-15.207429, -9.568070, 0.448183) |e|*Ang

Energy contributions relative to reference atoms: (reference = -13512.263335)

Kinetic:       +138.986422
Potential:     -130.599470
External:        +0.000000
XC:            -299.686734
Entropy (-ST):   -0.150883
Local:           +0.607080
--------------------------
Free energy:   -290.843585
Extrapolated:  -290.768143

Dipole-layer corrected work functions: 3.387694, 2.526132 eV

Showing only first 2 kpts
 Kpt  Band  Eigenvalues  Occupancy
  0    29     -3.20947    1.98728
  0    30     -3.13130    1.94067
  0    31     -2.78923    0.06755
  0    32     -2.70440    0.01273

  1    29     -2.98178    1.24363
  1    30     -2.94681    0.89933
  1    31     -2.92092    0.65484
  1    32     -2.90065    0.49009


Fermi level: -2.95691

No gap
Writing to output.gpw (mode='')


Forces in eV/Ang:
  0 Li    0.00428    0.00107   -0.26996
  1 Li    0.00439   -0.00013   -0.27331
  2 Li   -0.00819   -0.00033   -0.26976
  3 Li    0.00140    0.00795   -0.27139
  4 Li   -0.00268   -0.00118   -0.27952
  5 Li    0.00184    0.00078   -0.27216
  6 Li    0.00103   -0.00858   -0.27380
  7 Li   -0.00255    0.00184   -0.27524
  8 Li    0.00114   -0.00080   -0.27251
  9 Li    0.00143   -0.00384    0.28278
 10 Li    0.00374   -0.00330    0.27095
 11 Li   -0.00464    0.00279    0.26739
 12 Li   -0.00346    0.00600    0.27250
 13 Li    0.01161    0.00592    0.26297
 14 Li   -0.00941   -0.00769    0.26657
 15 Li   -0.00008   -0.00145    0.25605
 16 Li   -0.00502   -0.00362    0.26469
 17 Li    0.00512    0.00513    0.27242
 18 Li   -0.01226    0.00877    0.01167
 19 Li    0.00239   -0.00055    0.01316
 20 Li    0.00277    0.01475    0.01850
 21 Li   -0.01214   -0.00969    0.02630
 22 Li    0.00795    0.00983    0.00344
 23 Li    0.00517   -0.00806    0.02509
 24 Li   -0.00002   -0.00726    0.00785
 25 Li    0.00725   -0.00957    0.00651
 26 Li   -0.01476   -0.01446   -0.00194
 27 Li   -0.08598   -0.08069   -0.06671
 28 Li    0.05373   -0.02530   -0.10090
 29 Li   -0.02103    0.00676   -0.00693
 30 Li   -0.01832    0.01453    0.24133
 31 Li    0.05656    0.02920   -0.08477
 32 Li   -0.02695   -0.00694   -0.02519
 33 Li    0.00392   -0.00115   -0.01660
 34 Li    0.00150   -0.00178   -0.01657
 35 Li   -0.00384    0.00335   -0.01208
 36 O     0.02951    0.05847    0.05070
 37 O     0.17107   -0.29039    0.04461
 38 C     0.33930    0.13439   -0.68371
 39 C    -0.17739    0.05579   -0.05850
 40 H    -0.08901   -0.03680    0.26544
 41 H    -0.07484   -0.08356    0.19103
 42 H    -0.08619   -0.06004    0.01640
 43 H    -0.16062    0.27963    0.15495
 44 H    -0.10073   -0.12130    0.02055
 45 H     0.20337    0.13657   -0.04602

System changes: positions 

Initializing position-dependent things.

Density initialized from wave functions
       .-----------------------.  
      /|                       |  
     / |                       |  
    /  |                       |  
   /   |                       |  
  /    |                       |  
 *     |                       |  
 |     H                       |  
 |     |                       |  
 |     |                       |  
 |     |                       |  
 |   H |                       |  
 |   C |       Li              Li 
 | O   |H                H     |  
 |  CLH|     Li      Li  O     |  
 |  H  |  Li      Li      Li   |  
 |     |   Li      Li      Li  |  
 |     |Li      Li      Li     |  
 |     |         Li            |  
 |   LLi     LLi     LLi       |  
 |     |  Li      Li      Li   |  
 | Li  |   Li      Li          |  
 |     |Li      Li      Li     |  
 Li    | Li      Li            |  
 |    Li      Li      Li       |  
 |     |                       |  
 |     |                       |  
 |     |                       |  
 |     |                       |  
 |     |                       |  
 |     |                       |  
 |     .-----------------------.  
 |    /                       /   
 |   /                       /    
 |  /                       /     
 | /                       /      
 |/                       /       
 *-----------------------*        

Positions:
   0 Li     1.617037    1.617037   10.000000    ( 0.0000,  0.0000,  0.0000)
   1 Li     4.851111    1.617037   10.000000    ( 0.0000,  0.0000,  0.0000)
   2 Li     8.085185    1.617037   10.000000    ( 0.0000,  0.0000,  0.0000)
   3 Li     1.617037    4.851111   10.000000    ( 0.0000,  0.0000,  0.0000)
   4 Li     4.851111    4.851111   10.000000    ( 0.0000,  0.0000,  0.0000)
   5 Li     8.085185    4.851111   10.000000    ( 0.0000,  0.0000,  0.0000)
   6 Li     1.617037    8.085185   10.000000    ( 0.0000,  0.0000,  0.0000)
   7 Li     4.851111    8.085185   10.000000    ( 0.0000,  0.0000,  0.0000)
   8 Li     8.085185    8.085185   10.000000    ( 0.0000,  0.0000,  0.0000)
   9 Li     0.000000    0.000000   11.617037    ( 0.0000,  0.0000,  0.0000)
  10 Li     3.234074    0.000000   11.617037    ( 0.0000,  0.0000,  0.0000)
  11 Li     6.468148    0.000000   11.617037    ( 0.0000,  0.0000,  0.0000)
  12 Li     0.000000    3.234074   11.617037    ( 0.0000,  0.0000,  0.0000)
  13 Li     3.234074    3.234074   11.617037    ( 0.0000,  0.0000,  0.0000)
  14 Li     6.468148    3.234074   11.617037    ( 0.0000,  0.0000,  0.0000)
  15 Li     0.000000    6.468148   11.617037    ( 0.0000,  0.0000,  0.0000)
  16 Li     3.234074    6.468148   11.617037    ( 0.0000,  0.0000,  0.0000)
  17 Li     6.468148    6.468148   11.617037    ( 0.0000,  0.0000,  0.0000)
  18 Li     1.617177    1.619390   13.473210    ( 0.0000,  0.0000,  0.0000)
  19 Li     4.847344    1.615867   13.490306    ( 0.0000,  0.0000,  0.0000)
  20 Li     8.087736    1.616885   13.485977    ( 0.0000,  0.0000,  0.0000)
  21 Li     1.615685    4.848174   13.485117    ( 0.0000,  0.0000,  0.0000)
  22 Li     4.852805    4.852990   13.480482    ( 0.0000,  0.0000,  0.0000)
  23 Li     8.085050    4.850193   13.481492    ( 0.0000,  0.0000,  0.0000)
  24 Li     1.615838    8.084851   13.485799    ( 0.0000,  0.0000,  0.0000)
  25 Li     4.850344    8.084692   13.483760    ( 0.0000,  0.0000,  0.0000)
  26 Li     8.086820    8.085985   13.482406    ( 0.0000,  0.0000,  0.0000)
  27 Li    -0.074112   -0.060855   15.374196    ( 0.0000,  0.0000,  0.0000)
  28 Li     3.272885   -0.016480   15.386100    ( 0.0000,  0.0000,  0.0000)
  29 Li     6.461153    0.005237   15.440377    ( 0.0000,  0.0000,  0.0000)
  30 Li    -0.012455    3.253451   15.532378    ( 0.0000,  0.0000,  0.0000)
  31 Li     3.264394    3.250789   15.397888    ( 0.0000,  0.0000,  0.0000)
  32 Li     6.455741    3.229402   15.432221    ( 0.0000,  0.0000,  0.0000)
  33 Li     0.003785    6.469656   15.436462    ( 0.0000,  0.0000,  0.0000)
  34 Li     3.234244    6.468626   15.434975    ( 0.0000,  0.0000,  0.0000)
  35 Li     6.464161    6.468321   15.436984    ( 0.0000,  0.0000,  0.0000)
  36 O      9.689240    9.717673   18.450344    ( 0.0000,  0.0000,  0.0000)
  37 O      9.741528   12.577227   18.121486    ( 0.0000,  0.0000,  0.0000)
  38 C     10.882413   10.427872   18.091791    ( 0.0000,  0.0000,  0.0000)
  39 C     10.894519   11.848325   18.611003    ( 0.0000,  0.0000,  0.0000)
  40 H     11.804003    9.880254   18.330609    ( 0.0000,  0.0000,  0.0000)
  41 H     10.896107   10.517198   16.998250    ( 0.0000,  0.0000,  0.0000)
  42 H     11.779547   12.378115   18.237009    ( 0.0000,  0.0000,  0.0000)
  43 H     10.957870   11.822765   19.705173    ( 0.0000,  0.0000,  0.0000)
  44 H      9.749187    9.492065   19.389031    ( 0.0000,  0.0000,  0.0000)
  45 H      8.950881   12.039487   18.312060    ( 0.0000,  0.0000,  0.0000)

Unit cell:
           periodic     x           y           z      points  spacing
  1. axis:    yes    9.702222    0.000000    0.000000    60     0.1617
  2. axis:    yes    0.000000    9.702222    0.000000    60     0.1617
  3. axis:    no     0.000000    0.000000   24.851111   156     0.1593

  Lengths:   9.702222   9.702222  24.851111
  Angles:   90.000000  90.000000  90.000000

Effective grid spacing dv^(1/3) = 0.1609

     iter     time        total  log10-change:
                         energy  eigst   dens
iter:   1 06:54:19  -290.826351  -0.97
iter:   2 06:57:06  -290.802132  -1.62  -1.74
iter:   3 06:59:08  -290.796693c -2.17  -2.02
iter:   4 07:01:25  -290.791353c -2.31  -2.18
Writing to output.gpw (mode='')

iter:   5 07:05:47  -290.790197c -2.57  -2.37
iter:   6 07:08:59  -290.789469c -2.33  -2.51
iter:   7 07:10:42  -290.789408c -2.50  -2.66
iter:   8 07:12:21  -290.789415c -2.93  -2.89
iter:   9 07:15:02  -290.789396c -3.30  -2.88
Writing to output.gpw (mode='')

iter:  10 07:16:55  -290.789369c -3.27  -2.97
iter:  11 07:19:02  -290.789337c -3.75  -3.23
iter:  12 07:20:59  -290.789352c -3.96  -3.35
iter:  13 07:22:48  -290.789343c -4.38  -3.41
iter:  14 07:24:39  -290.789333c -4.16  -3.51
Writing to output.gpw (mode='')

iter:  15 07:26:59  -290.789324c -4.75  -3.66
iter:  16 07:29:42  -290.789321c -4.92  -3.75
iter:  17 07:32:59  -290.789323c -4.83  -3.80
iter:  18 07:38:03  -290.789322c -5.19  -3.86
iter:  19 07:43:01  -290.789322c -5.40  -4.10c
Writing to output.gpw (mode='')

iter:  20 07:47:56  -290.789323c -5.53  -4.15c
iter:  21 07:51:12  -290.789323c -5.57  -4.29c
iter:  22 07:54:25  -290.789324c -5.90  -4.37c
iter:  23 07:58:19  -290.789324c -6.10  -4.44c
iter:  24 08:01:22  -290.789323c -6.08  -4.48c
Writing to output.gpw (mode='')

iter:  25 08:03:25  -290.789323c -6.45  -4.62c
iter:  26 08:07:29  -290.789324c -6.31  -4.67c
iter:  27 08:11:28  -290.789324c -6.75  -4.86c
iter:  28 08:15:34  -290.789324c -6.64  -4.99c
iter:  29 08:20:17  -290.789324c -6.72  -5.03c
Writing to output.gpw (mode='')

iter:  30 08:24:36  -290.789324c -6.90  -5.18c
iter:  31 08:27:59  -290.789324c -6.97  -5.29c
iter:  32 08:31:22  -290.789324c -7.09  -5.40c
iter:  33 08:34:07  -290.789324c -7.13  -5.42c
iter:  34 08:36:26  -290.789324c -7.31  -5.44c
Writing to output.gpw (mode='')

iter:  35 08:39:10  -290.789324c -7.58c -5.70c

Converged after 35 iterations.

Dipole moment: (-14.449626, -9.671851, 0.453970) |e|*Ang

Energy contributions relative to reference atoms: (reference = -13512.263335)

Kinetic:       +138.928404
Potential:     -130.554962
External:        +0.000000
XC:            -299.694586
Entropy (-ST):   -0.150746
Local:           +0.607193
--------------------------
Free energy:   -290.864696
Extrapolated:  -290.789324

Dipole-layer corrected work functions: 3.386827, 2.514141 eV

Showing only first 2 kpts
 Kpt  Band  Eigenvalues  Occupancy
  0    29     -3.20260    1.98716
  0    30     -3.12463    1.94040
  0    31     -2.78231    0.06691
  0    32     -2.69765    0.01265

  1    29     -2.97527    1.24287
  1    30     -2.94047    0.90017
  1    31     -2.91529    0.66187
  1    32     -2.89399    0.48836


Fermi level: -2.95048

No gap

Forces in eV/Ang:
  0 Li    0.00467    0.00106   -0.27101
  1 Li    0.00440   -0.00037   -0.27461
  2 Li   -0.00857   -0.00075   -0.27013
  3 Li    0.00160    0.00821   -0.27147
  4 Li   -0.00281   -0.00093   -0.28028
  5 Li    0.00219    0.00097   -0.27155
  6 Li    0.00101   -0.00884   -0.27546
  7 Li   -0.00259    0.00234   -0.27512
  8 Li    0.00103   -0.00066   -0.27368
  9 Li    0.00055   -0.00489    0.28821
 10 Li    0.00476   -0.00382    0.27724
 11 Li   -0.00414    0.00357    0.27355
 12 Li   -0.00443    0.00667    0.27353
 13 Li    0.01329    0.00624    0.26825
 14 Li   -0.01066   -0.00773    0.27084
 15 Li   -0.00026   -0.00027    0.25992
 16 Li   -0.00565   -0.00373    0.27006
 17 Li    0.00578    0.00416    0.27532
 18 Li   -0.01977    0.01014    0.01397
 19 Li    0.00956    0.00086   -0.00955
 20 Li    0.00127    0.02398    0.00740
 21 Li   -0.01772   -0.01139    0.02011
 22 Li    0.01069    0.01348   -0.01076
 23 Li    0.00862   -0.01168    0.02382
 24 Li    0.00158   -0.01074   -0.00996
 25 Li    0.01336   -0.01515   -0.01038
 26 Li   -0.02725   -0.02561   -0.02340
 27 Li   -0.04431   -0.05011   -0.01878
 28 Li    0.03249   -0.01756   -0.07535
 29 Li   -0.02293    0.00362   -0.00255
 30 Li   -0.01164   -0.00302    0.25347
 31 Li    0.04521    0.02251   -0.06444
 32 Li   -0.02408   -0.00429   -0.02011
 33 Li    0.00102   -0.00408   -0.01252
 34 Li    0.00201   -0.00321   -0.01059
 35 Li   -0.00040    0.00485   -0.00617
 36 O     0.11450    0.08270    0.01640
 37 O     0.19133   -0.17886    0.09435
 38 C     0.22304    0.08205   -0.40941
 39 C    -0.08583    0.00574   -0.01772
 40 H    -0.10010   -0.01266    0.31974
 41 H    -0.15940   -0.17651   -0.09994
 42 H    -0.13099   -0.04238    0.01120
 43 H    -0.23104    0.31340    0.10925
 44 H    -0.04407   -0.06230   -0.06931
 45 H     0.23892    0.09554   -0.05123

System changes: positions 

Initializing position-dependent things.

Density initialized from wave functions
       .-----------------------.  
      /|                       |  
     / |                       |  
    /  |                       |  
   /   |                       |  
  /    |                       |  
 *     |                       |  
 |     H                       |  
 |     |                       |  
 |     |                       |  
 |     |                       |  
 |   H |                       |  
 |   C |       Li              Li 
 | O   |H                H     |  
 |  CLH|     Li      Li  O     |  
 |   H |  Li      Li      Li   |  
 |     |   Li      Li      Li  |  
 |     |Li      Li      Li     |  
 |     |         Li            |  
 |   LLi     LLi     LLi       |  
 |     |  Li      Li      Li   |  
 | Li  |   Li      Li          |  
 |     |Li      Li      Li     |  
 Li    | Li      Li            |  
 |    Li      Li      Li       |  
 |     |                       |  
 |     |                       |  
 |     |                       |  
 |     |                       |  
 |     |                       |  
 |     |                       |  
 |     .-----------------------.  
 |    /                       /   
 |   /                       /    
 |  /                       /     
 | /                       /      
 |/                       /       
 *-----------------------*        

Positions:
   0 Li     1.617037    1.617037   10.000000    ( 0.0000,  0.0000,  0.0000)
   1 Li     4.851111    1.617037   10.000000    ( 0.0000,  0.0000,  0.0000)
   2 Li     8.085185    1.617037   10.000000    ( 0.0000,  0.0000,  0.0000)
   3 Li     1.617037    4.851111   10.000000    ( 0.0000,  0.0000,  0.0000)
   4 Li     4.851111    4.851111   10.000000    ( 0.0000,  0.0000,  0.0000)
   5 Li     8.085185    4.851111   10.000000    ( 0.0000,  0.0000,  0.0000)
   6 Li     1.617037    8.085185   10.000000    ( 0.0000,  0.0000,  0.0000)
   7 Li     4.851111    8.085185   10.000000    ( 0.0000,  0.0000,  0.0000)
   8 Li     8.085185    8.085185   10.000000    ( 0.0000,  0.0000,  0.0000)
   9 Li     0.000000    0.000000   11.617037    ( 0.0000,  0.0000,  0.0000)
  10 Li     3.234074    0.000000   11.617037    ( 0.0000,  0.0000,  0.0000)
  11 Li     6.468148    0.000000   11.617037    ( 0.0000,  0.0000,  0.0000)
  12 Li     0.000000    3.234074   11.617037    ( 0.0000,  0.0000,  0.0000)
  13 Li     3.234074    3.234074   11.617037    ( 0.0000,  0.0000,  0.0000)
  14 Li     6.468148    3.234074   11.617037    ( 0.0000,  0.0000,  0.0000)
  15 Li     0.000000    6.468148   11.617037    ( 0.0000,  0.0000,  0.0000)
  16 Li     3.234074    6.468148   11.617037    ( 0.0000,  0.0000,  0.0000)
  17 Li     6.468148    6.468148   11.617037    ( 0.0000,  0.0000,  0.0000)
  18 Li     1.616633    1.620376   13.474636    ( 0.0000,  0.0000,  0.0000)
  19 Li     4.846527    1.615551   13.496023    ( 0.0000,  0.0000,  0.0000)
  20 Li     8.088516    1.617547   13.490926    ( 0.0000,  0.0000,  0.0000)
  21 Li     1.614768    4.846982   13.490194    ( 0.0000,  0.0000,  0.0000)
  22 Li     4.853613    4.853934   13.483301    ( 0.0000,  0.0000,  0.0000)
  23 Li     8.085265    4.849582   13.485620    ( 0.0000,  0.0000,  0.0000)
  24 Li     1.615535    8.084436   13.490186    ( 0.0000,  0.0000,  0.0000)
  25 Li     4.850513    8.084104   13.487544    ( 0.0000,  0.0000,  0.0000)
  26 Li     8.086498    8.085468   13.485418    ( 0.0000,  0.0000,  0.0000)
  27 Li    -0.096964   -0.080033   15.352791    ( 0.0000,  0.0000,  0.0000)
  28 Li     3.285151   -0.021799   15.366435    ( 0.0000,  0.0000,  0.0000)
  29 Li     6.458437    0.006869   15.438680    ( 0.0000,  0.0000,  0.0000)
  30 Li    -0.016429    3.259006   15.565072    ( 0.0000,  0.0000,  0.0000)
  31 Li     3.274568    3.256324   15.381977    ( 0.0000,  0.0000,  0.0000)
  32 Li     6.451411    3.227913   15.427628    ( 0.0000,  0.0000,  0.0000)
  33 Li     0.004917    6.469976   15.433330    ( 0.0000,  0.0000,  0.0000)
  34 Li     3.234353    6.468671   15.431468    ( 0.0000,  0.0000,  0.0000)
  35 Li     6.462988    6.468516   15.434191    ( 0.0000,  0.0000,  0.0000)
  36 O      9.688725    9.724633   18.452000    ( 0.0000,  0.0000,  0.0000)
  37 O      9.746280   12.564527   18.098032    ( 0.0000,  0.0000,  0.0000)
  38 C     10.892789   10.429953   18.095327    ( 0.0000,  0.0000,  0.0000)
  39 C     10.893670   11.851004   18.612482    ( 0.0000,  0.0000,  0.0000)
  40 H     11.805429    9.873369   18.341547    ( 0.0000,  0.0000,  0.0000)
  41 H     10.911433   10.527488   17.011399    ( 0.0000,  0.0000,  0.0000)
  42 H     11.780728   12.377059   18.240525    ( 0.0000,  0.0000,  0.0000)
  43 H     10.949564   11.841780   19.709757    ( 0.0000,  0.0000,  0.0000)
  44 H      9.739648    9.478108   19.386257    ( 0.0000,  0.0000,  0.0000)
  45 H      8.949948   12.047868   18.311167    ( 0.0000,  0.0000,  0.0000)

Unit cell:
           periodic     x           y           z      points  spacing
  1. axis:    yes    9.702222    0.000000    0.000000    60     0.1617
  2. axis:    yes    0.000000    9.702222    0.000000    60     0.1617
  3. axis:    no     0.000000    0.000000   24.851111   156     0.1593

  Lengths:   9.702222   9.702222  24.851111
  Angles:   90.000000  90.000000  90.000000

Effective grid spacing dv^(1/3) = 0.1609

     iter     time        total  log10-change:
                         energy  eigst   dens
iter:   1 08:43:19  -290.848394  -1.02
iter:   2 08:46:07  -290.819607  -1.67  -1.73
iter:   3 08:49:15  -290.813714  -2.25  -2.02
iter:   4 08:52:37  -290.809734c -2.40  -2.23
Writing to output.gpw (mode='')

iter:   5 08:55:52  -290.808728c -2.58  -2.41
iter:   6 08:58:32  -290.808204c -2.40  -2.56
iter:   7 09:01:26  -290.808191c -2.66  -2.73
iter:   8 09:06:20  -290.808143c -3.07  -2.91
iter:   9 09:11:13  -290.808116c -3.50  -2.94
Writing to output.gpw (mode='')

iter:  10 09:14:48  -290.808110c -3.42  -3.05
iter:  11 09:17:34  -290.808090c -3.83  -3.27
iter:  12 09:21:26  -290.808100c -4.05  -3.37
iter:  13 09:25:31  -290.808096c -4.30  -3.48
iter:  14 09:29:34  -290.808086c -4.30  -3.56
Writing to output.gpw (mode='')

iter:  15 09:33:02  -290.808080c -4.81  -3.71
iter:  16 09:35:26  -290.808082c -5.03  -3.78
iter:  17 09:38:15  -290.808083c -5.14  -3.86
iter:  18 09:41:23  -290.808083c -5.21  -3.90
iter:  19 09:44:44  -290.808078c -5.44  -3.99
Writing to output.gpw (mode='')

iter:  20 09:47:13  -290.808077c -5.61  -4.21c
iter:  21 09:50:21  -290.808079c -5.76  -4.27c
iter:  22 09:53:11  -290.808080c -5.98  -4.36c
iter:  23 09:56:06  -290.808079c -6.03  -4.47c
iter:  24 09:58:47  -290.808079c -6.34  -4.64c
Writing to output.gpw (mode='')

iter:  25 10:00:46  -290.808079c -6.25  -4.68c
iter:  26 10:02:58  -290.808079c -6.42  -4.81c
iter:  27 10:04:55  -290.808079c -6.80  -4.95c
iter:  28 10:06:49  -290.808079c -6.89  -5.04c
iter:  29 10:08:56  -290.808079c -6.85  -5.03c
Writing to output.gpw (mode='')

iter:  30 10:10:56  -290.808079c -7.00  -5.04c
iter:  31 10:13:23  -290.808079c -6.87  -5.06c
iter:  32 10:15:12  -290.808079c -7.12  -5.07c
iter:  33 10:17:00  -290.808079c -7.24  -5.02c
iter:  34 10:18:29  -290.808079c -7.36  -5.08c
Writing to output.gpw (mode='')

iter:  35 10:20:07  -290.808079c -7.25  -5.15c
iter:  36 10:22:25  -290.808079c -7.33  -5.32c
iter:  37 10:24:23  -290.808079c -7.66c -5.41c

Converged after 37 iterations.

Dipole moment: (-14.184305, -9.887550, 0.459924) |e|*Ang

Energy contributions relative to reference atoms: (reference = -13512.263335)

Kinetic:       +139.292036
Potential:     -130.819834
External:        +0.000000
XC:            -299.811694
Entropy (-ST):   -0.150610
Local:           +0.606718
--------------------------
Free energy:   -290.883384
Extrapolated:  -290.808079

Dipole-layer corrected work functions: 3.386190, 2.502058 eV

Showing only first 2 kpts
 Kpt  Band  Eigenvalues  Occupancy
  0    29     -3.19581    1.98706
  0    30     -3.11794    1.94001
  0    31     -2.77562    0.06649
  0    32     -2.69108    0.01260

  1    29     -2.96898    1.24360
  1    30     -2.93435    0.90259
  1    31     -2.90942    0.66625
  1    32     -2.88732    0.48607


Fermi level: -2.94412

No gap
Writing to output.gpw (mode='')


Forces in eV/Ang:
  0 Li    0.00500    0.00108   -0.27194
  1 Li    0.00449   -0.00055   -0.27592
  2 Li   -0.00897   -0.00109   -0.27044
  3 Li    0.00180    0.00848   -0.27156
  4 Li   -0.00295   -0.00070   -0.28114
  5 Li    0.00254    0.00110   -0.27098
  6 Li    0.00100   -0.00914   -0.27707
  7 Li   -0.00261    0.00281   -0.27488
  8 Li    0.00089   -0.00053   -0.27483
  9 Li   -0.00042   -0.00580    0.29327
 10 Li    0.00560   -0.00416    0.28314
 11 Li   -0.00347    0.00445    0.27904
 12 Li   -0.00534    0.00748    0.27361
 13 Li    0.01462    0.00655    0.27325
 14 Li   -0.01169   -0.00758    0.27451
 15 Li   -0.00048    0.00053    0.26338
 16 Li   -0.00636   -0.00410    0.27490
 17 Li    0.00655    0.00284    0.27748
 18 Li   -0.02654    0.01111    0.01621
 19 Li    0.01623    0.00214   -0.03082
 20 Li    0.00031    0.03223   -0.00168
 21 Li   -0.02296   -0.01308    0.01471
 22 Li    0.01341    0.01701   -0.02403
 23 Li    0.01196   -0.01521    0.02315
 24 Li    0.00280   -0.01367   -0.02568
 25 Li    0.01919   -0.02045   -0.02602
 26 Li   -0.03905   -0.03622   -0.04363
 27 Li   -0.01120   -0.02451    0.01988
 28 Li    0.01348   -0.01054   -0.05147
 29 Li   -0.02422    0.00094    0.00134
[...]
iter:   3 13:05:02  -291.099065c -2.34  -2.31
iter:   4 13:08:42  -291.097175c -2.40  -2.36
Writing to output.gpw (mode='')

iter:   5 13:12:30  -291.096721c -2.74  -2.52
iter:   6 13:16:18  -291.096870c -2.50  -2.76
iter:   7 13:20:39  -291.097101c -2.67  -2.79
iter:   8 13:26:55  -291.096701c -3.29  -2.76
iter:   9 13:30:23  -291.096696c -3.83  -3.03
Writing to output.gpw (mode='')

iter:  10 13:34:54  -291.096717c -3.98  -3.13
iter:  11 13:38:34  -291.096705c -4.03  -3.39
iter:  12 13:42:47  -291.096719c -4.18  -3.43
iter:  13 13:46:57  -291.096714c -4.81  -3.54
iter:  14 13:50:34  -291.096688c -4.47  -3.57
Writing to output.gpw (mode='')

iter:  15 13:54:38  -291.096688c -4.88  -3.70
iter:  16 14:00:00  -291.096689c -5.37  -3.87
iter:  17 14:05:52  -291.096691c -5.27  -3.88
iter:  18 14:13:02  -291.096696c -5.39  -3.93
iter:  19 14:18:42  -291.096699c -5.39  -4.15c
Writing to output.gpw (mode='')

iter:  20 14:23:20  -291.096700c -5.58  -4.39c
iter:  21 14:27:49  -291.096697c -6.15  -4.40c
iter:  22 14:31:13  -291.096697c -6.19  -4.54c
iter:  23 14:35:50  -291.096697c -6.23  -4.66c
iter:  24 14:40:21  -291.096698c -6.51  -4.69c
Writing to output.gpw (mode='')

iter:  25 14:45:28  -291.096697c -6.71  -4.71c
iter:  26 14:50:42  -291.096697c -6.75  -4.80c
iter:  27 14:57:38  -291.096697c -6.92  -4.89c
iter:  28 15:04:52  -291.096697c -7.06  -5.00c
iter:  29 15:12:37  -291.096697c -7.10  -5.08c
Writing to output.gpw (mode='')

iter:  30 15:17:00  -291.096697c -7.40c -5.33c

Converged after 30 iterations.

Dipole moment: (-18.939087, -12.153723, 0.538508) |e|*Ang

Energy contributions relative to reference atoms: (reference = -13512.263335)

Kinetic:       +139.280381
Potential:     -131.022833
External:        +0.000000
XC:            -299.886912
Entropy (-ST):   -0.152151
Local:           +0.608742
--------------------------
Free energy:   -291.172773
Extrapolated:  -291.096697

Dipole-layer corrected work functions: 3.375872, 2.340676 eV

Showing only first 2 kpts
 Kpt  Band  Eigenvalues  Occupancy
  0    29     -3.10799    1.98654
  0    30     -3.02035    1.92473
  0    31     -2.70191    0.08399
  0    32     -2.60643    0.01290

  1    29     -2.88840    1.29246
  1    30     -2.85332    0.95047
  1    31     -2.81864    0.62318
  1    32     -2.79796    0.46070


Fermi level: -2.85827

No gap

Forces in eV/Ang:
  0 Li    0.00379    0.00441   -0.27248
  1 Li    0.00561    0.00255   -0.29084
  2 Li   -0.00789    0.00396   -0.26727
  3 Li   -0.00154    0.00728   -0.27623
  4 Li   -0.00169   -0.00370   -0.27921
  5 Li    0.00425    0.00082   -0.27379
  6 Li   -0.00345   -0.00829   -0.28325
  7 Li   -0.00099    0.00109   -0.25338
  8 Li    0.00459   -0.00043   -0.28123
  9 Li   -0.02827    0.01950    0.31335
 10 Li   -0.04860    0.02190    0.32015
 11 Li    0.05957    0.02199    0.27709
 12 Li   -0.02409    0.00346    0.20100
 13 Li   -0.03659    0.00834    0.31516
 14 Li    0.05775    0.00730    0.26360
 15 Li   -0.02987   -0.06391    0.27211
 16 Li   -0.06187   -0.04421    0.28407
 17 Li    0.08830   -0.04506    0.24110
 18 Li    0.04318   -0.02837   -0.06108
 19 Li   -0.00667    0.00684    0.06132
 20 Li   -0.02807   -0.03488   -0.04374
 21 Li    0.05694    0.05036   -0.04574
 22 Li   -0.01590   -0.01795    0.04531
 23 Li   -0.03564    0.06117   -0.06081
 24 Li    0.00548    0.02227    0.02649
 25 Li    0.00487   -0.00027    0.02771
 26 Li   -0.00045    0.01539    0.00544
 27 Li   -0.02224    0.01044    0.08449
 28 Li    0.03288   -0.00996   -0.01265
 29 Li   -0.00758    0.00156    0.00952
 30 Li   -0.00228   -0.06675    0.01338
 31 Li    0.00364    0.01295   -0.01085
 32 Li    0.00948   -0.00950    0.00058
 33 Li    0.01674    0.01992    0.01115
 34 Li   -0.01993   -0.01469   -0.00507
 35 Li   -0.00183   -0.00024   -0.03014
 36 O    -0.05036    0.08937   -0.01897
 37 O     0.03608   -0.09827    0.00919
 38 C     0.03502    0.02552   -0.09935
 39 C    -0.04907   -0.02748   -0.03098
 40 H     0.02106    0.12554    0.00843
 41 H    -0.00072    0.05157    0.20812
 42 H    -0.00465   -0.07194    0.02287
 43 H    -0.03048   -0.09078   -0.00806
 44 H     0.02616    0.04270   -0.09225
 45 H     0.05097   -0.02905   -0.04784

System changes: positions 

Initializing position-dependent things.

Density initialized from wave functions
       .-----------------------.  
      /|                       |  
     / |                       |  
    /  |                       |  
   /   |                       |  
  /    |                       |  
 *     |                       |  
 |     |                       H  
 |     |                       |  
 |     |                       |  
 |     |                       |  
 |   H |                       |  
 |   C |       Li              Li 
 | O  H|H                H     |  
 O   C |     Li      Li      Li|  
 | LiH |  Li      Li      Li   |  
 |     |   Li      Li          |  
 |     |Li      Li      Li     |  
 |     |         Li            |  
 |   LLi     LLi     LLi       |  
 |     |  Li      Li      Li   |  
 | Li  |   Li      Li          |  
 |     |Li      Li      Li     |  
 Li    | Li      Li            |  
 |    Li      Li      Li       |  
 |     |                       |  
 |     |                       |  
 |     |                       |  
 |     |                       |  
 |     |                       |  
 |     |                       |  
 |     .-----------------------.  
 |    /                       /   
 |   /                       /    
 |  /                       /     
 | /                       /      
 |/                       /       
 *-----------------------*        

Positions:
   0 Li     1.617037    1.617037   10.000000    ( 0.0000,  0.0000,  0.0000)
   1 Li     4.851111    1.617037   10.000000    ( 0.0000,  0.0000,  0.0000)
   2 Li     8.085185    1.617037   10.000000    ( 0.0000,  0.0000,  0.0000)
   3 Li     1.617037    4.851111   10.000000    ( 0.0000,  0.0000,  0.0000)
   4 Li     4.851111    4.851111   10.000000    ( 0.0000,  0.0000,  0.0000)
   5 Li     8.085185    4.851111   10.000000    ( 0.0000,  0.0000,  0.0000)
   6 Li     1.617037    8.085185   10.000000    ( 0.0000,  0.0000,  0.0000)
   7 Li     4.851111    8.085185   10.000000    ( 0.0000,  0.0000,  0.0000)
   8 Li     8.085185    8.085185   10.000000    ( 0.0000,  0.0000,  0.0000)
   9 Li     0.000000    0.000000   11.617037    ( 0.0000,  0.0000,  0.0000)
  10 Li     3.234074    0.000000   11.617037    ( 0.0000,  0.0000,  0.0000)
  11 Li     6.468148    0.000000   11.617037    ( 0.0000,  0.0000,  0.0000)
  12 Li     0.000000    3.234074   11.617037    ( 0.0000,  0.0000,  0.0000)
  13 Li     3.234074    3.234074   11.617037    ( 0.0000,  0.0000,  0.0000)
  14 Li     6.468148    3.234074   11.617037    ( 0.0000,  0.0000,  0.0000)
  15 Li     0.000000    6.468148   11.617037    ( 0.0000,  0.0000,  0.0000)
  16 Li     3.234074    6.468148   11.617037    ( 0.0000,  0.0000,  0.0000)
  17 Li     6.468148    6.468148   11.617037    ( 0.0000,  0.0000,  0.0000)
  18 Li     1.491661    1.668011   13.564261    ( 0.0000,  0.0000,  0.0000)
  19 Li     4.884683    1.623034   13.382057    ( 0.0000,  0.0000,  0.0000)
  20 Li     8.141072    1.677070   13.589484    ( 0.0000,  0.0000,  0.0000)
  21 Li     1.536705    4.770879   13.551694    ( 0.0000,  0.0000,  0.0000)
  22 Li     4.906904    4.893417   13.414337    ( 0.0000,  0.0000,  0.0000)
  23 Li     8.148286    4.750694   13.594603    ( 0.0000,  0.0000,  0.0000)
  24 Li     1.571849    8.051727   13.441036    ( 0.0000,  0.0000,  0.0000)
  25 Li     4.867115    8.050320   13.410952    ( 0.0000,  0.0000,  0.0000)
  26 Li     8.058705    8.053657   13.461349    ( 0.0000,  0.0000,  0.0000)
  27 Li    -0.124358   -0.174745   15.476002    ( 0.0000,  0.0000,  0.0000)
  28 Li     3.247316   -0.026054   15.204850    ( 0.0000,  0.0000,  0.0000)
  29 Li     6.379503    0.003439   15.368766    ( 0.0000,  0.0000,  0.0000)
  30 Li     0.088627    3.386250   15.896608    ( 0.0000,  0.0000,  0.0000)
  31 Li     3.366620    3.239812   15.280490    ( 0.0000,  0.0000,  0.0000)
  32 Li     6.398641    3.242027   15.430595    ( 0.0000,  0.0000,  0.0000)
  33 Li    -0.009084    6.473393   15.397750    ( 0.0000,  0.0000,  0.0000)
  34 Li     3.245579    6.460490   15.374601    ( 0.0000,  0.0000,  0.0000)
  35 Li     6.478292    6.473873   15.463134    ( 0.0000,  0.0000,  0.0000)
  36 O      9.717543    9.770310   18.335555    ( 0.0000,  0.0000,  0.0000)
  37 O      9.799939   12.561466   17.792538    ( 0.0000,  0.0000,  0.0000)
  38 C     10.987771   10.449031   18.248947    ( 0.0000,  0.0000,  0.0000)
  39 C     10.865051   11.941534   18.559921    ( 0.0000,  0.0000,  0.0000)
  40 H     11.734227    9.973745   18.892419    ( 0.0000,  0.0000,  0.0000)
  41 H     11.326239   10.338954   17.207528    ( 0.0000,  0.0000,  0.0000)
  42 H     11.781713   12.461781   18.262648    ( 0.0000,  0.0000,  0.0000)
  43 H     10.690866   12.140645   19.622896    ( 0.0000,  0.0000,  0.0000)
  44 H      9.674717    9.269217   19.159738    ( 0.0000,  0.0000,  0.0000)
  45 H      8.969509   12.113847   18.029300    ( 0.0000,  0.0000,  0.0000)

Unit cell:
           periodic     x           y           z      points  spacing
  1. axis:    yes    9.702222    0.000000    0.000000    60     0.1617
  2. axis:    yes    0.000000    9.702222    0.000000    60     0.1617
  3. axis:    no     0.000000    0.000000   24.851111   156     0.1593

  Lengths:   9.702222   9.702222  24.851111
  Angles:   90.000000  90.000000  90.000000

Effective grid spacing dv^(1/3) = 0.1609

     iter     time        total  log10-change:
                         energy  eigst   dens
iter:   1 15:23:36  -291.100254  -1.99
iter:   2 15:28:20  -291.100409  -2.80  -2.73
iter:   3 15:32:27  -291.100302c -3.31  -2.80
iter:   4 15:36:34  -291.100153c -3.16  -2.89
Writing to output.gpw (mode='')

iter:   5 15:41:01  -291.100056c -3.72  -2.93
iter:   6 15:45:28  -291.100062c -3.59  -3.25
iter:   7 15:52:10  -291.100096c -3.71  -3.30
iter:   8 15:57:26  -291.100060c -4.18  -3.12
iter:   9 16:00:33  -291.100051c -4.47  -3.44
Writing to output.gpw (mode='')

iter:  10 16:03:34  -291.100052c -4.60  -3.67
iter:  11 16:06:31  -291.100046c -5.12  -3.82
iter:  12 16:10:58  -291.100049c -4.92  -3.89
iter:  13 16:15:01  -291.100047c -5.30  -3.98
iter:  14 16:18:02  -291.100047c -5.64  -4.02c
Writing to output.gpw (mode='')

iter:  15 16:21:11  -291.100048c -5.66  -4.05c
iter:  16 16:24:31  -291.100047c -5.78  -4.17c
iter:  17 16:27:35  -291.100047c -6.11  -4.40c
iter:  18 16:30:33  -291.100047c -6.73  -4.54c
iter:  19 16:33:39  -291.100048c -6.47  -4.72c
Writing to output.gpw (mode='')

iter:  20 16:37:12  -291.100048c -6.65  -4.76c
iter:  21 16:42:24  -291.100048c -6.92  -4.90c
iter:  22 16:48:30  -291.100048c -7.15  -4.94c
iter:  23 16:52:40  -291.100048c -7.19  -5.10c
iter:  24 16:58:46  -291.100048c -7.32  -5.18c
Writing to output.gpw (mode='')

iter:  25 17:06:07  -291.100048c -7.58c -5.32c

Converged after 25 iterations.

Dipole moment: (-18.811411, -12.141807, 0.538703) |e|*Ang

Energy contributions relative to reference atoms: (reference = -13512.263335)

Kinetic:       +139.290450
Potential:     -131.034556
External:        +0.000000
XC:            -299.888761
Entropy (-ST):   -0.152163
Local:           +0.608901
--------------------------
Free energy:   -291.176129
Extrapolated:  -291.100048

Dipole-layer corrected work functions: 3.375828, 2.340255 eV

Showing only first 2 kpts
 Kpt  Band  Eigenvalues  Occupancy
  0    29     -3.10774    1.98653
  0    30     -3.02017    1.92482
  0    31     -2.70156    0.08380
  0    32     -2.60613    0.01289

  1    29     -2.88830    1.29370
  1    30     -2.85271    0.94679
  1    31     -2.81853    0.62422
  1    32     -2.79784    0.46151


Fermi level: -2.85804

No gap

Forces in eV/Ang:
  0 Li    0.00385    0.00436   -0.27228
  1 Li    0.00554    0.00258   -0.29087
  2 Li   -0.00784    0.00389   -0.26707
  3 Li   -0.00147    0.00726   -0.27627
  4 Li   -0.00171   -0.00381   -0.27884
  5 Li    0.00413    0.00088   -0.27400
  6 Li   -0.00349   -0.00825   -0.28294
  7 Li   -0.00106    0.00102   -0.25386
  8 Li    0.00469   -0.00042   -0.28098
  9 Li   -0.02832    0.01942    0.31138
 10 Li   -0.04853    0.02207    0.32013
 11 Li    0.05921    0.02182    0.27722
 12 Li   -0.02440    0.00347    0.20158
 13 Li   -0.03634    0.00807    0.31467
 14 Li    0.05790    0.00692    0.26370
 15 Li   -0.03009   -0.06361    0.27177
 16 Li   -0.06170   -0.04378    0.28434
 17 Li    0.08852   -0.04415    0.24230
 18 Li    0.04372   -0.02880   -0.06015
 19 Li   -0.00672    0.00640    0.06062
 20 Li   -0.02750   -0.03497   -0.04251
 21 Li    0.05622    0.05055   -0.04581
 22 Li   -0.01561   -0.01734    0.04414
 23 Li   -0.03518    0.06109   -0.06052
 24 Li    0.00531    0.02296    0.02757
 25 Li    0.00486   -0.00084    0.02724
 26 Li    0.00036    0.01627    0.00662
 27 Li   -0.02653    0.00855    0.08073
 28 Li    0.03527   -0.01105   -0.01402
 29 Li   -0.00682    0.00186    0.01107
 30 Li   -0.00586   -0.07033    0.02706
 31 Li    0.00312    0.01332   -0.01130
 32 Li    0.01061   -0.01004   -0.00036
 33 Li    0.01693    0.01876    0.01010
 34 Li   -0.01963   -0.01392   -0.00388
 35 Li   -0.00249    0.00014   -0.03037
 36 O     0.02264    0.11293   -0.03082
 37 O     0.03474   -0.14390    0.02250
 38 C     0.00592    0.12021   -0.01921
 39 C    -0.05188    0.02073   -0.01365
 40 H     0.02455    0.06313    0.01964
 41 H    -0.00754    0.02983    0.11393
 42 H    -0.02720   -0.08614   -0.00324
 43 H    -0.02843   -0.12032   -0.00044
 44 H     0.00405    0.01910   -0.07546
 45 H     0.06653    0.00564   -0.07292

System changes: positions 

Initializing position-dependent things.

Density initialized from wave functions
       .-----------------------.  
      /|                       |  
     / |                       |  
    /  |                       |  
   /   |                       |  
  /    |                       |  
 *     |                       |  
 |     |                       H  
 |     |                       |  
 |     |                       |  
 |     |                       |  
 |   H |                       |  
 |   C |       Li              Li 
 | O  H|H                H     |  
 O   C |     Li      Li      Li|  
 | LiH |  Li      Li      Li   |  
 |     |   Li      Li          |  
 |     |Li      Li      Li     |  
 |     |         Li            |  
 |   LLi     LLi     LLi       |  
 |     |  Li      Li      Li   |  
 | Li  |   Li      Li          |  
 |     |Li      Li      Li     |  
 Li    | Li      Li            |  
 |    Li      Li      Li       |  
 |     |                       |  
 |     |                       |  
 |     |                       |  
 |     |                       |  
 |     |                       |  
 |     |                       |  
 |     .-----------------------.  
 |    /                       /   
 |   /                       /    
 |  /                       /     
 | /                       /      
 |/                       /       
 *-----------------------*        

Positions:
   0 Li     1.617037    1.617037   10.000000    ( 0.0000,  0.0000,  0.0000)
   1 Li     4.851111    1.617037   10.000000    ( 0.0000,  0.0000,  0.0000)
   2 Li     8.085185    1.617037   10.000000    ( 0.0000,  0.0000,  0.0000)
   3 Li     1.617037    4.851111   10.000000    ( 0.0000,  0.0000,  0.0000)
   4 Li     4.851111    4.851111   10.000000    ( 0.0000,  0.0000,  0.0000)
   5 Li     8.085185    4.851111   10.000000    ( 0.0000,  0.0000,  0.0000)
   6 Li     1.617037    8.085185   10.000000    ( 0.0000,  0.0000,  0.0000)
   7 Li     4.851111    8.085185   10.000000    ( 0.0000,  0.0000,  0.0000)
   8 Li     8.085185    8.085185   10.000000    ( 0.0000,  0.0000,  0.0000)
   9 Li     0.000000    0.000000   11.617037    ( 0.0000,  0.0000,  0.0000)
  10 Li     3.234074    0.000000   11.617037    ( 0.0000,  0.0000,  0.0000)
  11 Li     6.468148    0.000000   11.617037    ( 0.0000,  0.0000,  0.0000)
  12 Li     0.000000    3.234074   11.617037    ( 0.0000,  0.0000,  0.0000)
  13 Li     3.234074    3.234074   11.617037    ( 0.0000,  0.0000,  0.0000)
  14 Li     6.468148    3.234074   11.617037    ( 0.0000,  0.0000,  0.0000)
  15 Li     0.000000    6.468148   11.617037    ( 0.0000,  0.0000,  0.0000)
  16 Li     3.234074    6.468148   11.617037    ( 0.0000,  0.0000,  0.0000)
  17 Li     6.468148    6.468148   11.617037    ( 0.0000,  0.0000,  0.0000)
  18 Li     1.495641    1.665425   13.558748    ( 0.0000,  0.0000,  0.0000)
  19 Li     4.884276    1.623630   13.386615    ( 0.0000,  0.0000,  0.0000)
  20 Li     8.138387    1.674291   13.584635    ( 0.0000,  0.0000,  0.0000)
  21 Li     1.541560    4.775354   13.547313    ( 0.0000,  0.0000,  0.0000)
  22 Li     4.905375    4.891875   13.417755    ( 0.0000,  0.0000,  0.0000)
  23 Li     8.145148    4.756146   13.588890    ( 0.0000,  0.0000,  0.0000)
  24 Li     1.572649    8.053587   13.442590    ( 0.0000,  0.0000,  0.0000)
  25 Li     4.867741    8.050238   13.412862    ( 0.0000,  0.0000,  0.0000)
  26 Li     8.058170    8.054478   13.460757    ( 0.0000,  0.0000,  0.0000)
  27 Li    -0.123756   -0.171559   15.484461    ( 0.0000,  0.0000,  0.0000)
  28 Li     3.248894   -0.026321   15.206580    ( 0.0000,  0.0000,  0.0000)
  29 Li     6.379353    0.003407   15.370200    ( 0.0000,  0.0000,  0.0000)
  30 Li     0.088439    3.379057   15.895589    ( 0.0000,  0.0000,  0.0000)
  31 Li     3.365646    3.240607   15.281485    ( 0.0000,  0.0000,  0.0000)
  32 Li     6.399959    3.241328   15.430971    ( 0.0000,  0.0000,  0.0000)
  33 Li    -0.007789    6.474798   15.399162    ( 0.0000,  0.0000,  0.0000)
  34 Li     3.243910    6.459265   15.374866    ( 0.0000,  0.0000,  0.0000)
  35 Li     6.478242    6.473868   15.460808    ( 0.0000,  0.0000,  0.0000)
  36 O      9.711454    9.775407   18.333952    ( 0.0000,  0.0000,  0.0000)
  37 O      9.799436   12.561383   17.793979    ( 0.0000,  0.0000,  0.0000)
  38 C     10.984697   10.448813   18.244100    ( 0.0000,  0.0000,  0.0000)
  39 C     10.864318   11.937678   18.557176    ( 0.0000,  0.0000,  0.0000)
  40 H     11.735273    9.986317   18.890331    ( 0.0000,  0.0000,  0.0000)
  41 H     11.327850   10.340299   17.210816    ( 0.0000,  0.0000,  0.0000)
  42 H     11.784167   12.456865   18.268353    ( 0.0000,  0.0000,  0.0000)
  43 H     10.689920   12.133141   19.620475    ( 0.0000,  0.0000,  0.0000)
  44 H      9.677319    9.272490   19.157918    ( 0.0000,  0.0000,  0.0000)
  45 H      8.972624   12.106911   18.028891    ( 0.0000,  0.0000,  0.0000)

Unit cell:
           periodic     x           y           z      points  spacing
  1. axis:    yes    9.702222    0.000000    0.000000    60     0.1617
  2. axis:    yes    0.000000    9.702222    0.000000    60     0.1617
  3. axis:    no     0.000000    0.000000   24.851111   156     0.1593

  Lengths:   9.702222   9.702222  24.851111
  Angles:   90.000000  90.000000  90.000000

Effective grid spacing dv^(1/3) = 0.1609

     iter     time        total  log10-change:
                         energy  eigst   dens
iter:   1 17:14:58  -291.108243  -1.80
iter:   2 17:20:58  -291.107966  -2.58  -2.44
iter:   3 17:28:37  -291.107354c -3.15  -2.52
iter:   4 17:34:56  -291.105973c -2.92  -2.58
Writing to output.gpw (mode='')

iter:   5 17:40:51  -291.105857c -3.51  -2.81
iter:   6 17:46:47  -291.105614c -3.07  -2.94
iter:   7 17:51:50  -291.105680c -3.34  -3.09
iter:   8 17:55:36  -291.105686c -3.88  -3.07
iter:   9 17:59:33  -291.105639c -4.04  -3.22
Writing to output.gpw (mode='')

iter:  10 18:03:55  -291.105628c -4.13  -3.38
iter:  11 18:08:09  -291.105620c -4.82  -3.55
iter:  12 18:11:13  -291.105612c -4.52  -3.56
iter:  13 18:15:08  -291.105609c -4.74  -3.74
iter:  14 18:17:51  -291.105617c -4.82  -3.88
Writing to output.gpw (mode='')

iter:  15 18:21:02  -291.105624c -5.11  -3.93
iter:  16 18:26:37  -291.105623c -5.52  -4.05c
