
  ___ ___ ___ _ _ _  
 |   |   |_  | | | | 
 | | | | | . | | | | 
 |__ |  _|___|_____|  22.8.0
 |___|_|             

User:   vazumah@f010
Date:   Wed Mar  8 12:31:22 2023
Arch:   x86_64
Pid:    53574
CWD:    /home/vazumah/Research_Projects/LiMEAS/LiNRR_proton_donors/on_pure_surface/Li_BCC100/adsorbates/ethanediol_y/ontop/9.702_9.702
Python: 3.10.6
gpaw:   /home/vazumah/anaconda3/envs/NAME/lib/python3.10/site-packages/gpaw
_gpaw:  /home/vazumah/anaconda3/envs/NAME/lib/python3.10/site-packages/
        _gpaw.cpython-310-x86_64-linux-gnu.so
ase:    /home/vazumah/anaconda3/envs/NAME/lib/python3.10/site-packages/ase (version 3.22.1)
numpy:  /home/vazumah/anaconda3/envs/NAME/lib/python3.10/site-packages/numpy (version 1.23.3)
scipy:  /home/vazumah/anaconda3/envs/NAME/lib/python3.10/site-packages/scipy (version 1.9.1)
libxc:  5.2.3
units:  Angstrom and eV
cores: 32
OpenMP: True
OMP_NUM_THREADS: 1

Input parameters:
  h: 0.16
  kpts: {size: [4, 4, 1]}
  occupations: {name: fermi-dirac,
                width: 0.05}
  poissonsolver: {dipolelayer: xy}
  xc: BEEF-vdW

System changes: positions, numbers, cell, pbc, initial_charges, initial_magmoms 

Initialize ...

species:
  Li:
    name: Lithium
    id: 830b4218f175192f93f959cfc0aad614
    Z: 3.0
    valence: 1
    core: 2
    charge: 0.0
    file: /home/vazumah/anaconda3/envs/NAME/share/gpaw/Li.PBE.gz
    compensation charges: {type: gauss,
                           rc: 0.33,
                           lmax: 2}
    cutoffs: {filter: 1.91,
              core: 2.55}
    valence states:
      #              energy  rcut
      - 2s(1.00)    -2.874   1.058
      - 2p(0.00)    -1.090   1.058
      -  s          24.337   1.058
  
    # Using partial waves for Li as LCAO basis

  O:
    name: Oxygen
    id: 32ecd46bf208036f09c70b0ec9a88b78
    Z: 8.0
    valence: 6
    core: 2
    charge: 0.0
    file: /home/vazumah/anaconda3/envs/NAME/share/gpaw/O.PBE.gz
    compensation charges: {type: gauss,
                           rc: 0.21,
                           lmax: 2}
    cutoffs: {filter: 1.17,
              core: 0.83}
    valence states:
      #              energy  rcut
      - 2s(2.00)   -23.961   0.688
      - 2p(4.00)    -9.029   0.598
      -  s           3.251   0.688
      -  p          18.182   0.598
      -  d           0.000   0.619
  
    # Using partial waves for O as LCAO basis

  C:
    name: Carbon
    id: 4aa54d4b901d75f77cc0ea3eec22967b
    Z: 6.0
    valence: 4
    core: 2
    charge: 0.0
    file: /home/vazumah/anaconda3/envs/NAME/share/gpaw/C.PBE.gz
    compensation charges: {type: gauss,
                           rc: 0.20,
                           lmax: 2}
    cutoffs: {filter: 1.14,
              core: 1.14}
    valence states:
      #              energy  rcut
      - 2s(2.00)   -13.751   0.635
      - 2p(2.00)    -5.284   0.635
      -  s          13.461   0.635
      -  p          21.927   0.635
      -  d           0.000   0.635
  
    # Using partial waves for C as LCAO basis

  H:
    name: Hydrogen
    id: d65de229564ff8ea4db303e23b6d1ecf
    Z: 1.0
    valence: 1
    core: 0
    charge: 0.0
    file: /home/vazumah/anaconda3/envs/NAME/share/gpaw/H.PBE.gz
    compensation charges: {type: gauss,
                           rc: 0.15,
                           lmax: 2}
    cutoffs: {filter: 0.85,
              core: 0.53}
    valence states:
      #              energy  rcut
      - 1s(1.00)    -6.494   0.476
      -  s          20.717   0.476
      -  p           0.000   0.476
  
    # Using partial waves for H as LCAO basis

Reference energy: -13512.263335  # eV

Spin-paired calculation

Convergence criteria:
 Maximum [total energy] change in last 3 cyles: 0.0005 eV / electron
 Maximum integral of absolute [dens]ity change: 0.0001 electrons / valence electron
 Maximum integral of absolute [eigenst]ate change: 4e-08 eV^2 / valence electron
 Maximum number of scf [iter]ations: 333
 (Square brackets indicate name in SCF output, whereas a 'c' in
 the SCF output indicates the quantity has converged.)

Symmetries present (total): 1

  ( 1  0  0)
  ( 0  1  0)
  ( 0  0  1)

16 k-points: 4 x 4 x 1 Monkhorst-Pack grid
8 k-points in the irreducible part of the Brillouin zone
       k-points in crystal coordinates                weights
   0:     0.12500000   -0.37500000    0.00000000          2/16
   1:     0.12500000   -0.12500000    0.00000000          2/16
   2:     0.12500000    0.12500000    0.00000000          2/16
   3:     0.12500000    0.37500000    0.00000000          2/16
   4:     0.37500000   -0.37500000    0.00000000          2/16
   5:     0.37500000   -0.12500000    0.00000000          2/16
   6:     0.37500000    0.12500000    0.00000000          2/16
   7:     0.37500000    0.37500000    0.00000000          2/16

Wave functions: Uniform real-space grid
  Kinetic energy operator: 6*3+1=19 point O(h^6) finite-difference Laplacian
  ScaLapack parameters: grid=1x1, blocksize=None
  Wavefunction extrapolation:
    Improved wavefunction reuse through dual PAW basis 

Occupation numbers: Fermi-Dirac:
  width: 0.0500  # eV
 

Eigensolver
   Davidson(niter=2) 

Densities:
  Coarse grid: 60*60*156 grid
  Fine grid: 120*120*312 grid
  Total Charge: 0.000000 

Density mixing:
  Method: separate
  Backend: pulay
  Linear mixing parameter: 0.05
  old densities: 5
  Damping of long wavelength oscillations: 50 

Hamiltonian:
  XC and Coulomb potentials evaluated on a 120*120*312 grid
  Using the BEEF-vdW Exchange-Correlation functional
  Interpolation: tri-quintic (5. degree polynomial)
  Poisson solver: FastPoissonSolver using
    Stencil: 6*3+1=19 point O(h^6) finite-difference Laplacian
    FFT axes: [0, 1]
    FST axes: [2]

Dipole correction along z-axis 

XC parameters: BEEF-vdW with 2 nearest neighbor stencil

Memory estimate:
  Process memory now: 212.31 MiB
  Calculator: 298.81 MiB
    Density: 88.21 MiB
      Arrays: 27.47 MiB
      Localized functions: 50.30 MiB
      Mixer: 10.44 MiB
    Hamiltonian: 21.93 MiB
      Arrays: 17.96 MiB
      XC: 0.00 MiB
      Poisson: 0.00 MiB
      vbar: 3.97 MiB
    Wavefunctions: 188.67 MiB
      Arrays psit_nG: 87.67 MiB
      Eigensolver: 98.38 MiB
      Projections: 0.04 MiB
      Projectors: 2.58 MiB

Total number of cores used: 32
Parallelization over k-points: 8
Domain decomposition: 1 x 1 x 4

Number of atoms: 46
Number of atomic orbitals: 166
Number of bands in calculation: 42
Number of valence electrons: 62
Bands to converge: occupied

... initialized

Initializing position-dependent things.

Density initialized from atomic densities
Creating initial wave functions:
  42 bands from LCAO basis set

       .-----------------------.  
      /|                       |  
     / |                       |  
    /  |                       |  
   /   |                       |  
  /    |                       |  
 *     |                       |  
 |     H                       |  
 |     |                       |  
 |     |                       |  
 |     |                       |  
 |   H |                       |  
 | O C |                       |  
 |     |H                H     |  
 O  CLH|     Li      Li        |  
 |  H  |  Li      Li      Li   |  
 | Li  |   Li      Li          |  
 |     |Li      Li      Li     |  
 Li    | Li      Li            |  
 |   LLi     LLi     LLi       |  
 |     |  Li      Li      Li   |  
 | Li  |   Li      Li          |  
 |     |Li      Li      Li     |  
 Li    | Li      Li            |  
 |    Li      Li      Li       |  
 |     |                       |  
 |     |                       |  
 |     |                       |  
 |     |                       |  
 |     |                       |  
 |     |                       |  
 |     .-----------------------.  
 |    /                       /   
 |   /                       /    
 |  /                       /     
 | /                       /      
 |/                       /       
 *-----------------------*        

Positions:
   0 Li     1.617037    1.617037   10.000000    ( 0.0000,  0.0000,  0.0000)
   1 Li     4.851111    1.617037   10.000000    ( 0.0000,  0.0000,  0.0000)
   2 Li     8.085185    1.617037   10.000000    ( 0.0000,  0.0000,  0.0000)
   3 Li     1.617037    4.851111   10.000000    ( 0.0000,  0.0000,  0.0000)
   4 Li     4.851111    4.851111   10.000000    ( 0.0000,  0.0000,  0.0000)
   5 Li     8.085185    4.851111   10.000000    ( 0.0000,  0.0000,  0.0000)
   6 Li     1.617037    8.085185   10.000000    ( 0.0000,  0.0000,  0.0000)
   7 Li     4.851111    8.085185   10.000000    ( 0.0000,  0.0000,  0.0000)
   8 Li     8.085185    8.085185   10.000000    ( 0.0000,  0.0000,  0.0000)
   9 Li     0.000000    0.000000   11.617037    ( 0.0000,  0.0000,  0.0000)
  10 Li     3.234074    0.000000   11.617037    ( 0.0000,  0.0000,  0.0000)
  11 Li     6.468148    0.000000   11.617037    ( 0.0000,  0.0000,  0.0000)
  12 Li     0.000000    3.234074   11.617037    ( 0.0000,  0.0000,  0.0000)
  13 Li     3.234074    3.234074   11.617037    ( 0.0000,  0.0000,  0.0000)
  14 Li     6.468148    3.234074   11.617037    ( 0.0000,  0.0000,  0.0000)
  15 Li     0.000000    6.468148   11.617037    ( 0.0000,  0.0000,  0.0000)
  16 Li     3.234074    6.468148   11.617037    ( 0.0000,  0.0000,  0.0000)
  17 Li     6.468148    6.468148   11.617037    ( 0.0000,  0.0000,  0.0000)
  18 Li     1.617038    1.617038   13.469728    ( 0.0000,  0.0000,  0.0000)
  19 Li     4.851111    1.617038   13.469729    ( 0.0000,  0.0000,  0.0000)
  20 Li     8.085184    1.617038   13.469728    ( 0.0000,  0.0000,  0.0000)
  21 Li     1.617038    4.851111   13.469729    ( 0.0000,  0.0000,  0.0000)
  22 Li     4.851111    4.851111   13.469730    ( 0.0000,  0.0000,  0.0000)
  23 Li     8.085184    4.851111   13.469729    ( 0.0000,  0.0000,  0.0000)
  24 Li     1.617038    8.085184   13.469728    ( 0.0000,  0.0000,  0.0000)
  25 Li     4.851111    8.085184   13.469729    ( 0.0000,  0.0000,  0.0000)
  26 Li     8.085184    8.085184   13.469728    ( 0.0000,  0.0000,  0.0000)
  27 Li    -0.000000   -0.000000   15.445939    ( 0.0000,  0.0000,  0.0000)
  28 Li     3.234074    0.000000   15.445939    ( 0.0000,  0.0000,  0.0000)
  29 Li     6.468148    0.000000   15.445939    ( 0.0000,  0.0000,  0.0000)
  30 Li     0.000000    3.234074   15.445939    ( 0.0000,  0.0000,  0.0000)
  31 Li     3.234076    3.234076   15.445938    ( 0.0000,  0.0000,  0.0000)
  32 Li     6.468146    3.234076   15.445938    ( 0.0000,  0.0000,  0.0000)
  33 Li     0.000000    6.468148   15.445939    ( 0.0000,  0.0000,  0.0000)
  34 Li     3.234076    6.468146   15.445938    ( 0.0000,  0.0000,  0.0000)
  35 Li     6.468146    6.468146   15.445938    ( 0.0000,  0.0000,  0.0000)
  36 O      9.702222    9.702222   18.445939    ( 0.0000,  0.0000,  0.0000)
  37 O      9.746216   12.600420   18.213250    ( 0.0000,  0.0000,  0.0000)
  38 C     10.873434   10.430783   18.033562    ( 0.0000,  0.0000,  0.0000)
  39 C     10.887124   11.839968   18.602713    ( 0.0000,  0.0000,  0.0000)
  40 H     11.787824    9.902657   18.326395    ( 0.0000,  0.0000,  0.0000)
  41 H     10.826136   10.463532   16.943996    ( 0.0000,  0.0000,  0.0000)
  42 H     11.761390   12.376687   18.226232    ( 0.0000,  0.0000,  0.0000)
  43 H     10.962625   11.790239   19.701774    ( 0.0000,  0.0000,  0.0000)
  44 H      9.776737    9.532798   19.393261    ( 0.0000,  0.0000,  0.0000)
  45 H      8.979095   12.020954   18.309689    ( 0.0000,  0.0000,  0.0000)

Unit cell:
           periodic     x           y           z      points  spacing
  1. axis:    yes    9.702222    0.000000    0.000000    60     0.1617
  2. axis:    yes    0.000000    9.702222    0.000000    60     0.1617
  3. axis:    no     0.000000    0.000000   24.851111   156     0.1593

  Lengths:   9.702222   9.702222  24.851111
  Angles:   90.000000  90.000000  90.000000

Effective grid spacing dv^(1/3) = 0.1609

     iter     time        total  log10-change:
                         energy  eigst   dens
iter:   1 12:34:21  -486.922772
iter:   2 12:35:52  -127.524810  +2.44  -0.06
iter:   3 12:37:24   -84.499070  +3.25  -0.19
iter:   4 12:39:14  -148.240686  +2.89  -0.22
Writing to output.gpw (mode='')

iter:   5 12:42:09  -231.899467  +2.81  -0.34
iter:   6 12:45:55  -263.715477  +2.72  -0.42
iter:   7 12:47:48  -321.823827  +2.59  -0.60
iter:   8 12:49:43  -337.788162  +2.36  -0.49
iter:   9 12:52:09  -314.489837  +2.03  -0.47
Writing to output.gpw (mode='')

iter:  10 12:55:34  -318.437630  +1.62  -0.51
iter:  11 12:59:05  -395.731698  +2.34  -0.48
iter:  12 13:04:19  -350.483004  +1.50  -0.37
iter:  13 13:09:01  -295.619798  +1.51  -0.39
iter:  14 13:12:46  -296.276397  +0.89  -0.72
Writing to output.gpw (mode='')

iter:  15 13:15:55  -292.883101  +0.78  -0.73
iter:  16 13:18:26  -292.060264  +0.68  -0.82
iter:  17 13:22:39  -291.338669  -0.03  -0.88
iter:  18 13:26:14  -292.191896  +0.62  -0.97
iter:  19 13:30:32  -292.146173  +0.96  -1.01
Writing to output.gpw (mode='')

iter:  20 13:34:42  -290.975061  -0.26  -1.01
iter:  21 13:40:20  -290.913083  +0.35  -1.20
iter:  22 13:45:59  -290.808700  -0.39  -1.29
iter:  23 13:51:23  -290.702970  -0.65  -1.42
iter:  24 13:57:04  -290.681589  -0.30  -1.56
Writing to output.gpw (mode='')

iter:  25 14:01:14  -290.688792c -0.89  -1.79
iter:  26 14:05:19  -290.682887c -1.30  -1.81
iter:  27 14:08:02  -290.677064c -1.13  -1.88
iter:  28 14:11:21  -290.681055c -1.49  -2.22
iter:  29 14:15:27  -290.683400c -1.61  -2.29
Writing to output.gpw (mode='')

iter:  30 14:18:19  -290.685747c -1.68  -2.37
iter:  31 14:21:45  -290.688038c -1.74  -2.48
iter:  32 14:25:09  -290.689087c -2.06  -2.55
iter:  33 14:28:31  -290.690225c -1.95  -2.64
iter:  34 14:31:28  -290.691268c -2.33  -2.90
Writing to output.gpw (mode='')

iter:  35 14:35:26  -290.692043c -2.42  -2.99
iter:  36 14:39:50  -290.692833c -2.24  -3.01
iter:  37 14:43:16  -290.693538c -2.52  -3.08
iter:  38 14:47:02  -290.694165c -2.40  -3.20
iter:  39 14:49:49  -290.694609c -2.74  -3.27
Writing to output.gpw (mode='')

iter:  40 14:53:41  -290.694995c -2.76  -3.26
iter:  41 14:57:44  -290.695366c -2.70  -3.25
iter:  42 15:01:56  -290.695753c -2.56  -3.23
iter:  43 15:06:44  -290.696186c -2.50  -3.24
iter:  44 15:10:52  -290.696442c -2.83  -3.24
Writing to output.gpw (mode='')

iter:  45 15:13:29  -290.696666c -2.95  -3.24
iter:  46 15:15:21  -290.696888c -3.10  -3.29
iter:  47 15:17:28  -290.697017c -3.32  -3.51
iter:  48 15:19:44  -290.697135c -3.30  -3.59
iter:  49 15:22:22  -290.697230c -3.36  -3.81
Writing to output.gpw (mode='')

iter:  50 15:26:22  -290.697331c -3.21  -3.88
iter:  51 15:28:20  -290.697402c -3.51  -3.99
iter:  52 15:31:41  -290.697462c -3.62  -4.02c
iter:  53 15:35:59  -290.697517c -3.53  -4.28c
iter:  54 15:39:06  -290.697557c -3.70  -4.38c
Writing to output.gpw (mode='')

iter:  55 15:41:48  -290.697598c -3.57  -4.39c
iter:  56 15:44:37  -290.697630c -3.82  -4.36c
iter:  57 15:50:27  -290.697657c -3.87  -4.30c
iter:  58 15:53:44  -290.697683c -3.83  -4.23c
iter:  59 15:56:38  -290.697710c -3.77  -4.23c
Writing to output.gpw (mode='')

iter:  60 16:01:48  -290.697728c -4.02  -4.25c
iter:  61 16:06:04  -290.697744c -4.11  -4.19c
iter:  62 16:09:59  -290.697758c -3.99  -4.18c
iter:  63 16:14:40  -290.697769c -4.18  -4.15c
iter:  64 16:20:08  -290.697778c -4.25  -4.15c
Writing to output.gpw (mode='')

iter:  65 16:26:35  -290.697786c -4.38  -4.14c
iter:  66 16:32:22  -290.697794c -4.49  -3.99
iter:  67 16:37:12  -290.697800c -4.51  -4.33c
iter:  68 16:40:17  -290.697805c -4.44  -4.44c
iter:  69 16:42:53  -290.697810c -4.49  -4.53c
Writing to output.gpw (mode='')

iter:  70 16:47:16  -290.697814c -4.58  -4.57c
iter:  71 16:52:07  -290.697817c -4.61  -4.55c
iter:  72 16:56:30  -290.697820c -4.86  -4.51c
iter:  73 16:59:48  -290.697822c -4.95  -4.48c
iter:  74 17:03:33  -290.697824c -4.93  -4.42c
Writing to output.gpw (mode='')

iter:  75 17:07:49  -290.697826c -4.94  -4.44c
iter:  76 17:11:27  -290.697828c -4.87  -4.48c
iter:  77 17:15:23  -290.697829c -4.89  -4.45c
iter:  78 17:19:38  -290.697830c -5.04  -4.44c
iter:  79 17:23:43  -290.697831c -5.08  -4.50c
Writing to output.gpw (mode='')

iter:  80 17:28:10  -290.697832c -5.14  -4.55c
iter:  81 17:31:34  -290.697833c -5.25  -4.82c
iter:  82 17:35:47  -290.697834c -5.38  -4.89c
iter:  83 17:39:34  -290.697834c -5.21  -4.94c
iter:  84 17:43:45  -290.697835c -5.21  -5.07c
Writing to output.gpw (mode='')

iter:  85 17:47:10  -290.697835c -5.50  -5.19c
iter:  86 17:51:16  -290.697836c -5.48  -5.22c
iter:  87 17:54:56  -290.697836c -5.59  -5.31c
iter:  88 18:00:09  -290.697836c -5.68  -5.36c
iter:  89 18:04:10  -290.697836c -5.61  -5.54c
Writing to output.gpw (mode='')

iter:  90 18:07:49  -290.697836c -5.68  -5.62c
iter:  91 18:12:50  -290.697836c -5.74  -5.67c
iter:  92 18:16:29  -290.697836c -5.81  -5.70c
iter:  93 18:21:19  -290.697836c -5.83  -5.70c
iter:  94 18:25:46  -290.697837c -5.96  -5.62c
Writing to output.gpw (mode='')

iter:  95 18:30:00  -290.697837c -6.01  -5.66c
