
  ___ ___ ___ _ _ _  
 |   |   |_  | | | | 
 | | | | | . | | | | 
 |__ |  _|___|_____|  22.8.0
 |___|_|             

User:   vazumah@r134.ib.bridges2.psc.edu
Date:   Wed Mar  8 21:34:31 2023
Arch:   x86_64
Pid:    92217
CWD:    /jet/home/vazumah/Calcs/N2_with_proton_donor/CH3CH2OH_y/bridge/8.085_1.617/N2_z
Python: 3.11.0
gpaw:   /jet/home/vazumah/.conda/envs/GPAW_mpich/lib/python3.11/site-packages/gpaw
_gpaw:  /jet/home/vazumah/.conda/envs/GPAW_mpich/lib/python3.11/site-packages/
        _gpaw.cpython-311-x86_64-linux-gnu.so
ase:    /jet/home/vazumah/.conda/envs/GPAW_mpich/lib/python3.11/site-packages/ase (version 3.22.1)
numpy:  /jet/home/vazumah/.conda/envs/GPAW_mpich/lib/python3.11/site-packages/numpy (version 1.24.2)
scipy:  /jet/home/vazumah/.conda/envs/GPAW_mpich/lib/python3.11/site-packages/scipy (version 1.10.1)
libxc:  5.2.3
units:  Angstrom and eV
cores: 128
OpenMP: True
OMP_NUM_THREADS: 1

Input parameters:
  h: 0.16
  kpts: {size: [4, 4, 1]}
  occupations: {name: fermi-dirac,
                width: 0.05}
  poissonsolver: {dipolelayer: xy}
  xc: BEEF-vdW

System changes: positions, numbers, cell, pbc, initial_charges, initial_magmoms 

Initialize ...

species:
  Li:
    name: Lithium
    id: 830b4218f175192f93f959cfc0aad614
    Z: 3.0
    valence: 1
    core: 2
    charge: 0.0
    file: /jet/home/vazumah/datasets/gpaw-setups-0.9.20000/Li.PBE.gz
    compensation charges: {type: gauss,
                           rc: 0.33,
                           lmax: 2}
    cutoffs: {filter: 1.91,
              core: 2.55}
    valence states:
      #              energy  rcut
      - 2s(1.00)    -2.874   1.058
      - 2p(0.00)    -1.090   1.058
      -  s          24.337   1.058
  
    # Using partial waves for Li as LCAO basis

  O:
    name: Oxygen
    id: 32ecd46bf208036f09c70b0ec9a88b78
    Z: 8.0
    valence: 6
    core: 2
    charge: 0.0
    file: /jet/home/vazumah/datasets/gpaw-setups-0.9.20000/O.PBE.gz
    compensation charges: {type: gauss,
                           rc: 0.21,
                           lmax: 2}
    cutoffs: {filter: 1.17,
              core: 0.83}
    valence states:
      #              energy  rcut
      - 2s(2.00)   -23.961   0.688
      - 2p(4.00)    -9.029   0.598
      -  s           3.251   0.688
      -  p          18.182   0.598
      -  d           0.000   0.619
  
    # Using partial waves for O as LCAO basis

  C:
    name: Carbon
    id: 4aa54d4b901d75f77cc0ea3eec22967b
    Z: 6.0
    valence: 4
    core: 2
    charge: 0.0
    file: /jet/home/vazumah/datasets/gpaw-setups-0.9.20000/C.PBE.gz
    compensation charges: {type: gauss,
                           rc: 0.20,
                           lmax: 2}
    cutoffs: {filter: 1.14,
              core: 1.14}
    valence states:
      #              energy  rcut
      - 2s(2.00)   -13.751   0.635
      - 2p(2.00)    -5.284   0.635
      -  s          13.461   0.635
      -  p          21.927   0.635
      -  d           0.000   0.635
  
    # Using partial waves for C as LCAO basis

  H:
    name: Hydrogen
    id: d65de229564ff8ea4db303e23b6d1ecf
    Z: 1.0
    valence: 1
    core: 0
    charge: 0.0
    file: /jet/home/vazumah/datasets/gpaw-setups-0.9.20000/H.PBE.gz
    compensation charges: {type: gauss,
                           rc: 0.15,
                           lmax: 2}
    cutoffs: {filter: 0.85,
              core: 0.53}
    valence states:
      #              energy  rcut
      - 1s(1.00)    -6.494   0.476
      -  s          20.717   0.476
      -  p           0.000   0.476
  
    # Using partial waves for H as LCAO basis

  N:
    name: Nitrogen
    id: f7500608b86eaa90eef8b1d9a670dc53
    Z: 7.0
    valence: 5
    core: 2
    charge: 0.0
    file: /jet/home/vazumah/datasets/gpaw-setups-0.9.20000/N.PBE.gz
    compensation charges: {type: gauss,
                           rc: 0.18,
                           lmax: 2}
    cutoffs: {filter: 1.11,
              core: 0.96}
    valence states:
      #              energy  rcut
      - 2s(2.00)   -18.583   0.603
      - 2p(3.00)    -7.089   0.529
      -  s           8.629   0.603
      -  p          20.123   0.529
      -  d           0.000   0.577
  
    # Using partial waves for N as LCAO basis

Reference energy: -14434.854043  # eV

Spin-paired calculation

Convergence criteria:
 Maximum [total energy] change in last 3 cyles: 0.0005 eV / electron
 Maximum integral of absolute [dens]ity change: 0.0001 electrons / valence electron
 Maximum integral of absolute [eigenst]ate change: 4e-08 eV^2 / valence electron
 Maximum number of scf [iter]ations: 333
 (Square brackets indicate name in SCF output, whereas a 'c' in
 the SCF output indicates the quantity has converged.)

Symmetries present (total): 1

  ( 1  0  0)
  ( 0  1  0)
  ( 0  0  1)

16 k-points: 4 x 4 x 1 Monkhorst-Pack grid
8 k-points in the irreducible part of the Brillouin zone
       k-points in crystal coordinates                weights
   0:     0.12500000   -0.37500000    0.00000000          2/16
   1:     0.12500000   -0.12500000    0.00000000          2/16
   2:     0.12500000    0.12500000    0.00000000          2/16
   3:     0.12500000    0.37500000    0.00000000          2/16
   4:     0.37500000   -0.37500000    0.00000000          2/16
   5:     0.37500000   -0.12500000    0.00000000          2/16
   6:     0.37500000    0.12500000    0.00000000          2/16
   7:     0.37500000    0.37500000    0.00000000          2/16

Wave functions: Uniform real-space grid
  Kinetic energy operator: 6*3+1=19 point O(h^6) finite-difference Laplacian
  ScaLapack parameters: grid=1x1, blocksize=None
  Wavefunction extrapolation:
    Improved wavefunction reuse through dual PAW basis 

Occupation numbers: Fermi-Dirac:
  width: 0.0500  # eV
 

Eigensolver
   Davidson(niter=2) 

Densities:
  Coarse grid: 60*60*164 grid
  Fine grid: 120*120*328 grid
  Total Charge: 0.000000 

Density mixing:
  Method: separate
  Backend: pulay
  Linear mixing parameter: 0.05
  old densities: 5
  Damping of long wavelength oscillations: 50 

Hamiltonian:
  XC and Coulomb potentials evaluated on a 120*120*328 grid
  Using the BEEF-vdW Exchange-Correlation functional
  Interpolation: tri-quintic (5. degree polynomial)
  Poisson solver: FastPoissonSolver using
    Stencil: 6*3+1=19 point O(h^6) finite-difference Laplacian
    FFT axes: [0, 1]
    FST axes: [2]

Dipole correction along z-axis 

XC parameters: BEEF-vdW with 2 nearest neighbor stencil

Memory estimate:
  Process memory now: 126.32 MiB
  Calculator: 80.22 MiB
    Density: 22.47 MiB
      Arrays: 7.22 MiB
      Localized functions: 12.50 MiB
      Mixer: 2.75 MiB
    Hamiltonian: 5.71 MiB
      Arrays: 4.72 MiB
      XC: 0.00 MiB
      Poisson: 0.00 MiB
      vbar: 0.99 MiB
    Wavefunctions: 52.04 MiB
      Arrays psit_nG: 24.17 MiB
      Eigensolver: 27.21 MiB
      Projections: 0.01 MiB
      Projectors: 0.65 MiB

Total number of cores used: 128
Parallelization over k-points: 8
Domain decomposition: 2 x 2 x 4

Number of atoms: 47
Number of atomic orbitals: 170
Number of bands in calculation: 44
Number of valence electrons: 66
Bands to converge: occupied

... initialized

Initializing position-dependent things.

Density initialized from atomic densities
Creating initial wave functions:
  44 bands from LCAO basis set

       .-----------------------.  
      /|                       |  
     / |                       |  
    /  |                       |  
   /   |                       |  
  /    |                       |  
 *     |                       |  
 |     |                       |  
 |     |                       |  
 |     |                       |  
 |     |                       |  
 |     |              H   H    |  
 |     |             H  CC     |  
 |     |              O        |  
 |     |                  H    |  
 |   Li|     Li      LN        |  
 |     |              N        |  
 | Li  |  LLi     LLi     Li   |  
 |     |                       |  
 Li    |LLi     LLi     Li     |  
 |   Li|     Li      Li        |  
 |    Li  Li  Li  Li  Li  Li   |  
 | Li  |   Li      Li          |  
 |     |Li      Li      Li     |  
 Li    | Li      Li            |  
 |    Li      Li      Li       |  
 |     |                       |  
 |     |                       |  
 |     |                       |  
 |     |                       |  
 |     |                       |  
 |     |                       |  
 |     .-----------------------.  
 |    /                       /   
 |   /                       /    
 |  /                       /     
 | /                       /      
 |/                       /       
 *-----------------------*        

Positions:
   0 Li     1.617037    1.617037   10.000000    ( 0.0000,  0.0000,  0.0000)
   1 Li     4.851111    1.617037   10.000000    ( 0.0000,  0.0000,  0.0000)
   2 Li     8.085185    1.617037   10.000000    ( 0.0000,  0.0000,  0.0000)
   3 Li     1.617037    4.851111   10.000000    ( 0.0000,  0.0000,  0.0000)
   4 Li     4.851111    4.851111   10.000000    ( 0.0000,  0.0000,  0.0000)
   5 Li     8.085185    4.851111   10.000000    ( 0.0000,  0.0000,  0.0000)
   6 Li     1.617037    8.085185   10.000000    ( 0.0000,  0.0000,  0.0000)
   7 Li     4.851111    8.085185   10.000000    ( 0.0000,  0.0000,  0.0000)
   8 Li     8.085185    8.085185   10.000000    ( 0.0000,  0.0000,  0.0000)
   9 Li     0.000000    0.000000   11.617037    ( 0.0000,  0.0000,  0.0000)
  10 Li     3.234074    0.000000   11.617037    ( 0.0000,  0.0000,  0.0000)
  11 Li     6.468148    0.000000   11.617037    ( 0.0000,  0.0000,  0.0000)
  12 Li     0.000000    3.234074   11.617037    ( 0.0000,  0.0000,  0.0000)
  13 Li     3.234074    3.234074   11.617037    ( 0.0000,  0.0000,  0.0000)
  14 Li     6.468148    3.234074   11.617037    ( 0.0000,  0.0000,  0.0000)
  15 Li     0.000000    6.468148   11.617037    ( 0.0000,  0.0000,  0.0000)
  16 Li     3.234074    6.468148   11.617037    ( 0.0000,  0.0000,  0.0000)
  17 Li     6.468148    6.468148   11.617037    ( 0.0000,  0.0000,  0.0000)
  18 Li     1.617038    1.617038   13.469728    ( 0.0000,  0.0000,  0.0000)
  19 Li     4.851111    1.617038   13.469729    ( 0.0000,  0.0000,  0.0000)
  20 Li     8.085184    1.617038   13.469728    ( 0.0000,  0.0000,  0.0000)
  21 Li     1.617038    4.851111   13.469729    ( 0.0000,  0.0000,  0.0000)
  22 Li     4.851111    4.851111   13.469730    ( 0.0000,  0.0000,  0.0000)
  23 Li     8.085184    4.851111   13.469729    ( 0.0000,  0.0000,  0.0000)
  24 Li     1.617038    8.085184   13.469728    ( 0.0000,  0.0000,  0.0000)
  25 Li     4.851111    8.085184   13.469729    ( 0.0000,  0.0000,  0.0000)
  26 Li     8.085184    8.085184   13.469728    ( 0.0000,  0.0000,  0.0000)
  27 Li    -0.000000   -0.000000   15.445939    ( 0.0000,  0.0000,  0.0000)
  28 Li     3.234074    0.000000   15.445939    ( 0.0000,  0.0000,  0.0000)
  29 Li     6.468148    0.000000   15.445939    ( 0.0000,  0.0000,  0.0000)
  30 Li     0.000000    3.234074   15.445939    ( 0.0000,  0.0000,  0.0000)
  31 Li     3.234076    3.234076   15.445938    ( 0.0000,  0.0000,  0.0000)
  32 Li     6.468146    3.234076   15.445938    ( 0.0000,  0.0000,  0.0000)
  33 Li     0.000000    6.468148   15.445939    ( 0.0000,  0.0000,  0.0000)
  34 Li     3.234076    6.468146   15.445938    ( 0.0000,  0.0000,  0.0000)
  35 Li     6.468146    6.468146   15.445938    ( 0.0000,  0.0000,  0.0000)
  36 O      8.085185    1.617037   19.645939    ( 0.0000,  0.0000,  0.0000)
  37 C      8.901943    2.799444   19.650238    ( 0.0000,  0.0000,  0.0000)
  38 C      8.082324    4.083659   19.635704    ( 0.0000,  0.0000,  0.0000)
  39 H      9.585478    2.790821   20.510398    ( 0.0000,  0.0000,  0.0000)
  40 H      9.511668    2.724056   18.747442    ( 0.0000,  0.0000,  0.0000)
  41 H      8.736271    4.960586   19.620269    ( 0.0000,  0.0000,  0.0000)
  42 H      7.433301    4.118370   18.758886    ( 0.0000,  0.0000,  0.0000)
  43 H      7.453837    4.153847   20.528265    ( 0.0000,  0.0000,  0.0000)
  44 H      7.502208    1.656204   20.414164    ( 0.0000,  0.0000,  0.0000)
  45 N      8.085000    1.617000   16.945939    ( 0.0000,  0.0000,  0.0000)
  46 N      8.085000    1.617000   18.042561    ( 0.0000,  0.0000,  0.0000)

Unit cell:
           periodic     x           y           z      points  spacing
  1. axis:    yes    9.702222    0.000000    0.000000    60     0.1617
  2. axis:    yes    0.000000    9.702222    0.000000    60     0.1617
  3. axis:    no     0.000000    0.000000   26.351111   164     0.1607

  Lengths:   9.702222   9.702222  26.351111
  Angles:   90.000000  90.000000  90.000000

Effective grid spacing dv^(1/3) = 0.1614

     iter     time        total  log10-change:
                         energy  eigst   dens
iter:   1 21:34:46  -579.172753
iter:   2 21:34:53   -59.100282  +2.59  +0.01
iter:   3 21:35:00    -3.597324  +3.28  -0.14
iter:   4 21:35:07  -187.041852  +3.19  -0.22
Writing to output.gpw (mode='')

iter:   5 21:35:14  -230.024811  +2.88  -0.24
iter:   6 21:35:22  -292.109258  +2.62  -0.56
iter:   7 21:35:29  -321.121900  +2.22  -0.61
iter:   8 21:35:36  -345.705785  +2.06  -0.58
iter:   9 21:35:43  -478.704706  +2.75  -0.53
Writing to output.gpw (mode='')

iter:  10 21:35:50  -363.727168  +1.71  -0.27
iter:  11 21:35:57  -317.297105  +1.55  -0.45
iter:  12 21:36:04  -316.467436  +1.42  -0.70
iter:  13 21:36:11  -311.892905  +1.40  -0.77
iter:  14 21:36:18  -313.481152  +1.44  -0.75
Writing to output.gpw (mode='')

iter:  15 21:36:25  -309.344966  +0.65  -0.68
iter:  16 21:36:32  -308.452813  +0.28  -0.75
iter:  17 21:36:39  -308.286732  +0.97  -0.77
iter:  18 21:36:47  -305.028596  +0.34  -0.79
iter:  19 21:36:54  -304.692819  +0.06  -0.89
Writing to output.gpw (mode='')

iter:  20 21:37:01  -303.911442  -0.08  -0.93
iter:  21 21:37:08  -303.810649  +0.38  -1.06
iter:  22 21:37:18  -303.568277  -0.09  -1.22
iter:  23 21:37:25  -303.341409  +0.03  -1.31
iter:  24 21:37:32  -303.211421  -0.04  -1.47
Writing to output.gpw (mode='')

iter:  25 21:37:39  -303.320690  -0.27  -1.65
iter:  26 21:37:46  -303.315147  -0.79  -1.64
iter:  27 21:37:53  -303.308880c -1.06  -1.67
iter:  28 21:38:00  -303.238232  -0.70  -1.69
iter:  29 21:38:07  -303.239359  -1.37  -1.89
Writing to output.gpw (mode='')

iter:  30 21:38:14  -303.239237c -1.52  -1.98
iter:  31 21:38:21  -303.248384c -1.25  -2.04
iter:  32 21:38:28  -303.240211c -1.62  -2.09
iter:  33 21:38:36  -303.242396c -1.53  -2.29
iter:  34 21:38:43  -303.244655c -1.82  -2.36
Writing to output.gpw (mode='')

iter:  35 21:38:50  -303.245533c -1.84  -2.43
iter:  36 21:38:57  -303.247427c -1.82  -2.56
iter:  37 21:39:04  -303.248243c -2.16  -2.56
iter:  38 21:39:11  -303.248832c -2.43  -2.78
iter:  39 21:39:25  -303.249637c -2.24  -2.94
Writing to output.gpw (mode='')

iter:  40 21:39:32  -303.250130c -2.61  -2.94
iter:  41 21:39:39  -303.250736c -2.41  -3.00
iter:  42 21:39:46  -303.251213c -2.69  -3.11
iter:  43 21:39:54  -303.251545c -2.82  -3.29
iter:  44 21:40:01  -303.251818c -2.85  -3.37
Writing to output.gpw (mode='')

iter:  45 21:40:08  -303.252186c -2.58  -3.37
iter:  46 21:40:15  -303.252507c -2.76  -3.44
iter:  47 21:40:22  -303.252689c -3.02  -3.55
iter:  48 21:40:29  -303.252823c -3.18  -3.59
iter:  49 21:40:36  -303.252964c -3.09  -3.61
Writing to output.gpw (mode='')

iter:  50 21:40:43  -303.253065c -3.36  -3.70
iter:  51 21:40:50  -303.253142c -3.41  -3.82
iter:  52 21:40:58  -303.253213c -3.34  -3.85
iter:  53 21:41:05  -303.253274c -3.58  -3.87
iter:  54 21:41:12  -303.253324c -3.56  -3.95
Writing to output.gpw (mode='')

iter:  55 21:41:19  -303.253380c -3.47  -4.07c
iter:  56 21:41:26  -303.253416c -3.78  -4.06c
iter:  57 21:41:33  -303.253446c -3.81  -4.10c
iter:  58 21:41:40  -303.253473c -4.01  -4.16c
iter:  59 21:41:47  -303.253492c -4.11  -4.34c
Writing to output.gpw (mode='')

iter:  60 21:41:54  -303.253509c -4.10  -4.35c
iter:  61 21:42:01  -303.253526c -4.08  -4.39c
iter:  62 21:42:08  -303.253541c -3.99  -4.56c
iter:  63 21:42:15  -303.253551c -4.33  -4.77c
iter:  64 21:42:23  -303.253560c -4.34  -4.71c
Writing to output.gpw (mode='')

iter:  65 21:42:30  -303.253568c -4.37  -4.61c
iter:  66 21:42:37  -303.253575c -4.43  -4.52c
iter:  67 21:42:44  -303.253585c -4.10  -4.45c
iter:  68 21:42:51  -303.253590c -4.46  -4.43c
iter:  69 21:42:58  -303.253594c -4.37  -4.41c
Writing to output.gpw (mode='')

iter:  70 21:43:05  -303.253597c -4.64  -4.37c
iter:  71 21:43:13  -303.253599c -4.76  -4.35c
iter:  72 21:43:20  -303.253602c -4.82  -4.28c
iter:  73 21:43:27  -303.253604c -4.82  -4.31c
iter:  74 21:43:34  -303.253606c -4.57  -4.23c
Writing to output.gpw (mode='')

iter:  75 21:43:41  -303.253608c -4.95  -4.26c
iter:  76 21:43:48  -303.253610c -5.03  -4.22c
iter:  77 21:43:55  -303.253611c -5.10  -4.32c
iter:  78 21:44:03  -303.253613c -5.00  -4.34c
iter:  79 21:44:10  -303.253615c -5.13  -4.39c
Writing to output.gpw (mode='')

iter:  80 21:44:23  -303.253616c -5.13  -4.69c
iter:  81 21:44:31  -303.253618c -4.94  -4.83c
iter:  82 21:44:38  -303.253619c -5.24  -4.82c
iter:  83 21:44:45  -303.253619c -5.25  -4.98c
iter:  84 21:44:52  -303.253620c -5.13  -5.08c
Writing to output.gpw (mode='')

iter:  85 21:44:59  -303.253620c -5.18  -5.15c
iter:  86 21:45:06  -303.253621c -5.37  -5.28c
iter:  87 21:45:13  -303.253621c -5.66  -5.41c
iter:  88 21:45:20  -303.253621c -5.53  -5.43c
iter:  89 21:45:27  -303.253621c -5.59  -5.52c
Writing to output.gpw (mode='')

iter:  90 21:45:34  -303.253621c -5.73  -5.61c
iter:  91 21:45:41  -303.253621c -5.80  -5.66c
iter:  92 21:45:49  -303.253622c -5.57  -5.76c
iter:  93 21:45:56  -303.253622c -5.76  -5.84c
iter:  94 21:46:03  -303.253622c -5.76  -5.83c
Writing to output.gpw (mode='')

iter:  95 21:46:10  -303.253622c -5.91  -5.79c
iter:  96 21:46:17  -303.253622c -6.03  -5.67c
iter:  97 21:46:24  -303.253622c -6.14  -5.63c
iter:  98 21:46:31  -303.253622c -5.98  -5.40c
iter:  99 21:46:38  -303.253622c -6.11  -5.38c
Writing to output.gpw (mode='')

iter: 100 21:46:45  -303.253622c -6.17  -5.43c
iter: 101 21:46:53  -303.253622c -5.98  -5.44c
iter: 102 21:47:00  -303.253622c -6.19  -5.42c
iter: 103 21:47:07  -303.253622c -6.21  -5.41c
iter: 104 21:47:14  -303.253622c -6.23  -5.62c
Writing to output.gpw (mode='')

iter: 105 21:47:21  -303.253622c -6.42  -5.58c
iter: 106 21:47:28  -303.253622c -6.54  -5.36c
iter: 107 21:47:35  -303.253622c -6.70  -5.66c
iter: 108 21:47:42  -303.253622c -6.59  -5.56c
iter: 109 21:47:49  -303.253622c -6.57  -5.74c
Writing to output.gpw (mode='')

iter: 110 21:47:57  -303.253622c -6.61  -5.90c
iter: 111 21:48:04  -303.253622c -6.64  -5.94c
iter: 112 21:48:11  -303.253622c -6.67  -6.01c
iter: 113 21:48:18  -303.253622c -6.63  -6.03c
iter: 114 21:48:25  -303.253622c -6.69  -6.04c
Writing to output.gpw (mode='')

iter: 115 21:48:32  -303.253622c -6.99  -6.10c
iter: 116 21:48:39  -303.253622c -7.03  -6.01c
iter: 117 21:48:46  -303.253622c -7.01  -6.10c
iter: 118 21:48:53  -303.253622c -6.98  -6.31c
iter: 119 21:49:00  -303.253622c -6.95  -6.37c
Writing to output.gpw (mode='')

iter: 120 21:49:08  -303.253622c -6.99  -6.46c
iter: 121 21:49:20  -303.253622c -7.02  -6.50c
iter: 122 21:49:29  -303.253622c -7.15  -6.54c
iter: 123 21:49:36  -303.253622c -7.14  -6.56c
iter: 124 21:49:43  -303.253622c -7.24  -6.62c
Writing to output.gpw (mode='')

iter: 125 21:49:50  -303.253622c -7.22  -6.73c
iter: 126 21:49:58  -303.253622c -7.39  -6.66c
iter: 127 21:50:05  -303.253622c -7.33  -6.57c
iter: 128 21:50:12  -303.253622c -7.37  -6.53c
iter: 129 21:50:19  -303.253622c -7.38  -6.37c
Writing to output.gpw (mode='')

iter: 130 21:50:26  -303.253622c -7.33  -6.30c
iter: 131 21:50:33  -303.253622c -7.38  -6.26c
iter: 132 21:50:40  -303.253622c -7.55c -6.23c

Converged after 132 iterations.

Dipole moment: (4.509422, -3.300538, 0.336316) |e|*Ang

Energy contributions relative to reference atoms: (reference = -14434.854043)

Kinetic:       +178.068960
Potential:     -164.603165
External:        +0.000000
XC:            -317.363366
Entropy (-ST):   -0.146277
Local:           +0.717087
--------------------------
Free energy:   -303.326761
Extrapolated:  -303.253622

Dipole-layer corrected work functions: 3.380173, 2.733657 eV

Showing only first 2 kpts
 Kpt  Band  Eigenvalues  Occupancy
  0    31     -3.30345    1.98566
  0    32     -3.18579    1.85879
  0    33     -2.88469    0.06187
  0    34     -2.82202    0.01806

  1    31     -3.11897    1.55148
  1    32     -3.06600    1.09063
  1    33     -3.04214    0.85331
  1    34     -2.93187    0.15160


Fermi level: -3.05691

No gap
Writing to output.gpw (mode='')


Forces in eV/Ang:
  0 Li    0.02932   -0.00010   -0.27255
  1 Li   -0.03001   -0.00086   -0.27269
  2 Li    0.00117    0.00084   -0.27913
  3 Li   -0.00307   -0.00286   -0.27687
  4 Li    0.00361   -0.00098   -0.27616
  5 Li   -0.00030    0.02934   -0.27312
  6 Li   -0.00107    0.00354   -0.27592
  7 Li    0.00257    0.00236   -0.27646
  8 Li   -0.00090   -0.03006   -0.27184
  9 Li   -0.00295    0.00365    0.29570
 10 Li   -0.00176    0.00787    0.24476
 11 Li    0.00408    0.00464    0.29702
 12 Li   -0.00231   -0.00186    0.29234
 13 Li   -0.00285   -0.00883    0.24789
 14 Li    0.00520   -0.00436    0.29716
 15 Li   -0.00986   -0.00161    0.24758
 16 Li    0.00159   -0.00008    0.26907
 17 Li    0.00741   -0.00014    0.24401
 18 Li   -0.00607   -0.00102    0.04931
 19 Li    0.00059   -0.00036    0.03949
 20 Li    0.00171   -0.00091   -0.17855
 21 Li   -0.01203   -0.01106    0.04559
 22 Li    0.01333   -0.01730    0.05030
 23 Li   -0.00175   -0.00389    0.04910
 24 Li   -0.01578    0.01133    0.04687
 25 Li    0.01611    0.01688    0.05109
 26 Li   -0.00100    0.00387    0.04237
 27 Li    0.07211   -0.06582   -0.03891
 28 Li   -0.00300    0.03060   -0.01671
 29 Li   -0.05543   -0.05339   -0.03488
 30 Li    0.07719    0.07641   -0.08410
 31 Li   -0.00615   -0.02841   -0.01044
 32 Li   -0.06241    0.05895   -0.05848
 33 Li   -0.02954   -0.00680   -0.01594
 34 Li    0.00158   -0.00137   -0.01560
 35 Li    0.02830   -0.00378   -0.01885
 36 O    -0.87992    0.07766   11.93769
 37 C     0.65072    0.96536    1.31454
 38 C    -0.09677   -0.02960    0.10520
 39 H    -0.13407   -0.17885   -0.12689
 40 H     0.20300    0.14310    0.31208
 41 H     0.00715   -0.07679   -0.05977
 42 H    -0.00838    0.08758   -0.02487
 43 H     0.01045   -0.00454   -0.03118
 44 H    -0.23572    0.07417    2.13974
 45 N    -1.26131   -0.37636   -4.77127
 46 N     1.73415   -0.69315  -10.69532

System changes: positions 

Initializing position-dependent things.

Density initialized from wave functions
       .-----------------------.  
      /|                       |  
     / |                       |  
    /  |                       |  
   /   |                       |  
  /    |                       |  
 *     |                       |  
 |     |                       |  
 |     |                       |  
 |     |                       |  
 |     |                       |  
 |     |              H   H    |  
 |     |             H  CC     |  
 |     Li             OLi      |  
 |     |                  H    |  
 |     |     Li      LN      Li|  
 |     |              N        |  
 | Li  |  LLi     LLi     Li   |  
 |     |                       |  
 |     |LLi     Li      Li     |  
 |   Li|     Li      Li        |  
 |    Li  Li  Li  Li  Li  Li   |  
 | Li  |   Li      Li          |  
 |     |Li      Li      Li     |  
 Li    | Li      Li            |  
 |    Li      Li      Li       |  
 |     |                       |  
 |     |                       |  
 |     |                       |  
 |     |                       |  
 |     |                       |  
 |     |                       |  
 |     .-----------------------.  
 |    /                       /   
 |   /                       /    
 |  /                       /     
 | /                       /      
 |/                       /       
 *-----------------------*        

Positions:
   0 Li     1.617037    1.617037   10.000000    ( 0.0000,  0.0000,  0.0000)
   1 Li     4.851111    1.617037   10.000000    ( 0.0000,  0.0000,  0.0000)
   2 Li     8.085185    1.617037   10.000000    ( 0.0000,  0.0000,  0.0000)
   3 Li     1.617037    4.851111   10.000000    ( 0.0000,  0.0000,  0.0000)
   4 Li     4.851111    4.851111   10.000000    ( 0.0000,  0.0000,  0.0000)
   5 Li     8.085185    4.851111   10.000000    ( 0.0000,  0.0000,  0.0000)
   6 Li     1.617037    8.085185   10.000000    ( 0.0000,  0.0000,  0.0000)
   7 Li     4.851111    8.085185   10.000000    ( 0.0000,  0.0000,  0.0000)
   8 Li     8.085185    8.085185   10.000000    ( 0.0000,  0.0000,  0.0000)
   9 Li     0.000000    0.000000   11.617037    ( 0.0000,  0.0000,  0.0000)
  10 Li     3.234074    0.000000   11.617037    ( 0.0000,  0.0000,  0.0000)
  11 Li     6.468148    0.000000   11.617037    ( 0.0000,  0.0000,  0.0000)
  12 Li     0.000000    3.234074   11.617037    ( 0.0000,  0.0000,  0.0000)
  13 Li     3.234074    3.234074   11.617037    ( 0.0000,  0.0000,  0.0000)
  14 Li     6.468148    3.234074   11.617037    ( 0.0000,  0.0000,  0.0000)
  15 Li     0.000000    6.468148   11.617037    ( 0.0000,  0.0000,  0.0000)
  16 Li     3.234074    6.468148   11.617037    ( 0.0000,  0.0000,  0.0000)
  17 Li     6.468148    6.468148   11.617037    ( 0.0000,  0.0000,  0.0000)
  18 Li     1.617018    1.617035   13.469893    ( 0.0000,  0.0000,  0.0000)
  19 Li     4.851113    1.617037   13.469861    ( 0.0000,  0.0000,  0.0000)
  20 Li     8.085190    1.617035   13.469131    ( 0.0000,  0.0000,  0.0000)
  21 Li     1.616998    4.851074   13.469882    ( 0.0000,  0.0000,  0.0000)
  22 Li     4.851156    4.851053   13.469898    ( 0.0000,  0.0000,  0.0000)
  23 Li     8.085178    4.851098   13.469894    ( 0.0000,  0.0000,  0.0000)
  24 Li     1.616985    8.085222   13.469884    ( 0.0000,  0.0000,  0.0000)
  25 Li     4.851165    8.085240   13.469900    ( 0.0000,  0.0000,  0.0000)
  26 Li     8.085181    8.085197   13.469869    ( 0.0000,  0.0000,  0.0000)
  27 Li     0.000241   -0.000220   15.445809    ( 0.0000,  0.0000,  0.0000)
  28 Li     3.234064    0.000102   15.445883    ( 0.0000,  0.0000,  0.0000)
  29 Li     6.467963   -0.000178   15.445822    ( 0.0000,  0.0000,  0.0000)
  30 Li     0.000258    3.234329   15.445658    ( 0.0000,  0.0000,  0.0000)
  31 Li     3.234056    3.233982   15.445903    ( 0.0000,  0.0000,  0.0000)
  32 Li     6.467937    3.234273   15.445743    ( 0.0000,  0.0000,  0.0000)
  33 Li    -0.000099    6.468126   15.445886    ( 0.0000,  0.0000,  0.0000)
  34 Li     3.234082    6.468141   15.445886    ( 0.0000,  0.0000,  0.0000)
  35 Li     6.468240    6.468133   15.445875    ( 0.0000,  0.0000,  0.0000)
  36 O      8.082245    1.617296   19.685830    ( 0.0000,  0.0000,  0.0000)
  37 C      8.904117    2.802670   19.654630    ( 0.0000,  0.0000,  0.0000)
  38 C      8.082000    4.083560   19.636056    ( 0.0000,  0.0000,  0.0000)
  39 H      9.585030    2.790224   20.509974    ( 0.0000,  0.0000,  0.0000)
  40 H      9.512346    2.724534   18.748485    ( 0.0000,  0.0000,  0.0000)
  41 H      8.736294    4.960329   19.620070    ( 0.0000,  0.0000,  0.0000)
  42 H      7.433273    4.118663   18.758803    ( 0.0000,  0.0000,  0.0000)
  43 H      7.453872    4.153832   20.528161    ( 0.0000,  0.0000,  0.0000)
  44 H      7.501421    1.656452   20.421314    ( 0.0000,  0.0000,  0.0000)
  45 N      8.080785    1.615742   16.929996    ( 0.0000,  0.0000,  0.0000)
  46 N      8.090795    1.614684   18.006822    ( 0.0000,  0.0000,  0.0000)

Unit cell:
           periodic     x           y           z      points  spacing
  1. axis:    yes    9.702222    0.000000    0.000000    60     0.1617
  2. axis:    yes    0.000000    9.702222    0.000000    60     0.1617
  3. axis:    no     0.000000    0.000000   26.351111   164     0.1607

  Lengths:   9.702222   9.702222  26.351111
  Angles:   90.000000  90.000000  90.000000

Effective grid spacing dv^(1/3) = 0.1614

     iter     time        total  log10-change:
                         energy  eigst   dens
iter:   1 21:50:49  -304.676829  -0.72
iter:   2 21:50:56  -304.248288  -0.43  -1.28
iter:   3 21:51:03  -304.161552  -1.21  -1.51
iter:   4 21:51:10  -304.114544  -0.51  -1.84
Writing to output.gpw (mode='')

iter:   5 21:51:18  -304.110063  -1.47  -1.88
iter:   6 21:51:25  -304.120073c -1.28  -2.16
iter:   7 21:51:32  -304.104839c -1.19  -2.08
iter:   8 21:51:39  -304.102354c -1.85  -2.32
iter:   9 21:51:46  -304.101216c -1.99  -2.43
Writing to output.gpw (mode='')

iter:  10 21:51:53  -304.100947c -2.52  -2.58
iter:  11 21:52:01  -304.101009c -2.64  -2.69
iter:  12 21:52:08  -304.101048c -2.71  -2.74
iter:  13 21:52:15  -304.101209c -2.85  -2.79
iter:  14 21:52:22  -304.101217c -3.20  -2.80
Writing to output.gpw (mode='')

iter:  15 21:52:29  -304.101352c -3.31  -3.10
iter:  16 21:52:36  -304.101328c -3.68  -3.16
iter:  17 21:52:43  -304.101355c -3.75  -3.42
iter:  18 21:52:51  -304.101381c -3.75  -3.54
iter:  19 21:52:58  -304.101392c -4.04  -3.56
Writing to output.gpw (mode='')

iter:  20 21:53:05  -304.101406c -3.87  -3.64
iter:  21 21:53:12  -304.101410c -4.07  -3.74
iter:  22 21:53:19  -304.101419c -4.39  -3.80
iter:  23 21:53:27  -304.101434c -4.29  -3.85
iter:  24 21:53:36  -304.101445c -4.39  -3.88
Writing to output.gpw (mode='')

iter:  25 21:53:43  -304.101454c -4.58  -3.99
iter:  26 21:53:51  -304.101457c -4.75  -4.04c
iter:  27 21:53:58  -304.101460c -4.85  -4.27c
iter:  28 21:54:05  -304.101462c -4.98  -4.31c
iter:  29 21:54:12  -304.101466c -4.86  -4.37c
Writing to output.gpw (mode='')

iter:  30 21:54:26  -304.101469c -5.00  -4.47c
iter:  31 21:54:33  -304.101471c -5.15  -4.61c
iter:  32 21:54:40  -304.101471c -4.95  -4.64c
iter:  33 21:54:47  -304.101473c -5.01  -4.76c
iter:  34 21:54:54  -304.101474c -5.31  -4.89c
Writing to output.gpw (mode='')

iter:  35 21:55:01  -304.101476c -5.25  -4.93c
iter:  36 21:55:09  -304.101477c -5.35  -4.93c
iter:  37 21:55:16  -304.101477c -5.61  -4.98c
iter:  38 21:55:23  -304.101478c -5.75  -5.06c
iter:  39 21:55:30  -304.101478c -5.80  -5.08c
Writing to output.gpw (mode='')

iter:  40 21:55:37  -304.101478c -5.75  -5.12c
iter:  41 21:55:44  -304.101479c -5.90  -5.16c
iter:  42 21:55:52  -304.101479c -5.94  -5.22c
iter:  43 21:55:59  -304.101479c -5.98  -5.28c
iter:  44 21:56:06  -304.101479c -6.16  -5.43c
Writing to output.gpw (mode='')

iter:  45 21:56:13  -304.101479c -6.22  -5.49c
iter:  46 21:56:20  -304.101479c -6.08  -5.52c
iter:  47 21:56:27  -304.101479c -6.31  -5.53c
iter:  48 21:56:34  -304.101479c -6.29  -5.42c
iter:  49 21:56:42  -304.101479c -6.22  -5.45c
Writing to output.gpw (mode='')

iter:  50 21:56:49  -304.101479c -6.64  -5.45c
iter:  51 21:56:56  -304.101479c -6.79  -5.29c
iter:  52 21:57:03  -304.101479c -6.84  -5.42c
iter:  53 21:57:10  -304.101480c -6.80  -5.41c
iter:  54 21:57:17  -304.101480c -6.75  -5.33c
Writing to output.gpw (mode='')

iter:  55 21:57:24  -304.101480c -6.87  -5.55c
iter:  56 21:57:32  -304.101480c -7.05  -5.56c
iter:  57 21:57:40  -304.101480c -7.11  -5.49c
iter:  58 21:57:49  -304.101480c -6.78  -5.49c
iter:  59 21:58:06  -304.101480c -7.27  -5.49c
Writing to output.gpw (mode='')

iter:  60 21:58:16  -304.101480c -7.35  -5.36c
iter:  61 21:58:23  -304.101480c -7.17  -5.55c
iter:  62 21:58:30  -304.101480c -7.11  -5.63c
iter:  63 21:58:37  -304.101480c -7.15  -5.62c
iter:  64 21:58:44  -304.101480c -7.48c -5.66c

Converged after 64 iterations.

Dipole moment: (4.558238, -3.324461, 0.356045) |e|*Ang

Energy contributions relative to reference atoms: (reference = -14434.854043)

Kinetic:       +179.108447
Potential:     -165.816076
External:        +0.000000
XC:            -318.050098
Entropy (-ST):   -0.145821
Local:           +0.729158
--------------------------
Free energy:   -304.174390
Extrapolated:  -304.101480

Dipole-layer corrected work functions: 3.379147, 2.694706 eV

Showing only first 2 kpts
 Kpt  Band  Eigenvalues  Occupancy
  0    31     -3.28397    1.98581
  0    32     -3.16760    1.86344
  0    33     -2.86354    0.06048
  0    34     -2.80016    0.01741

  1    31     -3.09447    1.51933
  1    32     -3.04622    1.09269
  1    33     -3.02315    0.86309
  1    34     -2.91228    0.15270


Fermi level: -3.03693

No gap
Writing to output.gpw (mode='')


Forces in eV/Ang:
  0 Li    0.02927   -0.00009   -0.27242
  1 Li   -0.02979   -0.00075   -0.27269
  2 Li    0.00097    0.00075   -0.27893
  3 Li   -0.00333   -0.00291   -0.27659
  4 Li    0.00358   -0.00135   -0.27601
  5 Li   -0.00024    0.02923   -0.27298
  6 Li   -0.00146    0.00351   -0.27584
  7 Li    0.00267    0.00269   -0.27616
  8 Li   -0.00076   -0.02991   -0.27183
  9 Li   -0.00317    0.00383    0.29574
 10 Li   -0.00155    0.00794    0.24480
 11 Li    0.00390    0.00447    0.29674
 12 Li   -0.00261   -0.00207    0.29255
 13 Li   -0.00244   -0.00870    0.24762
 14 Li    0.00512   -0.00436    0.29705
 15 Li   -0.00960   -0.00140    0.24716
 16 Li    0.00140   -0.00024    0.27040
 17 Li    0.00768   -0.00008    0.24415
 18 Li   -0.00716   -0.00086    0.05029
 19 Li    0.00225   -0.00043    0.04176
 20 Li    0.00193   -0.00091   -0.18513
 21 Li   -0.01231   -0.01176    0.04627
 22 Li    0.01354   -0.01671    0.04973
 23 Li   -0.00146   -0.00512    0.05051
 24 Li   -0.01553    0.01183    0.04687
 25 Li    0.01608    0.01643    0.05067
 26 Li   -0.00087    0.00533    0.04408
 27 Li    0.08770   -0.08184   -0.06003
 28 Li   -0.00223    0.03241   -0.01517
 29 Li   -0.07115   -0.06954   -0.05516
 30 Li    0.09092    0.09028   -0.10382
 31 Li   -0.00550   -0.03012   -0.00906
 32 Li   -0.07861    0.07568   -0.07877
 33 Li   -0.03096   -0.00676   -0.01472
 34 Li    0.00103   -0.00148   -0.01538
 35 Li    0.03008   -0.00371   -0.01739
 36 O     0.21958    0.11333    8.80942
 37 C     0.28021    0.60038    1.24408
 38 C    -0.03305    0.01685    0.08916
 39 H     0.02270   -0.06012   -0.00802
 40 H     0.12115    0.07312    0.36861
 41 H    -0.01038   -0.05586   -0.05675
 42 H    -0.00496    0.07221   -0.02038
 43 H    -0.00108    0.00124   -0.01056
 44 H    -0.87074    0.25029    2.69533
 45 N    -1.06908   -0.30406   -7.02546
 46 N     1.35857   -0.71504   -5.78481

System changes: positions 

Initializing position-dependent things.

Density initialized from wave functions
       .-----------------------.  
      /|                       |  
     / |                       |  
    /  |                       |  
   /   |                       |  
  /    |                       |  
 *     |                       |  
 |     |                       |  
 |     |                       |  
 |     |                       |  
 |     |                       |  
 |     |              H   H    |  
 |     |             H  CC     |  
 |     Li             OLi      |  
 |     |                  H    |  
 |     |     Li      LN      Li|  
 |     |              N        |  
 | Li  |  LLi     LLi     Li   |  
 |     |                       |  
 |     |LLi     Li      Li     |  
 |   Li|     Li      Li        |  
 |    Li  Li  Li  Li  Li  Li   |  
 | Li  |   Li      Li          |  
 |     |Li      Li      Li     |  
 Li    | Li      Li            |  
 |    Li      Li      Li       |  
 |     |                       |  
 |     |                       |  
 |     |                       |  
 |     |                       |  
 |     |                       |  
 |     |                       |  
 |     .-----------------------.  
 |    /                       /   
 |   /                       /    
 |  /                       /     
 | /                       /      
 |/                       /       
 *-----------------------*        

Positions:
   0 Li     1.617037    1.617037   10.000000    ( 0.0000,  0.0000,  0.0000)
   1 Li     4.851111    1.617037   10.000000    ( 0.0000,  0.0000,  0.0000)
   2 Li     8.085185    1.617037   10.000000    ( 0.0000,  0.0000,  0.0000)
   3 Li     1.617037    4.851111   10.000000    ( 0.0000,  0.0000,  0.0000)
   4 Li     4.851111    4.851111   10.000000    ( 0.0000,  0.0000,  0.0000)
   5 Li     8.085185    4.851111   10.000000    ( 0.0000,  0.0000,  0.0000)
   6 Li     1.617037    8.085185   10.000000    ( 0.0000,  0.0000,  0.0000)
   7 Li     4.851111    8.085185   10.000000    ( 0.0000,  0.0000,  0.0000)
   8 Li     8.085185    8.085185   10.000000    ( 0.0000,  0.0000,  0.0000)
   9 Li     0.000000    0.000000   11.617037    ( 0.0000,  0.0000,  0.0000)
  10 Li     3.234074    0.000000   11.617037    ( 0.0000,  0.0000,  0.0000)
  11 Li     6.468148    0.000000   11.617037    ( 0.0000,  0.0000,  0.0000)
  12 Li     0.000000    3.234074   11.617037    ( 0.0000,  0.0000,  0.0000)
  13 Li     3.234074    3.234074   11.617037    ( 0.0000,  0.0000,  0.0000)
  14 Li     6.468148    3.234074   11.617037    ( 0.0000,  0.0000,  0.0000)
  15 Li     0.000000    6.468148   11.617037    ( 0.0000,  0.0000,  0.0000)
  16 Li     3.234074    6.468148   11.617037    ( 0.0000,  0.0000,  0.0000)
  17 Li     6.468148    6.468148   11.617037    ( 0.0000,  0.0000,  0.0000)
  18 Li     1.616980    1.617031   13.470143    ( 0.0000,  0.0000,  0.0000)
  19 Li     4.851128    1.617035   13.470072    ( 0.0000,  0.0000,  0.0000)
  20 Li     8.085200    1.617031   13.468205    ( 0.0000,  0.0000,  0.0000)
  21 Li     1.616937    4.851015   13.470111    ( 0.0000,  0.0000,  0.0000)
  22 Li     4.851223    4.850972   13.470142    ( 0.0000,  0.0000,  0.0000)
  23 Li     8.085171    4.851070   13.470145    ( 0.0000,  0.0000,  0.0000)
  24 Li     1.616909    8.085281   13.470115    ( 0.0000,  0.0000,  0.0000)
  25 Li     4.851244    8.085320   13.470149    ( 0.0000,  0.0000,  0.0000)
  26 Li     8.085177    8.085226   13.470090    ( 0.0000,  0.0000,  0.0000)
  27 Li     0.000708   -0.000659   15.445466    ( 0.0000,  0.0000,  0.0000)
  28 Li     3.234054    0.000266   15.445812    ( 0.0000,  0.0000,  0.0000)
  29 Li     6.467577   -0.000557   15.445505    ( 0.0000,  0.0000,  0.0000)
  30 Li     0.000737    3.234805   15.445102    ( 0.0000,  0.0000,  0.0000)
  31 Li     3.234030    3.233829   15.445862    ( 0.0000,  0.0000,  0.0000)
  32 Li     6.467513    3.234684   15.445309    ( 0.0000,  0.0000,  0.0000)
  33 Li    -0.000254    6.468092   15.445816    ( 0.0000,  0.0000,  0.0000)
  34 Li     3.234086    6.468133   15.445811    ( 0.0000,  0.0000,  0.0000)
  35 Li     6.468392    6.468115   15.445793    ( 0.0000,  0.0000,  0.0000)
  36 O      8.085806    1.617935   19.722160    ( 0.0000,  0.0000,  0.0000)
  37 C      8.904661    2.804804   19.660598    ( 0.0000,  0.0000,  0.0000)
  38 C      8.081981    4.083748   19.636458    ( 0.0000,  0.0000,  0.0000)
  39 H      9.585495    2.790195   20.510202    ( 0.0000,  0.0000,  0.0000)
  40 H      9.512759    2.724736   18.750428    ( 0.0000,  0.0000,  0.0000)
  41 H      8.736204    4.960101   19.619797    ( 0.0000,  0.0000,  0.0000)
  42 H      7.433257    4.118984   18.758713    ( 0.0000,  0.0000,  0.0000)
  43 H      7.453840    4.153851   20.528156    ( 0.0000,  0.0000,  0.0000)
  44 H      7.495700    1.658082   20.435842    ( 0.0000,  0.0000,  0.0000)
  45 N      8.075954    1.614408   16.890311    ( 0.0000,  0.0000,  0.0000)
  46 N      8.096638    1.611113   17.989409    ( 0.0000,  0.0000,  0.0000)

Unit cell:
           periodic     x           y           z      points  spacing
  1. axis:    yes    9.702222    0.000000    0.000000    60     0.1617
  2. axis:    yes    0.000000    9.702222    0.000000    60     0.1617
  3. axis:    no     0.000000    0.000000   26.351111   164     0.1607

  Lengths:   9.702222   9.702222  26.351111
  Angles:   90.000000  90.000000  90.000000

Effective grid spacing dv^(1/3) = 0.1614

     iter     time        total  log10-change:
                         energy  eigst   dens
iter:   1 21:58:53  -304.835001  -0.79
iter:   2 21:59:00  -304.824883  -1.52  -2.04
iter:   3 21:59:07  -304.789207  -1.37  -2.14
iter:   4 21:59:22  -304.788165  -2.02  -2.28
Writing to output.gpw (mode='')

iter:   5 21:59:30  -304.785291c -1.95  -2.38
iter:   6 21:59:37  -304.784656c -1.95  -2.53
iter:   7 21:59:44  -304.783542c -2.53  -2.50
iter:   8 21:59:52  -304.783807c -2.58  -2.67
iter:   9 21:59:59  -304.783646c -3.04  -2.71
Writing to output.gpw (mode='')

iter:  10 22:00:06  -304.783517c -3.07  -2.79
iter:  11 22:00:13  -304.783254c -3.42  -2.92
iter:  12 22:00:20  -304.783129c -3.28  -3.01
iter:  13 22:00:27  -304.783171c -3.50  -3.20
iter:  14 22:00:34  -304.783160c -4.28  -3.26
Writing to output.gpw (mode='')

iter:  15 22:00:42  -304.783218c -3.95  -3.42
iter:  16 22:00:49  -304.783205c -4.35  -3.43
iter:  17 22:00:56  -304.783193c -4.33  -3.67
iter:  18 22:01:03  -304.783198c -5.07  -3.63
iter:  19 22:01:10  -304.783214c -4.66  -3.69
Writing to output.gpw (mode='')

iter:  20 22:01:17  -304.783199c -4.37  -3.73
iter:  21 22:01:24  -304.783204c -5.07  -3.66
iter:  22 22:01:32  -304.783203c -5.04  -3.99
iter:  23 22:01:39  -304.783202c -5.34  -4.17c
iter:  24 22:01:46  -304.783200c -5.69  -4.23c
Writing to output.gpw (mode='')

iter:  25 22:01:53  -304.783198c -5.67  -4.30c
iter:  26 22:02:00  -304.783199c -5.57  -4.48c
iter:  27 22:02:07  -304.783202c -5.70  -4.43c
iter:  28 22:02:14  -304.783201c -5.94  -4.41c
iter:  29 22:02:21  -304.783201c -6.34  -4.61c
Writing to output.gpw (mode='')

iter:  30 22:02:29  -304.783200c -6.28  -4.67c
iter:  31 22:02:36  -304.783200c -6.39  -4.98c
iter:  32 22:02:43  -304.783200c -6.52  -4.98c
iter:  33 22:02:50  -304.783201c -6.60  -5.03c
iter:  34 22:02:57  -304.783201c -6.61  -5.16c
Writing to output.gpw (mode='')

iter:  35 22:03:04  -304.783201c -6.70  -5.25c
iter:  36 22:03:12  -304.783201c -6.73  -5.32c
iter:  37 22:03:19  -304.783201c -6.49  -5.29c
iter:  38 22:03:26  -304.783201c -6.88  -5.25c
iter:  39 22:03:33  -304.783201c -7.23  -5.28c
Writing to output.gpw (mode='')

iter:  40 22:03:40  -304.783201c -6.86  -5.29c
iter:  41 22:03:47  -304.783201c -7.28  -5.31c
iter:  42 22:03:54  -304.783201c -7.23  -5.24c
iter:  43 22:04:02  -304.783201c -7.37  -5.26c
iter:  44 22:04:09  -304.783201c -7.53c -5.31c

Converged after 44 iterations.

Dipole moment: (4.483107, -3.254866, 0.344557) |e|*Ang

Energy contributions relative to reference atoms: (reference = -14434.854043)

Kinetic:       +173.469205
Potential:     -161.571736
External:        +0.000000
XC:            -317.341793
Entropy (-ST):   -0.146310
Local:           +0.734279
--------------------------
Free energy:   -304.856356
Extrapolated:  -304.783201

Dipole-layer corrected work functions: 3.380093, 2.717736 eV

Showing only first 2 kpts
 Kpt  Band  Eigenvalues  Occupancy
  0    31     -3.29544    1.98566
  0    32     -3.17531    1.85215
  0    33     -2.87371    0.05839
  0    34     -2.81891    0.01990

  1    31     -3.10778    1.52896
  1    32     -3.05962    1.10663
  1    33     -3.03405    0.85246
  1    34     -2.91946    0.13969


Fermi level: -3.04891

No gap
Writing to output.gpw (mode='')


Forces in eV/Ang:
  0 Li    0.02973   -0.00021   -0.27277
  1 Li   -0.03008   -0.00074   -0.27338
  2 Li    0.00100    0.00081   -0.27951
  3 Li   -0.00326   -0.00252   -0.27687
  4 Li    0.00321   -0.00108   -0.27640
  5 Li   -0.00031    0.02950   -0.27354
  6 Li   -0.00119    0.00323   -0.27632
  7 Li    0.00221    0.00259   -0.27639
  8 Li   -0.00068   -0.03023   -0.27211
  9 Li   -0.00376    0.00430    0.29669
 10 Li   -0.00207    0.00791    0.24467
 11 Li    0.00438    0.00524    0.29822
 12 Li   -0.00307   -0.00234    0.29344
 13 Li   -0.00274   -0.00881    0.24763
 14 Li    0.00580   -0.00518    0.29871
 15 Li   -0.00982   -0.00134    0.24744
 16 Li    0.00190   -0.00026    0.26852
 17 Li    0.00774   -0.00022    0.24411
 18 Li   -0.00640   -0.00075    0.04783
 19 Li    0.00001   -0.00056    0.03833
 20 Li    0.00273   -0.00123   -0.17526
 21 Li   -0.01209   -0.01196    0.04624
 22 Li    0.01360   -0.01694    0.04951
 23 Li   -0.00145   -0.00376    0.04763
 24 Li   -0.01552    0.01171    0.04674
 25 Li    0.01679    0.01677    0.05104
 26 Li   -0.00113    0.00421    0.04134
 27 Li    0.07767   -0.07213   -0.04524
 28 Li   -0.00165    0.03088   -0.01670
 29 Li   -0.05664   -0.05533   -0.03778
 30 Li    0.07868    0.07897   -0.08875
 31 Li   -0.00507   -0.02870   -0.01075
 32 Li   -0.06576    0.06345   -0.06181
 33 Li   -0.02946   -0.00692   -0.01583
 34 Li    0.00071   -0.00129   -0.01594
 35 Li    0.02865   -0.00371   -0.01860
 36 O     0.83053    0.04660    6.64881
 37 C     0.14048    0.44380    1.14341
 38 C    -0.02682    0.03397    0.09049
 39 H     0.15153    0.04276    0.10531
 40 H     0.02639    0.01139    0.43845
 41 H    -0.01003   -0.03600   -0.05219
 42 H     0.00575    0.05158   -0.01178
 43 H    -0.01088    0.01667    0.00055
 44 H    -1.22642    0.37947    2.88532
 45 N    -0.95474   -0.24866   -3.76921
 46 N     1.08739   -0.76537   -7.27804

System changes: positions 

Initializing position-dependent things.

Density initialized from wave functions
       .-----------------------.  
      /|                       |  
     / |                       |  
    /  |                       |  
   /   |                       |  
  /    |                       |  
 *     |                       |  
 |     |                       |  
 |     |                       |  
 |     |                       |  
 |     |                       |  
 |     |              H   H    |  
 |     |             H  CC     |  
 |     Li             OLi      |  
 |     |                  H    |  
 |     |     Li      LN      Li|  
 |     |                       |  
 | Li  |  LLi     LLi N   Li   |  
 |     |                       |  
 |     |LLi     Li      Li     |  
 |   Li|     Li      Li        |  
 |    Li  Li  Li  Li  Li  Li   |  
 | Li  |   Li      Li          |  
 |     |Li      Li      Li     |  
 Li    | Li      Li            |  
 |    Li      Li      Li       |  
 |     |                       |  
 |     |                       |  
 |     |                       |  
 |     |                       |  
 |     |                       |  
 |     |                       |  
 |     .-----------------------.  
 |    /                       /   
 |   /                       /    
 |  /                       /     
 | /                       /      
 |/                       /       
 *-----------------------*        

Positions:
   0 Li     1.617037    1.617037   10.000000    ( 0.0000,  0.0000,  0.0000)
   1 Li     4.851111    1.617037   10.000000    ( 0.0000,  0.0000,  0.0000)
   2 Li     8.085185    1.617037   10.000000    ( 0.0000,  0.0000,  0.0000)
   3 Li     1.617037    4.851111   10.000000    ( 0.0000,  0.0000,  0.0000)
   4 Li     4.851111    4.851111   10.000000    ( 0.0000,  0.0000,  0.0000)
   5 Li     8.085185    4.851111   10.000000    ( 0.0000,  0.0000,  0.0000)
   6 Li     1.617037    8.085185   10.000000    ( 0.0000,  0.0000,  0.0000)
   7 Li     4.851111    8.085185   10.000000    ( 0.0000,  0.0000,  0.0000)
   8 Li     8.085185    8.085185   10.000000    ( 0.0000,  0.0000,  0.0000)
   9 Li     0.000000    0.000000   11.617037    ( 0.0000,  0.0000,  0.0000)
  10 Li     3.234074    0.000000   11.617037    ( 0.0000,  0.0000,  0.0000)
  11 Li     6.468148    0.000000   11.617037    ( 0.0000,  0.0000,  0.0000)
  12 Li     0.000000    3.234074   11.617037    ( 0.0000,  0.0000,  0.0000)
  13 Li     3.234074    3.234074   11.617037    ( 0.0000,  0.0000,  0.0000)
  14 Li     6.468148    3.234074   11.617037    ( 0.0000,  0.0000,  0.0000)
  15 Li     0.000000    6.468148   11.617037    ( 0.0000,  0.0000,  0.0000)
  16 Li     3.234074    6.468148   11.617037    ( 0.0000,  0.0000,  0.0000)
  17 Li     6.468148    6.468148   11.617037    ( 0.0000,  0.0000,  0.0000)
  18 Li     1.616922    1.617026   13.470550    ( 0.0000,  0.0000,  0.0000)
  19 Li     4.851131    1.617029   13.470402    ( 0.0000,  0.0000,  0.0000)
  20 Li     8.085226    1.617019   13.466699    ( 0.0000,  0.0000,  0.0000)
  21 Li     1.616833    4.850908   13.470510    ( 0.0000,  0.0000,  0.0000)
  22 Li     4.851340    4.850830   13.470561    ( 0.0000,  0.0000,  0.0000)
  23 Li     8.085160    4.851035   13.470552    ( 0.0000,  0.0000,  0.0000)
  24 Li     1.616778    8.085384   13.470514    ( 0.0000,  0.0000,  0.0000)
  25 Li     4.851389    8.085462   13.470584    ( 0.0000,  0.0000,  0.0000)
  26 Li     8.085167    8.085267   13.470445    ( 0.0000,  0.0000,  0.0000)
  27 Li     0.001430   -0.001337   15.445004    ( 0.0000,  0.0000,  0.0000)
  28 Li     3.234046    0.000536   15.445673    ( 0.0000,  0.0000,  0.0000)
  29 Li     6.467047   -0.001080   15.445119    ( 0.0000,  0.0000,  0.0000)
  30 Li     0.001451    3.235525   15.444276    ( 0.0000,  0.0000,  0.0000)
  31 Li     3.233992    3.233579   15.445773    ( 0.0000,  0.0000,  0.0000)
  32 Li     6.466898    3.235285   15.444716    ( 0.0000,  0.0000,  0.0000)
  33 Li    -0.000510    6.468033   15.445684    ( 0.0000,  0.0000,  0.0000)
  34 Li     3.234088    6.468122   15.445674    ( 0.0000,  0.0000,  0.0000)
  35 Li     6.468643    6.468084   15.445638    ( 0.0000,  0.0000,  0.0000)
  36 O      8.100893    1.618339   19.755019    ( 0.0000,  0.0000,  0.0000)
  37 C      8.903364    2.806081   19.669679    ( 0.0000,  0.0000,  0.0000)
  38 C      8.082130    4.084350   19.637145    ( 0.0000,  0.0000,  0.0000)
  39 H      9.588052    2.791532   20.512105    ( 0.0000,  0.0000,  0.0000)
  40 H      9.512245    2.724258   18.754698    ( 0.0000,  0.0000,  0.0000)
  41 H      8.736020    4.959970   19.619381    ( 0.0000,  0.0000,  0.0000)
  42 H      7.433357    4.119278   18.758662    ( 0.0000,  0.0000,  0.0000)
  43 H      7.453653    4.154071   20.528309    ( 0.0000,  0.0000,  0.0000)
  44 H      7.480596    1.662696   20.464191    ( 0.0000,  0.0000,  0.0000)
  45 N      8.069213    1.612853   16.854929    ( 0.0000,  0.0000,  0.0000)
  46 N      8.103020    1.604301   17.950513    ( 0.0000,  0.0000,  0.0000)

Unit cell:
           periodic     x           y           z      points  spacing
  1. axis:    yes    9.702222    0.000000    0.000000    60     0.1617
  2. axis:    yes    0.000000    9.702222    0.000000    60     0.1617
  3. axis:    no     0.000000    0.000000   26.351111   164     0.1607

  Lengths:   9.702222   9.702222  26.351111
  Angles:   90.000000  90.000000  90.000000

Effective grid spacing dv^(1/3) = 0.1614

     iter     time        total  log10-change:
                         energy  eigst   dens
iter:   1 22:04:25  -305.635110  -0.72
iter:   2 22:04:32  -305.527371  -0.92  -1.56
iter:   3 22:04:39  -305.498954  -1.74  -1.76
iter:   4 22:04:46  -305.494831c -0.93  -2.16
Writing to output.gpw (mode='')

iter:   5 22:04:53  -305.480969c -1.87  -2.02
iter:   6 22:05:01  -305.481194c -1.84  -2.32
iter:   7 22:05:08  -305.481460c -1.86  -2.56
iter:   8 22:05:15  -305.480240c -2.48  -2.43
iter:   9 22:05:22  -305.480189c -2.87  -2.55
Writing to output.gpw (mode='')

iter:  10 22:05:29  -305.479983c -2.63  -2.64
iter:  11 22:05:36  -305.480081c -3.06  -2.91
iter:  12 22:05:43  -305.480195c -2.84  -2.88
iter:  13 22:05:51  -305.479991c -3.50  -2.99
iter:  14 22:05:58  -305.479988c -3.57  -3.17
Writing to output.gpw (mode='')

iter:  15 22:06:05  -305.479989c -3.88  -3.26
iter:  16 22:06:12  -305.480002c -4.02  -3.45
iter:  17 22:06:20  -305.479990c -4.06  -3.50
iter:  18 22:06:27  -305.479988c -4.29  -3.61
iter:  19 22:06:34  -305.479992c -4.44  -3.70
Writing to output.gpw (mode='')

iter:  20 22:06:41  -305.479996c -4.76  -3.82
iter:  21 22:06:48  -305.480001c -4.76  -3.97
iter:  22 22:06:55  -305.480002c -4.91  -4.18c
iter:  23 22:07:03  -305.480003c -5.11  -4.22c
iter:  24 22:07:10  -305.480005c -5.13  -4.28c
Writing to output.gpw (mode='')

iter:  25 22:07:17  -305.480005c -5.55  -4.29c
iter:  26 22:07:24  -305.480006c -5.48  -4.31c
iter:  27 22:07:31  -305.480006c -5.83  -4.38c
iter:  28 22:07:38  -305.480007c -5.42  -4.47c
iter:  29 22:07:46  -305.480008c -5.97  -4.53c
Writing to output.gpw (mode='')

iter:  30 22:07:53  -305.480009c -6.01  -4.60c
iter:  31 22:08:00  -305.480009c -6.20  -5.04c
iter:  32 22:08:07  -305.480009c -5.96  -5.10c
iter:  33 22:08:14  -305.480009c -6.37  -5.20c
iter:  34 22:08:22  -305.480009c -6.36  -5.32c
Writing to output.gpw (mode='')

iter:  35 22:08:29  -305.480009c -6.31  -5.34c
iter:  36 22:08:36  -305.480009c -6.51  -5.38c
iter:  37 22:08:43  -305.480009c -6.74  -5.57c
iter:  38 22:08:50  -305.480009c -6.63  -5.66c
iter:  39 22:08:57  -305.480009c -6.89  -5.66c
Writing to output.gpw (mode='')

iter:  40 22:09:05  -305.480009c -6.85  -5.63c
iter:  41 22:09:12  -305.480009c -6.98  -5.60c
iter:  42 22:09:24  -305.480009c -6.95  -5.48c
iter:  43 22:09:32  -305.480009c -7.34  -5.44c
iter:  44 22:09:41  -305.480009c -7.36  -5.47c
Writing to output.gpw (mode='')

iter:  45 22:09:49  -305.480009c -7.36  -5.52c
iter:  46 22:09:56  -305.480009c -7.39  -5.76c
iter:  47 22:10:03  -305.480009c -7.46c -5.85c

Converged after 47 iterations.

Dipole moment: (4.403796, -3.227817, 0.330189) |e|*Ang

Energy contributions relative to reference atoms: (reference = -14434.854043)

Kinetic:       +170.419093
Potential:     -159.537651
External:        +0.000000
XC:            -317.027395
Entropy (-ST):   -0.146363
Local:           +0.739125
--------------------------
Free energy:   -305.553191
Extrapolated:  -305.480009

Dipole-layer corrected work functions: 3.380573, 2.745837 eV

Showing only first 2 kpts
 Kpt  Band  Eigenvalues  Occupancy
  0    31     -3.30959    1.98562
  0    32     -3.18769    1.84683
  0    33     -2.88633    0.05653
  0    34     -2.83626    0.02114

  1    31     -3.12143    1.52431
  1    32     -3.07508    1.11816
  1    33     -3.04795    0.84861
  1    34     -2.93075    0.13210


Fermi level: -3.06321

No gap
Writing to output.gpw (mode='')


Forces in eV/Ang:
  0 Li    0.03005   -0.00025   -0.27281
  1 Li   -0.03013   -0.00068   -0.27388
  2 Li    0.00093    0.00080   -0.27969
  3 Li   -0.00339   -0.00223   -0.27705
  4 Li    0.00293   -0.00111   -0.27660
  5 Li   -0.00031    0.02966   -0.27387
  6 Li   -0.00129    0.00304   -0.27668
  7 Li    0.00190    0.00271   -0.27653
  8 Li   -0.00058   -0.03043   -0.27229
  9 Li   -0.00406    0.00443    0.29696
 10 Li   -0.00246    0.00799    0.24477
 11 Li    0.00453    0.00572    0.29905
 12 Li   -0.00348   -0.00247    0.29402
 13 Li   -0.00295   -0.00886    0.24753
 14 Li    0.00612   -0.00569    0.29975
 15 Li   -0.00991   -0.00113    0.24749
 16 Li    0.00237   -0.00045    0.26806
 17 Li    0.00788   -0.00019    0.24415
 18 Li   -0.00697   -0.00065    0.04694
 19 Li   -0.00073   -0.00058    0.03718
 20 Li    0.00366   -0.00161   -0.17022
 21 Li   -0.01180   -0.01217    0.04601
 22 Li    0.01374   -0.01677    0.04896
 23 Li   -0.00143   -0.00347    0.04628
 24 Li   -0.01510    0.01163    0.04639
 25 Li    0.01709    0.01655    0.05061
 26 Li   -0.00124    0.00450    0.04065
 27 Li    0.08318   -0.07807   -0.05246
 28 Li   -0.00083    0.03089   -0.01638
 29 Li   -0.05978   -0.05836   -0.04314
 30 Li    0.08227    0.08299   -0.09324
 31 Li   -0.00408   -0.02878   -0.01083
 32 Li   -0.06830    0.06613   -0.06578
 33 Li   -0.02941   -0.00677   -0.01558
 34 Li    0.00021   -0.00113   -0.01597
 35 Li    0.02874   -0.00371   -0.01823
 36 O     0.23068   -0.07420    5.62095
 37 C     0.19201    0.37318    0.95150
 38 C    -0.05484    0.02395    0.10317
 39 H     0.26210    0.16921    0.18636
 40 H    -0.05977   -0.01777    0.51174
 41 H     0.00020   -0.01363   -0.04709
 42 H     0.01528    0.03309    0.00107
 43 H    -0.02630    0.04086    0.01017
 44 H    -0.53687    0.40714    1.79109
 45 N    -0.87238   -0.17039   -4.04361
 46 N     0.81694   -0.78252   -4.96358

System changes: positions 

Initializing position-dependent things.

Density initialized from wave functions
       .-----------------------.  
      /|                       |  
     / |                       |  
    /  |                       |  
   /   |                       |  
  /    |                       |  
 *     |                       |  
 |     |                       |  
 |     |                       |  
 |     |                       |  
 |     |                       |  
 |     |              H   H    |  
 |     |             H  CC     |  
 |     Li             OLi      |  
 |     |                  H    |  
 |     |     Li      LN      Li|  
 |     |                       |  
 | Li  |  LLi     LLi N   Li   |  
 |     |                       |  
 |     |LLi     Li      Li     |  
 |   Li|     Li      Li        |  
 |    Li  Li  Li  Li  Li  Li   |  
 | Li  |   Li      Li          |  
 |     |Li      Li      Li     |  
 Li    | Li      Li            |  
 |    Li      Li      Li       |  
 |     |                       |  
 |     |                       |  
 |     |                       |  
 |     |                       |  
 |     |                       |  
 |     |                       |  
 |     .-----------------------.  
 |    /                       /   
 |   /                       /    
 |  /                       /     
 | /                       /      
 |/                       /       
 *-----------------------*        

Positions:
   0 Li     1.617037    1.617037   10.000000    ( 0.0000,  0.0000,  0.0000)
   1 Li     4.851111    1.617037   10.000000    ( 0.0000,  0.0000,  0.0000)
   2 Li     8.085185    1.617037   10.000000    ( 0.0000,  0.0000,  0.0000)
   3 Li     1.617037    4.851111   10.000000    ( 0.0000,  0.0000,  0.0000)
   4 Li     4.851111    4.851111   10.000000    ( 0.0000,  0.0000,  0.0000)
   5 Li     8.085185    4.851111   10.000000    ( 0.0000,  0.0000,  0.0000)
   6 Li     1.617037    8.085185   10.000000    ( 0.0000,  0.0000,  0.0000)
   7 Li     4.851111    8.085185   10.000000    ( 0.0000,  0.0000,  0.0000)
   8 Li     8.085185    8.085185   10.000000    ( 0.0000,  0.0000,  0.0000)
   9 Li     0.000000    0.000000   11.617037    ( 0.0000,  0.0000,  0.0000)
  10 Li     3.234074    0.000000   11.617037    ( 0.0000,  0.0000,  0.0000)
  11 Li     6.468148    0.000000   11.617037    ( 0.0000,  0.0000,  0.0000)
  12 Li     0.000000    3.234074   11.617037    ( 0.0000,  0.0000,  0.0000)
  13 Li     3.234074    3.234074   11.617037    ( 0.0000,  0.0000,  0.0000)
  14 Li     6.468148    3.234074   11.617037    ( 0.0000,  0.0000,  0.0000)
  15 Li     0.000000    6.468148   11.617037    ( 0.0000,  0.0000,  0.0000)
  16 Li     3.234074    6.468148   11.617037    ( 0.0000,  0.0000,  0.0000)
  17 Li     6.468148    6.468148   11.617037    ( 0.0000,  0.0000,  0.0000)
  18 Li     1.616840    1.617020   13.471065    ( 0.0000,  0.0000,  0.0000)
  19 Li     4.851115    1.617022   13.470808    ( 0.0000,  0.0000,  0.0000)
  20 Li     8.085276    1.616998   13.464826    ( 0.0000,  0.0000,  0.0000)
  21 Li     1.616701    4.850766   13.471029    ( 0.0000,  0.0000,  0.0000)
  22 Li     4.851496    4.850644   13.471106    ( 0.0000,  0.0000,  0.0000)
  23 Li     8.085146    4.850999   13.471058    ( 0.0000,  0.0000,  0.0000)
  24 Li     1.616611    8.085516   13.471034    ( 0.0000,  0.0000,  0.0000)
  25 Li     4.851586    8.085646   13.471151    ( 0.0000,  0.0000,  0.0000)
  26 Li     8.085152    8.085320   13.470893    ( 0.0000,  0.0000,  0.0000)
  27 Li     0.002402   -0.002256   15.444372    ( 0.0000,  0.0000,  0.0000)
  28 Li     3.234047    0.000883   15.445489    ( 0.0000,  0.0000,  0.0000)
  29 Li     6.466370   -0.001744   15.444616    ( 0.0000,  0.0000,  0.0000)
  30 Li     0.002385    3.236474   15.443204    ( 0.0000,  0.0000,  0.0000)
  31 Li     3.233955    3.233255   15.445648    ( 0.0000,  0.0000,  0.0000)
  32 Li     6.466116    3.236048   15.443961    ( 0.0000,  0.0000,  0.0000)
  33 Li    -0.000838    6.467957   15.445510    ( 0.0000,  0.0000,  0.0000)
  34 Li     3.234084    6.468111   15.445493    ( 0.0000,  0.0000,  0.0000)
  35 Li     6.468967    6.468042   15.445435    ( 0.0000,  0.0000,  0.0000)
  36 O      8.109915    1.616900   19.788317    ( 0.0000,  0.0000,  0.0000)
  37 C      8.903204    2.807477   19.678841    ( 0.0000,  0.0000,  0.0000)
  38 C      8.081751    4.084895   19.638280    ( 0.0000,  0.0000,  0.0000)
  39 H      9.592803    2.794974   20.515644    ( 0.0000,  0.0000,  0.0000)
  40 H      9.510384    2.723297   18.761339    ( 0.0000,  0.0000,  0.0000)
  41 H      8.735977    4.960098   19.618908    ( 0.0000,  0.0000,  0.0000)
  42 H      7.433635    4.119403   18.758786    ( 0.0000,  0.0000,  0.0000)
  43 H      7.453199    4.154723   20.528613    ( 0.0000,  0.0000,  0.0000)
  44 H      7.471997    1.668889   20.484237    ( 0.0000,  0.0000,  0.0000)
  45 N      8.061212    1.611843   16.815751    ( 0.0000,  0.0000,  0.0000)
  46 N      8.108052    1.595077   17.917414    ( 0.0000,  0.0000,  0.0000)

Unit cell:
           periodic     x           y           z      points  spacing
  1. axis:    yes    9.702222    0.000000    0.000000    60     0.1617
  2. axis:    yes    0.000000    9.702222    0.000000    60     0.1617
  3. axis:    no     0.000000    0.000000   26.351111   164     0.1607

  Lengths:   9.702222   9.702222  26.351111
  Angles:   90.000000  90.000000  90.000000

Effective grid spacing dv^(1/3) = 0.1614

     iter     time        total  log10-change:
                         energy  eigst   dens
iter:   1 22:10:12  -306.073583  -0.79
iter:   2 22:10:19  -306.032701  -1.26  -1.73
iter:   3 22:10:26  -306.021019  -2.04  -1.94
iter:   4 22:10:33  -306.018356c -1.17  -2.29
Writing to output.gpw (mode='')

iter:   5 22:10:41  -306.012858c -2.21  -2.22
iter:   6 22:10:48  -306.012410c -2.21  -2.46
iter:   7 22:10:55  -306.014789c -2.15  -2.74
iter:   8 22:11:02  -306.012228c -2.57  -2.63
iter:   9 22:11:09  -306.012084c -2.79  -2.75
Writing to output.gpw (mode='')

iter:  10 22:11:16  -306.012057c -2.86  -3.02
iter:  11 22:11:23  -306.012058c -3.58  -3.15
iter:  12 22:11:31  -306.011998c -3.66  -3.14
iter:  13 22:11:38  -306.012028c -3.51  -3.30
iter:  14 22:11:45  -306.012003c -4.12  -3.38
Writing to output.gpw (mode='')

iter:  15 22:11:52  -306.012000c -4.37  -3.57
iter:  16 22:11:59  -306.012016c -4.68  -3.63
iter:  17 22:12:06  -306.012019c -4.67  -3.70
iter:  18 22:12:13  -306.012016c -4.78  -3.88
iter:  19 22:12:20  -306.012021c -5.04  -3.98
Writing to output.gpw (mode='')

iter:  20 22:12:28  -306.012025c -5.05  -4.14c
iter:  21 22:12:35  -306.012023c -5.36  -4.21c
iter:  22 22:12:42  -306.012021c -5.59  -4.32c
iter:  23 22:12:49  -306.012023c -5.55  -4.45c
iter:  24 22:12:56  -306.012022c -6.05  -4.52c
Writing to output.gpw (mode='')

iter:  25 22:13:03  -306.012022c -5.81  -4.64c
iter:  26 22:13:10  -306.012023c -6.19  -4.73c
iter:  27 22:13:17  -306.012023c -6.03  -4.84c
iter:  28 22:13:24  -306.012023c -6.19  -4.93c
iter:  29 22:13:32  -306.012023c -6.48  -5.05c
Writing to output.gpw (mode='')

iter:  30 22:13:39  -306.012024c -6.42  -5.04c
iter:  31 22:13:46  -306.012023c -6.41  -5.15c
iter:  32 22:13:53  -306.012024c -6.77  -5.30c
iter:  33 22:14:00  -306.012024c -6.81  -5.37c
iter:  34 22:14:07  -306.012024c -6.85  -5.47c
Writing to output.gpw (mode='')

iter:  35 22:14:22  -306.012024c -7.03  -5.61c
iter:  36 22:14:29  -306.012024c -7.05  -5.64c
iter:  37 22:14:37  -306.012024c -6.92  -5.57c
iter:  38 22:14:44  -306.012024c -7.17  -5.84c
iter:  39 22:14:51  -306.012024c -7.17  -5.86c
Writing to output.gpw (mode='')

iter:  40 22:14:58  -306.012024c -7.26  -5.88c
iter:  41 22:15:05  -306.012024c -7.47c -5.90c

Converged after 41 iterations.

Dipole moment: (4.261175, -3.172028, 0.310852) |e|*Ang

Energy contributions relative to reference atoms: (reference = -14434.854043)

Kinetic:       +166.920665
Potential:     -156.997911
External:        +0.000000
XC:            -316.605000
Entropy (-ST):   -0.146790
Local:           +0.743617
--------------------------
Free energy:   -306.085419
Extrapolated:  -306.012024

Dipole-layer corrected work functions: 3.381455, 2.783891 eV

Showing only first 2 kpts
 Kpt  Band  Eigenvalues  Occupancy
  0    31     -3.32877    1.98554
  0    32     -3.20382    1.83711
  0    33     -2.90395    0.05454
  0    34     -2.86165    0.02377

  1    31     -3.14167    1.52988
  1    32     -3.09557    1.12824
  1    33     -3.06652    0.83991
  1    34     -2.94619    0.12249


Fermi level: -3.08267

No gap
Writing to output.gpw (mode='')


Forces in eV/Ang:
  0 Li    0.03042   -0.00031   -0.27293
  1 Li   -0.03017   -0.00066   -0.27461
  2 Li    0.00089    0.00082   -0.28003
  3 Li   -0.00347   -0.00175   -0.27736
  4 Li    0.00251   -0.00093   -0.27690
  5 Li   -0.00034    0.02977   -0.27441
  6 Li   -0.00123    0.00277   -0.27718
  7 Li    0.00136    0.00275   -0.27680
  8 Li   -0.00052   -0.03065   -0.27251
  9 Li   -0.00431    0.00452    0.29738
 10 Li   -0.00304    0.00802    0.24488
 11 Li    0.00465    0.00634    0.30023
 12 Li   -0.00393   -0.00251    0.29485
 13 Li   -0.00337   -0.00891    0.24747
 14 Li    0.00654   -0.00631    0.30132
 15 Li   -0.01005   -0.00085    0.24775
 16 Li    0.00307   -0.00074    0.26714
 17 Li    0.00800   -0.00013    0.24416
 18 Li   -0.00702   -0.00057    0.04484
 19 Li   -0.00266   -0.00057    0.03416
 20 Li    0.00473   -0.00230   -0.15940
 21 Li   -0.01130   -0.01232    0.04545
 22 Li    0.01389   -0.01676    0.04826
 23 Li   -0.00148   -0.00228    0.04347
 24 Li   -0.01459    0.01134    0.04580
 25 Li    0.01754    0.01636    0.05006
 26 Li   -0.00141    0.00423    0.03852
 27 Li    0.08151   -0.07696   -0.05019
 28 Li   -0.00005    0.02981   -0.01674
 29 Li   -0.05472   -0.05306   -0.03878
 30 Li    0.07838    0.07985   -0.08888
 31 Li   -0.00316   -0.02779   -0.01163
 32 Li   -0.06203    0.05997   -0.05952
 33 Li   -0.02834   -0.00690   -0.01581
 34 Li   -0.00036   -0.00087   -0.01592
 35 Li    0.02776   -0.00391   -0.01851
 36 O     0.30830   -0.11854    4.34937
 37 C     0.15031    0.27414    0.86519
 38 C    -0.04914    0.01130    0.10822
 39 H     0.30882    0.25847    0.22336
 40 H    -0.10678   -0.06608    0.51333
 41 H    -0.00103   -0.00686   -0.03977
 42 H     0.02269    0.01227    0.01030
 43 H    -0.04420    0.06421    0.02611
 44 H    -0.43755    0.46672    1.47448
 45 N    -0.76372   -0.07630   -3.07230
 46 N     0.62714   -0.84195   -4.24436

System changes: positions 

Initializing position-dependent things.

Density initialized from wave functions
       .-----------------------.  
      /|                       |  
     / |                       |  
    /  |                       |  
   /   |                       |  
  /    |                       |  
 *     |                       |  
 |     |                       |  
 |     |                       |  
 |     |                       |  
 |     |              H        |  
 |     |                  H    |  
 |     |            H   CC     |  
 |     Li             OLi      |  
 |     |                  H    |  
 |     |     Li      LN      Li|  
 |     |                       |  
 | Li  |  LLi     LLi N   Li   |  
 |     |                       |  
 |     |LLi     Li      Li     |  
 |   Li|     Li      Li        |  
 |    Li  Li  Li  Li  Li  Li   |  
 | Li  |   Li      Li          |  
 |     |Li      Li      Li     |  
 Li    | Li      Li            |  
 |    Li      Li      Li       |  
 |     |                       |  
 |     |                       |  
 |     |                       |  
 |     |                       |  
 |     |                       |  
 |     |                       |  
 |     .-----------------------.  
 |    /                       /   
 |   /                       /    
 |  /                       /     
 | /                       /      
 |/                       /       
 *-----------------------*        

Positions:
   0 Li     1.617037    1.617037   10.000000    ( 0.0000,  0.0000,  0.0000)
   1 Li     4.851111    1.617037   10.000000    ( 0.0000,  0.0000,  0.0000)
   2 Li     8.085185    1.617037   10.000000    ( 0.0000,  0.0000,  0.0000)
   3 Li     1.617037    4.851111   10.000000    ( 0.0000,  0.0000,  0.0000)
   4 Li     4.851111    4.851111   10.000000    ( 0.0000,  0.0000,  0.0000)
   5 Li     8.085185    4.851111   10.000000    ( 0.0000,  0.0000,  0.0000)
   6 Li     1.617037    8.085185   10.000000    ( 0.0000,  0.0000,  0.0000)
   7 Li     4.851111    8.085185   10.000000    ( 0.0000,  0.0000,  0.0000)
   8 Li     8.085185    8.085185   10.000000    ( 0.0000,  0.0000,  0.0000)
   9 Li     0.000000    0.000000   11.617037    ( 0.0000,  0.0000,  0.0000)
  10 Li     3.234074    0.000000   11.617037    ( 0.0000,  0.0000,  0.0000)
  11 Li     6.468148    0.000000   11.617037    ( 0.0000,  0.0000,  0.0000)
  12 Li     0.000000    3.234074   11.617037    ( 0.0000,  0.0000,  0.0000)
  13 Li     3.234074    3.234074   11.617037    ( 0.0000,  0.0000,  0.0000)
  14 Li     6.468148    3.234074   11.617037    ( 0.0000,  0.0000,  0.0000)
  15 Li     0.000000    6.468148   11.617037    ( 0.0000,  0.0000,  0.0000)
  16 Li     3.234074    6.468148   11.617037    ( 0.0000,  0.0000,  0.0000)
  17 Li     6.468148    6.468148   11.617037    ( 0.0000,  0.0000,  0.0000)
  18 Li     1.616734    1.617014   13.471705    ( 0.0000,  0.0000,  0.0000)
  19 Li     4.851066    1.617012   13.471290    ( 0.0000,  0.0000,  0.0000)
  20 Li     8.085356    1.616960   13.462559    ( 0.0000,  0.0000,  0.0000)
  21 Li     1.616538    4.850581   13.471694    ( 0.0000,  0.0000,  0.0000)
  22 Li     4.851702    4.850401   13.471803    ( 0.0000,  0.0000,  0.0000)
  23 Li     8.085126    4.850970   13.471674    ( 0.0000,  0.0000,  0.0000)
  24 Li     1.616402    8.085682   13.471699    ( 0.0000,  0.0000,  0.0000)
  25 Li     4.851848    8.085884   13.471879    ( 0.0000,  0.0000,  0.0000)
  26 Li     8.085130    8.085384   13.471443    ( 0.0000,  0.0000,  0.0000)
  27 Li     0.003636   -0.003431   15.443586    ( 0.0000,  0.0000,  0.0000)
  28 Li     3.234057    0.001317   15.445245    ( 0.0000,  0.0000,  0.0000)
  29 Li     6.465565   -0.002527   15.444025    ( 0.0000,  0.0000,  0.0000)
  30 Li     0.003541    3.237661   15.441876    ( 0.0000,  0.0000,  0.0000)
  31 Li     3.233920    3.232850   15.445474    ( 0.0000,  0.0000,  0.0000)
  32 Li     6.465200    3.236941   15.443076    ( 0.0000,  0.0000,  0.0000)
  33 Li    -0.001249    6.467855   15.445280    ( 0.0000,  0.0000,  0.0000)
  34 Li     3.234071    6.468100   15.445258    ( 0.0000,  0.0000,  0.0000)
  35 Li     6.469372    6.467985   15.445167    ( 0.0000,  0.0000,  0.0000)
  36 O      8.120535    1.614475   19.819801    ( 0.0000,  0.0000,  0.0000)
  37 C      8.903060    2.808494   19.689754    ( 0.0000,  0.0000,  0.0000)
  38 C      8.081280    4.085291   19.639850    ( 0.0000,  0.0000,  0.0000)
  39 H      9.599183    2.800490   20.520390    ( 0.0000,  0.0000,  0.0000)
  40 H      9.507558    2.721476   18.769699    ( 0.0000,  0.0000,  0.0000)
  41 H      8.735913    4.960288   19.618401    ( 0.0000,  0.0000,  0.0000)
  42 H      7.434086    4.119290   18.759069    ( 0.0000,  0.0000,  0.0000)
  43 H      7.452349    4.155910   20.529222    ( 0.0000,  0.0000,  0.0000)
  44 H      7.463687    1.677406   20.504504    ( 0.0000,  0.0000,  0.0000)
  45 N      8.052091    1.611866   16.776804    ( 0.0000,  0.0000,  0.0000)
  46 N      8.112681    1.582216   17.882222    ( 0.0000,  0.0000,  0.0000)

Unit cell:
           periodic     x           y           z      points  spacing
  1. axis:    yes    9.702222    0.000000    0.000000    60     0.1617
  2. axis:    yes    0.000000    9.702222    0.000000    60     0.1617
  3. axis:    no     0.000000    0.000000   26.351111   164     0.1607

  Lengths:   9.702222   9.702222  26.351111
  Angles:   90.000000  90.000000  90.000000

Effective grid spacing dv^(1/3) = 0.1614

     iter     time        total  log10-change:
                         energy  eigst   dens
iter:   1 22:15:14  -306.509500  -0.79
iter:   2 22:15:21  -306.469192  -1.29  -1.74
iter:   3 22:15:28  -306.458231  -2.07  -1.95
iter:   4 22:15:35  -306.455060c -1.26  -2.29
Writing to output.gpw (mode='')

iter:   5 22:15:43  -306.450728c -2.33  -2.28
iter:   6 22:15:50  -306.450314c -2.40  -2.52
iter:   7 22:15:57  -306.452010c -2.27  -2.76
iter:   8 22:16:04  -306.450281c -2.51  -2.68
iter:   9 22:16:11  -306.450305c -3.32  -2.76
Writing to output.gpw (mode='')

iter:  10 22:16:19  -306.450246c -3.04  -3.01
iter:  11 22:16:26  -306.450198c -3.71  -3.13
iter:  12 22:16:33  -306.450196c -3.64  -3.25
iter:  13 22:16:40  -306.450213c -3.87  -3.33
iter:  14 22:16:47  -306.450207c -4.23  -3.48
Writing to output.gpw (mode='')

iter:  15 22:16:55  -306.450213c -4.58  -3.63
iter:  16 22:17:02  -306.450231c -4.41  -3.72
iter:  17 22:17:09  -306.450220c -4.88  -3.78
iter:  18 22:17:16  -306.450218c -4.71  -3.92
iter:  19 22:17:23  -306.450231c -4.94  -3.91
Writing to output.gpw (mode='')

iter:  20 22:17:31  -306.450233c -5.16  -4.05c
iter:  21 22:17:38  -306.450230c -5.23  -4.21c
iter:  22 22:17:45  -306.450228c -5.49  -4.36c
iter:  23 22:17:52  -306.450229c -5.59  -4.41c
iter:  24 22:17:59  -306.450229c -5.76  -4.48c
Writing to output.gpw (mode='')

iter:  25 22:18:07  -306.450229c -5.90  -4.50c
iter:  26 22:18:14  -306.450229c -6.09  -4.58c
iter:  27 22:18:21  -306.450230c -6.01  -4.68c
iter:  28 22:18:28  -306.450230c -6.49  -4.73c
iter:  29 22:18:35  -306.450231c -6.50  -4.85c
Writing to output.gpw (mode='')

iter:  30 22:18:43  -306.450231c -6.63  -4.91c
iter:  31 22:18:50  -306.450231c -6.49  -5.07c
iter:  32 22:18:57  -306.450231c -6.73  -5.14c
iter:  33 22:19:04  -306.450231c -6.81  -5.15c
iter:  34 22:19:11  -306.450231c -6.86  -5.26c
Writing to output.gpw (mode='')

iter:  35 22:19:25  -306.450231c -6.96  -5.47c
iter:  36 22:19:32  -306.450231c -6.60  -5.51c
iter:  37 22:19:39  -306.450231c -7.20  -5.59c
iter:  38 22:19:46  -306.450231c -7.00  -5.67c
iter:  39 22:19:54  -306.450231c -6.87  -5.75c
Writing to output.gpw (mode='')

iter:  40 22:20:01  -306.450231c -7.22  -5.78c
iter:  41 22:20:08  -306.450231c -7.36  -5.76c
iter:  42 22:20:15  -306.450231c -7.38  -5.69c
iter:  43 22:20:22  -306.450231c -7.46c -5.73c

Converged after 43 iterations.

Dipole moment: (4.080603, -3.114732, 0.290116) |e|*Ang

Energy contributions relative to reference atoms: (reference = -14434.854043)

Kinetic:       +163.907562
Potential:     -154.809039
External:        +0.000000
XC:            -316.221820
Entropy (-ST):   -0.147299
Local:           +0.746716
--------------------------
Free energy:   -306.523881
Extrapolated:  -306.450231

Dipole-layer corrected work functions: 3.382321, 2.824618 eV

Showing only first 2 kpts
 Kpt  Band  Eigenvalues  Occupancy
  0    31     -3.34935    1.98547
  0    32     -3.22130    1.82691
  0    33     -2.92301    0.05272
  0    34     -2.88836    0.02672

  1    31     -3.16368    1.53857
  1    32     -3.11711    1.13554
  1    33     -3.08640    0.83099
  1    34     -2.96301    0.11365


Fermi level: -3.10347

No gap
Writing to output.gpw (mode='')


Forces in eV/Ang:
  0 Li    0.03075   -0.00034   -0.27297
  1 Li   -0.03010   -0.00064   -0.27539
  2 Li    0.00083    0.00084   -0.28030
  3 Li   -0.00361   -0.00114   -0.27769
  4 Li    0.00208   -0.00071   -0.27717
  5 Li   -0.00038    0.02978   -0.27506
  6 Li   -0.00119    0.00253   -0.27771
  7 Li    0.00071    0.00285   -0.27713
  8 Li   -0.00052   -0.03084   -0.27267
  9 Li   -0.00437    0.00445    0.29762
 10 Li   -0.00368    0.00802    0.24507
 11 Li    0.00457    0.00694    0.30134
 12 Li   -0.00441   -0.00243    0.29580
 13 Li   -0.00391   -0.00892    0.24737
 14 Li    0.00690   -0.00684    0.30302
 15 Li   -0.01014   -0.00045    0.24805
 16 Li    0.00392   -0.00125    0.26656
 17 Li    0.00812    0.00012    0.24416
 18 Li   -0.00720   -0.00051    0.04248
 19 Li   -0.00480   -0.00048    0.03080
 20 Li    0.00590   -0.00333   -0.14680
 21 Li   -0.01060   -0.01247    0.04450
 22 Li    0.01409   -0.01678    0.04736
 23 Li   -0.00158   -0.00073    0.04017
 24 Li   -0.01390    0.01089    0.04501
 25 Li    0.01795    0.01592    0.04913
 26 Li   -0.00151    0.00423    0.03627
 27 Li    0.08053   -0.07647   -0.04924
 28 Li    0.00078    0.02858   -0.01685
 29 Li   -0.05083   -0.04861   -0.03608
 30 Li    0.07481    0.07705   -0.08495
 31 Li   -0.00207   -0.02666   -0.01227
 32 Li   -0.05473    0.05265   -0.05353
 33 Li   -0.02715   -0.00717   -0.01583
 34 Li   -0.00101   -0.00048   -0.01560
 35 Li    0.02661   -0.00435   -0.01862
 36 O     0.11966   -0.12834    3.39631
 37 C     0.15728    0.20002    0.75100
 38 C    -0.04822   -0.00526    0.11852
 39 H     0.33129    0.32889    0.24322
 40 H    -0.13491   -0.10163    0.49850
 41 H    -0.00413   -0.00890   -0.03075
 42 H     0.03125   -0.01089    0.02126
 43 H    -0.06112    0.08886    0.03951
 44 H    -0.23786    0.47209    1.07512
 45 N    -0.65815    0.00122   -2.47478
 46 N     0.42016   -0.83588   -3.47112

System changes: positions 

Initializing position-dependent things.

Density initialized from wave functions
       .-----------------------.  
      /|                       |  
     / |                       |  
    /  |                       |  
   /   |                       |  
  /    |                       |  
 *     |                       |  
 |     |                       |  
 |     |                       |  
 |     |                       |  
 |     |              H        |  
 |     |                  HH   |  
 |     |            H   CC     |  
 |     Li             OLi      |  
 |     |                  H    |  
 |     |     Li      LN      Li|  
 |     |                       |  
 | Li  |  LLi     LLi N   Li   |  
 |     |                       |  
 |     |LLi     Li      Li     |  
 |   Li|     Li      Li        |  
 |    Li  Li  Li  Li  Li  Li   |  
 | Li  |   Li      Li          |  
 |     |Li      Li      Li     |  
 Li    | Li      Li            |  
 |    Li      Li      Li       |  
 |     |                       |  
 |     |                       |  
 |     |                       |  
 |     |                       |  
 |     |                       |  
 |     |                       |  
 |     .-----------------------.  
 |    /                       /   
 |   /                       /    
 |  /                       /     
 | /                       /      
 |/                       /       
 *-----------------------*        

Positions:
   0 Li     1.617037    1.617037   10.000000    ( 0.0000,  0.0000,  0.0000)
   1 Li     4.851111    1.617037   10.000000    ( 0.0000,  0.0000,  0.0000)
   2 Li     8.085185    1.617037   10.000000    ( 0.0000,  0.0000,  0.0000)
   3 Li     1.617037    4.851111   10.000000    ( 0.0000,  0.0000,  0.0000)
   4 Li     4.851111    4.851111   10.000000    ( 0.0000,  0.0000,  0.0000)
   5 Li     8.085185    4.851111   10.000000    ( 0.0000,  0.0000,  0.0000)
   6 Li     1.617037    8.085185   10.000000    ( 0.0000,  0.0000,  0.0000)
   7 Li     4.851111    8.085185   10.000000    ( 0.0000,  0.0000,  0.0000)
   8 Li     8.085185    8.085185   10.000000    ( 0.0000,  0.0000,  0.0000)
   9 Li     0.000000    0.000000   11.617037    ( 0.0000,  0.0000,  0.0000)
  10 Li     3.234074    0.000000   11.617037    ( 0.0000,  0.0000,  0.0000)
  11 Li     6.468148    0.000000   11.617037    ( 0.0000,  0.0000,  0.0000)
  12 Li     0.000000    3.234074   11.617037    ( 0.0000,  0.0000,  0.0000)
  13 Li     3.234074    3.234074   11.617037    ( 0.0000,  0.0000,  0.0000)
  14 Li     6.468148    3.234074   11.617037    ( 0.0000,  0.0000,  0.0000)
  15 Li     0.000000    6.468148   11.617037    ( 0.0000,  0.0000,  0.0000)
  16 Li     3.234074    6.468148   11.617037    ( 0.0000,  0.0000,  0.0000)
  17 Li     6.468148    6.468148   11.617037    ( 0.0000,  0.0000,  0.0000)
  18 Li     1.616603    1.617007   13.472439    ( 0.0000,  0.0000,  0.0000)
  19 Li     4.850974    1.617003   13.471818    ( 0.0000,  0.0000,  0.0000)
  20 Li     8.085469    1.616897   13.460023    ( 0.0000,  0.0000,  0.0000)
[...]
Writing to output.gpw (mode='')

iter:  20 04:37:45  -309.889607c -7.14  -4.90c
iter:  21 04:37:53  -309.889608c -7.29  -5.05c
iter:  22 04:38:00  -309.889608c -7.30  -5.13c
iter:  23 04:38:07  -309.889608c -7.74c -5.30c

Converged after 23 iterations.

Dipole moment: (4.015837, -1.729131, 0.167807) |e|*Ang

Energy contributions relative to reference atoms: (reference = -14434.854043)

Kinetic:       +147.254638
Potential:     -139.963989
External:        +0.000000
XC:            -317.883417
Entropy (-ST):   -0.161689
Local:           +0.784004
--------------------------
Free energy:   -309.970453
Extrapolated:  -309.889608

Dipole-layer corrected work functions: 3.401881, 3.079298 eV

Showing only first 2 kpts
 Kpt  Band  Eigenvalues  Occupancy
  0    31     -3.44286    1.96559
  0    32     -3.25527    1.14579
  0    33     -3.22912    0.88582
  0    34     -3.13676    0.22279

  1    31     -3.55590    1.99636
  1    32     -3.19059    0.53788
  1    33     -3.13107    0.20123
  1    34     -3.12136    0.16872


Fermi level: -3.24059

No gap
Writing to output.gpw (mode='')


Forces in eV/Ang:
  0 Li   -0.00596   -0.00959   -0.29200
  1 Li    0.00917    0.01008   -0.29498
  2 Li    0.00140    0.00131   -0.24988
  3 Li    0.01717    0.01721   -0.28181
  4 Li   -0.00683    0.00995   -0.29267
  5 Li   -0.00927   -0.00493   -0.29378
  6 Li    0.00869   -0.00539   -0.29433
  7 Li   -0.01304   -0.01399   -0.28341
  8 Li    0.01213    0.01061   -0.29368
  9 Li   -0.03216    0.01240    0.30997
 10 Li   -0.01020    0.00325    0.28039
 11 Li    0.03046    0.01804    0.25265
 12 Li   -0.03738   -0.05349    0.26138
 13 Li   -0.02797   -0.02686    0.28166
 14 Li    0.01853   -0.03918    0.32992
 15 Li   -0.01909   -0.02329    0.27603
 16 Li   -0.01795    0.00474    0.27281
 17 Li    0.01636    0.00660    0.29132
 18 Li    0.00749    0.00585   -0.00403
 19 Li    0.01189    0.01051    0.01307
 20 Li   -0.00101    0.02139    0.02331
 21 Li    0.00444    0.00926   -0.00189
 22 Li    0.01461   -0.01131    0.00375
 23 Li   -0.00190    0.00546    0.00674
 24 Li    0.00260    0.01105    0.00644
 25 Li   -0.00363   -0.00553    0.00150
 26 Li    0.00325    0.00474    0.00018
 27 Li    0.02979   -0.01660   -0.00031
 28 Li    0.00534    0.00792    0.00647
 29 Li   -0.00847   -0.00885   -0.00165
 30 Li   -0.02244   -0.00598   -0.01351
 31 Li    0.00009   -0.00748    0.00807
 32 Li    0.04070   -0.02330    0.03340
 33 Li   -0.00700    0.01711    0.00149
 34 Li   -0.00012   -0.00579   -0.00339
 35 Li    0.00512    0.00414    0.01384
 36 O     0.02485   -0.01462   -0.05280
 37 C    -0.03599    0.00208   -0.01249
 38 C     0.00561   -0.00462   -0.01717
 39 H     0.02033    0.00536   -0.04415
 40 H    -0.00673    0.01903    0.03038
 41 H     0.01260   -0.00367    0.01272
 42 H    -0.00849   -0.00820   -0.00209
 43 H     0.01165   -0.00531   -0.02125
 44 H    -0.02553    0.01624    0.01671
 45 N    -0.02076    0.01612    0.01310
 46 N    -0.02453    0.03932    0.00176

System changes: positions 

Initializing position-dependent things.

Density initialized from wave functions
       .-----------------------.  
      /|                       |  
     / |                       |  
    /  |                       |  
   /   |                       |  
  /    |                       |  
 *     |                       |  
 |     |                       |  
 |     |                       |  
 |     |                       |  
 |     |              H        |  
 |     |             H  C HH   |  
 |     |              O  C     |  
 |     Li      Li     H   H    |  
 |     |                       |  
 |   Li|     Li      Li        |  
 |     |                       |  
 |     |  LLi     LLi     Li   |  
 |     |             N N       |  
 |     |Li      LiLi    Li     |  
 |   Li|     Li      Li        |  
 |    Li  Li  Li  Li  Li  Li   |  
 | Li  |   Li      Li          |  
 |     |Li      Li      Li     |  
 Li    | Li      Li            |  
 |    Li      Li      Li       |  
 |     |                       |  
 |     |                       |  
 |     |                       |  
 |     |                       |  
 |     |                       |  
 |     |                       |  
 |     .-----------------------.  
 |    /                       /   
 |   /                       /    
 |  /                       /     
 | /                       /      
 |/                       /       
 *-----------------------*        

Positions:
   0 Li     1.617037    1.617037   10.000000    ( 0.0000,  0.0000,  0.0000)
   1 Li     4.851111    1.617037   10.000000    ( 0.0000,  0.0000,  0.0000)
   2 Li     8.085185    1.617037   10.000000    ( 0.0000,  0.0000,  0.0000)
   3 Li     1.617037    4.851111   10.000000    ( 0.0000,  0.0000,  0.0000)
   4 Li     4.851111    4.851111   10.000000    ( 0.0000,  0.0000,  0.0000)
   5 Li     8.085185    4.851111   10.000000    ( 0.0000,  0.0000,  0.0000)
   6 Li     1.617037    8.085185   10.000000    ( 0.0000,  0.0000,  0.0000)
   7 Li     4.851111    8.085185   10.000000    ( 0.0000,  0.0000,  0.0000)
   8 Li     8.085185    8.085185   10.000000    ( 0.0000,  0.0000,  0.0000)
   9 Li     0.000000    0.000000   11.617037    ( 0.0000,  0.0000,  0.0000)
  10 Li     3.234074    0.000000   11.617037    ( 0.0000,  0.0000,  0.0000)
  11 Li     6.468148    0.000000   11.617037    ( 0.0000,  0.0000,  0.0000)
  12 Li     0.000000    3.234074   11.617037    ( 0.0000,  0.0000,  0.0000)
  13 Li     3.234074    3.234074   11.617037    ( 0.0000,  0.0000,  0.0000)
  14 Li     6.468148    3.234074   11.617037    ( 0.0000,  0.0000,  0.0000)
  15 Li     0.000000    6.468148   11.617037    ( 0.0000,  0.0000,  0.0000)
  16 Li     3.234074    6.468148   11.617037    ( 0.0000,  0.0000,  0.0000)
  17 Li     6.468148    6.468148   11.617037    ( 0.0000,  0.0000,  0.0000)
  18 Li     1.583217    1.552886   13.508806    ( 0.0000,  0.0000,  0.0000)
  19 Li     4.833931    1.643520   13.482376    ( 0.0000,  0.0000,  0.0000)
  20 Li     8.073122    1.576220   13.556580    ( 0.0000,  0.0000,  0.0000)
  21 Li     1.543487    4.768936   13.485099    ( 0.0000,  0.0000,  0.0000)
  22 Li     4.788904    4.897679   13.469534    ( 0.0000,  0.0000,  0.0000)
  23 Li     8.045851    4.814565   13.491661    ( 0.0000,  0.0000,  0.0000)
  24 Li     1.641204    8.026904   13.484828    ( 0.0000,  0.0000,  0.0000)
  25 Li     4.909482    8.154089   13.489799    ( 0.0000,  0.0000,  0.0000)
  26 Li     8.128642    8.073657   13.502224    ( 0.0000,  0.0000,  0.0000)
  27 Li     0.088031   -0.165406   15.516528    ( 0.0000,  0.0000,  0.0000)
  28 Li     3.344208   -0.054085   15.423852    ( 0.0000,  0.0000,  0.0000)
  29 Li     6.677884    0.221867   15.600745    ( 0.0000,  0.0000,  0.0000)
  30 Li    -0.264468    2.947344   15.593441    ( 0.0000,  0.0000,  0.0000)
  31 Li     3.065411    3.293644   15.421437    ( 0.0000,  0.0000,  0.0000)
  32 Li     6.318070    3.328497   15.423155    ( 0.0000,  0.0000,  0.0000)
  33 Li     0.057653    6.263555   15.437022    ( 0.0000,  0.0000,  0.0000)
  34 Li     3.229232    6.473639   15.440813    ( 0.0000,  0.0000,  0.0000)
  35 Li     6.411451    6.580137   15.404555    ( 0.0000,  0.0000,  0.0000)
  36 O      8.163107    1.796626   20.537411    ( 0.0000,  0.0000,  0.0000)
  37 C      8.950234    2.934972   20.148479    ( 0.0000,  0.0000,  0.0000)
  38 C      8.101071    4.129596   19.732101    ( 0.0000,  0.0000,  0.0000)
  39 H      9.634132    3.218547   20.959935    ( 0.0000,  0.0000,  0.0000)
  40 H      9.556421    2.583267   19.309570    ( 0.0000,  0.0000,  0.0000)
  41 H      8.734798    4.965183   19.419353    ( 0.0000,  0.0000,  0.0000)
  42 H      7.443258    3.865545   18.901094    ( 0.0000,  0.0000,  0.0000)
  43 H      7.481542    4.475391   20.565230    ( 0.0000,  0.0000,  0.0000)
  44 H      7.653382    2.045685   21.318456    ( 0.0000,  0.0000,  0.0000)
  45 N      7.615473    2.031872   15.580553    ( 0.0000,  0.0000,  0.0000)
  46 N      8.496788    1.135609   15.594721    ( 0.0000,  0.0000,  0.0000)

Unit cell:
           periodic     x           y           z      points  spacing
  1. axis:    yes    9.702222    0.000000    0.000000    60     0.1617
  2. axis:    yes    0.000000    9.702222    0.000000    60     0.1617
  3. axis:    no     0.000000    0.000000   26.351111   164     0.1607

  Lengths:   9.702222   9.702222  26.351111
  Angles:   90.000000  90.000000  90.000000

Effective grid spacing dv^(1/3) = 0.1614

     iter     time        total  log10-change:
                         energy  eigst   dens
iter:   1 04:38:16  -309.892734  -2.18
iter:   2 04:38:23  -309.891881  -2.75  -2.43
iter:   3 04:38:30  -309.891195c -3.44  -2.58
iter:   4 04:38:37  -309.890798c -3.62  -2.80
Writing to output.gpw (mode='')

iter:   5 04:38:44  -309.890501c -3.47  -2.97
iter:   6 04:38:52  -309.890472c -3.66  -3.20
iter:   7 04:38:59  -309.890498c -4.30  -3.26
iter:   8 04:39:06  -309.890461c -3.62  -3.39
iter:   9 04:39:13  -309.890464c -4.53  -3.39
Writing to output.gpw (mode='')

iter:  10 04:39:26  -309.890472c -4.83  -3.52
iter:  11 04:39:34  -309.890495c -4.87  -3.66
iter:  12 04:39:41  -309.890496c -5.19  -3.87
iter:  13 04:39:48  -309.890479c -5.48  -3.93
iter:  14 04:39:55  -309.890478c -5.47  -4.14c
Writing to output.gpw (mode='')

iter:  15 04:40:03  -309.890483c -6.02  -4.20c
iter:  16 04:40:10  -309.890482c -6.35  -4.25c
iter:  17 04:40:17  -309.890484c -6.24  -4.34c
iter:  18 04:40:24  -309.890482c -6.63  -4.47c
iter:  19 04:40:31  -309.890486c -6.49  -4.52c
Writing to output.gpw (mode='')

iter:  20 04:40:39  -309.890487c -6.72  -4.73c
iter:  21 04:40:46  -309.890485c -7.03  -4.82c
iter:  22 04:40:53  -309.890484c -7.12  -5.02c
iter:  23 04:41:00  -309.890485c -7.50c -5.14c

Converged after 23 iterations.

Dipole moment: (3.999764, -1.743361, 0.169550) |e|*Ang

Energy contributions relative to reference atoms: (reference = -14434.854043)

Kinetic:       +147.119463
Potential:     -139.878449
External:        +0.000000
XC:            -317.834765
Entropy (-ST):   -0.161665
Local:           +0.784099
--------------------------
Free energy:   -309.971317
Extrapolated:  -309.890485

Dipole-layer corrected work functions: 3.401785, 3.075852 eV

Showing only first 2 kpts
 Kpt  Band  Eigenvalues  Occupancy
  0    31     -3.44115    1.96564
  0    32     -3.25328    1.14357
  0    33     -3.22742    0.88655
  0    34     -3.13437    0.22035

  1    31     -3.55411    1.99636
  1    32     -3.18896    0.53899
  1    33     -3.12951    0.20201
  1    34     -3.11936    0.16799


Fermi level: -3.23882

No gap
Writing to output.gpw (mode='')


Forces in eV/Ang:
  0 Li   -0.00593   -0.00954   -0.29194
  1 Li    0.00906    0.01011   -0.29469
  2 Li    0.00136    0.00143   -0.24982
  3 Li    0.01700    0.01709   -0.28230
  4 Li   -0.00684    0.00976   -0.29281
  5 Li   -0.00934   -0.00502   -0.29360
  6 Li    0.00870   -0.00543   -0.29379
  7 Li   -0.01319   -0.01387   -0.28374
  8 Li    0.01196    0.01044   -0.29360
  9 Li   -0.03198    0.01263    0.30934
 10 Li   -0.00791    0.00400    0.28051
 11 Li    0.03040    0.01893    0.25345
 12 Li   -0.03742   -0.05173    0.26125
 13 Li   -0.02665   -0.02616    0.28155
 14 Li    0.01914   -0.03832    0.32814
 15 Li   -0.01901   -0.02413    0.27608
 16 Li   -0.01549    0.00318    0.27509
 17 Li    0.01600    0.00564    0.29136
 18 Li    0.00436    0.00705   -0.00052
 19 Li    0.01140    0.00873    0.01124
 20 Li   -0.00304    0.01515    0.03843
 21 Li    0.00342    0.00817    0.00022
 22 Li    0.01061   -0.00827    0.00135
 23 Li   -0.00008    0.00755    0.00237
 24 Li    0.00159    0.01110    0.00578
 25 Li   -0.00430   -0.00584    0.00212
 26 Li    0.00184    0.00872    0.00485
 27 Li    0.01550   -0.00541   -0.00477
 28 Li    0.00483    0.00560    0.00592
 29 Li    0.00347    0.00723   -0.00657
 30 Li   -0.01291   -0.01013   -0.01418
 31 Li    0.00111   -0.00702    0.00782
 32 Li    0.02672   -0.01109    0.03347
 33 Li   -0.00634    0.01630    0.00052
 34 Li    0.00089   -0.00415   -0.00284
 35 Li    0.00518    0.00363    0.01369
 36 O     0.00965    0.02892    0.00904
 37 C    -0.00847    0.01396   -0.01575
 38 C    -0.00426   -0.00650   -0.01076
 39 H     0.00465   -0.01137   -0.03002
 40 H    -0.00424    0.00533    0.00549
 41 H     0.00745   -0.02197    0.01135
 42 H    -0.00236   -0.00256   -0.00920
 43 H     0.00573   -0.00151   -0.01447
 44 H    -0.00637   -0.01737   -0.02698
 45 N    -0.04231   -0.02069   -0.00336
 46 N     0.00299    0.03590    0.01113

Timing:                                      incl.     excl.
-------------------------------------------------------------------
Density initialized from wave functions:     4.875     4.873   0.0% |
 Symmetrize density:                         0.002     0.002   0.0% |
Forces:                                     38.713    38.713   0.2% |
Hamiltonian:                               542.500     0.013   0.0% |
 Atomic:                                     0.023     0.022   0.0% |
  XC Correction:                             0.000     0.000   0.0% |
 Calculate atomic Hamiltonians:              0.040     0.040   0.0% |
 Communicate:                                7.202     7.202   0.0% |
 Hartree integrate/restrict:                 1.939     1.939   0.0% |
 Initialize Hamiltonian:                     0.000     0.000   0.0% |
 Poisson:                                   25.691     9.375   0.0% |
  Communicate from 1D:                       2.551     2.551   0.0% |
  Communicate from 2D:                       2.575     2.575   0.0% |
  Communicate to 1D:                         1.462     1.462   0.0% |
  Communicate to 2D:                         2.963     2.963   0.0% |
  FFT 1D:                                    3.374     3.374   0.0% |
  FFT 2D:                                    3.391     3.391   0.0% |
 XC 3D grid:                               507.149    77.799   0.3% |
  VdW-DF integral:                         429.350     3.559   0.0% |
   Convolution:                             40.093    40.093   0.2% |
   FFT:                                     16.948    16.948   0.1% |
   gather:                                 146.969   146.969   0.6% |
   hmm1:                                    13.840    13.840   0.1% |
   hmm2:                                    18.554    18.554   0.1% |
   iFFT:                                    17.624    17.624   0.1% |
   potential:                              168.164     4.887   0.0% |
    collect:                                27.782    27.782   0.1% |
    p1:                                     76.495    76.495   0.3% |
    p2:                                     28.360    28.360   0.1% |
    sum:                                    30.641    30.641   0.1% |
   splines:                                  3.598     3.598   0.0% |
 vbar:                                       0.443     0.443   0.0% |
LCAO initialization:                         1.090     0.182   0.0% |
 LCAO eigensolver:                           0.245     0.000   0.0% |
  Calculate projections:                     0.000     0.000   0.0% |
  DenseAtomicCorrection:                     0.000     0.000   0.0% |
  Distribute overlap matrix:                 0.186     0.186   0.0% |
  Orbital Layouts:                           0.057     0.057   0.0% |
  Potential matrix:                          0.001     0.001   0.0% |
  Sum over cells:                            0.001     0.001   0.0% |
 LCAO to grid:                               0.550     0.550   0.0% |
 Set positions (LCAO WFS):                   0.113     0.061   0.0% |
  Basic WFS set positions:                   0.001     0.001   0.0% |
  Basis functions set positions:             0.000     0.000   0.0% |
  P tci:                                     0.000     0.000   0.0% |
  ST tci:                                    0.021     0.021   0.0% |
  mktci:                                     0.030     0.030   0.0% |
Redistribute:                                0.064     0.064   0.0% |
SCF-cycle:                               24899.996   420.093   1.6% ||
 Davidson:                                6247.257  1856.513   7.3% |--|
  Apply hamiltonian:                       387.659   387.659   1.5% ||
  Subspace diag:                          1179.185     0.388   0.0% |
   calc_h_matrix:                          572.337   174.006   0.7% |
    Apply hamiltonian:                     398.330   398.330   1.6% ||
   diagonalize:                             69.244    69.244   0.3% |
   rotate_psi:                             537.216   537.216   2.1% ||
  calc. matrices:                         1934.826   981.125   3.8% |-|
   Apply hamiltonian:                      953.701   953.701   3.7% ||
  diagonalize:                              17.094    17.094   0.1% |
  rotate_psi:                              871.980   871.980   3.4% ||
 Density:                                  122.917     0.084   0.0% |
  Atomic density matrices:                  15.450    15.450   0.1% |
  Mix:                                      52.968    52.968   0.2% |
  Multipole moments:                         5.342     5.342   0.0% |
  Pseudo density:                           49.074    48.998   0.2% |
   Symmetrize density:                       0.076     0.076   0.0% |
 Hamiltonian:                            18092.908     0.442   0.0% |
  Atomic:                                    0.826     0.816   0.0% |
   XC Correction:                            0.009     0.009   0.0% |
  Calculate atomic Hamiltonians:             1.466     1.466   0.0% |
  Communicate:                             271.138   271.138   1.1% |
  Hartree integrate/restrict:               65.085    65.085   0.3% |
  Poisson:                                 857.043   314.197   1.2% |
   Communicate from 1D:                     84.688    84.688   0.3% |
   Communicate from 2D:                     85.876    85.876   0.3% |
   Communicate to 1D:                       48.112    48.112   0.2% |
   Communicate to 2D:                      101.060   101.060   0.4% |
   FFT 1D:                                 113.139   113.139   0.4% |
   FFT 2D:                                 109.972   109.972   0.4% |
  XC 3D grid:                            16881.610  2584.194  10.1% |---|
   VdW-DF integral:                      14297.416   118.212   0.5% |
    Convolution:                          1336.073  1336.073   5.2% |-|
    FFT:                                   564.937   564.937   2.2% ||
    gather:                               4996.197  4996.197  19.5% |-------|
    hmm1:                                  460.123   460.123   1.8% ||
    hmm2:                                  616.434   616.434   2.4% ||
    iFFT:                                  586.437   586.437   2.3% ||
    potential:                            5618.968   162.481   0.6% |
     collect:                              873.658   873.658   3.4% ||
     p1:                                  2524.008  2524.008   9.9% |---|
     p2:                                   946.396   946.396   3.7% ||
     sum:                                 1112.426  1112.426   4.3% |-|
    splines:                                 0.033     0.033   0.0% |
  vbar:                                     15.298    15.298   0.1% |
 Orthonormalize:                            16.820     0.014   0.0% |
  calc_s_matrix:                             2.385     2.385   0.0% |
  inverse-cholesky:                          5.039     5.039   0.0% |
  projections:                               0.002     0.002   0.0% |
  rotate_psi_s:                              9.381     9.381   0.0% |
Set symmetry:                                0.008     0.008   0.0% |
Other:                                     102.218   102.218   0.4% |
-------------------------------------------------------------------
Total:                                             25589.464 100.0%

Memory usage: 1.11 GiB
Date: Thu Mar  9 04:41:01 2023
