
  ___ ___ ___ _ _ _  
 |   |   |_  | | | | 
 | | | | | . | | | | 
 |__ |  _|___|_____|  22.8.0
 |___|_|             

User:   vazumah@r342.ib.bridges2.psc.edu
Date:   Fri Mar 10 19:26:20 2023
Arch:   x86_64
Pid:    64600
CWD:    /jet/home/vazumah/Calcs/LiMEAS/proton_donors/propan_1_ol_x/ontop/9.702_9.702/N2_y
Python: 3.11.0
gpaw:   /jet/home/vazumah/.conda/envs/GPAW_mpich/lib/python3.11/site-packages/gpaw
_gpaw:  /jet/home/vazumah/.conda/envs/GPAW_mpich/lib/python3.11/site-packages/
        _gpaw.cpython-311-x86_64-linux-gnu.so
ase:    /jet/home/vazumah/.conda/envs/GPAW_mpich/lib/python3.11/site-packages/ase (version 3.22.1)
numpy:  /jet/home/vazumah/.conda/envs/GPAW_mpich/lib/python3.11/site-packages/numpy (version 1.24.2)
scipy:  /jet/home/vazumah/.conda/envs/GPAW_mpich/lib/python3.11/site-packages/scipy (version 1.10.1)
libxc:  5.2.3
units:  Angstrom and eV
cores: 128
OpenMP: True
OMP_NUM_THREADS: 1

Input parameters:
  h: 0.16
  kpts: {size: [4, 4, 1]}
  occupations: {name: fermi-dirac,
                width: 0.05}
  poissonsolver: {dipolelayer: xy}
  xc: BEEF-vdW

System changes: positions, numbers, cell, pbc, initial_charges, initial_magmoms 

Initialize ...

species:
  Li:
    name: Lithium
    id: 830b4218f175192f93f959cfc0aad614
    Z: 3.0
    valence: 1
    core: 2
    charge: 0.0
    file: /jet/home/vazumah/datasets/gpaw-setups-0.9.20000/Li.PBE.gz
    compensation charges: {type: gauss,
                           rc: 0.33,
                           lmax: 2}
    cutoffs: {filter: 1.91,
              core: 2.55}
    valence states:
      #              energy  rcut
      - 2s(1.00)    -2.874   1.058
      - 2p(0.00)    -1.090   1.058
      -  s          24.337   1.058
  
    # Using partial waves for Li as LCAO basis

  O:
    name: Oxygen
    id: 32ecd46bf208036f09c70b0ec9a88b78
    Z: 8.0
    valence: 6
    core: 2
    charge: 0.0
    file: /jet/home/vazumah/datasets/gpaw-setups-0.9.20000/O.PBE.gz
    compensation charges: {type: gauss,
                           rc: 0.21,
                           lmax: 2}
    cutoffs: {filter: 1.17,
              core: 0.83}
    valence states:
      #              energy  rcut
      - 2s(2.00)   -23.961   0.688
      - 2p(4.00)    -9.029   0.598
      -  s           3.251   0.688
      -  p          18.182   0.598
      -  d           0.000   0.619
  
    # Using partial waves for O as LCAO basis

  C:
    name: Carbon
    id: 4aa54d4b901d75f77cc0ea3eec22967b
    Z: 6.0
    valence: 4
    core: 2
    charge: 0.0
    file: /jet/home/vazumah/datasets/gpaw-setups-0.9.20000/C.PBE.gz
    compensation charges: {type: gauss,
                           rc: 0.20,
                           lmax: 2}
    cutoffs: {filter: 1.14,
              core: 1.14}
    valence states:
      #              energy  rcut
      - 2s(2.00)   -13.751   0.635
      - 2p(2.00)    -5.284   0.635
      -  s          13.461   0.635
      -  p          21.927   0.635
      -  d           0.000   0.635
  
    # Using partial waves for C as LCAO basis

  H:
    name: Hydrogen
    id: d65de229564ff8ea4db303e23b6d1ecf
    Z: 1.0
    valence: 1
    core: 0
    charge: 0.0
    file: /jet/home/vazumah/datasets/gpaw-setups-0.9.20000/H.PBE.gz
    compensation charges: {type: gauss,
                           rc: 0.15,
                           lmax: 2}
    cutoffs: {filter: 0.85,
              core: 0.53}
    valence states:
      #              energy  rcut
      - 1s(1.00)    -6.494   0.476
      -  s          20.717   0.476
      -  p           0.000   0.476
  
    # Using partial waves for H as LCAO basis

  N:
    name: Nitrogen
    id: f7500608b86eaa90eef8b1d9a670dc53
    Z: 7.0
    valence: 5
    core: 2
    charge: 0.0
    file: /jet/home/vazumah/datasets/gpaw-setups-0.9.20000/N.PBE.gz
    compensation charges: {type: gauss,
                           rc: 0.18,
                           lmax: 2}
    cutoffs: {filter: 1.11,
              core: 0.96}
    valence states:
      #              energy  rcut
      - 2s(2.00)   -18.583   0.603
      - 2p(3.00)    -7.089   0.529
      -  s           8.629   0.603
      -  p          20.123   0.529
      -  d           0.000   0.577
  
    # Using partial waves for N as LCAO basis

Reference energy: -15487.462483  # eV

Spin-paired calculation

Convergence criteria:
 Maximum [total energy] change in last 3 cyles: 0.0005 eV / electron
 Maximum integral of absolute [dens]ity change: 0.0001 electrons / valence electron
 Maximum integral of absolute [eigenst]ate change: 4e-08 eV^2 / valence electron
 Maximum number of scf [iter]ations: 333
 (Square brackets indicate name in SCF output, whereas a 'c' in
 the SCF output indicates the quantity has converged.)

Symmetries present (total): 1

  ( 1  0  0)
  ( 0  1  0)
  ( 0  0  1)

16 k-points: 4 x 4 x 1 Monkhorst-Pack grid
8 k-points in the irreducible part of the Brillouin zone
       k-points in crystal coordinates                weights
   0:     0.12500000   -0.37500000    0.00000000          2/16
   1:     0.12500000   -0.12500000    0.00000000          2/16
   2:     0.12500000    0.12500000    0.00000000          2/16
   3:     0.12500000    0.37500000    0.00000000          2/16
   4:     0.37500000   -0.37500000    0.00000000          2/16
   5:     0.37500000   -0.12500000    0.00000000          2/16
   6:     0.37500000    0.12500000    0.00000000          2/16
   7:     0.37500000    0.37500000    0.00000000          2/16

Wave functions: Uniform real-space grid
  Kinetic energy operator: 6*3+1=19 point O(h^6) finite-difference Laplacian
  ScaLapack parameters: grid=1x1, blocksize=None
  Wavefunction extrapolation:
    Improved wavefunction reuse through dual PAW basis 

Occupation numbers: Fermi-Dirac:
  width: 0.0500  # eV
 

Eigensolver
   Davidson(niter=2) 

Densities:
  Coarse grid: 60*60*164 grid
  Fine grid: 120*120*328 grid
  Total Charge: 0.000000 

Density mixing:
  Method: separate
  Backend: pulay
  Linear mixing parameter: 0.05
  old densities: 5
  Damping of long wavelength oscillations: 50 

Hamiltonian:
  XC and Coulomb potentials evaluated on a 120*120*328 grid
  Using the BEEF-vdW Exchange-Correlation functional
  Interpolation: tri-quintic (5. degree polynomial)
  Poisson solver: FastPoissonSolver using
    Stencil: 6*3+1=19 point O(h^6) finite-difference Laplacian
    FFT axes: [0, 1]
    FST axes: [2]

Dipole correction along z-axis 

XC parameters: BEEF-vdW with 2 nearest neighbor stencil

Memory estimate:
  Process memory now: 125.19 MiB
  Calculator: 84.83 MiB
    Density: 22.60 MiB
      Arrays: 7.22 MiB
      Localized functions: 12.63 MiB
      Mixer: 2.75 MiB
    Hamiltonian: 5.72 MiB
      Arrays: 4.72 MiB
      XC: 0.00 MiB
      Poisson: 0.00 MiB
      vbar: 1.00 MiB
    Wavefunctions: 56.51 MiB
      Arrays psit_nG: 26.37 MiB
      Eigensolver: 29.47 MiB
      Projections: 0.01 MiB
      Projectors: 0.66 MiB

Total number of cores used: 128
Parallelization over k-points: 8
Domain decomposition: 2 x 2 x 4

Number of atoms: 50
Number of atomic orbitals: 176
Number of bands in calculation: 48
Number of valence electrons: 72
Bands to converge: occupied

... initialized

Initializing position-dependent things.

Density initialized from atomic densities
Creating initial wave functions:
  48 bands from LCAO basis set

       .-----------------------.  
      /|                       |  
     / |                       |  
    /  |                       |  
   /   |                       |  
  /    |                       |  
 *     |                       |  
 |     |                       |  
 |     |                       |  
 |     |    H                  |  
 |     |     C    H            |  
 |     |    H                  H  
 |     |                       |  
 |     |                       |  
 |   H |   H                   |  
 |   Ci|   C Li      Li        |  
 O   H |   H                   |  
 | Li  |  LLi     LLi     Ni   |  
 |     |                       |  
 Li    |LLi     LLi     Li     |  
 |   Li|     Li      Li        |  
 |    Li  Li  Li  Li  Li  Li   |  
 | Li  |   Li      Li          |  
 |     |Li      Li      Li     |  
 Li    | Li      Li            |  
 |    Li      Li      Li       |  
 |     |                       |  
 |     |                       |  
 |     |                       |  
 |     |                       |  
 |     |                       |  
 |     |                       |  
 |     .-----------------------.  
 |    /                       /   
 |   /                       /    
 |  /                       /     
 | /                       /      
 |/                       /       
 *-----------------------*        

Positions:
   0 Li     1.617037    1.617037   10.000000    ( 0.0000,  0.0000,  0.0000)
   1 Li     4.851111    1.617037   10.000000    ( 0.0000,  0.0000,  0.0000)
   2 Li     8.085185    1.617037   10.000000    ( 0.0000,  0.0000,  0.0000)
   3 Li     1.617037    4.851111   10.000000    ( 0.0000,  0.0000,  0.0000)
   4 Li     4.851111    4.851111   10.000000    ( 0.0000,  0.0000,  0.0000)
   5 Li     8.085185    4.851111   10.000000    ( 0.0000,  0.0000,  0.0000)
   6 Li     1.617037    8.085185   10.000000    ( 0.0000,  0.0000,  0.0000)
   7 Li     4.851111    8.085185   10.000000    ( 0.0000,  0.0000,  0.0000)
   8 Li     8.085185    8.085185   10.000000    ( 0.0000,  0.0000,  0.0000)
   9 Li     0.000000    0.000000   11.617037    ( 0.0000,  0.0000,  0.0000)
  10 Li     3.234074    0.000000   11.617037    ( 0.0000,  0.0000,  0.0000)
  11 Li     6.468148    0.000000   11.617037    ( 0.0000,  0.0000,  0.0000)
  12 Li     0.000000    3.234074   11.617037    ( 0.0000,  0.0000,  0.0000)
  13 Li     3.234074    3.234074   11.617037    ( 0.0000,  0.0000,  0.0000)
  14 Li     6.468148    3.234074   11.617037    ( 0.0000,  0.0000,  0.0000)
  15 Li     0.000000    6.468148   11.617037    ( 0.0000,  0.0000,  0.0000)
  16 Li     3.234074    6.468148   11.617037    ( 0.0000,  0.0000,  0.0000)
  17 Li     6.468148    6.468148   11.617037    ( 0.0000,  0.0000,  0.0000)
  18 Li     1.617038    1.617038   13.469728    ( 0.0000,  0.0000,  0.0000)
  19 Li     4.851111    1.617038   13.469729    ( 0.0000,  0.0000,  0.0000)
  20 Li     8.085184    1.617038   13.469728    ( 0.0000,  0.0000,  0.0000)
  21 Li     1.617038    4.851111   13.469729    ( 0.0000,  0.0000,  0.0000)
  22 Li     4.851111    4.851111   13.469730    ( 0.0000,  0.0000,  0.0000)
  23 Li     8.085184    4.851111   13.469729    ( 0.0000,  0.0000,  0.0000)
  24 Li     1.617038    8.085184   13.469728    ( 0.0000,  0.0000,  0.0000)
  25 Li     4.851111    8.085184   13.469729    ( 0.0000,  0.0000,  0.0000)
  26 Li     8.085184    8.085184   13.469728    ( 0.0000,  0.0000,  0.0000)
  27 Li    -0.000000   -0.000000   15.445939    ( 0.0000,  0.0000,  0.0000)
  28 Li     3.234074    0.000000   15.445939    ( 0.0000,  0.0000,  0.0000)
  29 Li     6.468148    0.000000   15.445939    ( 0.0000,  0.0000,  0.0000)
  30 Li     0.000000    3.234074   15.445939    ( 0.0000,  0.0000,  0.0000)
  31 Li     3.234076    3.234076   15.445938    ( 0.0000,  0.0000,  0.0000)
  32 Li     6.468146    3.234076   15.445938    ( 0.0000,  0.0000,  0.0000)
  33 Li     0.000000    6.468148   15.445939    ( 0.0000,  0.0000,  0.0000)
  34 Li     3.234076    6.468146   15.445938    ( 0.0000,  0.0000,  0.0000)
  35 Li     6.468146    6.468146   15.445938    ( 0.0000,  0.0000,  0.0000)
  36 O      9.702222    9.702222   18.445939    ( 0.0000,  0.0000,  0.0000)
  37 C     12.136471    9.314601   18.445810    ( 0.0000,  0.0000,  0.0000)
  38 C     10.994282   10.325011   18.435257    ( 0.0000,  0.0000,  0.0000)
  39 C     13.516806    9.977014   18.452171    ( 0.0000,  0.0000,  0.0000)
  40 H     12.017858    8.671752   19.323111    ( 0.0000,  0.0000,  0.0000)
  41 H     12.042557    8.672843   17.560130    ( 0.0000,  0.0000,  0.0000)
  42 H     11.018090   10.944954   19.335148    ( 0.0000,  0.0000,  0.0000)
  43 H     11.087864   10.991914   17.567482    ( 0.0000,  0.0000,  0.0000)
  44 H     13.650343   10.603094   19.337849    ( 0.0000,  0.0000,  0.0000)
  45 H     14.314087    9.232239   18.452977    ( 0.0000,  0.0000,  0.0000)
  46 H     13.658355   10.612530   17.573910    ( 0.0000,  0.0000,  0.0000)
  47 H      9.653460    9.124664   17.674628    ( 0.0000,  0.0000,  0.0000)
  48 N      9.702000    9.702000   16.945939    ( 0.0000,  0.0000,  0.0000)
  49 N      9.702000   10.798622   16.945939    ( 0.0000,  0.0000,  0.0000)

Unit cell:
           periodic     x           y           z      points  spacing
  1. axis:    yes    9.702222    0.000000    0.000000    60     0.1617
  2. axis:    yes    0.000000    9.702222    0.000000    60     0.1617
  3. axis:    no     0.000000    0.000000   26.351111   164     0.1607

  Lengths:   9.702222   9.702222  26.351111
  Angles:   90.000000  90.000000  90.000000

Effective grid spacing dv^(1/3) = 0.1614

     iter     time        total  log10-change:
                         energy  eigst   dens
iter:   1 19:26:35  -576.848022
iter:   2 19:26:42  -121.555716  +2.63  -0.00
iter:   3 19:26:50  -147.897120  +3.15  -0.24
iter:   4 19:26:57  -249.971542  +2.98  -0.35
Writing to output.gpw (mode='')

iter:   5 19:27:04  -288.757993  +2.60  -0.44
iter:   6 19:27:12  -320.017161  +2.27  -0.67
iter:   7 19:27:19  -336.145267  +2.00  -0.68
iter:   8 19:27:26  -345.483782  +1.74  -0.63
iter:   9 19:27:34  -344.444878  +1.61  -0.60
Writing to output.gpw (mode='')

iter:  10 19:27:41  -366.300258  +1.76  -0.62
iter:  11 19:27:49  -468.593740  +2.61  -0.60
iter:  12 19:27:56  -472.241047  +2.12  -0.30
iter:  13 19:28:03  -339.601689  +1.28  -0.27
iter:  14 19:28:10  -341.959153  +0.96  -0.64
Writing to output.gpw (mode='')

iter:  15 19:28:18  -352.353918  +0.97  -0.64
iter:  16 19:28:25  -373.965045  +1.06  -0.61
iter:  17 19:28:32  -333.751406  +1.07  -0.41
iter:  18 19:28:40  -328.449217  +1.03  -0.68
iter:  19 19:28:47  -325.978822  +0.83  -0.69
Writing to output.gpw (mode='')

iter:  20 19:28:54  -324.988530  +1.10  -0.80
iter:  21 19:29:01  -323.910460  +0.33  -0.81
iter:  22 19:29:09  -323.005517  +0.48  -0.85
iter:  23 19:29:16  -324.761129  +1.07  -1.04
iter:  24 19:29:23  -322.022328  +0.08  -0.83
Writing to output.gpw (mode='')

iter:  25 19:29:31  -321.594943  +0.00  -1.03
iter:  26 19:29:38  -321.772432  +0.35  -1.13
iter:  27 19:29:51  -321.553836  -0.40  -1.21
iter:  28 19:29:59  -321.498623  -0.32  -1.44
iter:  29 19:30:06  -321.336443  -0.30  -1.53
Writing to output.gpw (mode='')

iter:  30 19:30:13  -321.335908  -1.16  -1.62
iter:  31 19:30:21  -321.363636c -1.00  -1.66
iter:  32 19:30:28  -321.328296c -0.89  -1.69
iter:  33 19:30:35  -321.300803  -1.40  -1.80
iter:  34 19:30:43  -321.310695c -1.57  -1.99
Writing to output.gpw (mode='')

iter:  35 19:30:50  -321.298072c -1.53  -2.00
iter:  36 19:30:57  -321.302534c -1.65  -2.27
iter:  37 19:31:05  -321.301858c -1.84  -2.21
iter:  38 19:31:12  -321.301941c -2.28  -2.46
iter:  39 19:31:19  -321.301689c -2.08  -2.52
Writing to output.gpw (mode='')

iter:  40 19:31:27  -321.302261c -2.55  -2.68
iter:  41 19:31:34  -321.303527c -2.41  -2.75
iter:  42 19:31:41  -321.303040c -2.70  -2.80
iter:  43 19:31:49  -321.303254c -2.85  -2.95
iter:  44 19:31:56  -321.303714c -2.63  -3.06
Writing to output.gpw (mode='')

iter:  45 19:32:03  -321.303763c -2.99  -3.11
iter:  46 19:32:11  -321.303908c -3.41  -3.36
iter:  47 19:32:18  -321.304083c -3.22  -3.43
iter:  48 19:32:25  -321.304124c -3.22  -3.53
iter:  49 19:32:32  -321.304182c -3.47  -3.55
Writing to output.gpw (mode='')

iter:  50 19:32:40  -321.304236c -3.50  -3.58
iter:  51 19:32:47  -321.304358c -3.51  -3.71
iter:  52 19:32:54  -321.304392c -3.86  -3.75
iter:  53 19:33:02  -321.304422c -3.91  -3.79
iter:  54 19:33:09  -321.304429c -3.94  -3.73
Writing to output.gpw (mode='')

iter:  55 19:33:17  -321.304444c -4.04  -3.89
iter:  56 19:33:24  -321.304472c -4.17  -3.88
iter:  57 19:33:31  -321.304485c -4.24  -3.86
iter:  58 19:33:39  -321.304487c -4.27  -3.80
iter:  59 19:33:46  -321.304493c -4.14  -3.87
Writing to output.gpw (mode='')

iter:  60 19:33:53  -321.304479c -4.42  -3.89
iter:  61 19:34:01  -321.304480c -4.48  -3.95
iter:  62 19:34:08  -321.304495c -4.33  -3.97
iter:  63 19:34:15  -321.304518c -4.66  -3.96
iter:  64 19:34:22  -321.304525c -4.65  -3.87
Writing to output.gpw (mode='')

iter:  65 19:34:30  -321.304515c -4.65  -3.84
iter:  66 19:34:37  -321.304518c -4.79  -3.94
iter:  67 19:34:51  -321.304524c -4.76  -3.93
iter:  68 19:34:59  -321.304521c -4.80  -3.90
iter:  69 19:35:07  -321.304516c -4.98  -3.91
Writing to output.gpw (mode='')

iter:  70 19:35:14  -321.304518c -5.16  -3.97
iter:  71 19:35:21  -321.304515c -5.11  -3.95
iter:  72 19:35:29  -321.304515c -5.18  -4.02c
iter:  73 19:35:36  -321.304516c -5.32  -4.11c
iter:  74 19:35:43  -321.304519c -5.31  -4.10c
Writing to output.gpw (mode='')

iter:  75 19:35:50  -321.304522c -5.24  -4.08c
iter:  76 19:35:58  -321.304521c -5.16  -4.13c
iter:  77 19:36:05  -321.304521c -5.62  -4.19c
iter:  78 19:36:12  -321.304515c -5.55  -4.19c
iter:  79 19:36:20  -321.304514c -5.36  -4.24c
Writing to output.gpw (mode='')

iter:  80 19:36:27  -321.304518c -5.72  -4.39c
iter:  81 19:36:34  -321.304514c -5.75  -4.51c
iter:  82 19:36:42  -321.304516c -5.85  -4.59c
iter:  83 19:36:49  -321.304515c -5.84  -4.63c
iter:  84 19:36:56  -321.304515c -6.01  -4.82c
Writing to output.gpw (mode='')

iter:  85 19:37:04  -321.304516c -5.85  -4.96c
iter:  86 19:37:11  -321.304516c -5.83  -5.05c
iter:  87 19:37:19  -321.304515c -5.99  -5.12c
iter:  88 19:37:26  -321.304514c -6.06  -5.15c
iter:  89 19:37:33  -321.304515c -6.32  -5.42c
Writing to output.gpw (mode='')

iter:  90 19:37:40  -321.304515c -6.48  -5.51c
iter:  91 19:37:48  -321.304515c -6.47  -5.56c
iter:  92 19:37:55  -321.304514c -6.51  -5.59c
iter:  93 19:38:02  -321.304515c -6.42  -5.64c
iter:  94 19:38:10  -321.304514c -6.56  -5.80c
Writing to output.gpw (mode='')

iter:  95 19:38:17  -321.304514c -6.58  -5.82c
iter:  96 19:38:24  -321.304514c -6.76  -5.90c
iter:  97 19:38:32  -321.304514c -6.81  -6.02c
iter:  98 19:38:39  -321.304514c -6.74  -6.07c
iter:  99 19:38:47  -321.304514c -6.70  -6.01c
Writing to output.gpw (mode='')

iter: 100 19:38:54  -321.304514c -6.79  -6.00c
iter: 101 19:39:01  -321.304514c -6.68  -5.91c
iter: 102 19:39:09  -321.304514c -7.07  -5.86c
iter: 103 19:39:16  -321.304514c -7.15  -5.80c
iter: 104 19:39:23  -321.304514c -7.09  -5.83c
Writing to output.gpw (mode='')

iter: 105 19:39:30  -321.304514c -7.20  -5.83c
iter: 106 19:39:38  -321.304514c -6.92  -5.87c
iter: 107 19:39:52  -321.304514c -7.18  -5.83c
iter: 108 19:40:03  -321.304514c -7.29  -5.92c
iter: 109 19:40:14  -321.304513c -7.30  -5.81c
Writing to output.gpw (mode='')

iter: 110 19:40:22  -321.304513c -7.29  -5.93c
iter: 111 19:40:29  -321.304513c -7.41c -5.96c

Converged after 111 iterations.

Dipole moment: (-15.939185, -13.704208, 0.215670) |e|*Ang

Energy contributions relative to reference atoms: (reference = -15487.462483)

Kinetic:       +233.448918
Potential:     -203.902927
External:        +0.000000
XC:            -351.589454
Entropy (-ST):   -0.159562
Local:           +0.818730
--------------------------
Free energy:   -321.384294
Extrapolated:  -321.304513

Dipole-layer corrected work functions: 3.401980, 2.987389 eV

Showing only first 2 kpts
 Kpt  Band  Eigenvalues  Occupancy
  0    34     -3.43978    1.98524
  0    35     -3.31914    1.84676
  0    36     -3.11563    0.34126
  0    37     -2.95035    0.01498

  1    34     -3.25023    1.50461
  1    35     -3.20243    1.07731
  1    36     -3.13040    0.43314
  1    37     -3.07653    0.17207


Fermi level: -3.19468

No gap
Writing to output.gpw (mode='')


Forces in eV/Ang:
  0 Li    0.01405    0.00581   -0.27531
  1 Li    0.00003   -0.00061   -0.26150
  2 Li   -0.01293    0.00444   -0.27888
  3 Li   -0.00280    0.00658   -0.26418
  4 Li   -0.00106    0.00133   -0.28464
  5 Li    0.00205    0.00820   -0.27207
  6 Li    0.00431   -0.01406   -0.27793
  7 Li    0.00134    0.00295   -0.26518
  8 Li   -0.00499   -0.01469   -0.27740
  9 Li   -0.00536    0.00622    0.33712
 10 Li    0.01645   -0.00053    0.25941
 11 Li   -0.01502   -0.00152    0.25076
 12 Li    0.00153    0.00083    0.28137
 13 Li    0.01022    0.00435    0.25240
 14 Li   -0.00935    0.00302    0.26218
 15 Li    0.00048   -0.00168    0.23988
 16 Li   -0.00790   -0.00800    0.25416
 17 Li    0.00901   -0.00414    0.25619
 18 Li    0.04115    0.00929   -0.04819
 19 Li   -0.00154   -0.01073    0.07728
 20 Li   -0.04112    0.00844   -0.08260
 21 Li   -0.02173   -0.01465    0.07410
 22 Li   -0.00267    0.00881    0.00745
 23 Li    0.02297   -0.00891    0.05599
 24 Li    0.00607    0.00200    0.00331
 25 Li    0.00329    0.00390    0.06828
 26 Li   -0.00819   -0.00337   -0.00640
 27 Li   -0.01940   -0.68965   -7.38169
 28 Li    0.11976   -0.03999   -0.22077
 29 Li   -0.06367   -0.02805   -0.09252
 30 Li   -0.01458   -0.30929    0.21810
 31 Li    0.04349    0.07854   -0.09272
 32 Li   -0.04298    0.04531   -0.03157
 33 Li   -0.00109   -0.07895   -0.08392
 34 Li    0.00707   -0.04471   -0.06235
 35 Li   -0.00803   -0.00464   -0.02447
 36 O     1.75990   -0.68603   19.11604
 37 C     0.05786   -0.14040    0.22341
 38 C     2.99510   -0.23313    4.39164
 39 C    -0.16075   -0.00732    0.21924
 40 H     0.07105   -0.11626   -0.05557
 41 H     0.01091   -0.16780    0.03544
 42 H     0.03542   -0.02502    0.03321
 43 H     0.85215    0.33492    1.14526
 44 H    -0.00079    0.06183   -0.00100
 45 H    -0.02220   -0.06174   -0.03610
 46 H     0.07903    0.10500   -0.01207
 47 H    -0.77526  -11.21518    4.23121
 48 N    -1.96172   -0.41878  -11.80148
 49 N    -2.96177   13.57063   -9.76389

System changes: positions 

Initializing position-dependent things.

Density initialized from wave functions
       .-----------------------.  
      /|                       |  
     / |                       |  
    /  |                       |  
   /   |                       |  
  /    |                       |  
 *     |                       |  
 |     |                       |  
 |     |                       |  
 |     |    H                  |  
 |     O     C    H            |  
 |     |    H                  H  
 |     |                       |  
 |     |       Li      Li      Li 
 |   H |   H                   |  
 |   C |   C Li      Li      Li|  
 |   H |   H                   |  
 |     |  LLi     LLi     NLi  |  
 |     |                       |  
 |     |Li      Li      Li     |  
 |   Li|     Li      Li        |  
 |    Li  Li  Li  Li  Li  Li   |  
 | Li  |   Li      Li          |  
 |     |Li      Li      Li     |  
 Li    | Li      Li            |  
 |    Li      Li      Li       |  
 |     |                       |  
 |     |                       |  
 |     |                       |  
 |     |                       |  
 |     |                       |  
 |     |                       |  
 |     .-----------------------.  
 |    /                       /   
 |   /                       /    
 |  /                       /     
 | /                       /      
 |/                       /       
 *-----------------------*        

Positions:
   0 Li     1.617037    1.617037   10.000000    ( 0.0000,  0.0000,  0.0000)
   1 Li     4.851111    1.617037   10.000000    ( 0.0000,  0.0000,  0.0000)
   2 Li     8.085185    1.617037   10.000000    ( 0.0000,  0.0000,  0.0000)
   3 Li     1.617037    4.851111   10.000000    ( 0.0000,  0.0000,  0.0000)
   4 Li     4.851111    4.851111   10.000000    ( 0.0000,  0.0000,  0.0000)
   5 Li     8.085185    4.851111   10.000000    ( 0.0000,  0.0000,  0.0000)
   6 Li     1.617037    8.085185   10.000000    ( 0.0000,  0.0000,  0.0000)
   7 Li     4.851111    8.085185   10.000000    ( 0.0000,  0.0000,  0.0000)
   8 Li     8.085185    8.085185   10.000000    ( 0.0000,  0.0000,  0.0000)
   9 Li     0.000000    0.000000   11.617037    ( 0.0000,  0.0000,  0.0000)
  10 Li     3.234074    0.000000   11.617037    ( 0.0000,  0.0000,  0.0000)
  11 Li     6.468148    0.000000   11.617037    ( 0.0000,  0.0000,  0.0000)
  12 Li     0.000000    3.234074   11.617037    ( 0.0000,  0.0000,  0.0000)
  13 Li     3.234074    3.234074   11.617037    ( 0.0000,  0.0000,  0.0000)
  14 Li     6.468148    3.234074   11.617037    ( 0.0000,  0.0000,  0.0000)
  15 Li     0.000000    6.468148   11.617037    ( 0.0000,  0.0000,  0.0000)
  16 Li     3.234074    6.468148   11.617037    ( 0.0000,  0.0000,  0.0000)
  17 Li     6.468148    6.468148   11.617037    ( 0.0000,  0.0000,  0.0000)
  18 Li     1.617124    1.617057   13.469628    ( 0.0000,  0.0000,  0.0000)
  19 Li     4.851108    1.617016   13.469890    ( 0.0000,  0.0000,  0.0000)
  20 Li     8.085098    1.617056   13.469556    ( 0.0000,  0.0000,  0.0000)
  21 Li     1.616993    4.851080   13.469884    ( 0.0000,  0.0000,  0.0000)
  22 Li     4.851105    4.851129   13.469746    ( 0.0000,  0.0000,  0.0000)
  23 Li     8.085231    4.851092   13.469846    ( 0.0000,  0.0000,  0.0000)
  24 Li     1.617051    8.085188   13.469735    ( 0.0000,  0.0000,  0.0000)
  25 Li     4.851118    8.085192   13.469872    ( 0.0000,  0.0000,  0.0000)
  26 Li     8.085167    8.085177   13.469715    ( 0.0000,  0.0000,  0.0000)
  27 Li    -0.000040   -0.001436   15.430568    ( 0.0000,  0.0000,  0.0000)
  28 Li     3.234323   -0.000083   15.445479    ( 0.0000,  0.0000,  0.0000)
  29 Li     6.468016   -0.000058   15.445746    ( 0.0000,  0.0000,  0.0000)
  30 Li    -0.000030    3.233430   15.446393    ( 0.0000,  0.0000,  0.0000)
  31 Li     3.234167    3.234240   15.445745    ( 0.0000,  0.0000,  0.0000)
  32 Li     6.468056    3.234171   15.445872    ( 0.0000,  0.0000,  0.0000)
  33 Li    -0.000002    6.467984   15.445764    ( 0.0000,  0.0000,  0.0000)
  34 Li     3.234091    6.468052   15.445808    ( 0.0000,  0.0000,  0.0000)
  35 Li     6.468129    6.468136   15.445887    ( 0.0000,  0.0000,  0.0000)
  36 O      9.705887    9.700793   18.485746    ( 0.0000,  0.0000,  0.0000)
  37 C     12.136591    9.314309   18.446275    ( 0.0000,  0.0000,  0.0000)
  38 C     11.000519   10.324525   18.444402    ( 0.0000,  0.0000,  0.0000)
  39 C     13.516471    9.976999   18.452627    ( 0.0000,  0.0000,  0.0000)
  40 H     12.018006    8.671510   19.322995    ( 0.0000,  0.0000,  0.0000)
  41 H     12.042579    8.672494   17.560204    ( 0.0000,  0.0000,  0.0000)
  42 H     11.018163   10.944902   19.335217    ( 0.0000,  0.0000,  0.0000)
  43 H     11.089639   10.992611   17.569867    ( 0.0000,  0.0000,  0.0000)
  44 H     13.650341   10.603223   19.337847    ( 0.0000,  0.0000,  0.0000)
  45 H     14.314041    9.232111   18.452902    ( 0.0000,  0.0000,  0.0000)
  46 H     13.658520   10.612749   17.573885    ( 0.0000,  0.0000,  0.0000)
  47 H      9.651846    9.101310   17.683439    ( 0.0000,  0.0000,  0.0000)
  48 N      9.697915    9.701128   16.921365    ( 0.0000,  0.0000,  0.0000)
  49 N      9.695833   10.826881   16.925608    ( 0.0000,  0.0000,  0.0000)

Unit cell:
           periodic     x           y           z      points  spacing
  1. axis:    yes    9.702222    0.000000    0.000000    60     0.1617
  2. axis:    yes    0.000000    9.702222    0.000000    60     0.1617
  3. axis:    no     0.000000    0.000000   26.351111   164     0.1607

  Lengths:   9.702222   9.702222  26.351111
  Angles:   90.000000  90.000000  90.000000

Effective grid spacing dv^(1/3) = 0.1614

     iter     time        total  log10-change:
                         energy  eigst   dens
iter:   1 19:40:38  -324.186638  -0.38
iter:   2 19:40:45  -323.636651  -0.45  -1.33
iter:   3 19:40:53  -323.347062  -0.99  -1.31
iter:   4 19:41:00  -323.268100  -1.03  -1.65
Writing to output.gpw (mode='')

iter:   5 19:41:07  -323.272147  -1.52  -1.88
iter:   6 19:41:15  -323.202072  -1.40  -1.80
iter:   7 19:41:22  -323.197304  -1.72  -2.14
iter:   8 19:41:29  -323.195051c -2.29  -2.40
iter:   9 19:41:37  -323.196157c -2.07  -2.43
Writing to output.gpw (mode='')

iter:  10 19:41:44  -323.195182c -2.43  -2.39
iter:  11 19:41:51  -323.195081c -2.52  -2.61
iter:  12 19:41:59  -323.195138c -2.91  -2.78
iter:  13 19:42:07  -323.194807c -3.10  -2.89
iter:  14 19:42:14  -323.195211c -3.14  -3.09
Writing to output.gpw (mode='')

iter:  15 19:42:21  -323.195351c -3.02  -3.01
iter:  16 19:42:29  -323.195312c -3.55  -3.07
iter:  17 19:42:37  -323.195076c -3.63  -3.08
iter:  18 19:42:44  -323.195208c -3.92  -3.31
iter:  19 19:42:51  -323.195144c -3.94  -3.34
Writing to output.gpw (mode='')

iter:  20 19:42:59  -323.195129c -4.27  -3.46
iter:  21 19:43:06  -323.195120c -4.33  -3.53
iter:  22 19:43:13  -323.195164c -4.46  -3.74
iter:  23 19:43:21  -323.195150c -4.64  -3.80
iter:  24 19:43:28  -323.195162c -4.75  -3.90
Writing to output.gpw (mode='')

iter:  25 19:43:36  -323.195137c -4.79  -3.96
iter:  26 19:43:43  -323.195151c -5.11  -4.14c
iter:  27 19:43:50  -323.195150c -4.99  -4.16c
iter:  28 19:43:58  -323.195150c -5.32  -4.30c
iter:  29 19:44:05  -323.195150c -5.31  -4.34c
Writing to output.gpw (mode='')

iter:  30 19:44:13  -323.195147c -5.47  -4.40c
iter:  31 19:44:20  -323.195149c -5.63  -4.45c
iter:  32 19:44:27  -323.195150c -5.73  -4.46c
iter:  33 19:44:35  -323.195139c -6.00  -4.49c
iter:  34 19:44:48  -323.195145c -5.95  -4.57c
Writing to output.gpw (mode='')

iter:  35 19:44:56  -323.195146c -6.24  -4.84c
iter:  36 19:45:04  -323.195148c -6.09  -4.88c
iter:  37 19:45:11  -323.195147c -6.14  -4.96c
iter:  38 19:45:19  -323.195147c -6.56  -5.09c
iter:  39 19:45:26  -323.195147c -6.47  -5.11c
Writing to output.gpw (mode='')

iter:  40 19:45:34  -323.195147c -6.49  -5.27c
iter:  41 19:45:41  -323.195148c -6.64  -5.31c
iter:  42 19:45:48  -323.195147c -6.64  -5.37c
iter:  43 19:45:56  -323.195147c -6.97  -5.44c
iter:  44 19:46:03  -323.195147c -6.74  -5.46c
Writing to output.gpw (mode='')

iter:  45 19:46:10  -323.195147c -7.05  -5.51c
iter:  46 19:46:18  -323.195147c -7.06  -5.57c
iter:  47 19:46:25  -323.195147c -7.21  -5.63c
iter:  48 19:46:32  -323.195146c -7.38  -5.79c
iter:  49 19:46:40  -323.195147c -7.47c -5.95c

Converged after 49 iterations.

Dipole moment: (-15.199376, -13.500704, 0.156731) |e|*Ang

Energy contributions relative to reference atoms: (reference = -15487.462483)

Kinetic:       +222.480603
Potential:     -196.648928
External:        +0.000000
XC:            -349.770686
Entropy (-ST):   -0.160296
Local:           +0.824012
--------------------------
Free energy:   -323.275294
Extrapolated:  -323.195147

Dipole-layer corrected work functions: 3.405968, 3.104677 eV

Showing only first 2 kpts
 Kpt  Band  Eigenvalues  Occupancy
  0    34     -3.49995    1.98511
  0    35     -3.38413    1.85861
  0    36     -3.18770    0.41093
  0    37     -3.00768    0.01403

  1    34     -3.31377    1.52592
  1    35     -3.25699    1.01666
  1    36     -3.18334    0.38318
  1    37     -3.13259    0.15821


Fermi level: -3.25532

No gap
Writing to output.gpw (mode='')


Forces in eV/Ang:
  0 Li    0.01481    0.00625   -0.27648
  1 Li   -0.00073   -0.00023   -0.26194
  2 Li   -0.01302    0.00486   -0.28005
  3 Li   -0.00303    0.00655   -0.26302
  4 Li   -0.00085    0.00095   -0.28588
  5 Li    0.00211    0.00871   -0.27197
  6 Li    0.00459   -0.01432   -0.27941
  7 Li    0.00138    0.00321   -0.26459
  8 Li   -0.00488   -0.01616   -0.27865
  9 Li   -0.00502    0.00555    0.34203
 10 Li    0.01471   -0.00001    0.26212
 11 Li   -0.01396   -0.00119    0.25227
 12 Li    0.00124    0.00329    0.28060
 13 Li    0.01126    0.00443    0.25189
 14 Li   -0.00918    0.00294    0.26283
 15 Li    0.00006   -0.00229    0.24038
 16 Li   -0.00580   -0.00934    0.25282
 17 Li    0.00692   -0.00387    0.25512
 18 Li    0.03885    0.01438   -0.05363
 19 Li   -0.00064   -0.01195    0.07679
 20 Li   -0.03973    0.01117   -0.09127
 21 Li   -0.02088   -0.01363    0.07303
 22 Li   -0.00414    0.00796    0.00869
 23 Li    0.02261   -0.00726    0.05645
 24 Li    0.00979   -0.00390   -0.00791
 25 Li    0.00391    0.00621    0.06910
 26 Li   -0.01280   -0.00726   -0.01790
 27 Li    0.02066   -0.66238   -7.60903
 28 Li    0.10552   -0.03842   -0.19360
 29 Li   -0.05422   -0.02818   -0.07930
 30 Li   -0.01203   -0.33299    0.24499
 31 Li    0.04049    0.07685   -0.08863
 32 Li   -0.04444    0.04881   -0.03055
 33 Li   -0.00013   -0.07700   -0.08022
 34 Li    0.00827   -0.04429   -0.06184
 35 Li   -0.01026   -0.00805   -0.02626
 36 O     1.89705   -0.88340   15.14824
 37 C     0.16793   -0.12369    0.24913
 38 C     2.28715   -0.37691    3.87289
 39 C    -0.11340   -0.04239    0.19129
 40 H     0.08213   -0.13051   -0.04664
 41 H    -0.00892   -0.14457    0.04098
 42 H     0.16556    0.13829    0.22904
 43 H     0.73164    0.25533    1.18727
 44 H    -0.00187    0.06086    0.00286
 45 H    -0.01273   -0.04812   -0.03282
 46 H     0.07410    0.09878   -0.00234
 47 H    -0.60038   -7.87088    3.67081
 48 N    -2.03001    1.30378   -8.56904
 49 N    -2.67930    8.82534   -8.11963

System changes: positions 

Initializing position-dependent things.

Density initialized from wave functions
       .-----------------------.  
      /|                       |  
     / |                       |  
    /  |                       |  
   /   |                       |  
  /    |                       |  
 *     |                       |  
 |     |                       |  
 |     |                       |  
 |     |    H                  |  
 |     O     C    H            |  
 |     |    H                 H|  
 |     |                       |  
 |     Li      Li      Li      |  
 |   H |   H                   |  
 |   Ci|   C Li      Li        |  
 |   H |   H                   |  
 |     |  LLi     LLi    NNLi  |  
 |     |                       |  
 |     |Li      Li      Li     |  
 |   Li|     Li      Li        |  
 |    Li  Li  Li  Li  Li  Li   |  
 | Li  |   Li      Li          |  
 |     |Li      Li      Li     |  
 Li    | Li      Li            |  
 |    Li      Li      Li       |  
 |     |                       |  
 |     |                       |  
 |     |                       |  
 |     |                       |  
 |     |                       |  
 |     |                       |  
 |     .-----------------------.  
 |    /                       /   
 |   /                       /    
 |  /                       /     
 | /                       /      
 |/                       /       
 *-----------------------*        

Positions:
   0 Li     1.617037    1.617037   10.000000    ( 0.0000,  0.0000,  0.0000)
   1 Li     4.851111    1.617037   10.000000    ( 0.0000,  0.0000,  0.0000)
   2 Li     8.085185    1.617037   10.000000    ( 0.0000,  0.0000,  0.0000)
   3 Li     1.617037    4.851111   10.000000    ( 0.0000,  0.0000,  0.0000)
   4 Li     4.851111    4.851111   10.000000    ( 0.0000,  0.0000,  0.0000)
   5 Li     8.085185    4.851111   10.000000    ( 0.0000,  0.0000,  0.0000)
   6 Li     1.617037    8.085185   10.000000    ( 0.0000,  0.0000,  0.0000)
   7 Li     4.851111    8.085185   10.000000    ( 0.0000,  0.0000,  0.0000)
   8 Li     8.085185    8.085185   10.000000    ( 0.0000,  0.0000,  0.0000)
   9 Li     0.000000    0.000000   11.617037    ( 0.0000,  0.0000,  0.0000)
  10 Li     3.234074    0.000000   11.617037    ( 0.0000,  0.0000,  0.0000)
  11 Li     6.468148    0.000000   11.617037    ( 0.0000,  0.0000,  0.0000)
  12 Li     0.000000    3.234074   11.617037    ( 0.0000,  0.0000,  0.0000)
  13 Li     3.234074    3.234074   11.617037    ( 0.0000,  0.0000,  0.0000)
  14 Li     6.468148    3.234074   11.617037    ( 0.0000,  0.0000,  0.0000)
  15 Li     0.000000    6.468148   11.617037    ( 0.0000,  0.0000,  0.0000)
  16 Li     3.234074    6.468148   11.617037    ( 0.0000,  0.0000,  0.0000)
  17 Li     6.468148    6.468148   11.617037    ( 0.0000,  0.0000,  0.0000)
  18 Li     1.617275    1.617153   13.469362    ( 0.0000,  0.0000,  0.0000)
  19 Li     4.851111    1.616957   13.470216    ( 0.0000,  0.0000,  0.0000)
  20 Li     8.084937    1.617121   13.469108    ( 0.0000,  0.0000,  0.0000)
  21 Li     1.616909    4.851029   13.470189    ( 0.0000,  0.0000,  0.0000)
  22 Li     4.851078    4.851158   13.469791    ( 0.0000,  0.0000,  0.0000)
  23 Li     8.085326    4.851072   13.470091    ( 0.0000,  0.0000,  0.0000)
  24 Li     1.617117    8.085132   13.469627    ( 0.0000,  0.0000,  0.0000)
  25 Li     4.851139    8.085233   13.470173    ( 0.0000,  0.0000,  0.0000)
  26 Li     8.085082    8.085120   13.469562    ( 0.0000,  0.0000,  0.0000)
  27 Li     0.000312   -0.004091   15.396506    ( 0.0000,  0.0000,  0.0000)
  28 Li     3.234681   -0.000237   15.444830    ( 0.0000,  0.0000,  0.0000)
  29 Li     6.467846   -0.000180   15.445494    ( 0.0000,  0.0000,  0.0000)
  30 Li    -0.000065    3.231848   15.447619    ( 0.0000,  0.0000,  0.0000)
  31 Li     3.234320    3.234558   15.445393    ( 0.0000,  0.0000,  0.0000)
  32 Li     6.467856    3.234403   15.445748    ( 0.0000,  0.0000,  0.0000)
  33 Li     0.000004    6.467667   15.445445    ( 0.0000,  0.0000,  0.0000)
  34 Li     3.234134    6.467866   15.445547    ( 0.0000,  0.0000,  0.0000)
  35 Li     6.468070    6.468079   15.445763    ( 0.0000,  0.0000,  0.0000)
  36 O      9.714910    9.695710   18.524381    ( 0.0000,  0.0000,  0.0000)
  37 C     12.138036    9.313890   18.447511    ( 0.0000,  0.0000,  0.0000)
  38 C     11.005634   10.321963   18.457551    ( 0.0000,  0.0000,  0.0000)
  39 C     13.516298    9.976586   18.453261    ( 0.0000,  0.0000,  0.0000)
  40 H     12.018431    8.670857   19.322854    ( 0.0000,  0.0000,  0.0000)
  41 H     12.042410    8.672029   17.560416    ( 0.0000,  0.0000,  0.0000)
  42 H     11.019731   10.946572   19.337490    ( 0.0000,  0.0000,  0.0000)
  43 H     11.091974   10.993179   17.575225    ( 0.0000,  0.0000,  0.0000)
  44 H     13.650326   10.603477   19.337885    ( 0.0000,  0.0000,  0.0000)
  45 H     14.314049    9.231995   18.452783    ( 0.0000,  0.0000,  0.0000)
  46 H     13.658804   10.613131   17.573939    ( 0.0000,  0.0000,  0.0000)
  47 H      9.650431    9.089702   17.695449    ( 0.0000,  0.0000,  0.0000)
  48 N      9.688777    9.718077   16.906030    ( 0.0000,  0.0000,  0.0000)
  49 N      9.686231   10.833327   16.901713    ( 0.0000,  0.0000,  0.0000)

Unit cell:
           periodic     x           y           z      points  spacing
  1. axis:    yes    9.702222    0.000000    0.000000    60     0.1617
  2. axis:    yes    0.000000    9.702222    0.000000    60     0.1617
  3. axis:    no     0.000000    0.000000   26.351111   164     0.1607

  Lengths:   9.702222   9.702222  26.351111
  Angles:   90.000000  90.000000  90.000000

Effective grid spacing dv^(1/3) = 0.1614

     iter     time        total  log10-change:
                         energy  eigst   dens
iter:   1 19:46:49  -324.685428  -0.65
iter:   2 19:46:56  -324.658648  -1.18  -1.92
iter:   3 19:47:04  -324.638341  -1.49  -1.97
iter:   4 19:47:11  -324.619310  -1.28  -1.96
Writing to output.gpw (mode='')

iter:   5 19:47:18  -324.636806c -1.60  -1.94
iter:   6 19:47:26  -324.621784c -2.30  -2.08
iter:   7 19:47:33  -324.608422c -1.43  -2.14
iter:   8 19:47:40  -324.598077c -1.91  -2.22
iter:   9 19:47:48  -324.597012c -2.26  -2.48
Writing to output.gpw (mode='')

iter:  10 19:47:55  -324.597129c -2.60  -2.50
iter:  11 19:48:02  -324.598868c -2.63  -2.58
iter:  12 19:48:10  -324.597219c -2.93  -2.78
iter:  13 19:48:17  -324.597147c -3.47  -2.89
iter:  14 19:48:24  -324.597585c -3.10  -2.94
Writing to output.gpw (mode='')

iter:  15 19:48:32  -324.597063c -3.02  -2.92
iter:  16 19:48:39  -324.597061c -3.85  -3.25
iter:  17 19:48:47  -324.597024c -4.19  -3.35
iter:  18 19:48:54  -324.597087c -4.00  -3.40
iter:  19 19:49:01  -324.596999c -4.70  -3.41
Writing to output.gpw (mode='')

iter:  20 19:49:09  -324.596995c -4.52  -3.54
iter:  21 19:49:16  -324.597015c -4.81  -3.67
iter:  22 19:49:23  -324.597047c -4.91  -3.77
iter:  23 19:49:31  -324.597016c -4.88  -3.87
iter:  24 19:49:38  -324.597029c -5.46  -4.05c
Writing to output.gpw (mode='')

iter:  25 19:49:52  -324.597038c -5.32  -4.11c
iter:  26 19:49:59  -324.597037c -5.97  -4.11c
iter:  27 19:50:07  -324.597031c -5.45  -4.20c
iter:  28 19:50:14  -324.597040c -5.93  -4.45c
iter:  29 19:50:21  -324.597037c -6.03  -4.31c
Writing to output.gpw (mode='')

iter:  30 19:50:29  -324.597033c -5.73  -4.55c
iter:  31 19:50:36  -324.597032c -6.23  -4.72c
iter:  32 19:50:43  -324.597032c -6.36  -4.65c
iter:  33 19:50:51  -324.597033c -6.49  -4.67c
iter:  34 19:50:58  -324.597035c -6.50  -4.77c
Writing to output.gpw (mode='')

iter:  35 19:51:05  -324.597035c -6.50  -4.84c
iter:  36 19:51:13  -324.597032c -6.49  -4.75c
iter:  37 19:51:20  -324.597033c -7.24  -4.98c
iter:  38 19:51:27  -324.597034c -6.89  -5.08c
iter:  39 19:51:35  -324.597034c -7.04  -5.04c
Writing to output.gpw (mode='')

iter:  40 19:51:42  -324.597034c -7.14  -5.17c
iter:  41 19:51:49  -324.597034c -7.34  -5.26c
iter:  42 19:51:57  -324.597034c -7.40c -5.38c

Converged after 42 iterations.

Dipole moment: (-13.975138, -14.731690, 0.128171) |e|*Ang

Energy contributions relative to reference atoms: (reference = -15487.462483)

Kinetic:       +217.872151
Potential:     -194.207542
External:        +0.000000
XC:            -349.002804
Entropy (-ST):   -0.158447
Local:           +0.820384
--------------------------
Free energy:   -324.676257
Extrapolated:  -324.597034

Dipole-layer corrected work functions: 3.407311, 3.160923 eV

Showing only first 2 kpts
 Kpt  Band  Eigenvalues  Occupancy
  0    34     -3.53107    1.98578
  0    35     -3.42463    1.88646
  0    36     -3.20892    0.36370
  0    37     -3.03652    0.01404

  1    34     -3.33730    1.48678
  1    35     -3.28486    1.00748
  1    36     -3.21537    0.40367
  1    37     -3.16612    0.17255


Fermi level: -3.28412

No gap
Writing to output.gpw (mode='')


Forces in eV/Ang:
  0 Li    0.01558    0.00648   -0.27673
  1 Li   -0.00185   -0.00003   -0.26232
  2 Li   -0.01286    0.00486   -0.28032
  3 Li   -0.00359    0.00587   -0.26170
  4 Li   -0.00061    0.00031   -0.28711
  5 Li    0.00238    0.00911   -0.27146
  6 Li    0.00430   -0.01363   -0.27956
  7 Li    0.00161    0.00402   -0.26380
  8 Li   -0.00447   -0.01701   -0.27910
  9 Li   -0.00484    0.00538    0.34599
 10 Li    0.01441    0.00014    0.26258
 11 Li   -0.01400   -0.00145    0.25188
 12 Li    0.00108    0.00525    0.27854
 13 Li    0.01253    0.00489    0.24998
 14 Li   -0.00941    0.00315    0.26203
 15 Li   -0.00017   -0.00298    0.24075
 16 Li   -0.00429   -0.01074    0.25173
 17 Li    0.00552   -0.00345    0.25420
 18 Li    0.04054    0.02042   -0.05525
 19 Li    0.00108   -0.01220    0.07485
 20 Li   -0.04213    0.01592   -0.09831
 21 Li   -0.01935   -0.01442    0.07218
 22 Li   -0.00531    0.00811    0.00868
 23 Li    0.02178   -0.00783    0.05783
 24 Li    0.01501   -0.00944   -0.01357
 25 Li    0.00429    0.00591    0.06847
 26 Li   -0.01854   -0.01121   -0.02331
 27 Li    0.07562   -0.68399   -7.01240
 28 Li    0.10056   -0.03409   -0.18319
 29 Li   -0.05827   -0.03133   -0.08171
 30 Li   -0.00775   -0.30566    0.22774
 31 Li    0.03445    0.07100   -0.08475
 32 Li   -0.04688    0.05214   -0.03358
 33 Li   -0.00022   -0.07697   -0.07924
 34 Li    0.00673   -0.04139   -0.06101
 35 Li   -0.00889   -0.00796   -0.02545
 36 O     1.96461   -1.12598   12.47221
 37 C     0.24465   -0.10728    0.26968
 38 C     1.83215   -0.33318    3.27528
 39 C    -0.05322   -0.04355    0.15800
 40 H     0.09724   -0.15471   -0.03222
 41 H    -0.02695   -0.11540    0.05051
 42 H     0.27203    0.26358    0.41147
 43 H     0.68539    0.14392    1.32739
 44 H    -0.00187    0.05586    0.00683
 45 H     0.00174   -0.04284   -0.02971
 46 H     0.06510    0.08139    0.01752
 47 H    -0.38698   -5.55953    3.32088
 48 N    -2.30365   -0.63709   -7.12468
 49 N    -2.45269    8.59777   -6.83288

System changes: positions 

Initializing position-dependent things.

Density initialized from wave functions
       .-----------------------.  
      /|                       |  
     / |                       |  
    /  |                       |  
   /   |                       |  
  /    |                       |  
 *     |                       |  
 |     |                       |  
 |     |                       |  
 |     O    H                  |  
 |     |     C    H            |  
 |     |    H                 H|  
 |     |                       |  
 |     Li      Li      Li      |  
 |   H |   H                   |  
 |   Ci|   C Li      Li        |  
 |   H |   H                   |  
 |     |  LLi     LLi    NNLi  |  
 |     |                       |  
 |     |Li      Li      Li     |  
 |   Li|     Li      Li        |  
 |    Li  Li  Li  Li  Li  Li   |  
 | Li  |   Li      Li          |  
 |     |Li      Li      Li     |  
 Li    | Li      Li            |  
 |    Li      Li      Li       |  
 |     |                       |  
 |     |                       |  
 |     |                       |  
 |     |                       |  
 |     |                       |  
 |     |                       |  
 |     .-----------------------.  
 |    /                       /   
 |   /                       /    
 |  /                       /     
 | /                       /      
 |/                       /       
 *-----------------------*        

Positions:
   0 Li     1.617037    1.617037   10.000000    ( 0.0000,  0.0000,  0.0000)
   1 Li     4.851111    1.617037   10.000000    ( 0.0000,  0.0000,  0.0000)
   2 Li     8.085185    1.617037   10.000000    ( 0.0000,  0.0000,  0.0000)
   3 Li     1.617037    4.851111   10.000000    ( 0.0000,  0.0000,  0.0000)
   4 Li     4.851111    4.851111   10.000000    ( 0.0000,  0.0000,  0.0000)
   5 Li     8.085185    4.851111   10.000000    ( 0.0000,  0.0000,  0.0000)
   6 Li     1.617037    8.085185   10.000000    ( 0.0000,  0.0000,  0.0000)
   7 Li     4.851111    8.085185   10.000000    ( 0.0000,  0.0000,  0.0000)
   8 Li     8.085185    8.085185   10.000000    ( 0.0000,  0.0000,  0.0000)
   9 Li     0.000000    0.000000   11.617037    ( 0.0000,  0.0000,  0.0000)
  10 Li     3.234074    0.000000   11.617037    ( 0.0000,  0.0000,  0.0000)
  11 Li     6.468148    0.000000   11.617037    ( 0.0000,  0.0000,  0.0000)
  12 Li     0.000000    3.234074   11.617037    ( 0.0000,  0.0000,  0.0000)
  13 Li     3.234074    3.234074   11.617037    ( 0.0000,  0.0000,  0.0000)
  14 Li     6.468148    3.234074   11.617037    ( 0.0000,  0.0000,  0.0000)
  15 Li     0.000000    6.468148   11.617037    ( 0.0000,  0.0000,  0.0000)
  16 Li     3.234074    6.468148   11.617037    ( 0.0000,  0.0000,  0.0000)
  17 Li     6.468148    6.468148   11.617037    ( 0.0000,  0.0000,  0.0000)
  18 Li     1.617507    1.617339   13.468991    ( 0.0000,  0.0000,  0.0000)
  19 Li     4.851132    1.616875   13.470644    ( 0.0000,  0.0000,  0.0000)
  20 Li     8.084686    1.617258   13.468434    ( 0.0000,  0.0000,  0.0000)
  21 Li     1.616809    4.850947   13.470603    ( 0.0000,  0.0000,  0.0000)
  22 Li     4.851031    4.851201   13.469851    ( 0.0000,  0.0000,  0.0000)
  23 Li     8.085447    4.851034   13.470442    ( 0.0000,  0.0000,  0.0000)
  24 Li     1.617258    8.085008   13.469442    ( 0.0000,  0.0000,  0.0000)
  25 Li     4.851170    8.085282   13.470579    ( 0.0000,  0.0000,  0.0000)
  26 Li     8.084912    8.085007   13.469319    ( 0.0000,  0.0000,  0.0000)
  27 Li     0.001313   -0.008051   15.356715    ( 0.0000,  0.0000,  0.0000)
  28 Li     3.235152   -0.000405   15.443987    ( 0.0000,  0.0000,  0.0000)
  29 Li     6.467545   -0.000382   15.445089    ( 0.0000,  0.0000,  0.0000)
  30 Li    -0.000071    3.230028   15.449054    ( 0.0000,  0.0000,  0.0000)
  31 Li     3.234472    3.234935   15.444941    ( 0.0000,  0.0000,  0.0000)
  32 Li     6.467557    3.234751   15.445542    ( 0.0000,  0.0000,  0.0000)
  33 Li     0.000008    6.467227   15.445008    ( 0.0000,  0.0000,  0.0000)
  34 Li     3.234174    6.467640   15.445195    ( 0.0000,  0.0000,  0.0000)
  35 Li     6.468010    6.468009   15.445605    ( 0.0000,  0.0000,  0.0000)
  36 O      9.727767    9.686486   18.557291    ( 0.0000,  0.0000,  0.0000)
  37 C     12.140618    9.313455   18.449380    ( 0.0000,  0.0000,  0.0000)
  38 C     11.009304   10.319255   18.470269    ( 0.0000,  0.0000,  0.0000)
  39 C     13.516615    9.976087   18.453832    ( 0.0000,  0.0000,  0.0000)
  40 H     12.019157    8.669724   19.322799    ( 0.0000,  0.0000,  0.0000)
  41 H     12.042024    8.671656   17.560801    ( 0.0000,  0.0000,  0.0000)
  42 H     11.022763   10.949876   19.342180    ( 0.0000,  0.0000,  0.0000)
  43 H     11.094962   10.992914   17.584058    ( 0.0000,  0.0000,  0.0000)
  44 H     13.650308   10.603774   19.337972    ( 0.0000,  0.0000,  0.0000)
  45 H     14.314198    9.231861   18.452646    ( 0.0000,  0.0000,  0.0000)
  46 H     13.659108   10.613479   17.574210    ( 0.0000,  0.0000,  0.0000)
  47 H      9.650433    9.091450   17.709434    ( 0.0000,  0.0000,  0.0000)
  48 N      9.673321    9.715920   16.893316    ( 0.0000,  0.0000,  0.0000)
  49 N      9.674850   10.850800   16.879183    ( 0.0000,  0.0000,  0.0000)

Unit cell:
           periodic     x           y           z      points  spacing
  1. axis:    yes    9.702222    0.000000    0.000000    60     0.1617
  2. axis:    yes    0.000000    9.702222    0.000000    60     0.1617
  3. axis:    no     0.000000    0.000000   26.351111   164     0.1607

  Lengths:   9.702222   9.702222  26.351111
  Angles:   90.000000  90.000000  90.000000

Effective grid spacing dv^(1/3) = 0.1614

     iter     time        total  log10-change:
                         energy  eigst   dens
iter:   1 19:52:06  -326.097113  -0.67
iter:   2 19:52:13  -326.035774  -0.71  -1.50
iter:   3 19:52:21  -325.821102  -1.31  -1.44
iter:   4 19:52:28  -325.803176  -1.91  -1.93
Writing to output.gpw (mode='')

iter:   5 19:52:35  -325.795446c -1.77  -2.25
iter:   6 19:52:43  -325.795033c -1.87  -2.35
iter:   7 19:52:50  -325.803032c -2.13  -2.52
iter:   8 19:52:57  -325.796681c -2.53  -2.32
iter:   9 19:53:05  -325.794766c -2.55  -2.55
Writing to output.gpw (mode='')

iter:  10 19:53:12  -325.795079c -3.00  -2.83
iter:  11 19:53:20  -325.794761c -3.07  -3.05
iter:  12 19:53:27  -325.794910c -3.55  -3.10
iter:  13 19:53:34  -325.794823c -3.58  -3.19
iter:  14 19:53:42  -325.795042c -3.76  -3.36
Writing to output.gpw (mode='')

iter:  15 19:53:49  -325.795002c -3.89  -3.34
iter:  16 19:53:57  -325.795012c -4.17  -3.45
iter:  17 19:54:04  -325.794964c -4.20  -3.63
iter:  18 19:54:11  -325.795000c -4.66  -3.83
iter:  19 19:54:19  -325.795030c -4.56  -3.84
Writing to output.gpw (mode='')

iter:  20 19:54:27  -325.794993c -4.58  -3.87
iter:  21 19:54:34  -325.795016c -4.91  -3.95
iter:  22 19:54:48  -325.795017c -5.11  -4.06c
iter:  23 19:54:57  -325.795015c -5.07  -4.09c
iter:  24 19:55:04  -325.795028c -5.28  -4.16c
Writing to output.gpw (mode='')

iter:  25 19:55:11  -325.795020c -5.41  -4.15c
iter:  26 19:55:19  -325.795018c -5.49  -4.25c
iter:  27 19:55:27  -325.795019c -5.73  -4.36c
iter:  28 19:55:34  -325.795022c -5.57  -4.53c
iter:  29 19:55:41  -325.795023c -5.68  -4.67c
Writing to output.gpw (mode='')

iter:  30 19:55:52  -325.795022c -5.82  -4.75c
iter:  31 19:55:59  -325.795025c -5.89  -4.93c
iter:  32 19:56:07  -325.795026c -6.21  -4.91c
iter:  33 19:56:14  -325.795026c -6.49  -5.11c
iter:  34 19:56:22  -325.795026c -6.32  -5.14c
Writing to output.gpw (mode='')

iter:  35 19:56:29  -325.795026c -6.57  -5.15c
iter:  36 19:56:37  -325.795026c -6.56  -5.16c
iter:  37 19:56:44  -325.795025c -6.65  -5.09c
iter:  38 19:56:51  -325.795025c -7.08  -5.05c
iter:  39 19:56:59  -325.795025c -6.76  -5.04c
Writing to output.gpw (mode='')

iter:  40 19:57:07  -325.795025c -7.07  -5.01c
iter:  41 19:57:14  -325.795026c -6.94  -5.00c
iter:  42 19:57:21  -325.795025c -7.12  -5.03c
iter:  43 19:57:29  -325.795027c -7.41c -5.02c

Converged after 43 iterations.

Dipole moment: (-12.200697, -13.675309, 0.087913) |e|*Ang

Energy contributions relative to reference atoms: (reference = -15487.462483)

Kinetic:       +210.913250
Potential:     -189.531534
External:        +0.000000
XC:            -347.912849
Entropy (-ST):   -0.158431
Local:           +0.815321
--------------------------
Free energy:   -325.874243
Extrapolated:  -325.795027

Dipole-layer corrected work functions: 3.409973, 3.240974 eV

Showing only first 2 kpts
 Kpt  Band  Eigenvalues  Occupancy
  0    34     -3.57236    1.98576
  0    35     -3.47207    1.89881
  0    36     -3.25559    0.39638
  0    37     -3.07500    0.01326

  1    34     -3.37857    1.48609
  1    35     -3.32186    0.96386
  1    36     -3.25807    0.41235
  1    37     -3.20078    0.15257


Fermi level: -3.32547

No gap
Writing to output.gpw (mode='')


Forces in eV/Ang:
  0 Li    0.01568    0.00681   -0.27820
  1 Li   -0.00261    0.00017   -0.26243
  2 Li   -0.01230    0.00527   -0.28190
  3 Li   -0.00392    0.00580   -0.26073
  4 Li   -0.00041    0.00014   -0.28877
  5 Li    0.00266    0.00952   -0.27132
  6 Li    0.00434   -0.01359   -0.28136
  7 Li    0.00162    0.00416   -0.26339
  8 Li   -0.00415   -0.01799   -0.28102
  9 Li   -0.00476    0.00504    0.35247
 10 Li    0.01300    0.00052    0.26558
 11 Li   -0.01282   -0.00122    0.25417
 12 Li    0.00080    0.00684    0.27860
 13 Li    0.01398    0.00503    0.24935
 14 Li   -0.00978    0.00370    0.26252
 15 Li   -0.00035   -0.00354    0.24150
 16 Li   -0.00239   -0.01193    0.25069
 17 Li    0.00365   -0.00383    0.25340
 18 Li    0.04308    0.02842   -0.06298
 19 Li    0.00241   -0.01264    0.07353
 20 Li   -0.04533    0.02233   -0.11001
 21 Li   -0.01862   -0.01396    0.07050
 22 Li   -0.00704    0.00706    0.00949
 23 Li    0.02163   -0.00706    0.05855
 24 Li    0.02200   -0.01946   -0.02786
 25 Li    0.00533    0.00736    0.06891
 26 Li   -0.02668   -0.02017   -0.03980
 27 Li    0.15045   -0.57557   -6.11874
 28 Li    0.08912   -0.03101   -0.16196
 29 Li   -0.05266   -0.03097   -0.07264
 30 Li   -0.00491   -0.32647    0.24635
 31 Li    0.03046    0.06751   -0.08060
 32 Li   -0.04825    0.05514   -0.03311
 33 Li    0.00155   -0.07136   -0.07345
 34 Li    0.00694   -0.04007   -0.06010
 35 Li   -0.01126   -0.01085   -0.02720
 36 O     1.98833   -0.87039   10.66130
 37 C     0.27321   -0.10060    0.26925
 38 C     1.47770   -0.33579    2.84713
 39 C    -0.00402   -0.03745    0.14193
 40 H     0.12515   -0.18130   -0.01245
 41 H    -0.03931   -0.07640    0.07363
 42 H     0.33800    0.32648    0.50291
 43 H     0.53518    0.06804    1.30133
 44 H     0.00390    0.04979    0.00724
 45 H     0.02699   -0.04084   -0.02637
 46 H     0.05913    0.06964    0.02878
 47 H    -0.31547   -4.49518    3.12250
 48 N    -2.45060    0.83853   -6.69333
 49 N    -2.12309    5.73071   -5.78849

System changes: positions 

Initializing position-dependent things.

Density initialized from wave functions
       .-----------------------.  
      /|                       |  
     / |                       |  
    /  |                       |  
   /   |                       |  
  /    |                       |  
 *     |                       |  
 |     |                       |  
 |     |                       |  
 |     O    H                  |  
 |     |     C    H            |  
 |     |    H                 H|  
 |     |                       |  
 |     Li      Li      Li      |  
 |   H |   H                   |  
 |   Ci|   C Li      Li        |  
 |   H |   H                   |  
 |     |  LLi     LLi    NNLi  |  
 |     |                       |  
 |     |Li      Li      Li     |  
 |   Li|     Li      Li        |  
 |    Li  Li  Li  Li  Li  Li   |  
 | Li  |   Li      Li          |  
 |     |Li      Li      Li     |  
 Li    | Li      Li            |  
 |    Li      Li      Li       |  
 |     |                       |  
 |     |                       |  
 |     |                       |  
 |     |                       |  
 |     |                       |  
 |     |                       |  
 |     .-----------------------.  
 |    /                       /   
 |   /                       /    
 |  /                       /     
 | /                       /      
 |/                       /       
 *-----------------------*        

Positions:
   0 Li     1.617037    1.617037   10.000000    ( 0.0000,  0.0000,  0.0000)
   1 Li     4.851111    1.617037   10.000000    ( 0.0000,  0.0000,  0.0000)
   2 Li     8.085185    1.617037   10.000000    ( 0.0000,  0.0000,  0.0000)
   3 Li     1.617037    4.851111   10.000000    ( 0.0000,  0.0000,  0.0000)
   4 Li     4.851111    4.851111   10.000000    ( 0.0000,  0.0000,  0.0000)
   5 Li     8.085185    4.851111   10.000000    ( 0.0000,  0.0000,  0.0000)
   6 Li     1.617037    8.085185   10.000000    ( 0.0000,  0.0000,  0.0000)
   7 Li     4.851111    8.085185   10.000000    ( 0.0000,  0.0000,  0.0000)
   8 Li     8.085185    8.085185   10.000000    ( 0.0000,  0.0000,  0.0000)
   9 Li     0.000000    0.000000   11.617037    ( 0.0000,  0.0000,  0.0000)
  10 Li     3.234074    0.000000   11.617037    ( 0.0000,  0.0000,  0.0000)
  11 Li     6.468148    0.000000   11.617037    ( 0.0000,  0.0000,  0.0000)
  12 Li     0.000000    3.234074   11.617037    ( 0.0000,  0.0000,  0.0000)
  13 Li     3.234074    3.234074   11.617037    ( 0.0000,  0.0000,  0.0000)
  14 Li     6.468148    3.234074   11.617037    ( 0.0000,  0.0000,  0.0000)
  15 Li     0.000000    6.468148   11.617037    ( 0.0000,  0.0000,  0.0000)
  16 Li     3.234074    6.468148   11.617037    ( 0.0000,  0.0000,  0.0000)
  17 Li     6.468148    6.468148   11.617037    ( 0.0000,  0.0000,  0.0000)
  18 Li     1.617846    1.617659   13.468437    ( 0.0000,  0.0000,  0.0000)
  19 Li     4.851173    1.616769   13.471183    ( 0.0000,  0.0000,  0.0000)
  20 Li     8.084317    1.617504   13.467449    ( 0.0000,  0.0000,  0.0000)
  21 Li     1.616685    4.850842   13.471122    ( 0.0000,  0.0000,  0.0000)
  22 Li     4.850954    4.851246   13.469933    ( 0.0000,  0.0000,  0.0000)
  23 Li     8.085604    4.850989   13.470903    ( 0.0000,  0.0000,  0.0000)
  24 Li     1.617512    8.084746   13.469068    ( 0.0000,  0.0000,  0.0000)
  25 Li     4.851221    8.085355   13.471106    ( 0.0000,  0.0000,  0.0000)
  26 Li     8.084608    8.084766   13.468844    ( 0.0000,  0.0000,  0.0000)
  27 Li     0.003382   -0.011954   15.316959    ( 0.0000,  0.0000,  0.0000)
  28 Li     3.235671   -0.000590   15.443061    ( 0.0000,  0.0000,  0.0000)
  29 Li     6.467191   -0.000638   15.444629    ( 0.0000,  0.0000,  0.0000)
  30 Li    -0.000053    3.227506   15.451040    ( 0.0000,  0.0000,  0.0000)
  31 Li     3.234630    3.235385   15.444393    ( 0.0000,  0.0000,  0.0000)
  32 Li     6.467159    3.235226   15.445276    ( 0.0000,  0.0000,  0.0000)
  33 Li     0.000032    6.466718   15.444500    ( 0.0000,  0.0000,  0.0000)
  34 Li     3.234224    6.467362   15.444749    ( 0.0000,  0.0000,  0.0000)
  35 Li     6.467911    6.467896   15.445386    ( 0.0000,  0.0000,  0.0000)
  36 O      9.744215    9.678316   18.591384    ( 0.0000,  0.0000,  0.0000)
  37 C     12.143930    9.312918   18.451706    ( 0.0000,  0.0000,  0.0000)
  38 C     11.012161   10.316226   18.483258    ( 0.0000,  0.0000,  0.0000)
  39 C     13.517465    9.975637   18.454469    ( 0.0000,  0.0000,  0.0000)
  40 H     12.020398    8.667982   19.322938    ( 0.0000,  0.0000,  0.0000)
  41 H     12.041442    8.671570   17.561560    ( 0.0000,  0.0000,  0.0000)
  42 H     11.027046   10.954359   19.348697    ( 0.0000,  0.0000,  0.0000)
  43 H     11.097418   10.991914   17.595038    ( 0.0000,  0.0000,  0.0000)
  44 H     13.650358   10.604087   19.338076    ( 0.0000,  0.0000,  0.0000)
  45 H     14.314666    9.231667   18.452498    ( 0.0000,  0.0000,  0.0000)
  46 H     13.659445   10.613806   17.574667    ( 0.0000,  0.0000,  0.0000)
  47 H      9.650720    9.095253   17.727027    ( 0.0000,  0.0000,  0.0000)
  48 N      9.651751    9.724797   16.871011    ( 0.0000,  0.0000,  0.0000)
  49 N      9.663173   10.855119   16.857141    ( 0.0000,  0.0000,  0.0000)

Unit cell:
           periodic     x           y           z      points  spacing
  1. axis:    yes    9.702222    0.000000    0.000000    60     0.1617
  2. axis:    yes    0.000000    9.702222    0.000000    60     0.1617
  3. axis:    no     0.000000    0.000000   26.351111   164     0.1607

  Lengths:   9.702222   9.702222  26.351111
  Angles:   90.000000  90.000000  90.000000

Effective grid spacing dv^(1/3) = 0.1614

     iter     time        total  log10-change:
                         energy  eigst   dens
iter:   1 19:57:38  -326.908502  -0.72
iter:   2 19:57:45  -326.896196  -1.35  -2.00
iter:   3 19:57:52  -326.889423c -1.76  -2.04
iter:   4 19:58:00  -326.874419c -1.45  -2.09
Writing to output.gpw (mode='')

iter:   5 19:58:07  -326.880394c -2.07  -2.17
iter:   6 19:58:14  -326.879482c -2.68  -2.28
iter:   7 19:58:22  -326.870395c -1.98  -2.29
iter:   8 19:58:29  -326.869662c -2.62  -2.56
iter:   9 19:58:37  -326.869435c -2.57  -2.41
Writing to output.gpw (mode='')

iter:  10 19:58:44  -326.868563c -3.10  -2.66
iter:  11 19:58:51  -326.869096c -3.05  -2.85
iter:  12 19:58:59  -326.869050c -3.24  -2.93
iter:  13 19:59:06  -326.868752c -3.60  -3.01
iter:  14 19:59:13  -326.868500c -3.87  -3.05
Writing to output.gpw (mode='')

iter:  15 19:59:21  -326.868550c -3.94  -3.19
iter:  16 19:59:28  -326.868513c -4.37  -3.34
iter:  17 19:59:35  -326.868505c -4.20  -3.40
iter:  18 19:59:48  -326.868526c -4.18  -3.72
iter:  19 19:59:57  -326.868516c -4.69  -3.61
Writing to output.gpw (mode='')

iter:  20 20:00:05  -326.868536c -4.82  -3.67
iter:  21 20:00:12  -326.868537c -4.88  -3.82
iter:  22 20:00:19  -326.868569c -5.17  -3.94
iter:  23 20:00:27  -326.868562c -5.28  -3.93
iter:  24 20:00:34  -326.868540c -5.16  -4.02c
Writing to output.gpw (mode='')

iter:  25 20:00:41  -326.868548c -5.56  -4.37c
iter:  26 20:00:49  -326.868549c -5.70  -4.69c
iter:  27 20:00:56  -326.868549c -5.78  -4.70c
iter:  28 20:01:04  -326.868550c -6.03  -4.73c
iter:  29 20:01:11  -326.868551c -6.09  -4.76c
Writing to output.gpw (mode='')

iter:  30 20:01:18  -326.868551c -6.01  -4.82c
iter:  31 20:01:25  -326.868551c -6.37  -4.93c
iter:  32 20:01:33  -326.868553c -6.41  -4.97c
iter:  33 20:01:40  -326.868552c -6.50  -5.12c
iter:  34 20:01:47  -326.868552c -6.45  -5.27c
Writing to output.gpw (mode='')

iter:  35 20:01:55  -326.868552c -6.33  -5.30c
iter:  36 20:02:02  -326.868553c -6.55  -5.29c
iter:  37 20:02:09  -326.868553c -6.74  -5.40c
iter:  38 20:02:17  -326.868553c -6.68  -5.43c
iter:  39 20:02:24  -326.868553c -6.76  -5.56c
Writing to output.gpw (mode='')

iter:  40 20:02:31  -326.868553c -6.94  -5.60c
iter:  41 20:02:39  -326.868553c -6.95  -5.51c
iter:  42 20:02:46  -326.868553c -7.13  -5.53c
iter:  43 20:02:53  -326.868553c -7.35  -5.63c
iter:  44 20:03:00  -326.868553c -7.37  -5.61c
Writing to output.gpw (mode='')

iter:  45 20:03:08  -326.868554c -7.49c -5.50c

Converged after 45 iterations.

Dipole moment: (-9.896899, -13.750310, 0.058259) |e|*Ang

Energy contributions relative to reference atoms: (reference = -15487.462483)

Kinetic:       +207.337542
Potential:     -187.573026
External:        +0.000000
XC:            -347.369491
Entropy (-ST):   -0.156854
Local:           +0.814848
--------------------------
Free energy:   -326.946981
Extrapolated:  -326.868554

Dipole-layer corrected work functions: 3.411252, 3.299258 eV

Showing only first 2 kpts
 Kpt  Band  Eigenvalues  Occupancy
  0    34     -3.60341    1.98612
  0    35     -3.51508    1.92140
  0    36     -3.27786    0.35078
  0    37     -3.10534    0.01341

  1    34     -3.40034    1.42256
  1    35     -3.35008    0.94830
  1    36     -3.29676    0.47378
  1    37     -3.23007    0.15121


Fermi level: -3.35525

No gap

Forces in eV/Ang:
  0 Li    0.01580    0.00716   -0.27853
  1 Li   -0.00367    0.00045   -0.26304
  2 Li   -0.01153    0.00554   -0.28235
  3 Li   -0.00473    0.00515   -0.25957
  4 Li   -0.00008   -0.00047   -0.29012
  5 Li    0.00324    0.01002   -0.27091
  6 Li    0.00380   -0.01303   -0.28175
  7 Li    0.00188    0.00488   -0.26264
  8 Li   -0.00361   -0.01869   -0.28192
  9 Li   -0.00476    0.00433    0.35578
 10 Li    0.01229    0.00104    0.26723
 11 Li   -0.01213   -0.00106    0.25514
 12 Li    0.00062    0.00912    0.27597
 13 Li    0.01479    0.00503    0.24809
 14 Li   -0.00952    0.00389    0.26211
 15 Li   -0.00059   -0.00410    0.24264
 16 Li    0.00026   -0.01301    0.24922
 17 Li    0.00125   -0.00420    0.25237
 18 Li    0.04356    0.03530   -0.06413
 19 Li    0.00440   -0.01264    0.07117
 20 Li   -0.04645    0.02827   -0.11689
 21 Li   -0.01700   -0.01392    0.06878
 22 Li   -0.00863    0.00648    0.00997
 23 Li    0.02072   -0.00746    0.05976
 24 Li    0.02953   -0.02815   -0.03769
 25 Li    0.00630    0.00728    0.06829
 26 Li   -0.03480   -0.02767   -0.05046
 27 Li    0.23372   -0.52566   -5.59414
 28 Li    0.08309   -0.02691   -0.14916
 29 Li   -0.05537   -0.03382   -0.07319
 30 Li   -0.00029   -0.30850    0.23177
 31 Li    0.02570    0.06217   -0.07682
 32 Li   -0.05152    0.05950   -0.03580
 33 Li    0.00235   -0.06743   -0.06928
 34 Li    0.00532   -0.03750   -0.05856
 35 Li   -0.01118   -0.01173   -0.02715
 36 O     1.84410   -0.94468    8.88357
 37 C     0.28836   -0.07016    0.25419
 38 C     1.22291   -0.29855    2.49387
 39 C     0.04139   -0.03664    0.12675
 40 H     0.14631   -0.19904    0.00358
 41 H    -0.04835   -0.04588    0.08902
 42 H     0.39747    0.35079    0.52307
 43 H     0.44826    0.02284    1.24463
 44 H     0.01176    0.04515    0.01130
 45 H     0.05451   -0.03911   -0.02310
 46 H     0.05475    0.05995    0.03591
 47 H    -0.18905   -3.17913    2.91332
 48 N    -2.66104   -0.02641   -5.74607
 49 N    -1.82832    5.27885   -4.86293

System changes: positions 

Initializing position-dependent things.

Density initialized from wave functions
       .-----------------------.  
      /|                       |  
     / |                       |  
    /  |                       |  
   /   |                       |  
  /    |                       |  
 *     |                       |  
 |     |                       |  
 |     |                       |  
 |     O    H                  |  
 |     |     C    H            |  
 |     |    H                  H  
 |     |                       |  
 |     Li      Li      Li      |  
 |   H |   H                   |  
 |   Ci|   C Li      Li        |  
 |   H |   H                   |  
 | Li  |  LLi     LLi     Ni   |  
 |     |                 N     |  
 |     |Li      Li      Li     |  
 |   Li|     Li      Li        |  
 |    Li  Li  Li  Li  Li  Li   |  
 | Li  |   Li      Li          |  
 |     |Li      Li      Li     |  
 Li    | Li      Li            |  
 |    Li      Li      Li       |  
 |     |                       |  
 |     |                       |  
 |     |                       |  
 |     |                       |  
 |     |                       |  
 |     |                       |  
 |     .-----------------------.  
 |    /                       /   
 |   /                       /    
 |  /                       /     
 | /                       /      
 |/                       /       
 *-----------------------*        

Positions:
   0 Li     1.617037    1.617037   10.000000    ( 0.0000,  0.0000,  0.0000)
   1 Li     4.851111    1.617037   10.000000    ( 0.0000,  0.0000,  0.0000)
   2 Li     8.085185    1.617037   10.000000    ( 0.0000,  0.0000,  0.0000)
   3 Li     1.617037    4.851111   10.000000    ( 0.0000,  0.0000,  0.0000)
   4 Li     4.851111    4.851111   10.000000    ( 0.0000,  0.0000,  0.0000)
   5 Li     8.085185    4.851111   10.000000    ( 0.0000,  0.0000,  0.0000)
   6 Li     1.617037    8.085185   10.000000    ( 0.0000,  0.0000,  0.0000)
   7 Li     4.851111    8.085185   10.000000    ( 0.0000,  0.0000,  0.0000)
   8 Li     8.085185    8.085185   10.000000    ( 0.0000,  0.0000,  0.0000)
   9 Li     0.000000    0.000000   11.617037    ( 0.0000,  0.0000,  0.0000)
  10 Li     3.234074    0.000000   11.617037    ( 0.0000,  0.0000,  0.0000)
  11 Li     6.468148    0.000000   11.617037    ( 0.0000,  0.0000,  0.0000)
  12 Li     0.000000    3.234074   11.617037    ( 0.0000,  0.0000,  0.0000)
  13 Li     3.234074    3.234074   11.617037    ( 0.0000,  0.0000,  0.0000)
  14 Li     6.468148    3.234074   11.617037    ( 0.0000,  0.0000,  0.0000)
  15 Li     0.000000    6.468148   11.617037    ( 0.0000,  0.0000,  0.0000)
  16 Li     3.234074    6.468148   11.617037    ( 0.0000,  0.0000,  0.0000)
  17 Li     6.468148    6.468148   11.617037    ( 0.0000,  0.0000,  0.0000)
  18 Li     1.618230    1.618081   13.467813    ( 0.0000,  0.0000,  0.0000)
  19 Li     4.851238    1.616652   13.471764    ( 0.0000,  0.0000,  0.0000)
  20 Li     8.083895    1.617837   13.466289    ( 0.0000,  0.0000,  0.0000)
  21 Li     1.616561    4.850727   13.471686    ( 0.0000,  0.0000,  0.0000)
  22 Li     4.850852    4.851291   13.470030    ( 0.0000,  0.0000,  0.0000)
  23 Li     8.085771    4.850932   13.471432    ( 0.0000,  0.0000,  0.0000)
  24 Li     1.617873    8.084366   13.468555    ( 0.0000,  0.0000,  0.0000)
  25 Li     4.851289    8.085433   13.471691    ( 0.0000,  0.0000,  0.0000)
  26 Li     8.084188    8.084417   13.468208    ( 0.0000,  0.0000,  0.0000)
  27 Li     0.006546   -0.015689   15.277260    ( 0.0000,  0.0000,  0.0000)
  28 Li     3.236213   -0.000761   15.442115    ( 0.0000,  0.0000,  0.0000)
  29 Li     6.466757   -0.000954   15.444093    ( 0.0000,  0.0000,  0.0000)
  30 Li     0.000009    3.224859   15.453095    ( 0.0000,  0.0000,  0.0000)
  31 Li     3.234768    3.235843   15.443808    ( 0.0000,  0.0000,  0.0000)
  32 Li     6.466679    3.235801   15.444951    ( 0.0000,  0.0000,  0.0000)
  33 Li     0.000069    6.466194   15.443975    ( 0.0000,  0.0000,  0.0000)
  34 Li     3.234262    6.467073   15.444265    ( 0.0000,  0.0000,  0.0000)
  35 Li     6.467800    6.467763   15.445141    ( 0.0000,  0.0000,  0.0000)
  36 O      9.760413    9.669092   18.620438    ( 0.0000,  0.0000,  0.0000)
  37 C     12.147459    9.312637   18.454025    ( 0.0000,  0.0000,  0.0000)
  38 C     11.014477   10.313353   18.495906    ( 0.0000,  0.0000,  0.0000)
  39 C     13.518747    9.975187   18.455130    ( 0.0000,  0.0000,  0.0000)
  40 H     12.021998    8.665896   19.323241    ( 0.0000,  0.0000,  0.0000)
  41 H     12.040755    8.671738   17.562570    ( 0.0000,  0.0000,  0.0000)
  42 H     11.032113   10.959092   19.355430    ( 0.0000,  0.0000,  0.0000)
  43 H     11.099388   10.990677   17.606145    ( 0.0000,  0.0000,  0.0000)
  44 H     13.650516   10.604397   19.338229    ( 0.0000,  0.0000,  0.0000)
  45 H     14.315486    9.231436   18.452360    ( 0.0000,  0.0000,  0.0000)
  46 H     13.659802   10.614113   17.575194    ( 0.0000,  0.0000,  0.0000)
  47 H      9.651781    9.104912   17.745923    ( 0.0000,  0.0000,  0.0000)
  48 N      9.625768    9.726933   16.849613    ( 0.0000,  0.0000,  0.0000)
  49 N      9.652731   10.861668   16.838022    ( 0.0000,  0.0000,  0.0000)

Unit cell:
           periodic     x           y           z      points  spacing
  1. axis:    yes    9.702222    0.000000    0.000000    60     0.1617
  2. axis:    yes    0.000000    9.702222    0.000000    60     0.1617
  3. axis:    no     0.000000    0.000000   26.351111   164     0.1607

  Lengths:   9.702222   9.702222  26.351111
  Angles:   90.000000  90.000000  90.000000

Effective grid spacing dv^(1/3) = 0.1614

     iter     time        total  log10-change:
                         energy  eigst   dens
iter:   1 20:03:17  -327.778677  -0.78
iter:   2 20:03:24  -327.781927  -1.44  -2.11
iter:   3 20:03:32  -327.774802c -1.97  -2.04
iter:   4 20:03:39  -327.770308c -1.83  -2.30
Writing to output.gpw (mode='')

iter:   5 20:03:47  -327.767051c -2.11  -2.37
iter:   6 20:03:54  -327.766509c -2.43  -2.58
iter:   7 20:04:01  -327.767140c -2.59  -2.58
iter:   8 20:04:09  -327.766696c -3.13  -2.74
iter:   9 20:04:17  -327.766334c -2.96  -2.85
Writing to output.gpw (mode='')

iter:  10 20:04:24  -327.766597c -3.45  -2.90
iter:  11 20:04:31  -327.766505c -3.66  -3.04
iter:  12 20:04:39  -327.766535c -3.81  -3.10
iter:  13 20:04:51  -327.766405c -4.02  -3.34
iter:  14 20:04:58  -327.766511c -4.05  -3.36
Writing to output.gpw (mode='')

iter:  15 20:05:06  -327.766505c -4.61  -3.68
iter:  16 20:05:13  -327.766509c -4.53  -3.69
iter:  17 20:05:21  -327.766515c -4.97  -3.83
iter:  18 20:05:28  -327.766523c -4.84  -3.94
iter:  19 20:05:35  -327.766525c -4.82  -4.04c
Writing to output.gpw (mode='')

iter:  20 20:05:43  -327.766533c -5.20  -4.09c
iter:  21 20:05:50  -327.766527c -5.39  -4.13c
iter:  22 20:05:58  -327.766535c -5.37  -4.30c
iter:  23 20:06:05  -327.766537c -5.38  -4.42c
iter:  24 20:06:12  -327.766536c -5.75  -4.48c
Writing to output.gpw (mode='')

iter:  25 20:06:20  -327.766534c -5.94  -4.78c
iter:  26 20:06:27  -327.766536c -5.77  -4.81c
iter:  27 20:06:34  -327.766536c -6.02  -4.89c
iter:  28 20:06:42  -327.766536c -6.09  -4.96c
iter:  29 20:06:49  -327.766536c -6.26  -5.01c
Writing to output.gpw (mode='')

iter:  30 20:06:57  -327.766536c -6.35  -5.13c
iter:  31 20:07:04  -327.766536c -6.59  -5.18c
iter:  32 20:07:11  -327.766536c -6.42  -5.21c
iter:  33 20:07:19  -327.766536c -6.68  -5.25c
iter:  34 20:07:27  -327.766538c -6.75  -5.28c
Writing to output.gpw (mode='')

iter:  35 20:07:34  -327.766537c -6.71  -5.31c
iter:  36 20:07:41  -327.766537c -6.55  -5.50c
iter:  37 20:07:49  -327.766537c -7.00  -5.51c
iter:  38 20:07:56  -327.766537c -7.07  -5.58c
iter:  39 20:08:04  -327.766537c -7.35  -5.62c
Writing to output.gpw (mode='')

iter:  40 20:08:11  -327.766537c -7.28  -5.61c
iter:  41 20:08:18  -327.766537c -7.30  -5.64c
iter:  42 20:08:26  -327.766537c -7.51c -5.98c

Converged after 42 iterations.

Dipole moment: (-7.226387, -13.066800, 0.028934) |e|*Ang

Energy contributions relative to reference atoms: (reference = -15487.462483)

Kinetic:       +203.574359
Potential:     -185.263150
External:        +0.000000
XC:            -346.811732
Entropy (-ST):   -0.155778
Local:           +0.811875
--------------------------
Free energy:   -327.844426
Extrapolated:  -327.766537

Dipole-layer corrected work functions: 3.412795, 3.357174 eV

Showing only first 2 kpts
 Kpt  Band  Eigenvalues  Occupancy
  0    34     -3.63043    1.98535
  0    35     -3.55535    1.93587
  0    36     -3.30309    0.32549
  0    37     -3.13586    0.01362

  1    34     -3.42359    1.36792
  1    35     -3.37759    0.92623
  1    36     -3.33648    0.54975
  1    37     -3.25527    0.13900


Fermi level: -3.38498

No gap
Writing to output.gpw (mode='')


Forces in eV/Ang:
  0 Li    0.01560    0.00750   -0.27922
  1 Li   -0.00457    0.00069   -0.26368
  2 Li   -0.01057    0.00597   -0.28310
  3 Li   -0.00532    0.00468   -0.25893
  4 Li    0.00018   -0.00085   -0.29150
  5 Li    0.00380    0.01052   -0.27064
  6 Li    0.00338   -0.01276   -0.28263
  7 Li    0.00207    0.00528   -0.26219
  8 Li   -0.00324   -0.01917   -0.28335
  9 Li   -0.00491    0.00344    0.35889
 10 Li    0.01141    0.00168    0.26946
 11 Li   -0.01094   -0.00066    0.25737
 12 Li    0.00042    0.01101    0.27408
 13 Li    0.01537    0.00492    0.24752
 14 Li   -0.00925    0.00413    0.26209
 15 Li   -0.00082   -0.00452    0.24415
 16 Li    0.00312   -0.01362    0.24777
 17 Li   -0.00135   -0.00525    0.25154
 18 Li    0.04469    0.04224   -0.06716
 19 Li    0.00618   -0.01250    0.06893
 20 Li   -0.04772    0.03481   -0.12411
 21 Li   -0.01580   -0.01318    0.06686
 22 Li   -0.01001    0.00542    0.01074
 23 Li    0.01997   -0.00774    0.06052
 24 Li    0.03779   -0.03804   -0.05009
 25 Li    0.00745    0.00762    0.06804
 26 Li   -0.04331   -0.03696   -0.06395
 27 Li    0.31316   -0.43857   -5.03927
 28 Li    0.07695   -0.02346   -0.13529
 29 Li   -0.05410   -0.03539   -0.07004
 30 Li    0.00365   -0.30529    0.22766
 31 Li    0.02252    0.05801   -0.07345
 32 Li   -0.05414    0.06359   -0.03745
 33 Li    0.00342   -0.06134   -0.06383
 34 Li    0.00448   -0.03593   -0.05716
 35 Li   -0.01247   -0.01352   -0.02796
 36 O     1.72101   -0.88211    7.57817
 37 C     0.28355   -0.05808    0.24730
 38 C     1.04312   -0.24793    2.19272
 39 C     0.07398   -0.03182    0.11405
 40 H     0.17126   -0.20884    0.01015
 41 H    -0.05553   -0.01699    0.10134
 42 H     0.44119    0.36343    0.53720
 43 H     0.33841   -0.01798    1.14892
 44 H     0.02213    0.04126    0.01533
 45 H     0.08132   -0.03810   -0.01988
 46 H     0.05341    0.05277    0.04041
 47 H    -0.13215   -2.37741    2.70825
 48 N    -2.74887    0.02306   -5.10280
 49 N    -1.59950    4.19922   -4.22940

System changes: positions 

Initializing position-dependent things.

Density initialized from wave functions
       .-----------------------.  
      /|                       |  
     / |                       |  
    /  |                       |  
   /   |                       |  
  /    |                       |  
 *     |                       |  
 |     |                       |  
 |     |                       |  
 |     O    H                  |  
 |     |     C    H            |  
 |     |    H                  H  
 |     |                       |  
 |     |       Li      Li      |  
 |   H Li  H                   |  
 |   Ci|   C Li      Li        |  
 |   H |   H                   |  
 | Li  |  LLi     LLi     Ni   |  
 |     |                 N     |  
 |     |Li      Li      Li     |  
 |   Li|     Li      Li        |  
 |    Li  Li  Li  Li  Li  Li   |  
 | Li  |   Li      Li          |  
 |     |Li      Li      Li     |  
 Li    | Li      Li            |  
 |    Li      Li      Li       |  
 |     |                       |  
 |     |                       |  
 |     |                       |  
 |     |                       |  
 |     |                       |  
 |     |                       |  
 |     .-----------------------.  
 |    /                       /   
 |   /                       /    
 |  /                       /     
 | /                       /      
 |/                       /       
 *-----------------------*        

Positions:
   0 Li     1.617037    1.617037   10.000000    ( 0.0000,  0.0000,  0.0000)
   1 Li     4.851111    1.617037   10.000000    ( 0.0000,  0.0000,  0.0000)
   2 Li     8.085185    1.617037   10.000000    ( 0.0000,  0.0000,  0.0000)
   3 Li     1.617037    4.851111   10.000000    ( 0.0000,  0.0000,  0.0000)
   4 Li     4.851111    4.851111   10.000000    ( 0.0000,  0.0000,  0.0000)
   5 Li     8.085185    4.851111   10.000000    ( 0.0000,  0.0000,  0.0000)
   6 Li     1.617037    8.085185   10.000000    ( 0.0000,  0.0000,  0.0000)
   7 Li     4.851111    8.085185   10.000000    ( 0.0000,  0.0000,  0.0000)
   8 Li     8.085185    8.085185   10.000000    ( 0.0000,  0.0000,  0.0000)
   9 Li     0.000000    0.000000   11.617037    ( 0.0000,  0.0000,  0.0000)
  10 Li     3.234074    0.000000   11.617037    ( 0.0000,  0.0000,  0.0000)
  11 Li     6.468148    0.000000   11.617037    ( 0.0000,  0.0000,  0.0000)
  12 Li     0.000000    3.234074   11.617037    ( 0.0000,  0.0000,  0.0000)
  13 Li     3.234074    3.234074   11.617037    ( 0.0000,  0.0000,  0.0000)
  14 Li     6.468148    3.234074   11.617037    ( 0.0000,  0.0000,  0.0000)
  15 Li     0.000000    6.468148   11.617037    ( 0.0000,  0.0000,  0.0000)
  16 Li     3.234074    6.468148   11.617037    ( 0.0000,  0.0000,  0.0000)
  17 Li     6.468148    6.468148   11.617037    ( 0.0000,  0.0000,  0.0000)
  18 Li     1.618682    1.618630   13.467079    ( 0.0000,  0.0000,  0.0000)
  19 Li     4.851330    1.616523   13.472403    ( 0.0000,  0.0000,  0.0000)
  20 Li     8.083401    1.618287   13.464906    ( 0.0000,  0.0000,  0.0000)
[...]

Kinetic:       +165.895903
Potential:     -159.516916
External:        +0.000000
XC:            -342.880025
Entropy (-ST):   -0.163733
Local:           +0.829452
--------------------------
Free energy:   -335.835319
Extrapolated:  -335.753453

Dipole-layer corrected work functions: 3.398062, 2.611630 eV

Showing only first 2 kpts
 Kpt  Band  Eigenvalues  Occupancy
  0    34     -3.23265    1.97921
  0    35     -3.03601    1.30190
  0    36     -2.97610    0.72024
  0    37     -2.80641    0.03709

  1    34     -3.25861    1.98758
  1    35     -3.16772    1.92588
  1    36     -2.92741    0.35053
  1    37     -2.75624    0.01376


Fermi level: -3.00485

No gap
Writing to output.gpw (mode='')


Forces in eV/Ang:
  0 Li   -0.00551    0.01290   -0.29706
  1 Li    0.00467   -0.01303   -0.29575
  2 Li   -0.00050   -0.00183   -0.24955
  3 Li    0.00589    0.00459   -0.28585
  4 Li   -0.01445    0.01281   -0.28560
  5 Li    0.01262   -0.00481   -0.29965
  6 Li    0.01498   -0.02076   -0.28891
  7 Li   -0.00548   -0.00574   -0.28739
  8 Li   -0.01435    0.00358   -0.29209
  9 Li   -0.04624    0.04726    0.25113
 10 Li   -0.00442    0.03297    0.30318
 11 Li    0.05126    0.04966    0.31277
 12 Li   -0.05919   -0.01605    0.31652
 13 Li    0.00640   -0.00703    0.28834
 14 Li    0.06944   -0.04588    0.27570
 15 Li   -0.04750    0.01469    0.27607
 16 Li    0.01554   -0.00326    0.28320
 17 Li    0.03547    0.00158    0.26792
 18 Li   -0.00060   -0.00814    0.01385
 19 Li    0.00319    0.00112    0.00039
 20 Li   -0.00286   -0.00268    0.00879
 21 Li   -0.00665    0.00276    0.00502
 22 Li    0.00623   -0.00367   -0.00867
 23 Li    0.00984   -0.00204    0.00151
 24 Li    0.00357   -0.00127    0.00183
 25 Li    0.00455   -0.01196    0.00173
 26 Li   -0.00213   -0.00795   -0.00133
 27 Li   -0.01953    0.01680   -0.00770
 28 Li   -0.00726    0.00634   -0.00438
 29 Li    0.00338    0.00809   -0.00393
 30 Li    0.00264   -0.01293   -0.00116
 31 Li    0.00499   -0.00266    0.00464
 32 Li    0.00839    0.00692    0.01009
 33 Li    0.00021   -0.00910   -0.00412
 34 Li    0.00370   -0.00273   -0.00471
 35 Li   -0.00440   -0.00654    0.00238
 36 O     0.00682    0.03016    0.04728
 37 C     0.00683    0.00639    0.00862
 38 C     0.03160    0.01594    0.01230
 39 C    -0.01970   -0.01539    0.00406
 40 H    -0.01233    0.00335   -0.01308
 41 H     0.00568   -0.01728    0.02574
 42 H    -0.00126   -0.01346   -0.01510
 43 H    -0.01752    0.02135   -0.02637
 44 H    -0.01680    0.02700   -0.01541
 45 H     0.00876   -0.00601   -0.00536
 46 H    -0.02615   -0.01273    0.00565
 47 H     0.01530   -0.03096    0.01345
 48 N     0.00209    0.01567   -0.03009
 49 N     0.01693    0.01431   -0.00760

System changes: positions 

Initializing position-dependent things.

Density initialized from wave functions
       .-----------------------.  
      /|                       |  
     / |                       |  
    /  |                       |  
   /   |                       |  
  /    |                       |  
 *     |                       |  
 |     |                       |  
 |     |                       |  
 |     |   H C    H            |  
 |     |O                     H|  
 |     |     H                 |  
 |     |                       |  
 |     |  H            Li      |  
 |  H  |  C    Li              |  
 |   CH|    HLi      Li        |  
 |     |                       |  
 | Li  |  LLi     LLi     Li   |  
 |     |             N N Li    |  
 |     |Li      Li      Li     |  
 |   Li|     Li      LLi       |  
 |    Li  Li  Li  Li      Li   |  
 | Li  |   Li      Li          |  
 |     |Li      Li      Li     |  
 Li    | Li      Li            |  
 |    Li      Li      Li       |  
 |     |                       |  
 |     |                       |  
 |     |                       |  
 |     |                       |  
 |     |                       |  
 |     |                       |  
 |     .-----------------------.  
 |    /                       /   
 |   /                       /    
 |  /                       /     
 | /                       /      
 |/                       /       
 *-----------------------*        

Positions:
   0 Li     1.617037    1.617037   10.000000    ( 0.0000,  0.0000,  0.0000)
   1 Li     4.851111    1.617037   10.000000    ( 0.0000,  0.0000,  0.0000)
   2 Li     8.085185    1.617037   10.000000    ( 0.0000,  0.0000,  0.0000)
   3 Li     1.617037    4.851111   10.000000    ( 0.0000,  0.0000,  0.0000)
   4 Li     4.851111    4.851111   10.000000    ( 0.0000,  0.0000,  0.0000)
   5 Li     8.085185    4.851111   10.000000    ( 0.0000,  0.0000,  0.0000)
   6 Li     1.617037    8.085185   10.000000    ( 0.0000,  0.0000,  0.0000)
   7 Li     4.851111    8.085185   10.000000    ( 0.0000,  0.0000,  0.0000)
   8 Li     8.085185    8.085185   10.000000    ( 0.0000,  0.0000,  0.0000)
   9 Li     0.000000    0.000000   11.617037    ( 0.0000,  0.0000,  0.0000)
  10 Li     3.234074    0.000000   11.617037    ( 0.0000,  0.0000,  0.0000)
  11 Li     6.468148    0.000000   11.617037    ( 0.0000,  0.0000,  0.0000)
  12 Li     0.000000    3.234074   11.617037    ( 0.0000,  0.0000,  0.0000)
  13 Li     3.234074    3.234074   11.617037    ( 0.0000,  0.0000,  0.0000)
  14 Li     6.468148    3.234074   11.617037    ( 0.0000,  0.0000,  0.0000)
  15 Li     0.000000    6.468148   11.617037    ( 0.0000,  0.0000,  0.0000)
  16 Li     3.234074    6.468148   11.617037    ( 0.0000,  0.0000,  0.0000)
  17 Li     6.468148    6.468148   11.617037    ( 0.0000,  0.0000,  0.0000)
  18 Li     1.570805    1.675363   13.489377    ( 0.0000,  0.0000,  0.0000)
  19 Li     4.890993    1.597088   13.464892    ( 0.0000,  0.0000,  0.0000)
  20 Li     8.131053    1.593996   13.641887    ( 0.0000,  0.0000,  0.0000)
  21 Li     1.635041    4.899239   13.467469    ( 0.0000,  0.0000,  0.0000)
  22 Li     4.919145    4.800141   13.469781    ( 0.0000,  0.0000,  0.0000)
  23 Li     8.103202    4.855605   13.489301    ( 0.0000,  0.0000,  0.0000)
  24 Li     1.548857    8.147078   13.445319    ( 0.0000,  0.0000,  0.0000)
  25 Li     4.857341    8.049011   13.456313    ( 0.0000,  0.0000,  0.0000)
  26 Li     8.059179    8.140790   13.515068    ( 0.0000,  0.0000,  0.0000)
  27 Li    -0.215350    0.331751   15.913420    ( 0.0000,  0.0000,  0.0000)
  28 Li     3.209405   -0.040483   15.237352    ( 0.0000,  0.0000,  0.0000)
  29 Li     6.350528   -0.086049   15.511289    ( 0.0000,  0.0000,  0.0000)
  30 Li     0.065127    3.457221   15.492659    ( 0.0000,  0.0000,  0.0000)
  31 Li     3.344175    3.282321   15.359733    ( 0.0000,  0.0000,  0.0000)
  32 Li     6.649035    3.025013   15.548806    ( 0.0000,  0.0000,  0.0000)
  33 Li     0.043898    6.618348   15.405858    ( 0.0000,  0.0000,  0.0000)
  34 Li     3.254214    6.453390   15.379412    ( 0.0000,  0.0000,  0.0000)
  35 Li     6.433753    6.375524   15.421536    ( 0.0000,  0.0000,  0.0000)
  36 O      9.963957    9.694705   17.802728    ( 0.0000,  0.0000,  0.0000)
  37 C     12.185274    9.278371   18.791800    ( 0.0000,  0.0000,  0.0000)
  38 C     11.054268   10.274099   18.574026    ( 0.0000,  0.0000,  0.0000)
  39 C     13.413804    9.929231   19.433030    ( 0.0000,  0.0000,  0.0000)
  40 H     11.832699    8.443158   19.405831    ( 0.0000,  0.0000,  0.0000)
  41 H     12.458755    8.853770   17.818430    ( 0.0000,  0.0000,  0.0000)
  42 H     10.666461   10.657741   19.522494    ( 0.0000,  0.0000,  0.0000)
  43 H     11.411426   11.127883   17.991004    ( 0.0000,  0.0000,  0.0000)
  44 H     13.189476   10.328926   20.425742    ( 0.0000,  0.0000,  0.0000)
  45 H     14.216337    9.197298   19.543808    ( 0.0000,  0.0000,  0.0000)
  46 H     13.798533   10.747262   18.815671    ( 0.0000,  0.0000,  0.0000)
  47 H      9.245904    9.434913   18.391800    ( 0.0000,  0.0000,  0.0000)
  48 N      7.624779   10.938360   15.677656    ( 0.0000,  0.0000,  0.0000)
  49 N      8.488386   11.844765   15.662785    ( 0.0000,  0.0000,  0.0000)

Unit cell:
           periodic     x           y           z      points  spacing
  1. axis:    yes    9.702222    0.000000    0.000000    60     0.1617
  2. axis:    yes    0.000000    9.702222    0.000000    60     0.1617
  3. axis:    no     0.000000    0.000000   26.351111   164     0.1607

  Lengths:   9.702222   9.702222  26.351111
  Angles:   90.000000  90.000000  90.000000

Effective grid spacing dv^(1/3) = 0.1614

     iter     time        total  log10-change:
                         energy  eigst   dens
iter:   1 09:57:22  -335.755309  -2.56
iter:   2 09:57:29  -335.754193  -3.19  -2.53
iter:   3 09:57:37  -335.753927c -3.98  -2.72
iter:   4 09:57:44  -335.753906c -4.47  -3.02
Writing to output.gpw (mode='')

iter:   5 09:57:51  -335.753856c -3.73  -3.07
iter:   6 09:57:59  -335.753853c -3.86  -3.47
iter:   7 09:58:06  -335.753821c -4.23  -3.52
iter:   8 09:58:13  -335.753811c -4.99  -3.66
iter:   9 09:58:21  -335.753791c -4.89  -3.72
Writing to output.gpw (mode='')

iter:  10 09:58:28  -335.753803c -5.53  -3.88
iter:  11 09:58:35  -335.753802c -5.78  -4.12c
iter:  12 09:58:42  -335.753806c -5.97  -4.16c
iter:  13 09:58:50  -335.753804c -5.93  -4.30c
iter:  14 09:58:57  -335.753804c -6.55  -4.41c
Writing to output.gpw (mode='')

iter:  15 09:59:04  -335.753802c -6.63  -4.51c
iter:  16 09:59:12  -335.753799c -6.60  -4.58c
iter:  17 09:59:19  -335.753799c -6.63  -4.62c
iter:  18 09:59:27  -335.753799c -7.05  -4.73c
iter:  19 09:59:34  -335.753800c -7.38  -4.76c
Writing to output.gpw (mode='')

iter:  20 09:59:48  -335.753799c -7.28  -4.95c
iter:  21 09:59:57  -335.753799c -7.51c -5.12c

Converged after 21 iterations.

Dipole moment: (-10.975574, -9.148640, 0.409000) |e|*Ang

Energy contributions relative to reference atoms: (reference = -15487.462483)

Kinetic:       +166.011369
Potential:     -159.606790
External:        +0.000000
XC:            -342.905987
Entropy (-ST):   -0.163735
Local:           +0.829476
--------------------------
Free energy:   -335.835667
Extrapolated:  -335.753799

Dipole-layer corrected work functions: 3.398131, 2.611893 eV

Showing only first 2 kpts
 Kpt  Band  Eigenvalues  Occupancy
  0    34     -3.23303    1.97930
  0    35     -3.03614    1.30162
  0    36     -2.97630    0.72049
  0    37     -2.80656    0.03708

  1    34     -3.25879    1.98758
  1    35     -3.16758    1.92545
  1    36     -2.92748    0.34999
  1    37     -2.75616    0.01369


Fermi level: -3.00501

No gap
Writing to output.gpw (mode='')


Forces in eV/Ang:
  0 Li   -0.00544    0.01288   -0.29709
  1 Li    0.00461   -0.01302   -0.29583
  2 Li   -0.00051   -0.00181   -0.24954
  3 Li    0.00588    0.00465   -0.28608
  4 Li   -0.01453    0.01286   -0.28533
  5 Li    0.01272   -0.00478   -0.29963
  6 Li    0.01505   -0.02065   -0.28884
  7 Li   -0.00546   -0.00578   -0.28758
  8 Li   -0.01430    0.00363   -0.29220
  9 Li   -0.04628    0.04706    0.25080
 10 Li   -0.00502    0.03259    0.30283
 11 Li    0.05126    0.04932    0.31305
 12 Li   -0.05825   -0.01732    0.31675
 13 Li    0.00535   -0.00745    0.28805
 14 Li    0.06984   -0.04604    0.27496
 15 Li   -0.04698    0.01503    0.27603
 16 Li    0.01421   -0.00300    0.28273
 17 Li    0.03600    0.00165    0.26737
 18 Li   -0.00210   -0.00453    0.01178
 19 Li    0.00293   -0.00037    0.00183
 20 Li   -0.00237   -0.00211    0.00888
 21 Li   -0.00564    0.00258    0.00521
 22 Li    0.00627   -0.00395   -0.00735
 23 Li    0.00872   -0.00194    0.00255
 24 Li    0.00317   -0.00374   -0.00036
 25 Li    0.00471   -0.00988    0.00335
 26 Li   -0.00159   -0.00824   -0.00169
 27 Li   -0.02142    0.02237   -0.00926
 28 Li   -0.00372    0.00626   -0.00308
 29 Li    0.00696    0.01208   -0.00169
 30 Li   -0.00094   -0.01773   -0.00122
 31 Li    0.00458   -0.00249    0.00451
 32 Li    0.00615    0.00815    0.00919
 33 Li    0.00011   -0.00702   -0.00421
 34 Li    0.00332   -0.00302   -0.00506
 35 Li   -0.00410   -0.00727    0.00294
 36 O    -0.00384    0.02710    0.02849
 37 C     0.01803    0.00679    0.01001
 38 C     0.01201    0.02078   -0.00466
 39 C     0.00755   -0.00939    0.00088
 40 H    -0.01215   -0.00889   -0.00925
 41 H     0.00532   -0.01954    0.02630
 42 H    -0.00568   -0.00241   -0.00295
 43 H    -0.01189    0.02181   -0.01770
 44 H    -0.02239    0.02084   -0.01620
 45 H     0.00743    0.00328   -0.00374
 46 H    -0.02546   -0.02234    0.00624
 47 H     0.01475   -0.03218    0.02200
 48 N    -0.00974    0.00512   -0.03775
 49 N     0.03185    0.01280    0.00135

Timing:                                      incl.     excl.
-------------------------------------------------------------------
Density initialized from wave functions:    11.779    11.776   0.0% |
 Symmetrize density:                         0.003     0.003   0.0% |
Forces:                                     87.777    87.777   0.2% |
Hamiltonian:                              1222.525     0.029   0.0% |
 Atomic:                                     0.051     0.050   0.0% |
  XC Correction:                             0.001     0.001   0.0% |
 Calculate atomic Hamiltonians:              0.092     0.092   0.0% |
 Communicate:                               22.028    22.028   0.0% |
 Hartree integrate/restrict:                 4.670     4.670   0.0% |
 Initialize Hamiltonian:                     0.000     0.000   0.0% |
 Poisson:                                   57.843    21.055   0.0% |
  Communicate from 1D:                       5.677     5.677   0.0% |
  Communicate from 2D:                       5.902     5.902   0.0% |
  Communicate to 1D:                         3.177     3.177   0.0% |
  Communicate to 2D:                         6.936     6.936   0.0% |
  FFT 1D:                                    7.787     7.787   0.0% |
  FFT 2D:                                    7.309     7.309   0.0% |
 XC 3D grid:                              1136.844   175.233   0.3% |
  VdW-DF integral:                         961.611     8.076   0.0% |
   Convolution:                             89.902    89.902   0.2% |
   FFT:                                     37.647    37.647   0.1% |
   gather:                                 337.333   337.333   0.6% |
   hmm1:                                    31.378    31.378   0.1% |
   hmm2:                                    43.926    43.926   0.1% |
   iFFT:                                    39.639    39.639   0.1% |
   potential:                              370.125    10.504   0.0% |
    collect:                                59.110    59.110   0.1% |
    p1:                                    170.085   170.085   0.3% |
    p2:                                     66.684    66.684   0.1% |
    sum:                                    63.742    63.742   0.1% |
   splines:                                  3.585     3.585   0.0% |
 vbar:                                       0.970     0.970   0.0% |
LCAO initialization:                         1.285     0.184   0.0% |
 LCAO eigensolver:                           0.313     0.000   0.0% |
  Calculate projections:                     0.000     0.000   0.0% |
  DenseAtomicCorrection:                     0.000     0.000   0.0% |
  Distribute overlap matrix:                 0.211     0.211   0.0% |
  Orbital Layouts:                           0.099     0.099   0.0% |
  Potential matrix:                          0.001     0.001   0.0% |
  Sum over cells:                            0.001     0.001   0.0% |
 LCAO to grid:                               0.614     0.614   0.0% |
 Set positions (LCAO WFS):                   0.174     0.100   0.0% |
  Basic WFS set positions:                   0.001     0.001   0.0% |
  Basis functions set positions:             0.000     0.000   0.0% |
  P tci:                                     0.000     0.000   0.0% |
  ST tci:                                    0.027     0.027   0.0% |
  mktci:                                     0.045     0.045   0.0% |
Redistribute:                                0.134     0.134   0.0% |
SCF-cycle:                               50849.173   916.488   1.7% ||
 Davidson:                               13647.921  4082.458   7.8% |--|
  Apply hamiltonian:                       854.231   854.231   1.6% ||
  Subspace diag:                          2541.495     0.982   0.0% |
   calc_h_matrix:                         1265.762   395.857   0.8% |
    Apply hamiltonian:                     869.906   869.906   1.7% ||
   diagonalize:                            138.438   138.438   0.3% |
   rotate_psi:                            1136.314  1136.314   2.2% ||
  calc. matrices:                         4293.398  2242.033   4.3% |-|
   Apply hamiltonian:                     2051.365  2051.365   3.9% |-|
  diagonalize:                              40.872    40.872   0.1% |
  rotate_psi:                             1835.466  1835.466   3.5% ||
 Density:                                  254.840     0.187   0.0% |
  Atomic density matrices:                  28.696    28.696   0.1% |
  Mix:                                     106.360   106.360   0.2% |
  Multipole moments:                        15.167    15.167   0.0% |
  Pseudo density:                          104.430   104.315   0.2% |
   Symmetrize density:                       0.116     0.116   0.0% |
 Hamiltonian:                            35988.533     0.852   0.0% |
  Atomic:                                    1.700     1.682   0.0% |
   XC Correction:                            0.018     0.018   0.0% |
  Calculate atomic Hamiltonians:             2.587     2.587   0.0% |
  Communicate:                             505.110   505.110   1.0% |
  Hartree integrate/restrict:              127.395   127.395   0.2% |
  Poisson:                                1726.397   634.804   1.2% |
   Communicate from 1D:                    168.912   168.912   0.3% |
   Communicate from 2D:                    179.410   179.410   0.3% |
   Communicate to 1D:                       95.757    95.757   0.2% |
   Communicate to 2D:                      204.872   204.872   0.4% |
   FFT 1D:                                 224.570   224.570   0.4% |
   FFT 2D:                                 218.072   218.072   0.4% |
  XC 3D grid:                            33596.775  5172.569   9.9% |---|
   VdW-DF integral:                      28424.206   238.633   0.5% |
    Convolution:                          2653.377  2653.377   5.1% |-|
    FFT:                                  1126.375  1126.375   2.1% ||
    gather:                               9917.280  9917.280  18.9% |-------|
    hmm1:                                  920.051   920.051   1.8% ||
    hmm2:                                 1220.346  1220.346   2.3% ||
    iFFT:                                 1168.508  1168.508   2.2% ||
    potential:                           11179.571   310.513   0.6% |
     collect:                             1733.148  1733.148   3.3% ||
     p1:                                  5019.641  5019.641   9.6% |---|
     p2:                                  1872.854  1872.854   3.6% ||
     sum:                                 2243.416  2243.416   4.3% |-|
    splines:                                 0.065     0.065   0.0% |
  vbar:                                     27.718    27.718   0.1% |
 Orthonormalize:                            41.392     0.030   0.0% |
  calc_s_matrix:                             6.133     6.133   0.0% |
  inverse-cholesky:                         12.224    12.224   0.0% |
  projections:                               0.005     0.005   0.0% |
  rotate_psi_s:                             23.000    23.000   0.0% |
Set symmetry:                                0.002     0.002   0.0% |
Other:                                     245.056   245.056   0.5% |
-------------------------------------------------------------------
Total:                                             52417.732 100.0%

Memory usage: 1.12 GiB
Date: Sat Mar 11 09:59:58 2023
