
  ___ ___ ___ _ _ _  
 |   |   |_  | | | | 
 | | | | | . | | | | 
 |__ |  _|___|_____|  22.8.0
 |___|_|             

User:   vazumah@r252.ib.bridges2.psc.edu
Date:   Wed Mar  8 21:49:44 2023
Arch:   x86_64
Pid:    61859
CWD:    /jet/home/vazumah/Calcs/N2_with_proton_donor/CH3CH2OH_y/ontop/9.702_9.702/N2_x
Python: 3.11.0
gpaw:   /jet/home/vazumah/.conda/envs/GPAW_mpich/lib/python3.11/site-packages/gpaw
_gpaw:  /jet/home/vazumah/.conda/envs/GPAW_mpich/lib/python3.11/site-packages/
        _gpaw.cpython-311-x86_64-linux-gnu.so
ase:    /jet/home/vazumah/.conda/envs/GPAW_mpich/lib/python3.11/site-packages/ase (version 3.22.1)
numpy:  /jet/home/vazumah/.conda/envs/GPAW_mpich/lib/python3.11/site-packages/numpy (version 1.24.2)
scipy:  /jet/home/vazumah/.conda/envs/GPAW_mpich/lib/python3.11/site-packages/scipy (version 1.10.1)
libxc:  5.2.3
units:  Angstrom and eV
cores: 128
OpenMP: True
OMP_NUM_THREADS: 1

Input parameters:
  h: 0.16
  kpts: {size: [4, 4, 1]}
  occupations: {name: fermi-dirac,
                width: 0.05}
  poissonsolver: {dipolelayer: xy}
  xc: BEEF-vdW

System changes: positions, numbers, cell, pbc, initial_charges, initial_magmoms 

Initialize ...

species:
  Li:
    name: Lithium
    id: 830b4218f175192f93f959cfc0aad614
    Z: 3.0
    valence: 1
    core: 2
    charge: 0.0
    file: /jet/home/vazumah/datasets/gpaw-setups-0.9.20000/Li.PBE.gz
    compensation charges: {type: gauss,
                           rc: 0.33,
                           lmax: 2}
    cutoffs: {filter: 1.91,
              core: 2.55}
    valence states:
      #              energy  rcut
      - 2s(1.00)    -2.874   1.058
      - 2p(0.00)    -1.090   1.058
      -  s          24.337   1.058
  
    # Using partial waves for Li as LCAO basis

  O:
    name: Oxygen
    id: 32ecd46bf208036f09c70b0ec9a88b78
    Z: 8.0
    valence: 6
    core: 2
    charge: 0.0
    file: /jet/home/vazumah/datasets/gpaw-setups-0.9.20000/O.PBE.gz
    compensation charges: {type: gauss,
                           rc: 0.21,
                           lmax: 2}
    cutoffs: {filter: 1.17,
              core: 0.83}
    valence states:
      #              energy  rcut
      - 2s(2.00)   -23.961   0.688
      - 2p(4.00)    -9.029   0.598
      -  s           3.251   0.688
      -  p          18.182   0.598
      -  d           0.000   0.619
  
    # Using partial waves for O as LCAO basis

  C:
    name: Carbon
    id: 4aa54d4b901d75f77cc0ea3eec22967b
    Z: 6.0
    valence: 4
    core: 2
    charge: 0.0
    file: /jet/home/vazumah/datasets/gpaw-setups-0.9.20000/C.PBE.gz
    compensation charges: {type: gauss,
                           rc: 0.20,
                           lmax: 2}
    cutoffs: {filter: 1.14,
              core: 1.14}
    valence states:
      #              energy  rcut
      - 2s(2.00)   -13.751   0.635
      - 2p(2.00)    -5.284   0.635
      -  s          13.461   0.635
      -  p          21.927   0.635
      -  d           0.000   0.635
  
    # Using partial waves for C as LCAO basis

  H:
    name: Hydrogen
    id: d65de229564ff8ea4db303e23b6d1ecf
    Z: 1.0
    valence: 1
    core: 0
    charge: 0.0
    file: /jet/home/vazumah/datasets/gpaw-setups-0.9.20000/H.PBE.gz
    compensation charges: {type: gauss,
                           rc: 0.15,
                           lmax: 2}
    cutoffs: {filter: 0.85,
              core: 0.53}
    valence states:
      #              energy  rcut
      - 1s(1.00)    -6.494   0.476
      -  s          20.717   0.476
      -  p           0.000   0.476
  
    # Using partial waves for H as LCAO basis

  N:
    name: Nitrogen
    id: f7500608b86eaa90eef8b1d9a670dc53
    Z: 7.0
    valence: 5
    core: 2
    charge: 0.0
    file: /jet/home/vazumah/datasets/gpaw-setups-0.9.20000/N.PBE.gz
    compensation charges: {type: gauss,
                           rc: 0.18,
                           lmax: 2}
    cutoffs: {filter: 1.11,
              core: 0.96}
    valence states:
      #              energy  rcut
      - 2s(2.00)   -18.583   0.603
      - 2p(3.00)    -7.089   0.529
      -  s           8.629   0.603
      -  p          20.123   0.529
      -  d           0.000   0.577
  
    # Using partial waves for N as LCAO basis

Reference energy: -14434.854043  # eV

Spin-paired calculation

Convergence criteria:
 Maximum [total energy] change in last 3 cyles: 0.0005 eV / electron
 Maximum integral of absolute [dens]ity change: 0.0001 electrons / valence electron
 Maximum integral of absolute [eigenst]ate change: 4e-08 eV^2 / valence electron
 Maximum number of scf [iter]ations: 333
 (Square brackets indicate name in SCF output, whereas a 'c' in
 the SCF output indicates the quantity has converged.)

Symmetries present (total): 1

  ( 1  0  0)
  ( 0  1  0)
  ( 0  0  1)

16 k-points: 4 x 4 x 1 Monkhorst-Pack grid
8 k-points in the irreducible part of the Brillouin zone
       k-points in crystal coordinates                weights
   0:     0.12500000   -0.37500000    0.00000000          2/16
   1:     0.12500000   -0.12500000    0.00000000          2/16
   2:     0.12500000    0.12500000    0.00000000          2/16
   3:     0.12500000    0.37500000    0.00000000          2/16
   4:     0.37500000   -0.37500000    0.00000000          2/16
   5:     0.37500000   -0.12500000    0.00000000          2/16
   6:     0.37500000    0.12500000    0.00000000          2/16
   7:     0.37500000    0.37500000    0.00000000          2/16

Wave functions: Uniform real-space grid
  Kinetic energy operator: 6*3+1=19 point O(h^6) finite-difference Laplacian
  ScaLapack parameters: grid=1x1, blocksize=None
  Wavefunction extrapolation:
    Improved wavefunction reuse through dual PAW basis 

Occupation numbers: Fermi-Dirac:
  width: 0.0500  # eV
 

Eigensolver
   Davidson(niter=2) 

Densities:
  Coarse grid: 60*60*164 grid
  Fine grid: 120*120*328 grid
  Total Charge: 0.000000 

Density mixing:
  Method: separate
  Backend: pulay
  Linear mixing parameter: 0.05
  old densities: 5
  Damping of long wavelength oscillations: 50 

Hamiltonian:
  XC and Coulomb potentials evaluated on a 120*120*328 grid
  Using the BEEF-vdW Exchange-Correlation functional
  Interpolation: tri-quintic (5. degree polynomial)
  Poisson solver: FastPoissonSolver using
    Stencil: 6*3+1=19 point O(h^6) finite-difference Laplacian
    FFT axes: [0, 1]
    FST axes: [2]

Dipole correction along z-axis 

XC parameters: BEEF-vdW with 2 nearest neighbor stencil

Memory estimate:
  Process memory now: 133.39 MiB
  Calculator: 80.22 MiB
    Density: 22.47 MiB
      Arrays: 7.22 MiB
      Localized functions: 12.50 MiB
      Mixer: 2.75 MiB
    Hamiltonian: 5.71 MiB
      Arrays: 4.72 MiB
      XC: 0.00 MiB
      Poisson: 0.00 MiB
      vbar: 0.99 MiB
    Wavefunctions: 52.04 MiB
      Arrays psit_nG: 24.17 MiB
      Eigensolver: 27.21 MiB
      Projections: 0.01 MiB
      Projectors: 0.65 MiB

Total number of cores used: 128
Parallelization over k-points: 8
Domain decomposition: 2 x 2 x 4

Number of atoms: 47
Number of atomic orbitals: 170
Number of bands in calculation: 44
Number of valence electrons: 66
Bands to converge: occupied

... initialized

Initializing position-dependent things.

Density initialized from atomic densities
Creating initial wave functions:
  44 bands from LCAO basis set

       .-----------------------.  
      /|                       |  
     / |                       |  
    /  |                       |  
   /   |                       |  
  /    |                       |  
 *     |                       |  
 |     |                       |  
 |     |                       |  
 |     |                       |  
 |     |                       |  
 |     |                    N  N  
 |     |                       |  
 |     |                 H     |  
 |   H |                   C   |  
 |  CLi|     Li      Li HH     |  
 O   H |                       |  
 | Li  |  LLi     LLi     Li   |  
 |     |                       |  
 Li    |LLi     LLi     Li     |  
 |   Li|     Li      Li        |  
 |    Li  Li  Li  Li  Li  Li   |  
 | Li  |   Li      Li          |  
 |     |Li      Li      Li     |  
 Li    | Li      Li            |  
 |    Li      Li      Li       |  
 |     |                       |  
 |     |                       |  
 |     |                       |  
 |     |                       |  
 |     |                       |  
 |     |                       |  
 |     .-----------------------.  
 |    /                       /   
 |   /                       /    
 |  /                       /     
 | /                       /      
 |/                       /       
 *-----------------------*        

Positions:
   0 Li     1.617037    1.617037   10.000000    ( 0.0000,  0.0000,  0.0000)
   1 Li     4.851111    1.617037   10.000000    ( 0.0000,  0.0000,  0.0000)
   2 Li     8.085185    1.617037   10.000000    ( 0.0000,  0.0000,  0.0000)
   3 Li     1.617037    4.851111   10.000000    ( 0.0000,  0.0000,  0.0000)
   4 Li     4.851111    4.851111   10.000000    ( 0.0000,  0.0000,  0.0000)
   5 Li     8.085185    4.851111   10.000000    ( 0.0000,  0.0000,  0.0000)
   6 Li     1.617037    8.085185   10.000000    ( 0.0000,  0.0000,  0.0000)
   7 Li     4.851111    8.085185   10.000000    ( 0.0000,  0.0000,  0.0000)
   8 Li     8.085185    8.085185   10.000000    ( 0.0000,  0.0000,  0.0000)
   9 Li     0.000000    0.000000   11.617037    ( 0.0000,  0.0000,  0.0000)
  10 Li     3.234074    0.000000   11.617037    ( 0.0000,  0.0000,  0.0000)
  11 Li     6.468148    0.000000   11.617037    ( 0.0000,  0.0000,  0.0000)
  12 Li     0.000000    3.234074   11.617037    ( 0.0000,  0.0000,  0.0000)
  13 Li     3.234074    3.234074   11.617037    ( 0.0000,  0.0000,  0.0000)
  14 Li     6.468148    3.234074   11.617037    ( 0.0000,  0.0000,  0.0000)
  15 Li     0.000000    6.468148   11.617037    ( 0.0000,  0.0000,  0.0000)
  16 Li     3.234074    6.468148   11.617037    ( 0.0000,  0.0000,  0.0000)
  17 Li     6.468148    6.468148   11.617037    ( 0.0000,  0.0000,  0.0000)
  18 Li     1.617038    1.617038   13.469728    ( 0.0000,  0.0000,  0.0000)
  19 Li     4.851111    1.617038   13.469729    ( 0.0000,  0.0000,  0.0000)
  20 Li     8.085184    1.617038   13.469728    ( 0.0000,  0.0000,  0.0000)
  21 Li     1.617038    4.851111   13.469729    ( 0.0000,  0.0000,  0.0000)
  22 Li     4.851111    4.851111   13.469730    ( 0.0000,  0.0000,  0.0000)
  23 Li     8.085184    4.851111   13.469729    ( 0.0000,  0.0000,  0.0000)
  24 Li     1.617038    8.085184   13.469728    ( 0.0000,  0.0000,  0.0000)
  25 Li     4.851111    8.085184   13.469729    ( 0.0000,  0.0000,  0.0000)
  26 Li     8.085184    8.085184   13.469728    ( 0.0000,  0.0000,  0.0000)
  27 Li    -0.000000   -0.000000   15.445939    ( 0.0000,  0.0000,  0.0000)
  28 Li     3.234074    0.000000   15.445939    ( 0.0000,  0.0000,  0.0000)
  29 Li     6.468148    0.000000   15.445939    ( 0.0000,  0.0000,  0.0000)
  30 Li     0.000000    3.234074   15.445939    ( 0.0000,  0.0000,  0.0000)
  31 Li     3.234076    3.234076   15.445938    ( 0.0000,  0.0000,  0.0000)
  32 Li     6.468146    3.234076   15.445938    ( 0.0000,  0.0000,  0.0000)
  33 Li     0.000000    6.468148   15.445939    ( 0.0000,  0.0000,  0.0000)
  34 Li     3.234076    6.468146   15.445938    ( 0.0000,  0.0000,  0.0000)
  35 Li     6.468146    6.468146   15.445938    ( 0.0000,  0.0000,  0.0000)
  36 O      9.702222    9.702222   18.445939    ( 0.0000,  0.0000,  0.0000)
  37 C     10.518979   10.884630   18.450238    ( 0.0000,  0.0000,  0.0000)
  38 C      9.699361   12.168844   18.435704    ( 0.0000,  0.0000,  0.0000)
  39 H     11.202515   10.876006   19.310398    ( 0.0000,  0.0000,  0.0000)
  40 H     11.128705   10.809241   17.547442    ( 0.0000,  0.0000,  0.0000)
  41 H     10.353307   13.045771   18.420269    ( 0.0000,  0.0000,  0.0000)
  42 H      9.050338   12.203555   17.558886    ( 0.0000,  0.0000,  0.0000)
  43 H      9.070873   12.239032   19.328265    ( 0.0000,  0.0000,  0.0000)
  44 H      9.119245    9.741389   19.214164    ( 0.0000,  0.0000,  0.0000)
  45 N      9.702000    9.702000   16.945939    ( 0.0000,  0.0000,  0.0000)
  46 N      8.605378    9.702000   16.945939    ( 0.0000,  0.0000,  0.0000)

Unit cell:
           periodic     x           y           z      points  spacing
  1. axis:    yes    9.702222    0.000000    0.000000    60     0.1617
  2. axis:    yes    0.000000    9.702222    0.000000    60     0.1617
  3. axis:    no     0.000000    0.000000   26.351111   164     0.1607

  Lengths:   9.702222   9.702222  26.351111
  Angles:   90.000000  90.000000  90.000000

Effective grid spacing dv^(1/3) = 0.1614

     iter     time        total  log10-change:
                         energy  eigst   dens
iter:   1 21:49:59  -509.971251
iter:   2 21:50:10  -135.289767  +2.52  -0.02
iter:   3 21:50:22  -144.184213  +3.16  -0.24
iter:   4 21:50:39  -239.617356  +2.96  -0.34
Writing to output.gpw (mode='')

iter:   5 21:50:56  -265.032692  +2.59  -0.41
iter:   6 21:51:08  -294.247918  +2.29  -0.68
iter:   7 21:51:20  -304.966574  +1.86  -0.71
iter:   8 21:51:28  -301.047001  +1.40  -0.67
iter:   9 21:51:35  -302.605717  +1.13  -0.83
Writing to output.gpw (mode='')

iter:  10 21:51:42  -304.467546  +1.01  -0.81
iter:  11 21:51:49  -302.174077  +1.01  -0.78
iter:  12 21:51:57  -302.105319  +0.46  -0.84
iter:  13 21:52:04  -300.580412  +0.62  -0.87
iter:  14 21:52:11  -300.505343  +0.52  -1.10
Writing to output.gpw (mode='')

iter:  15 21:52:18  -300.296462  +0.20  -1.28
iter:  16 21:52:25  -300.298444  +0.14  -1.40
iter:  17 21:52:32  -300.288142c -0.21  -1.45
iter:  18 21:52:39  -300.330807  -0.26  -1.57
iter:  19 21:52:47  -300.341910  -0.53  -1.75
Writing to output.gpw (mode='')

iter:  20 21:52:54  -300.348924c -0.81  -1.77
iter:  21 21:53:01  -300.363600c -0.74  -1.79
iter:  22 21:53:08  -300.376254c -0.94  -1.81
iter:  23 21:53:15  -300.391523c -0.98  -1.87
iter:  24 21:53:22  -300.389082c -1.32  -2.02
Writing to output.gpw (mode='')

iter:  25 21:53:29  -300.392122c -1.36  -2.12
iter:  26 21:53:37  -300.395945c -1.62  -2.24
iter:  27 21:53:45  -300.401438c -1.47  -2.35
iter:  28 21:53:52  -300.403615c -1.73  -2.43
iter:  29 21:54:00  -300.406046c -1.64  -2.51
Writing to output.gpw (mode='')

iter:  30 21:54:07  -300.408316c -1.88  -2.59
iter:  31 21:54:14  -300.409663c -2.00  -2.69
iter:  32 21:54:21  -300.411294c -2.03  -2.81
iter:  33 21:54:28  -300.412335c -2.25  -2.81
iter:  34 21:54:35  -300.413209c -2.23  -2.84
Writing to output.gpw (mode='')

iter:  35 21:54:42  -300.414193c -2.29  -2.84
iter:  36 21:54:50  -300.414699c -2.52  -2.75
iter:  37 21:54:57  -300.415164c -2.68  -2.96
iter:  38 21:55:11  -300.415629c -2.61  -3.01
iter:  39 21:55:28  -300.416039c -2.70  -2.98
Writing to output.gpw (mode='')

iter:  40 21:55:38  -300.416352c -2.99  -3.08
iter:  41 21:55:51  -300.416655c -2.77  -3.06
iter:  42 21:56:11  -300.417009c -2.69  -3.06
iter:  43 21:56:20  -300.417312c -2.80  -3.07
iter:  44 21:56:27  -300.417527c -2.93  -3.07
Writing to output.gpw (mode='')

iter:  45 21:56:34  -300.417877c -2.80  -3.15
iter:  46 21:56:41  -300.417925c -3.26  -3.19
iter:  47 21:56:49  -300.418145c -3.07  -3.25
iter:  48 21:56:56  -300.418204c -3.42  -3.29
iter:  49 21:57:03  -300.418414c -3.24  -3.35
Writing to output.gpw (mode='')

iter:  50 21:57:10  -300.418428c -3.40  -3.64
iter:  51 21:57:17  -300.418472c -3.60  -3.55
iter:  52 21:57:24  -300.418563c -3.44  -3.70
iter:  53 21:57:32  -300.418595c -3.79  -3.88
iter:  54 21:57:39  -300.418641c -3.64  -3.95
Writing to output.gpw (mode='')

iter:  55 21:57:46  -300.418680c -3.57  -4.03c
iter:  56 21:57:53  -300.418701c -3.91  -4.07c
iter:  57 21:58:00  -300.418730c -3.73  -4.14c
iter:  58 21:58:07  -300.418746c -3.83  -4.15c
iter:  59 21:58:15  -300.418789c -3.91  -4.06c
Writing to output.gpw (mode='')

iter:  60 21:58:22  -300.418805c -4.16  -4.20c
iter:  61 21:58:29  -300.418817c -4.05  -4.14c
iter:  62 21:58:36  -300.418829c -4.31  -4.15c
iter:  63 21:58:43  -300.418837c -4.16  -4.12c
iter:  64 21:58:50  -300.418850c -4.14  -4.09c
Writing to output.gpw (mode='')

iter:  65 21:58:58  -300.418858c -4.40  -4.06c
iter:  66 21:59:05  -300.418865c -4.21  -4.03c
iter:  67 21:59:12  -300.418873c -4.34  -4.01c
iter:  68 21:59:19  -300.418883c -4.19  -3.99
iter:  69 21:59:26  -300.418894c -4.30  -3.98
Writing to output.gpw (mode='')

iter:  70 21:59:33  -300.418903c -4.44  -3.99
iter:  71 21:59:40  -300.418890c -4.64  -3.92
iter:  72 21:59:48  -300.418895c -4.77  -3.90
iter:  73 21:59:55  -300.418900c -4.82  -3.82
iter:  74 22:00:02  -300.418918c -4.41  -3.87
Writing to output.gpw (mode='')

iter:  75 22:00:17  -300.418958c -4.25  -3.88
iter:  76 22:00:33  -300.418985c -4.40  -3.91
iter:  77 22:00:45  -300.418970c -4.58  -3.87
iter:  78 22:01:03  -300.418978c -4.86  -4.11c
iter:  79 22:01:15  -300.418990c -4.68  -4.16c
Writing to output.gpw (mode='')

iter:  80 22:01:22  -300.418984c -4.88  -4.34c
iter:  81 22:01:29  -300.418982c -5.14  -4.37c
iter:  82 22:01:37  -300.418980c -5.11  -4.43c
iter:  83 22:01:44  -300.418984c -5.27  -4.58c
iter:  84 22:01:51  -300.418983c -5.43  -4.72c
Writing to output.gpw (mode='')

iter:  85 22:01:58  -300.418984c -5.44  -4.75c
iter:  86 22:02:05  -300.418984c -5.51  -4.76c
iter:  87 22:02:12  -300.418984c -5.42  -4.75c
iter:  88 22:02:19  -300.418985c -5.51  -4.71c
iter:  89 22:02:26  -300.418985c -5.53  -4.82c
Writing to output.gpw (mode='')

iter:  90 22:02:33  -300.418986c -5.26  -4.84c
iter:  91 22:02:41  -300.418986c -5.59  -4.84c
iter:  92 22:02:48  -300.418987c -5.67  -4.82c
iter:  93 22:02:55  -300.418987c -5.72  -4.84c
iter:  94 22:03:02  -300.418984c -5.75  -4.89c
Writing to output.gpw (mode='')

iter:  95 22:03:09  -300.418989c -5.75  -4.72c
iter:  96 22:03:16  -300.418990c -5.69  -5.00c
iter:  97 22:03:23  -300.418992c -5.65  -5.08c
iter:  98 22:03:31  -300.418992c -5.90  -5.23c
iter:  99 22:03:38  -300.418993c -5.90  -5.28c
Writing to output.gpw (mode='')

iter: 100 22:03:45  -300.418992c -6.06  -5.35c
iter: 101 22:03:52  -300.418993c -6.05  -5.36c
iter: 102 22:03:59  -300.418994c -6.03  -5.52c
iter: 103 22:04:06  -300.418993c -6.18  -5.60c
iter: 104 22:04:13  -300.418994c -6.26  -5.72c
Writing to output.gpw (mode='')

iter: 105 22:04:21  -300.418994c -6.16  -5.78c
iter: 106 22:04:28  -300.418994c -6.11  -5.80c
iter: 107 22:04:35  -300.418994c -6.37  -5.78c
iter: 108 22:04:42  -300.418994c -6.47  -5.75c
iter: 109 22:04:49  -300.418994c -6.42  -5.66c
Writing to output.gpw (mode='')

iter: 110 22:04:56  -300.418994c -6.55  -5.84c
iter: 111 22:05:10  -300.418994c -6.40  -5.81c
iter: 112 22:05:21  -300.418994c -6.58  -5.76c
iter: 113 22:05:37  -300.418994c -6.64  -5.72c
iter: 114 22:05:51  -300.418994c -6.72  -5.68c
Writing to output.gpw (mode='')

iter: 115 22:06:07  -300.418994c -6.72  -5.63c
iter: 116 22:06:16  -300.418994c -6.49  -5.60c
iter: 117 22:06:23  -300.418994c -6.68  -5.57c
iter: 118 22:06:31  -300.418994c -6.79  -5.55c
iter: 119 22:06:38  -300.418994c -6.81  -5.50c
Writing to output.gpw (mode='')

iter: 120 22:06:45  -300.418994c -6.89  -5.48c
iter: 121 22:06:52  -300.418994c -6.81  -5.46c
iter: 122 22:06:59  -300.418994c -6.87  -5.49c
iter: 123 22:07:06  -300.418995c -6.71  -5.40c
iter: 124 22:07:13  -300.418996c -6.59  -5.59c
Writing to output.gpw (mode='')

iter: 125 22:07:21  -300.418995c -6.86  -5.70c
iter: 126 22:07:28  -300.418995c -6.92  -5.85c
iter: 127 22:07:35  -300.418995c -6.95  -5.93c
iter: 128 22:07:42  -300.418995c -7.03  -6.01c
iter: 129 22:07:49  -300.418995c -6.97  -6.06c
Writing to output.gpw (mode='')

iter: 130 22:07:56  -300.418995c -6.89  -6.18c
iter: 131 22:08:03  -300.418995c -7.21  -6.27c
iter: 132 22:08:11  -300.418995c -7.34  -6.29c
iter: 133 22:08:18  -300.418995c -7.42c -6.28c

Converged after 133 iterations.

Dipole moment: (-12.418795, -18.221793, 0.483162) |e|*Ang

Energy contributions relative to reference atoms: (reference = -14434.854043)

Kinetic:       +194.450319
Potential:     -173.434102
External:        +0.000000
XC:            -322.121683
Entropy (-ST):   -0.151735
Local:           +0.762338
--------------------------
Free energy:   -300.494863
Extrapolated:  -300.418995

Dipole-layer corrected work functions: 3.383333, 2.454530 eV

Showing only first 2 kpts
 Kpt  Band  Eigenvalues  Occupancy
  0    31     -3.17021    1.98695
  0    32     -3.06791    1.90329
  0    33     -2.77696    0.11046
  0    34     -2.68613    0.01883

  1    31     -2.97289    1.49264
  1    32     -2.92994    1.10961
  1    33     -2.86886    0.53729
  1    34     -2.82958    0.28688


Fermi level: -2.91893

No gap
Writing to output.gpw (mode='')


Forces in eV/Ang:
  0 Li    0.01927    0.00145   -0.27493
  1 Li   -0.00949   -0.00519   -0.26721
  2 Li   -0.00682    0.01473   -0.27318
  3 Li   -0.00716    0.00149   -0.26280
  4 Li    0.00146   -0.00113   -0.28375
  5 Li    0.00033    0.00288   -0.26447
  6 Li    0.01437   -0.00384   -0.27711
  7 Li   -0.00904    0.00510   -0.26740
  8 Li   -0.00458   -0.01743   -0.27530
  9 Li   -0.00677   -0.00386    0.34018
 10 Li    0.00755    0.00167    0.23849
 11 Li   -0.00868    0.00209    0.27746
 12 Li    0.00089    0.01654    0.25758
 13 Li    0.00194   -0.00483    0.25374
 14 Li    0.00031    0.00851    0.26387
 15 Li   -0.00039   -0.01304    0.25611
 16 Li    0.00551    0.00479    0.25824
 17 Li    0.00076   -0.01109    0.25971
 18 Li   -0.00406    0.00903    0.00923
 19 Li    0.01022   -0.01738    0.07277
 20 Li   -0.00157    0.02852   -0.06551
 21 Li   -0.00282   -0.00270    0.07305
 22 Li   -0.00924    0.00495    0.00100
 23 Li    0.01274   -0.00142    0.08351
 24 Li    0.00403   -0.00271   -0.00864
 25 Li    0.01485    0.01423    0.06283
 26 Li   -0.01427   -0.02712   -0.07279
 27 Li    0.78197   -0.07027   -7.53954
 28 Li    0.08890   -0.01441   -0.09955
 29 Li    0.22121   -0.00154    0.17339
 30 Li    0.04012    0.19553   -0.22191
 31 Li    0.03261    0.00573   -0.06275
 32 Li   -0.06554    0.06513   -0.05844
 33 Li    0.02182   -0.10653   -0.06895
 34 Li    0.00063   -0.00422   -0.01964
 35 Li   -0.03436   -0.05643   -0.03215
 36 O     7.79421    0.58560   12.54912
 37 C     1.77495    1.78465    2.05999
 38 C     0.01919   -0.11111    0.21059
 39 H    -0.11333   -0.03003   -0.03019
 40 H     0.27892    0.28201    0.42836
 41 H     0.03630   -0.14660   -0.04181
 42 H    -0.18289    0.11163    0.02792
 43 H    -0.06119    0.04248   -0.05708
 44 H    -1.22142   -0.35034    0.83000
 45 N     1.27584   -2.16516   -0.39912
 46 N   -10.63938   -0.03528   -7.73991

System changes: positions 

Initializing position-dependent things.

Density initialized from wave functions
       .-----------------------.  
      /|                       |  
     / |                       |  
    /  |                       |  
   /   |                       |  
  /    |                       |  
 *     |                       |  
 |     |                       |  
 |     |                       |  
 |     |                       |  
 |     |                       |  
 |     N                    N  |  
 |     |                       |  
 |     Li      Li      LiH     |  
 |   H |                   C   |  
 |  CLi|     Li      Li HH     |  
 O   H |                       |  
 | Li  |  LLi     LLi     Li   |  
 |     |                       |  
 |     |Li      Li      Li     |  
 |   Li|     Li      Li        |  
 |    Li  Li  Li  Li  Li  Li   |  
 | Li  |   Li      Li          |  
 |     |Li      Li      Li     |  
 Li    | Li      Li            |  
 |    Li      Li      Li       |  
 |     |                       |  
 |     |                       |  
 |     |                       |  
 |     |                       |  
 |     |                       |  
 |     |                       |  
 |     .-----------------------.  
 |    /                       /   
 |   /                       /    
 |  /                       /     
 | /                       /      
 |/                       /       
 *-----------------------*        

Positions:
   0 Li     1.617037    1.617037   10.000000    ( 0.0000,  0.0000,  0.0000)
   1 Li     4.851111    1.617037   10.000000    ( 0.0000,  0.0000,  0.0000)
   2 Li     8.085185    1.617037   10.000000    ( 0.0000,  0.0000,  0.0000)
   3 Li     1.617037    4.851111   10.000000    ( 0.0000,  0.0000,  0.0000)
   4 Li     4.851111    4.851111   10.000000    ( 0.0000,  0.0000,  0.0000)
   5 Li     8.085185    4.851111   10.000000    ( 0.0000,  0.0000,  0.0000)
   6 Li     1.617037    8.085185   10.000000    ( 0.0000,  0.0000,  0.0000)
   7 Li     4.851111    8.085185   10.000000    ( 0.0000,  0.0000,  0.0000)
   8 Li     8.085185    8.085185   10.000000    ( 0.0000,  0.0000,  0.0000)
   9 Li     0.000000    0.000000   11.617037    ( 0.0000,  0.0000,  0.0000)
  10 Li     3.234074    0.000000   11.617037    ( 0.0000,  0.0000,  0.0000)
  11 Li     6.468148    0.000000   11.617037    ( 0.0000,  0.0000,  0.0000)
  12 Li     0.000000    3.234074   11.617037    ( 0.0000,  0.0000,  0.0000)
  13 Li     3.234074    3.234074   11.617037    ( 0.0000,  0.0000,  0.0000)
  14 Li     6.468148    3.234074   11.617037    ( 0.0000,  0.0000,  0.0000)
  15 Li     0.000000    6.468148   11.617037    ( 0.0000,  0.0000,  0.0000)
  16 Li     3.234074    6.468148   11.617037    ( 0.0000,  0.0000,  0.0000)
  17 Li     6.468148    6.468148   11.617037    ( 0.0000,  0.0000,  0.0000)
  18 Li     1.617027    1.617063   13.469753    ( 0.0000,  0.0000,  0.0000)
  19 Li     4.851139    1.616991   13.469926    ( 0.0000,  0.0000,  0.0000)
  20 Li     8.085180    1.617115   13.469551    ( 0.0000,  0.0000,  0.0000)
  21 Li     1.617031    4.851104   13.469927    ( 0.0000,  0.0000,  0.0000)
  22 Li     4.851086    4.851124   13.469733    ( 0.0000,  0.0000,  0.0000)
  23 Li     8.085218    4.851107   13.469955    ( 0.0000,  0.0000,  0.0000)
  24 Li     1.617049    8.085177   13.469704    ( 0.0000,  0.0000,  0.0000)
  25 Li     4.851151    8.085222   13.469899    ( 0.0000,  0.0000,  0.0000)
  26 Li     8.085145    8.085111   13.469531    ( 0.0000,  0.0000,  0.0000)
  27 Li     0.002116   -0.000190   15.425540    ( 0.0000,  0.0000,  0.0000)
  28 Li     3.234314   -0.000039   15.445669    ( 0.0000,  0.0000,  0.0000)
  29 Li     6.468747   -0.000004   15.446408    ( 0.0000,  0.0000,  0.0000)
  30 Li     0.000109    3.234603   15.445338    ( 0.0000,  0.0000,  0.0000)
  31 Li     3.234165    3.234092   15.445768    ( 0.0000,  0.0000,  0.0000)
  32 Li     6.467968    3.234253   15.445780    ( 0.0000,  0.0000,  0.0000)
  33 Li     0.000059    6.467860   15.445752    ( 0.0000,  0.0000,  0.0000)
  34 Li     3.234078    6.468134   15.445885    ( 0.0000,  0.0000,  0.0000)
  35 Li     6.468053    6.467993   15.445851    ( 0.0000,  0.0000,  0.0000)
  36 O      9.723310    9.703806   18.479892    ( 0.0000,  0.0000,  0.0000)
  37 C     10.523782   10.889458   18.455811    ( 0.0000,  0.0000,  0.0000)
  38 C      9.699413   12.168543   18.436274    ( 0.0000,  0.0000,  0.0000)
  39 H     11.202208   10.875925   19.310316    ( 0.0000,  0.0000,  0.0000)
  40 H     11.129460   10.810004   17.548601    ( 0.0000,  0.0000,  0.0000)
  41 H     10.353406   13.045374   18.420156    ( 0.0000,  0.0000,  0.0000)
  42 H      9.049843   12.203857   17.558962    ( 0.0000,  0.0000,  0.0000)
  43 H      9.070708   12.239147   19.328111    ( 0.0000,  0.0000,  0.0000)
  44 H      9.115941    9.740441   19.216410    ( 0.0000,  0.0000,  0.0000)
  45 N      9.705452    9.696142   16.944860    ( 0.0000,  0.0000,  0.0000)
  46 N      8.576592    9.701905   16.924998    ( 0.0000,  0.0000,  0.0000)

Unit cell:
           periodic     x           y           z      points  spacing
  1. axis:    yes    9.702222    0.000000    0.000000    60     0.1617
  2. axis:    yes    0.000000    9.702222    0.000000    60     0.1617
  3. axis:    no     0.000000    0.000000   26.351111   164     0.1607

  Lengths:   9.702222   9.702222  26.351111
  Angles:   90.000000  90.000000  90.000000

Effective grid spacing dv^(1/3) = 0.1614

     iter     time        total  log10-change:
                         energy  eigst   dens
iter:   1 22:08:26  -301.849966  -0.52
iter:   2 22:08:33  -301.737999  -0.79  -1.47
iter:   3 22:08:41  -301.596756  -0.90  -1.46
iter:   4 22:08:48  -301.549566  -1.48  -1.73
Writing to output.gpw (mode='')

iter:   5 22:08:55  -301.537984  -1.27  -2.05
iter:   6 22:09:02  -301.535380c -1.35  -2.16
iter:   7 22:09:09  -301.532524c -2.00  -2.30
iter:   8 22:09:17  -301.533171c -2.13  -2.50
iter:   9 22:09:24  -301.533108c -2.56  -2.48
Writing to output.gpw (mode='')

iter:  10 22:09:31  -301.533093c -2.91  -2.65
iter:  11 22:09:38  -301.533174c -2.85  -2.69
iter:  12 22:09:45  -301.532974c -3.03  -2.79
iter:  13 22:09:54  -301.533154c -3.05  -2.93
iter:  14 22:10:02  -301.533163c -3.34  -3.09
Writing to output.gpw (mode='')

iter:  15 22:10:15  -301.533081c -3.55  -3.16
iter:  16 22:10:28  -301.533099c -3.98  -3.25
iter:  17 22:10:42  -301.533107c -3.76  -3.29
iter:  18 22:10:55  -301.533099c -4.23  -3.36
iter:  19 22:11:09  -301.533200c -3.86  -3.44
Writing to output.gpw (mode='')

iter:  20 22:11:17  -301.533161c -4.58  -3.50
iter:  21 22:11:24  -301.533147c -4.49  -3.79
iter:  22 22:11:31  -301.533168c -4.81  -3.81
iter:  23 22:11:39  -301.533170c -4.95  -3.95
iter:  24 22:11:46  -301.533177c -4.95  -3.98
Writing to output.gpw (mode='')

iter:  25 22:11:53  -301.533168c -5.25  -4.05c
iter:  26 22:12:00  -301.533167c -5.15  -4.18c
iter:  27 22:12:07  -301.533168c -5.53  -4.30c
iter:  28 22:12:14  -301.533169c -5.34  -4.33c
iter:  29 22:12:22  -301.533166c -5.52  -4.42c
Writing to output.gpw (mode='')

iter:  30 22:12:29  -301.533168c -5.80  -4.53c
iter:  31 22:12:36  -301.533167c -5.85  -4.58c
iter:  32 22:12:43  -301.533169c -5.78  -4.62c
iter:  33 22:12:51  -301.533168c -6.00  -4.78c
iter:  34 22:12:58  -301.533168c -6.15  -4.93c
Writing to output.gpw (mode='')

iter:  35 22:13:05  -301.533168c -6.07  -4.95c
iter:  36 22:13:12  -301.533167c -6.09  -4.97c
iter:  37 22:13:19  -301.533168c -6.21  -5.07c
iter:  38 22:13:27  -301.533168c -6.37  -5.07c
iter:  39 22:13:34  -301.533168c -6.51  -5.11c
Writing to output.gpw (mode='')

iter:  40 22:13:41  -301.533168c -6.63  -5.20c
iter:  41 22:13:48  -301.533168c -6.67  -5.40c
iter:  42 22:13:55  -301.533168c -6.81  -5.35c
iter:  43 22:14:03  -301.533168c -6.90  -5.56c
iter:  44 22:14:10  -301.533168c -6.83  -5.52c
Writing to output.gpw (mode='')

iter:  45 22:14:17  -301.533168c -6.95  -5.35c
iter:  46 22:14:24  -301.533168c -7.00  -5.30c
iter:  47 22:14:31  -301.533168c -7.04  -5.26c
iter:  48 22:14:39  -301.533168c -7.16  -5.24c
iter:  49 22:14:46  -301.533168c -7.29  -5.28c
Writing to output.gpw (mode='')

iter:  50 22:14:53  -301.533168c -7.22  -5.25c
iter:  51 22:15:00  -301.533168c -7.21  -5.25c
iter:  52 22:15:16  -301.533168c -7.37  -5.30c
iter:  53 22:15:31  -301.533168c -7.39  -5.46c
iter:  54 22:15:44  -301.533168c -7.41c -5.48c

Converged after 54 iterations.

Dipole moment: (-14.526136, -17.780476, 0.484681) |e|*Ang

Energy contributions relative to reference atoms: (reference = -14434.854043)

Kinetic:       +186.563002
Potential:     -167.744981
External:        +0.000000
XC:            -321.039286
Entropy (-ST):   -0.151838
Local:           +0.764017
--------------------------
Free energy:   -301.609087
Extrapolated:  -301.533168

Dipole-layer corrected work functions: 3.384140, 2.452417 eV

Showing only first 2 kpts
 Kpt  Band  Eigenvalues  Occupancy
  0    31     -3.16847    1.98666
  0    32     -3.06354    1.89621
  0    33     -2.78850    0.13886
  0    34     -2.68615    0.01908

  1    31     -2.97837    1.53770
  1    32     -2.92975    1.11425
  1    33     -2.86417    0.50622
  1    34     -2.81920    0.24232


Fermi level: -2.91828

No gap
Writing to output.gpw (mode='')


Forces in eV/Ang:
  0 Li    0.02002    0.00155   -0.27668
  1 Li   -0.00987   -0.00537   -0.26654
  2 Li   -0.00682    0.01528   -0.27489
  3 Li   -0.00720    0.00144   -0.26218
  4 Li    0.00139   -0.00113   -0.28452
  5 Li    0.00050    0.00267   -0.26367
  6 Li    0.01513   -0.00392   -0.27870
  7 Li   -0.00957    0.00512   -0.26661
  8 Li   -0.00483   -0.01782   -0.27671
  9 Li   -0.00702   -0.00390    0.34707
 10 Li    0.00719    0.00147    0.23819
 11 Li   -0.00840    0.00208    0.28000
 12 Li    0.00099    0.01603    0.25863
 13 Li    0.00224   -0.00473    0.25314
 14 Li   -0.00021    0.00988    0.26428
 15 Li   -0.00042   -0.01246    0.25788
 16 Li    0.00638    0.00509    0.25793
 17 Li    0.00048   -0.01242    0.25966
 18 Li    0.00086    0.01275   -0.00125
 19 Li    0.00985   -0.01868    0.07320
 20 Li   -0.00563    0.03279   -0.07643
 21 Li   -0.00442   -0.00249    0.07432
 22 Li   -0.00940    0.00539    0.00053
 23 Li    0.01353   -0.00099    0.08432
 24 Li    0.00919   -0.00644   -0.01929
 25 Li    0.01531    0.01533    0.06306
 26 Li   -0.01922   -0.03152   -0.08389
 27 Li    0.72731   -0.05226   -6.83266
 28 Li    0.08647   -0.01468   -0.09636
 29 Li    0.25774   -0.00130    0.20870
 30 Li    0.03832    0.18653   -0.21030
 31 Li    0.03374    0.00754   -0.06310
 32 Li   -0.06581    0.06483   -0.05603
 33 Li    0.02028   -0.09602   -0.05850
 34 Li    0.00235   -0.00628   -0.02053
 35 Li   -0.03585   -0.05553   -0.03074
 36 O     6.84784    0.27973    9.93381
 37 C     1.62903    1.70650    1.85207
 38 C     0.03950   -0.05458    0.18660
 39 H     0.07795    0.09684    0.14682
 40 H     0.24234    0.26940    0.48275
 41 H     0.02485   -0.12733   -0.03200
 42 H    -0.15441    0.07627    0.05080
 43 H    -0.06821    0.04900   -0.04025
 44 H    -1.43074   -0.20263    0.90446
 45 N    -2.26750   -2.08071   -0.12521
 46 N    -6.02470   -0.06497   -6.28095

System changes: positions 

Initializing position-dependent things.

Density initialized from wave functions
       .-----------------------.  
      /|                       |  
     / |                       |  
    /  |                       |  
   /   |                       |  
  /    |                       |  
 *     |                       |  
 |     |                       |  
 |     |                       |  
 |     |                       |  
 |     |                       |  
 |     |                    N  N  
 |     |                       |  
 |     Li      Li      LiH     |  
 |   H |                   C   |  
 |  CLi|     Li      Li HH     |  
 O   H |                       |  
 | Li  |  LLi     LLi     Li   |  
 |     |                       |  
 |     |Li      Li      Li     |  
 |   Li|     Li      Li        |  
 |    Li  Li  Li  Li  Li  Li   |  
 | Li  |   Li      Li          |  
 |     |Li      Li      Li     |  
 Li    | Li      Li            |  
 |    Li      Li      Li       |  
 |     |                       |  
 |     |                       |  
 |     |                       |  
 |     |                       |  
 |     |                       |  
 |     |                       |  
 |     .-----------------------.  
 |    /                       /   
 |   /                       /    
 |  /                       /     
 | /                       /      
 |/                       /       
 *-----------------------*        

Positions:
   0 Li     1.617037    1.617037   10.000000    ( 0.0000,  0.0000,  0.0000)
   1 Li     4.851111    1.617037   10.000000    ( 0.0000,  0.0000,  0.0000)
   2 Li     8.085185    1.617037   10.000000    ( 0.0000,  0.0000,  0.0000)
   3 Li     1.617037    4.851111   10.000000    ( 0.0000,  0.0000,  0.0000)
   4 Li     4.851111    4.851111   10.000000    ( 0.0000,  0.0000,  0.0000)
   5 Li     8.085185    4.851111   10.000000    ( 0.0000,  0.0000,  0.0000)
   6 Li     1.617037    8.085185   10.000000    ( 0.0000,  0.0000,  0.0000)
   7 Li     4.851111    8.085185   10.000000    ( 0.0000,  0.0000,  0.0000)
   8 Li     8.085185    8.085185   10.000000    ( 0.0000,  0.0000,  0.0000)
   9 Li     0.000000    0.000000   11.617037    ( 0.0000,  0.0000,  0.0000)
  10 Li     3.234074    0.000000   11.617037    ( 0.0000,  0.0000,  0.0000)
  11 Li     6.468148    0.000000   11.617037    ( 0.0000,  0.0000,  0.0000)
  12 Li     0.000000    3.234074   11.617037    ( 0.0000,  0.0000,  0.0000)
  13 Li     3.234074    3.234074   11.617037    ( 0.0000,  0.0000,  0.0000)
  14 Li     6.468148    3.234074   11.617037    ( 0.0000,  0.0000,  0.0000)
  15 Li     0.000000    6.468148   11.617037    ( 0.0000,  0.0000,  0.0000)
  16 Li     3.234074    6.468148   11.617037    ( 0.0000,  0.0000,  0.0000)
  17 Li     6.468148    6.468148   11.617037    ( 0.0000,  0.0000,  0.0000)
  18 Li     1.617047    1.617127   13.469712    ( 0.0000,  0.0000,  0.0000)
  19 Li     4.851177    1.616911   13.470226    ( 0.0000,  0.0000,  0.0000)
  20 Li     8.085143    1.617263   13.469203    ( 0.0000,  0.0000,  0.0000)
  21 Li     1.617007    4.851094   13.470234    ( 0.0000,  0.0000,  0.0000)
  22 Li     4.851047    4.851148   13.469734    ( 0.0000,  0.0000,  0.0000)
  23 Li     8.085276    4.851105   13.470301    ( 0.0000,  0.0000,  0.0000)
  24 Li     1.617104    8.085138   13.469590    ( 0.0000,  0.0000,  0.0000)
  25 Li     4.851215    8.085288   13.470157    ( 0.0000,  0.0000,  0.0000)
  26 Li     8.085050    8.084967   13.469152    ( 0.0000,  0.0000,  0.0000)
  27 Li     0.004888   -0.000341   15.400150    ( 0.0000,  0.0000,  0.0000)
  28 Li     3.234658   -0.000100   15.445288    ( 0.0000,  0.0000,  0.0000)
  29 Li     6.469920   -0.000009   15.447377    ( 0.0000,  0.0000,  0.0000)
  30 Li     0.000258    3.235331   15.444522    ( 0.0000,  0.0000,  0.0000)
  31 Li     3.234306    3.234129   15.445510    ( 0.0000,  0.0000,  0.0000)
  32 Li     6.467700    3.234515   15.445560    ( 0.0000,  0.0000,  0.0000)
  33 Li     0.000136    6.467505   15.445550    ( 0.0000,  0.0000,  0.0000)
  34 Li     3.234094    6.468102   15.445798    ( 0.0000,  0.0000,  0.0000)
  35 Li     6.467902    6.467770   15.445731    ( 0.0000,  0.0000,  0.0000)
  36 O      9.747947    9.703904   18.511404    ( 0.0000,  0.0000,  0.0000)
  37 C     10.529912   10.896134   18.462638    ( 0.0000,  0.0000,  0.0000)
  38 C      9.699642   12.168514   18.436951    ( 0.0000,  0.0000,  0.0000)
  39 H     11.203176   10.876751   19.311516    ( 0.0000,  0.0000,  0.0000)
  40 H     11.130321   10.811057   17.550750    ( 0.0000,  0.0000,  0.0000)
  41 H     10.353468   13.044922   18.420059    ( 0.0000,  0.0000,  0.0000)
  42 H      9.049312   12.204047   17.559246    ( 0.0000,  0.0000,  0.0000)
  43 H      9.070406   12.239368   19.328005    ( 0.0000,  0.0000,  0.0000)
  44 H      9.109408    9.740119   19.220343    ( 0.0000,  0.0000,  0.0000)
  45 N      9.684170    9.687965   16.945282    ( 0.0000,  0.0000,  0.0000)
  46 N      8.567786    9.701539   16.904412    ( 0.0000,  0.0000,  0.0000)

Unit cell:
           periodic     x           y           z      points  spacing
  1. axis:    yes    9.702222    0.000000    0.000000    60     0.1617
  2. axis:    yes    0.000000    9.702222    0.000000    60     0.1617
  3. axis:    no     0.000000    0.000000   26.351111   164     0.1607

  Lengths:   9.702222   9.702222  26.351111
  Angles:   90.000000  90.000000  90.000000

Effective grid spacing dv^(1/3) = 0.1614

     iter     time        total  log10-change:
                         energy  eigst   dens
iter:   1 22:16:02  -302.605172  -0.81
iter:   2 22:16:16  -302.477495  -0.76  -1.55
iter:   3 22:16:23  -302.438795  -1.62  -1.70
iter:   4 22:16:30  -302.429428  -0.99  -2.13
Writing to output.gpw (mode='')

iter:   5 22:16:37  -302.423236c -1.82  -2.02
iter:   6 22:16:45  -302.447222c -1.45  -2.32
iter:   7 22:16:52  -302.422407c -2.15  -2.06
iter:   8 22:16:59  -302.417025c -1.84  -2.32
iter:   9 22:17:06  -302.416984c -2.60  -2.50
Writing to output.gpw (mode='')

iter:  10 22:17:13  -302.418092c -2.61  -2.62
iter:  11 22:17:20  -302.416610c -2.45  -2.71
iter:  12 22:17:28  -302.416674c -3.20  -2.87
iter:  13 22:17:35  -302.416908c -3.20  -3.08
iter:  14 22:17:42  -302.416766c -3.47  -3.15
Writing to output.gpw (mode='')

iter:  15 22:17:49  -302.416919c -3.64  -3.27
iter:  16 22:17:56  -302.416941c -3.62  -3.40
iter:  17 22:18:03  -302.416984c -3.77  -3.49
iter:  18 22:18:11  -302.416986c -4.00  -3.60
iter:  19 22:18:18  -302.417032c -4.20  -3.66
Writing to output.gpw (mode='')

iter:  20 22:18:25  -302.417039c -4.24  -3.78
iter:  21 22:18:32  -302.417029c -4.43  -3.89
iter:  22 22:18:39  -302.417041c -4.62  -3.98
iter:  23 22:18:46  -302.417046c -4.61  -4.01c
iter:  24 22:18:53  -302.417054c -4.89  -4.07c
Writing to output.gpw (mode='')

iter:  25 22:19:01  -302.417059c -5.11  -4.20c
iter:  26 22:19:08  -302.417064c -5.14  -4.23c
iter:  27 22:19:15  -302.417066c -5.38  -4.31c
iter:  28 22:19:22  -302.417066c -5.33  -4.38c
iter:  29 22:19:29  -302.417068c -5.39  -4.56c
Writing to output.gpw (mode='')

iter:  30 22:19:36  -302.417069c -5.46  -4.70c
iter:  31 22:19:43  -302.417072c -5.49  -4.72c
iter:  32 22:19:51  -302.417076c -5.69  -4.74c
iter:  33 22:19:58  -302.417075c -5.80  -4.90c
iter:  34 22:20:12  -302.417076c -5.85  -4.92c
Writing to output.gpw (mode='')

iter:  35 22:20:26  -302.417073c -5.60  -4.89c
iter:  36 22:20:43  -302.417074c -5.75  -4.75c
iter:  37 22:20:55  -302.417075c -6.06  -4.71c
iter:  38 22:21:14  -302.417073c -6.23  -4.72c
iter:  39 22:21:25  -302.417072c -6.05  -4.59c
Writing to output.gpw (mode='')

iter:  40 22:21:33  -302.417072c -5.87  -4.57c
iter:  41 22:21:40  -302.417077c -6.37  -4.52c
iter:  42 22:21:47  -302.417078c -6.32  -4.69c
iter:  43 22:21:54  -302.417078c -6.50  -4.76c
iter:  44 22:22:02  -302.417080c -6.26  -4.69c
Writing to output.gpw (mode='')

iter:  45 22:22:09  -302.417081c -6.67  -4.76c
iter:  46 22:22:16  -302.417083c -6.57  -4.88c
iter:  47 22:22:23  -302.417081c -6.76  -4.95c
iter:  48 22:22:30  -302.417084c -6.66  -4.92c
iter:  49 22:22:37  -302.417083c -6.98  -5.13c
Writing to output.gpw (mode='')

iter:  50 22:22:44  -302.417084c -6.91  -5.17c
iter:  51 22:22:51  -302.417084c -6.86  -5.20c
iter:  52 22:22:58  -302.417084c -7.08  -5.25c
iter:  53 22:23:06  -302.417084c -7.18  -5.29c
iter:  54 22:23:13  -302.417084c -7.33  -5.49c
Writing to output.gpw (mode='')

iter:  55 22:23:20  -302.417084c -7.16  -5.51c
iter:  56 22:23:27  -302.417084c -7.25  -5.62c
iter:  57 22:23:34  -302.417084c -7.57c -5.73c

Converged after 57 iterations.

Dipole moment: (-14.113853, -16.913152, 0.504538) |e|*Ang

Energy contributions relative to reference atoms: (reference = -14434.854043)

Kinetic:       +185.206139
Potential:     -167.341671
External:        +0.000000
XC:            -320.969839
Entropy (-ST):   -0.150199
Local:           +0.763386
--------------------------
Free energy:   -302.492184
Extrapolated:  -302.417084

Dipole-layer corrected work functions: 3.382922, 2.413027 eV

Showing only first 2 kpts
 Kpt  Band  Eigenvalues  Occupancy
  0    31     -3.14953    1.98702
  0    32     -3.04659    1.90262
  0    33     -2.76053    0.12030
  0    34     -2.66447    0.01857

  1    31     -2.95618    1.52419
  1    32     -2.91071    1.12666
  1    33     -2.84580    0.52092
  1    34     -2.79927    0.24389


Fermi level: -2.89797

No gap
Writing to output.gpw (mode='')


Forces in eV/Ang:
  0 Li    0.01969    0.00156   -0.27676
  1 Li   -0.00990   -0.00552   -0.26601
  2 Li   -0.00643    0.01578   -0.27515
  3 Li   -0.00767    0.00135   -0.26228
  4 Li    0.00135   -0.00108   -0.28472
  5 Li    0.00099    0.00236   -0.26299
  6 Li    0.01516   -0.00386   -0.27902
  7 Li   -0.00972    0.00534   -0.26584
  8 Li   -0.00463   -0.01806   -0.27709
  9 Li   -0.00751   -0.00391    0.35019
 10 Li    0.00692    0.00157    0.23816
 11 Li   -0.00775    0.00204    0.28115
 12 Li    0.00139    0.01704    0.25790
 13 Li    0.00256   -0.00528    0.25358
 14 Li   -0.00101    0.01078    0.26342
 15 Li   -0.00002   -0.01324    0.25751
 16 Li    0.00697    0.00562    0.25786
 17 Li   -0.00056   -0.01341    0.25900
 18 Li    0.00350    0.01590   -0.00455
 19 Li    0.01108   -0.01879    0.07382
 20 Li   -0.00941    0.03838   -0.08161
 21 Li   -0.00297   -0.00212    0.07348
 22 Li   -0.01004    0.00499   -0.00053
 23 Li    0.01294   -0.00075    0.08388
 24 Li    0.01226   -0.01027   -0.02386
 25 Li    0.01655    0.01569    0.06532
 26 Li   -0.02321   -0.03711   -0.09126
 27 Li    0.78080   -0.02168   -6.09535
 28 Li    0.08933   -0.01395   -0.09637
 29 Li    0.23188    0.00080    0.19109
 30 Li    0.03822    0.18896   -0.21492
 31 Li    0.03326    0.00686   -0.06276
 32 Li   -0.06447    0.06437   -0.05747
 33 Li    0.02161   -0.10207   -0.06333
 34 Li    0.00226   -0.00596   -0.02014
 35 Li   -0.03676   -0.05629   -0.03307
 36 O     5.76359   -0.00554    8.52761
 37 C     1.41258    1.50655    1.58009
 38 C     0.03883   -0.01431    0.19029
 39 H     0.27828    0.22813    0.29380
 40 H     0.20798    0.24430    0.47657
 41 H     0.01257   -0.09626   -0.03062
 42 H    -0.12395    0.05802    0.06472
 43 H    -0.07274    0.05496   -0.02244
 44 H    -1.29106   -0.06330    0.75161
 45 N    -1.06529   -1.93515   -0.35428
 46 N    -6.22132   -0.05763   -5.03691

System changes: positions 

Initializing position-dependent things.

Density initialized from wave functions
       .-----------------------.  
      /|                       |  
     / |                       |  
    /  |                       |  
   /   |                       |  
  /    |                       |  
 *     |                       |  
 |     |                       |  
 |     |                       |  
 |     O                       |  
 |     |                       |  
 |     |                    N  N  
 |     |                       |  
 |     Li      Li        H     |  
 |   H |                   C   |  
 |  CLi|     Li      Li HH     |  
 |   H |                       |  
 | Li  |  LLi     LLi     Li   |  
 |     |                       |  
 |     |Li      LLi     Li     |  
 |   Li|     Li      Li        |  
 |    Li  Li  Li  Li  Li  Li   |  
 | Li  |   Li      Li          |  
 |     |Li      Li      Li     |  
 Li    | Li      Li            |  
 |    Li      Li      Li       |  
 |     |                       |  
 |     |                       |  
 |     |                       |  
 |     |                       |  
 |     |                       |  
 |     |                       |  
 |     .-----------------------.  
 |    /                       /   
 |   /                       /    
 |  /                       /     
 | /                       /      
 |/                       /       
 *-----------------------*        

Positions:
   0 Li     1.617037    1.617037   10.000000    ( 0.0000,  0.0000,  0.0000)
   1 Li     4.851111    1.617037   10.000000    ( 0.0000,  0.0000,  0.0000)
   2 Li     8.085185    1.617037   10.000000    ( 0.0000,  0.0000,  0.0000)
   3 Li     1.617037    4.851111   10.000000    ( 0.0000,  0.0000,  0.0000)
   4 Li     4.851111    4.851111   10.000000    ( 0.0000,  0.0000,  0.0000)
   5 Li     8.085185    4.851111   10.000000    ( 0.0000,  0.0000,  0.0000)
   6 Li     1.617037    8.085185   10.000000    ( 0.0000,  0.0000,  0.0000)
   7 Li     4.851111    8.085185   10.000000    ( 0.0000,  0.0000,  0.0000)
   8 Li     8.085185    8.085185   10.000000    ( 0.0000,  0.0000,  0.0000)
   9 Li     0.000000    0.000000   11.617037    ( 0.0000,  0.0000,  0.0000)
  10 Li     3.234074    0.000000   11.617037    ( 0.0000,  0.0000,  0.0000)
  11 Li     6.468148    0.000000   11.617037    ( 0.0000,  0.0000,  0.0000)
  12 Li     0.000000    3.234074   11.617037    ( 0.0000,  0.0000,  0.0000)
  13 Li     3.234074    3.234074   11.617037    ( 0.0000,  0.0000,  0.0000)
  14 Li     6.468148    3.234074   11.617037    ( 0.0000,  0.0000,  0.0000)
  15 Li     0.000000    6.468148   11.617037    ( 0.0000,  0.0000,  0.0000)
  16 Li     3.234074    6.468148   11.617037    ( 0.0000,  0.0000,  0.0000)
  17 Li     6.468148    6.468148   11.617037    ( 0.0000,  0.0000,  0.0000)
  18 Li     1.617122    1.617284   13.469594    ( 0.0000,  0.0000,  0.0000)
  19 Li     4.851262    1.616775   13.470736    ( 0.0000,  0.0000,  0.0000)
  20 Li     8.085023    1.617597   13.468540    ( 0.0000,  0.0000,  0.0000)
  21 Li     1.616991    4.851084   13.470734    ( 0.0000,  0.0000,  0.0000)
  22 Li     4.850972    4.851181   13.469718    ( 0.0000,  0.0000,  0.0000)
  23 Li     8.085363    4.851104   13.470873    ( 0.0000,  0.0000,  0.0000)
  24 Li     1.617243    8.085014   13.469328    ( 0.0000,  0.0000,  0.0000)
  25 Li     4.851341    8.085404   13.470623    ( 0.0000,  0.0000,  0.0000)
  26 Li     8.084830    8.084641   13.468404    ( 0.0000,  0.0000,  0.0000)
  27 Li     0.010362   -0.000124   15.368954    ( 0.0000,  0.0000,  0.0000)
  28 Li     3.235277   -0.000190   15.444649    ( 0.0000,  0.0000,  0.0000)
  29 Li     6.471482    0.000016   15.448726    ( 0.0000,  0.0000,  0.0000)
  30 Li     0.000508    3.236589   15.443084    ( 0.0000,  0.0000,  0.0000)
  31 Li     3.234535    3.234180   15.445084    ( 0.0000,  0.0000,  0.0000)
  32 Li     6.467270    3.234948   15.445170    ( 0.0000,  0.0000,  0.0000)
  33 Li     0.000286    6.466817   15.445135    ( 0.0000,  0.0000,  0.0000)
  34 Li     3.234118    6.468052   15.445659    ( 0.0000,  0.0000,  0.0000)
  35 Li     6.467635    6.467385   15.445493    ( 0.0000,  0.0000,  0.0000)
  36 O      9.772542    9.699684   18.542666    ( 0.0000,  0.0000,  0.0000)
  37 C     10.536849   10.904235   18.469889    ( 0.0000,  0.0000,  0.0000)
  38 C      9.700016   12.169082   18.438145    ( 0.0000,  0.0000,  0.0000)
  39 H     11.207876   10.880151   19.315781    ( 0.0000,  0.0000,  0.0000)
  40 H     11.131236   10.812434   17.554250    ( 0.0000,  0.0000,  0.0000)
  41 H     10.353383   13.044642   18.419918    ( 0.0000,  0.0000,  0.0000)
  42 H      9.048891   12.204086   17.559936    ( 0.0000,  0.0000,  0.0000)
  43 H      9.069832   12.239831   19.328100    ( 0.0000,  0.0000,  0.0000)
  44 H      9.100638    9.741721   19.224564    ( 0.0000,  0.0000,  0.0000)
  45 N      9.667346    9.676510   16.942433    ( 0.0000,  0.0000,  0.0000)
  46 N      8.549663    9.701043   16.889030    ( 0.0000,  0.0000,  0.0000)

Unit cell:
           periodic     x           y           z      points  spacing
  1. axis:    yes    9.702222    0.000000    0.000000    60     0.1617
  2. axis:    yes    0.000000    9.702222    0.000000    60     0.1617
  3. axis:    no     0.000000    0.000000   26.351111   164     0.1607

  Lengths:   9.702222   9.702222  26.351111
  Angles:   90.000000  90.000000  90.000000

Effective grid spacing dv^(1/3) = 0.1614

     iter     time        total  log10-change:
                         energy  eigst   dens
iter:   1 22:23:43  -303.249440  -0.88
iter:   2 22:23:50  -303.246662  -1.50  -2.04
iter:   3 22:23:57  -303.245375c -2.01  -2.16
iter:   4 22:24:04  -303.243304c -2.08  -2.41
Writing to output.gpw (mode='')

iter:   5 22:24:11  -303.242855c -2.12  -2.55
iter:   6 22:24:18  -303.243214c -2.69  -2.60
iter:   7 22:24:26  -303.243374c -2.62  -2.71
iter:   8 22:24:33  -303.242645c -3.06  -2.84
iter:   9 22:24:40  -303.242680c -3.27  -3.06
Writing to output.gpw (mode='')

iter:  10 22:24:47  -303.242981c -3.53  -3.11
iter:  11 22:24:54  -303.242820c -3.51  -3.06
iter:  12 22:25:01  -303.242786c -3.61  -3.34
iter:  13 22:25:17  -303.242844c -4.01  -3.45
iter:  14 22:25:36  -303.242807c -4.29  -3.60
Writing to output.gpw (mode='')

iter:  15 22:25:48  -303.242821c -4.63  -3.71
iter:  16 22:26:03  -303.242823c -4.59  -3.75
iter:  17 22:26:15  -303.242820c -4.63  -3.82
iter:  18 22:26:22  -303.242823c -5.02  -3.99
iter:  19 22:26:29  -303.242826c -5.01  -4.00c
Writing to output.gpw (mode='')

iter:  20 22:26:36  -303.242830c -5.14  -4.10c
iter:  21 22:26:43  -303.242832c -5.15  -4.12c
iter:  22 22:26:51  -303.242835c -5.30  -4.19c
iter:  23 22:26:58  -303.242833c -5.73  -4.37c
iter:  24 22:27:05  -303.242832c -5.63  -4.50c
Writing to output.gpw (mode='')

iter:  25 22:27:12  -303.242832c -5.84  -4.57c
iter:  26 22:27:19  -303.242833c -5.81  -4.61c
iter:  27 22:27:27  -303.242831c -5.89  -4.63c
iter:  28 22:27:34  -303.242832c -5.92  -4.74c
iter:  29 22:27:41  -303.242833c -6.24  -4.84c
Writing to output.gpw (mode='')

iter:  30 22:27:48  -303.242834c -6.11  -5.00c
iter:  31 22:27:55  -303.242834c -6.25  -5.10c
iter:  32 22:28:03  -303.242834c -6.62  -5.17c
iter:  33 22:28:10  -303.242834c -6.62  -5.21c
iter:  34 22:28:17  -303.242834c -6.70  -5.24c
Writing to output.gpw (mode='')

iter:  35 22:28:24  -303.242834c -6.85  -5.37c
iter:  36 22:28:31  -303.242835c -6.92  -5.44c
iter:  37 22:28:39  -303.242834c -6.88  -5.54c
iter:  38 22:28:46  -303.242834c -6.82  -5.56c
iter:  39 22:28:53  -303.242834c -7.14  -5.65c
Writing to output.gpw (mode='')

iter:  40 22:29:00  -303.242835c -7.25  -5.64c
iter:  41 22:29:08  -303.242834c -7.07  -5.71c
iter:  42 22:29:15  -303.242834c -7.50c -5.72c

Converged after 42 iterations.

Dipole moment: (-13.874897, -15.358005, 0.506082) |e|*Ang

Energy contributions relative to reference atoms: (reference = -14434.854043)

Kinetic:       +181.542182
Potential:     -165.064282
External:        +0.000000
XC:            -320.406933
Entropy (-ST):   -0.149512
Local:           +0.760954
--------------------------
Free energy:   -303.317591
Extrapolated:  -303.242834

Dipole-layer corrected work functions: 3.382851, 2.409987 eV

Showing only first 2 kpts
 Kpt  Band  Eigenvalues  Occupancy
  0    31     -3.14874    1.98722
  0    32     -3.04613    1.90462
  0    33     -2.75830    0.11879
  0    34     -2.66229    0.01834

  1    31     -2.95474    1.52500
  1    32     -2.91002    1.13518
  1    33     -2.84347    0.51503
  1    34     -2.79621    0.23755


Fermi level: -2.89642

No gap
Writing to output.gpw (mode='')


Forces in eV/Ang:
  0 Li    0.01959    0.00155   -0.27755
  1 Li   -0.00994   -0.00577   -0.26540
  2 Li   -0.00615    0.01633   -0.27616
  3 Li   -0.00810    0.00127   -0.26194
  4 Li    0.00139   -0.00110   -0.28522
  5 Li    0.00141    0.00188   -0.26250
  6 Li    0.01547   -0.00379   -0.27992
  7 Li   -0.01006    0.00565   -0.26506
  8 Li   -0.00455   -0.01818   -0.27800
  9 Li   -0.00761   -0.00392    0.35468
 10 Li    0.00660    0.00149    0.23862
 11 Li   -0.00759    0.00194    0.28219
 12 Li    0.00159    0.01753    0.25799
 13 Li    0.00312   -0.00497    0.25337
 14 Li   -0.00187    0.01177    0.26295
 15 Li    0.00023   -0.01353    0.25812
 16 Li    0.00777    0.00551    0.25753
 17 Li   -0.00142   -0.01433    0.25869
 18 Li    0.00872    0.02120   -0.01247
 19 Li    0.01170   -0.01900    0.07379
 20 Li   -0.01412    0.04331   -0.08806
 21 Li   -0.00223   -0.00166    0.07257
 22 Li   -0.01050    0.00476   -0.00108
 23 Li    0.01245   -0.00026    0.08303
 24 Li    0.01763   -0.01612   -0.03240
 25 Li    0.01748    0.01608    0.06657
 26 Li   -0.02813   -0.04201   -0.09960
 27 Li    0.75519    0.01167   -5.28188
 28 Li    0.08994   -0.01352   -0.09468
 29 Li    0.22496    0.00308    0.19028
 30 Li    0.03731    0.18532   -0.21243
 31 Li    0.03297    0.00695   -0.06291
 32 Li   -0.06329    0.06377   -0.05750
 33 Li    0.02263   -0.10132   -0.06244
 34 Li    0.00249   -0.00630   -0.02014
 35 Li   -0.03842   -0.05671   -0.03409
 36 O     4.76166   -0.14663    7.35199
 37 C     1.21345    1.20362    1.40594
 38 C     0.01481   -0.00334    0.18313
 39 H     0.39015    0.34740    0.34932
 40 H     0.18741    0.22178    0.45554
 41 H     0.01111   -0.05135   -0.02553
 42 H    -0.09129    0.03547    0.08080
 43 H    -0.07368    0.06429   -0.00500
 44 H    -1.03279    0.04441    0.49110
 45 N    -1.15941   -1.77368   -0.53499
 46 N    -5.27371   -0.07194   -4.05704

System changes: positions 

Initializing position-dependent things.

Density initialized from wave functions
       .-----------------------.  
      /|                       |  
     / |                       |  
    /  |                       |  
   /   |                       |  
  /    |                       |  
 *     |                       |  
 |     |                       |  
 |     |                       |  
 |     O                       |  
 |     |                       |  
 |     |                       N  
 |     |                    N  |  
 |     |       Li        H     |  
 |   H |                   C   |  
 |  CLi|     Li      Li HH     |  
 |   H |                       |  
 | Li  |  LLi     LLi     Li   |  
 |     |                       |  
 Li    |Li      LLi     Li     |  
 |   Li|     Li      Li        |  
 |    Li  Li  Li  Li  Li  Li   |  
 | Li  |   Li      Li          |  
 |     |Li      Li      Li     |  
 Li    | Li      Li            |  
 |    Li      Li      Li       |  
 |     |                       |  
 |     |                       |  
 |     |                       |  
 |     |                       |  
 |     |                       |  
 |     |                       |  
 |     .-----------------------.  
 |    /                       /   
 |   /                       /    
 |  /                       /     
 | /                       /      
 |/                       /       
 *-----------------------*        

Positions:
   0 Li     1.617037    1.617037   10.000000    ( 0.0000,  0.0000,  0.0000)
   1 Li     4.851111    1.617037   10.000000    ( 0.0000,  0.0000,  0.0000)
   2 Li     8.085185    1.617037   10.000000    ( 0.0000,  0.0000,  0.0000)
   3 Li     1.617037    4.851111   10.000000    ( 0.0000,  0.0000,  0.0000)
   4 Li     4.851111    4.851111   10.000000    ( 0.0000,  0.0000,  0.0000)
   5 Li     8.085185    4.851111   10.000000    ( 0.0000,  0.0000,  0.0000)
   6 Li     1.617037    8.085185   10.000000    ( 0.0000,  0.0000,  0.0000)
   7 Li     4.851111    8.085185   10.000000    ( 0.0000,  0.0000,  0.0000)
   8 Li     8.085185    8.085185   10.000000    ( 0.0000,  0.0000,  0.0000)
   9 Li     0.000000    0.000000   11.617037    ( 0.0000,  0.0000,  0.0000)
  10 Li     3.234074    0.000000   11.617037    ( 0.0000,  0.0000,  0.0000)
  11 Li     6.468148    0.000000   11.617037    ( 0.0000,  0.0000,  0.0000)
  12 Li     0.000000    3.234074   11.617037    ( 0.0000,  0.0000,  0.0000)
  13 Li     3.234074    3.234074   11.617037    ( 0.0000,  0.0000,  0.0000)
  14 Li     6.468148    3.234074   11.617037    ( 0.0000,  0.0000,  0.0000)
  15 Li     0.000000    6.468148   11.617037    ( 0.0000,  0.0000,  0.0000)
  16 Li     3.234074    6.468148   11.617037    ( 0.0000,  0.0000,  0.0000)
  17 Li     6.468148    6.468148   11.617037    ( 0.0000,  0.0000,  0.0000)
  18 Li     1.617283    1.617556   13.469346    ( 0.0000,  0.0000,  0.0000)
  19 Li     4.851379    1.616595   13.471406    ( 0.0000,  0.0000,  0.0000)
  20 Li     8.084812    1.618088   13.467606    ( 0.0000,  0.0000,  0.0000)
  21 Li     1.616979    4.851077   13.471380    ( 0.0000,  0.0000,  0.0000)
  22 Li     4.850869    4.851221   13.469694    ( 0.0000,  0.0000,  0.0000)
  23 Li     8.085471    4.851109   13.471614    ( 0.0000,  0.0000,  0.0000)
  24 Li     1.617490    8.084778   13.468885    ( 0.0000,  0.0000,  0.0000)
  25 Li     4.851517    8.085560   13.471249    ( 0.0000,  0.0000,  0.0000)
  26 Li     8.084485    8.084162   13.467334    ( 0.0000,  0.0000,  0.0000)
  27 Li     0.017129    0.000556   15.336848    ( 0.0000,  0.0000,  0.0000)
  28 Li     3.236101   -0.000304   15.443827    ( 0.0000,  0.0000,  0.0000)
  29 Li     6.473431    0.000078   15.450467    ( 0.0000,  0.0000,  0.0000)
  30 Li     0.000826    3.238202   15.441214    ( 0.0000,  0.0000,  0.0000)
  31 Li     3.234831    3.234247   15.444519    ( 0.0000,  0.0000,  0.0000)
  32 Li     6.466719    3.235512   15.444654    ( 0.0000,  0.0000,  0.0000)
  33 Li     0.000500    6.465916   15.444595    ( 0.0000,  0.0000,  0.0000)
  34 Li     3.234150    6.467985   15.445477    ( 0.0000,  0.0000,  0.0000)
  35 Li     6.467263    6.466871   15.445168    ( 0.0000,  0.0000,  0.0000)
  36 O      9.794574    9.693456   18.575465    ( 0.0000,  0.0000,  0.0000)
  37 C     10.543837   10.910911   18.477997    ( 0.0000,  0.0000,  0.0000)
  38 C      9.700083   12.169753   18.439647    ( 0.0000,  0.0000,  0.0000)
  39 H     11.214795   10.885833   19.321432    ( 0.0000,  0.0000,  0.0000)
  40 H     11.132305   10.813999   17.558428    ( 0.0000,  0.0000,  0.0000)
  41 H     10.353312   13.044846   18.419786    ( 0.0000,  0.0000,  0.0000)
  42 H      9.048694   12.203916   17.561005    ( 0.0000,  0.0000,  0.0000)
  43 H      9.069090   12.240556   19.328409    ( 0.0000,  0.0000,  0.0000)
  44 H      9.093203    9.744776   19.226311    ( 0.0000,  0.0000,  0.0000)
  45 N      9.647869    9.663326   16.935913    ( 0.0000,  0.0000,  0.0000)
  46 N      8.531073    9.700205   16.877154    ( 0.0000,  0.0000,  0.0000)

Unit cell:
           periodic     x           y           z      points  spacing
  1. axis:    yes    9.702222    0.000000    0.000000    60     0.1617
  2. axis:    yes    0.000000    9.702222    0.000000    60     0.1617
  3. axis:    no     0.000000    0.000000   26.351111   164     0.1607

  Lengths:   9.702222   9.702222  26.351111
  Angles:   90.000000  90.000000  90.000000

Effective grid spacing dv^(1/3) = 0.1614

     iter     time        total  log10-change:
                         energy  eigst   dens
iter:   1 22:29:23  -303.961787  -0.86
iter:   2 22:29:31  -303.959431  -1.48  -2.04
iter:   3 22:29:38  -303.958250c -1.97  -2.17
iter:   4 22:29:45  -303.955611c -2.03  -2.38
Writing to output.gpw (mode='')

iter:   5 22:29:52  -303.954994c -2.13  -2.52
iter:   6 22:29:59  -303.955407c -2.59  -2.60
iter:   7 22:30:15  -303.955270c -2.54  -2.66
iter:   8 22:30:34  -303.954619c -3.01  -2.86
iter:   9 22:30:50  -303.954675c -3.18  -3.04
Writing to output.gpw (mode='')

iter:  10 22:31:05  -303.955071c -3.30  -3.10
iter:  11 22:31:16  -303.954815c -3.18  -2.99
iter:  12 22:31:23  -303.954752c -3.87  -3.34
iter:  13 22:31:31  -303.954785c -3.97  -3.48
iter:  14 22:31:38  -303.954769c -4.15  -3.49
Writing to output.gpw (mode='')

iter:  15 22:31:45  -303.954791c -4.53  -3.64
iter:  16 22:31:52  -303.954798c -4.40  -3.64
iter:  17 22:31:59  -303.954797c -4.47  -3.79
iter:  18 22:32:06  -303.954799c -4.65  -3.86
iter:  19 22:32:13  -303.954815c -4.81  -3.99
Writing to output.gpw (mode='')

iter:  20 22:32:20  -303.954813c -5.06  -4.14c
iter:  21 22:32:28  -303.954814c -5.08  -4.22c
iter:  22 22:32:35  -303.954818c -5.24  -4.28c
iter:  23 22:32:42  -303.954820c -5.27  -4.43c
iter:  24 22:32:49  -303.954814c -5.39  -4.40c
Writing to output.gpw (mode='')

iter:  25 22:32:56  -303.954817c -5.62  -4.60c
iter:  26 22:33:03  -303.954819c -5.68  -4.63c
iter:  27 22:33:10  -303.954823c -5.74  -4.65c
iter:  28 22:33:18  -303.954822c -5.87  -4.77c
iter:  29 22:33:25  -303.954824c -6.03  -4.80c
Writing to output.gpw (mode='')

iter:  30 22:33:32  -303.954822c -5.85  -4.96c
iter:  31 22:33:39  -303.954822c -6.18  -4.95c
iter:  32 22:33:46  -303.954823c -6.34  -5.16c
iter:  33 22:33:53  -303.954824c -6.33  -5.23c
iter:  34 22:34:01  -303.954824c -6.33  -5.33c
Writing to output.gpw (mode='')

iter:  35 22:34:08  -303.954824c -6.53  -5.35c
iter:  36 22:34:15  -303.954824c -6.55  -5.36c
iter:  37 22:34:22  -303.954824c -6.71  -5.38c
iter:  38 22:34:29  -303.954824c -6.80  -5.27c
iter:  39 22:34:36  -303.954824c -6.97  -5.53c
Writing to output.gpw (mode='')

iter:  40 22:34:44  -303.954824c -6.90  -5.55c
iter:  41 22:34:51  -303.954824c -6.96  -5.62c
iter:  42 22:34:58  -303.954825c -7.08  -5.66c
iter:  43 22:35:10  -303.954825c -7.05  -5.81c
iter:  44 22:35:25  -303.954825c -7.04  -5.85c
Writing to output.gpw (mode='')

iter:  45 22:35:44  -303.954825c -7.19  -5.92c
iter:  46 22:36:00  -303.954825c -7.43c -6.12c

Converged after 46 iterations.

Dipole moment: (-12.880916, -13.419545, 0.498744) |e|*Ang

Energy contributions relative to reference atoms: (reference = -14434.854043)

Kinetic:       +178.519869
Potential:     -163.236951
External:        +0.000000
XC:            -319.923190
Entropy (-ST):   -0.148952
Local:           +0.759922
--------------------------
Free energy:   -304.029301
Extrapolated:  -303.954825

Dipole-layer corrected work functions: 3.383157, 2.424400 eV

Showing only first 2 kpts
 Kpt  Band  Eigenvalues  Occupancy
  0    31     -3.15716    1.98748
  0    32     -3.05458    1.90658
  0    33     -2.76453    0.11628
  0    34     -2.66951    0.01829

  1    31     -2.96182    1.52300
  1    32     -2.91794    1.14067
  1    33     -2.84938    0.50403
  1    34     -2.80348    0.23717


Fermi level: -2.90378

No gap
Writing to output.gpw (mode='')


Forces in eV/Ang:
  0 Li    0.01944    0.00151   -0.27828
  1 Li   -0.00994   -0.00606   -0.26474
  2 Li   -0.00589    0.01698   -0.27711
  3 Li   -0.00866    0.00118   -0.26151
  4 Li    0.00155   -0.00115   -0.28579
  5 Li    0.00181    0.00127   -0.26226
  6 Li    0.01581   -0.00367   -0.28076
  7 Li   -0.01044    0.00607   -0.26426
  8 Li   -0.00444   -0.01829   -0.27882
  9 Li   -0.00746   -0.00393    0.35862
 10 Li    0.00631    0.00136    0.23943
 11 Li   -0.00782    0.00182    0.28254
 12 Li    0.00169    0.01809    0.25808
 13 Li    0.00385   -0.00420    0.25291
 14 Li   -0.00277    0.01266    0.26229
 15 Li    0.00047   -0.01383    0.25871
 16 Li    0.00868    0.00494    0.25703
 17 Li   -0.00229   -0.01511    0.25834
 18 Li    0.01446    0.02732   -0.02081
 19 Li    0.01232   -0.01895    0.07343
 20 Li   -0.01884    0.04712   -0.09289
 21 Li   -0.00126   -0.00113    0.07105
 22 Li   -0.01095    0.00445   -0.00140
 23 Li    0.01177    0.00035    0.08153
 24 Li    0.02333   -0.02277   -0.04095
 25 Li    0.01838    0.01622    0.06756
 26 Li   -0.03280   -0.04568   -0.10628
 27 Li    0.72210    0.04345   -4.59188
 28 Li    0.09020   -0.01299   -0.09216
 29 Li    0.21286    0.00568    0.18590
 30 Li    0.03645    0.18037   -0.20848
 31 Li    0.03233    0.00678   -0.06291
 32 Li   -0.06190    0.06301   -0.05763
 33 Li    0.02407   -0.09985   -0.06155
 34 Li    0.00252   -0.00633   -0.02004
 35 Li   -0.04035   -0.05724   -0.03525
 36 O     3.95576   -0.19209    6.21648
 37 C     1.01696    0.90431    1.25799
 38 C     0.02102   -0.01270    0.18486
 39 H     0.46469    0.44871    0.36249
 40 H     0.15700    0.18261    0.43584
 41 H     0.00261   -0.02070   -0.02013
 42 H    -0.06671    0.01339    0.08698
 43 H    -0.07674    0.07457    0.01481
 44 H    -0.88474    0.13894    0.39978
 45 N    -1.04289   -1.61244   -0.64767
 46 N    -4.55194   -0.04742   -3.38062

System changes: positions 

Initializing position-dependent things.

Density initialized from wave functions
       .-----------------------.  
      /|                       |  
     / |                       |  
    /  |                       |  
   /   |                       |  
  /    |                       |  
 *     |                       |  
 |     |                       |  
 |     |                       |  
 |     O                       |  
 |     |                       |  
 |     |                       N  
 |     |                    N  |  
 |     |       Li        H     |  
 |   HH|                   C   |  
 |  CLi|     Li      Li HH     |  
 |   H |                       |  
 | Li  |  LLi     LLi     Li   |  
 |     |                       |  
 Li    |Li      LLi     Li     |  
 |   Li|     Li      Li        |  
 |    Li  Li  Li  Li  Li  Li   |  
 | Li  |   Li      Li          |  
 |     |Li      Li      Li     |  
 Li    | Li      Li            |  
 |    Li      Li      Li       |  
 |     |                       |  
 |     |                       |  
 |     |                       |  
 |     |                       |  
 |     |                       |  
 |     |                       |  
 |     .-----------------------.  
 |    /                       /   
 |   /                       /    
 |  /                       /     
 | /                       /      
 |/                       /       
 *-----------------------*        

Positions:
   0 Li     1.617037    1.617037   10.000000    ( 0.0000,  0.0000,  0.0000)
   1 Li     4.851111    1.617037   10.000000    ( 0.0000,  0.0000,  0.0000)
   2 Li     8.085185    1.617037   10.000000    ( 0.0000,  0.0000,  0.0000)
   3 Li     1.617037    4.851111   10.000000    ( 0.0000,  0.0000,  0.0000)
   4 Li     4.851111    4.851111   10.000000    ( 0.0000,  0.0000,  0.0000)
   5 Li     8.085185    4.851111   10.000000    ( 0.0000,  0.0000,  0.0000)
   6 Li     1.617037    8.085185   10.000000    ( 0.0000,  0.0000,  0.0000)
   7 Li     4.851111    8.085185   10.000000    ( 0.0000,  0.0000,  0.0000)
   8 Li     8.085185    8.085185   10.000000    ( 0.0000,  0.0000,  0.0000)
   9 Li     0.000000    0.000000   11.617037    ( 0.0000,  0.0000,  0.0000)
  10 Li     3.234074    0.000000   11.617037    ( 0.0000,  0.0000,  0.0000)
  11 Li     6.468148    0.000000   11.617037    ( 0.0000,  0.0000,  0.0000)
  12 Li     0.000000    3.234074   11.617037    ( 0.0000,  0.0000,  0.0000)
  13 Li     3.234074    3.234074   11.617037    ( 0.0000,  0.0000,  0.0000)
  14 Li     6.468148    3.234074   11.617037    ( 0.0000,  0.0000,  0.0000)
  15 Li     0.000000    6.468148   11.617037    ( 0.0000,  0.0000,  0.0000)
  16 Li     3.234074    6.468148   11.617037    ( 0.0000,  0.0000,  0.0000)
  17 Li     6.468148    6.468148   11.617037    ( 0.0000,  0.0000,  0.0000)
  18 Li     1.617563    1.617985   13.468926    ( 0.0000,  0.0000,  0.0000)
  19 Li     4.851537    1.616366   13.472263    ( 0.0000,  0.0000,  0.0000)
  20 Li     8.084485    1.618755   13.466361    ( 0.0000,  0.0000,  0.0000)
  21 Li     1.616978    4.851074   13.472189    ( 0.0000,  0.0000,  0.0000)
  22 Li     4.850730    4.851268   13.469661    ( 0.0000,  0.0000,  0.0000)
  23 Li     8.085600    4.851124   13.472546    ( 0.0000,  0.0000,  0.0000)
  24 Li     1.617879    8.084389   13.468216    ( 0.0000,  0.0000,  0.0000)
  25 Li     4.851754    8.085760   13.472066    ( 0.0000,  0.0000,  0.0000)
  26 Li     8.083989    8.083511   13.465892    ( 0.0000,  0.0000,  0.0000)
  27 Li     0.025308    0.001792   15.302363    ( 0.0000,  0.0000,  0.0000)
  28 Li     3.237162   -0.000444   15.442799    ( 0.0000,  0.0000,  0.0000)
  29 Li     6.475770    0.000191   15.452636    ( 0.0000,  0.0000,  0.0000)
  30 Li     0.001228    3.240216   15.438857    ( 0.0000,  0.0000,  0.0000)
  31 Li     3.235202    3.234329   15.443789    ( 0.0000,  0.0000,  0.0000)
  32 Li     6.466026    3.236229   15.443985    ( 0.0000,  0.0000,  0.0000)
  33 Li     0.000796    6.464777   15.443907    ( 0.0000,  0.0000,  0.0000)
  34 Li     3.234189    6.467901   15.445244    ( 0.0000,  0.0000,  0.0000)
  35 Li     6.466759    6.466200   15.444735    ( 0.0000,  0.0000,  0.0000)
  36 O      9.815735    9.686119   18.608607    ( 0.0000,  0.0000,  0.0000)
  37 C     10.550744   10.915767   18.487342    ( 0.0000,  0.0000,  0.0000)
  38 C      9.700298   12.170254   18.441655    ( 0.0000,  0.0000,  0.0000)
  39 H     11.223956   10.894098   19.328201    ( 0.0000,  0.0000,  0.0000)
  40 H     11.133358   10.815491   17.563473    ( 0.0000,  0.0000,  0.0000)
  41 H     10.353128   13.045421   18.419677    ( 0.0000,  0.0000,  0.0000)
  42 H      9.048665   12.203471   17.562387    ( 0.0000,  0.0000,  0.0000)
  43 H      9.068104   12.241619   19.329034    ( 0.0000,  0.0000,  0.0000)
  44 H      9.085494    9.749510   19.227862    ( 0.0000,  0.0000,  0.0000)
  45 N      9.626986    9.648180   16.926170    ( 0.0000,  0.0000,  0.0000)
  46 N      8.510970    9.699590   16.865825    ( 0.0000,  0.0000,  0.0000)

Unit cell:
           periodic     x           y           z      points  spacing
  1. axis:    yes    9.702222    0.000000    0.000000    60     0.1617
  2. axis:    yes    0.000000    9.702222    0.000000    60     0.1617
  3. axis:    no     0.000000    0.000000   26.351111   164     0.1607

  Lengths:   9.702222   9.702222  26.351111
  Angles:   90.000000  90.000000  90.000000

Effective grid spacing dv^(1/3) = 0.1614

     iter     time        total  log10-change:
                         energy  eigst   dens
iter:   1 22:36:14  -304.594116  -0.83
iter:   2 22:36:22  -304.596842  -1.51  -2.18
iter:   3 22:36:29  -304.597150c -1.94  -2.30
iter:   4 22:36:36  -304.594289c -1.96  -2.37
Writing to output.gpw (mode='')

iter:   5 22:36:43  -304.593669c -2.07  -2.52
iter:   6 22:36:51  -304.594080c -2.60  -2.65
iter:   7 22:36:58  -304.594260c -2.56  -2.59
iter:   8 22:37:05  -304.593447c -2.99  -2.72
iter:   9 22:37:12  -304.593434c -3.28  -3.02
Writing to output.gpw (mode='')

iter:  10 22:37:19  -304.593687c -3.66  -3.04
iter:  11 22:37:27  -304.593473c -3.39  -2.94
iter:  12 22:37:34  -304.593484c -3.36  -3.23
iter:  13 22:37:41  -304.593499c -3.76  -3.12
iter:  14 22:37:48  -304.593511c -4.04  -3.16
Writing to output.gpw (mode='')

iter:  15 22:37:55  -304.593502c -4.21  -3.40
iter:  16 22:38:03  -304.593471c -4.21  -3.51
iter:  17 22:38:10  -304.593492c -4.40  -3.74
iter:  18 22:38:17  -304.593499c -4.54  -3.69
iter:  19 22:38:24  -304.593497c -4.84  -3.74
Writing to output.gpw (mode='')

iter:  20 22:38:32  -304.593501c -4.94  -3.86
iter:  21 22:38:39  -304.593521c -4.90  -4.01c
iter:  22 22:38:46  -304.593516c -5.19  -4.16c
iter:  23 22:38:53  -304.593511c -5.38  -4.19c
iter:  24 22:39:00  -304.593514c -5.48  -4.26c
Writing to output.gpw (mode='')

iter:  25 22:39:08  -304.593512c -5.49  -4.38c
iter:  26 22:39:15  -304.593511c -5.63  -4.50c
iter:  27 22:39:22  -304.593511c -5.62  -4.51c
iter:  28 22:39:29  -304.593513c -5.82  -4.58c
iter:  29 22:39:36  -304.593514c -6.06  -4.74c
Writing to output.gpw (mode='')

iter:  30 22:39:44  -304.593513c -6.16  -4.80c
iter:  31 22:39:51  -304.593513c -6.18  -4.88c
iter:  32 22:39:58  -304.593516c -6.11  -4.93c
iter:  33 22:40:12  -304.593515c -6.34  -4.96c
iter:  34 22:40:26  -304.593514c -6.29  -5.09c
Writing to output.gpw (mode='')

iter:  35 22:40:43  -304.593515c -6.36  -5.15c
iter:  36 22:40:58  -304.593515c -6.27  -5.26c
iter:  37 22:41:12  -304.593515c -6.52  -5.43c
iter:  38 22:41:20  -304.593515c -6.43  -5.45c
iter:  39 22:41:27  -304.593515c -6.80  -5.33c
Writing to output.gpw (mode='')

iter:  40 22:41:34  -304.593515c -6.89  -5.47c
iter:  41 22:41:41  -304.593515c -6.81  -5.48c
iter:  42 22:41:48  -304.593515c -7.01  -5.47c
iter:  43 22:41:56  -304.593515c -7.15  -5.31c
iter:  44 22:42:06  -304.593515c -7.06  -5.44c
Writing to output.gpw (mode='')

iter:  45 22:42:13  -304.593515c -7.25  -5.48c
iter:  46 22:42:20  -304.593515c -7.26  -5.64c
iter:  47 22:42:27  -304.593515c -7.13  -5.75c
iter:  48 22:42:35  -304.593516c -7.28  -5.84c
iter:  49 22:42:42  -304.593516c -7.35  -5.98c
Writing to output.gpw (mode='')

iter:  50 22:42:49  -304.593516c -7.55c -6.08c

Converged after 50 iterations.

Dipole moment: (-11.522632, -11.224855, 0.482975) |e|*Ang

Energy contributions relative to reference atoms: (reference = -14434.854043)

Kinetic:       +175.511517
Potential:     -161.376485
External:        +0.000000
XC:            -319.412958
Entropy (-ST):   -0.148532
Local:           +0.758677
--------------------------
Free energy:   -304.667782
Extrapolated:  -304.593516

Dipole-layer corrected work functions: 3.383855, 2.455412 eV

Showing only first 2 kpts
 Kpt  Band  Eigenvalues  Occupancy
  0    31     -3.17385    1.98769
  0    32     -3.07123    1.90799
  0    33     -2.77960    0.11459
  0    34     -2.68556    0.01836

  1    31     -2.97765    1.52277
  1    32     -2.93390    1.14167
  1    33     -2.86338    0.49017
  1    34     -2.81937    0.23732


Fermi level: -2.91963

No gap

Forces in eV/Ang:
  0 Li    0.01931    0.00141   -0.27914
  1 Li   -0.00996   -0.00640   -0.26404
  2 Li   -0.00563    0.01762   -0.27817
  3 Li   -0.00927    0.00109   -0.26100
  4 Li    0.00178   -0.00120   -0.28649
  5 Li    0.00218    0.00058   -0.26216
  6 Li    0.01621   -0.00347   -0.28171
  7 Li   -0.01089    0.00659   -0.26345
  8 Li   -0.00434   -0.01835   -0.27972
  9 Li   -0.00717   -0.00394    0.36238
 10 Li    0.00608    0.00118    0.24048
 11 Li   -0.00834    0.00169    0.28264
 12 Li    0.00175    0.01866    0.25841
 13 Li    0.00477   -0.00306    0.25222
 14 Li   -0.00379    0.01369    0.26157
 15 Li    0.00068   -0.01405    0.25951
 16 Li    0.00974    0.00402    0.25640
 17 Li   -0.00323   -0.01596    0.25802
 18 Li    0.02138    0.03450   -0.03039
 19 Li    0.01297   -0.01872    0.07261
 20 Li   -0.02397    0.05055   -0.09719
 21 Li   -0.00017   -0.00048    0.06894
 22 Li   -0.01138    0.00409   -0.00153
 23 Li    0.01093    0.00108    0.07940
 24 Li    0.02992   -0.03042   -0.05033
 25 Li    0.01933    0.01617    0.06820
 26 Li   -0.03760   -0.04877   -0.11221
 27 Li    0.68126    0.07216   -3.96736
 28 Li    0.08967   -0.01227   -0.08874
 29 Li    0.20073    0.00877    0.18170
 30 Li    0.03550    0.17367   -0.20225
 31 Li    0.03136    0.00642   -0.06269
 32 Li   -0.06032    0.06216   -0.05765
 33 Li    0.02572   -0.09712   -0.06001
 34 Li    0.00254   -0.00630   -0.01993
 35 Li   -0.04256   -0.05781   -0.03628
 36 O     3.27401   -0.17832    5.31878
 37 C     0.79134    0.63606    1.09757
 38 C     0.02916   -0.03658    0.18704
 39 H     0.50780    0.52788    0.35344
 40 H     0.12355    0.13623    0.42195
 41 H    -0.00627   -0.00199   -0.01316
 42 H    -0.04035   -0.01083    0.09552
 43 H    -0.07739    0.08442    0.03244
 44 H    -0.69488    0.20319    0.29000
 45 N    -0.93419   -1.47122   -0.73230
 46 N    -3.98569   -0.05741   -2.68969

System changes: positions 

Initializing position-dependent things.

Density initialized from wave functions
       .-----------------------.  
      /|                       |  
     / |                       |  
    /  |                       |  
   /   |                       |  
  /    |                       |  
 *     |                       |  
 |     |                       |  
 |     |                       |  
 |     O                       |  
 |     |                       |  
 |     |                       |  
 |     |                    N  N  
 |     |       Li        H     |  
 |   HH|                   C   |  
 |  CLi|     Li      LiH H     |  
 |   H |                       |  
 | Li  |  LLi     LLi     Li   |  
 |     |                       |  
 Li    |Li      LLi     Li     |  
 |   Li|     Li      Li        |  
 |    Li  Li  Li  Li  Li  Li   |  
 | Li  |   Li      Li          |  
 |     |Li      Li      Li     |  
 Li    | Li      Li            |  
 |    Li      Li      Li       |  
 |     |                       |  
 |     |                       |  
 |     |                       |  
 |     |                       |  
 |     |                       |  
 |     |                       |  
 |     .-----------------------.  
 |    /                       /   
 |   /                       /    
 |  /                       /     
 | /                       /      
 |/                       /       
 *-----------------------*        

Positions:
   0 Li     1.617037    1.617037   10.000000    ( 0.0000,  0.0000,  0.0000)
   1 Li     4.851111    1.617037   10.000000    ( 0.0000,  0.0000,  0.0000)
   2 Li     8.085185    1.617037   10.000000    ( 0.0000,  0.0000,  0.0000)
   3 Li     1.617037    4.851111   10.000000    ( 0.0000,  0.0000,  0.0000)
   4 Li     4.851111    4.851111   10.000000    ( 0.0000,  0.0000,  0.0000)
   5 Li     8.085185    4.851111   10.000000    ( 0.0000,  0.0000,  0.0000)
   6 Li     1.617037    8.085185   10.000000    ( 0.0000,  0.0000,  0.0000)
   7 Li     4.851111    8.085185   10.000000    ( 0.0000,  0.0000,  0.0000)
   8 Li     8.085185    8.085185   10.000000    ( 0.0000,  0.0000,  0.0000)
   9 Li     0.000000    0.000000   11.617037    ( 0.0000,  0.0000,  0.0000)
  10 Li     3.234074    0.000000   11.617037    ( 0.0000,  0.0000,  0.0000)
  11 Li     6.468148    0.000000   11.617037    ( 0.0000,  0.0000,  0.0000)
  12 Li     0.000000    3.234074   11.617037    ( 0.0000,  0.0000,  0.0000)
[...]
Writing to output.gpw (mode='')

iter:  15 08:19:10  -309.903981c -6.51  -4.55c
iter:  16 08:19:17  -309.903982c -6.68  -4.69c
iter:  17 08:19:24  -309.903982c -6.89  -4.72c
iter:  18 08:19:31  -309.903982c -7.14  -4.80c
iter:  19 08:19:39  -309.903981c -7.06  -4.84c
Writing to output.gpw (mode='')

iter:  20 08:19:46  -309.903981c -7.65c -5.03c

Converged after 20 iterations.

Dipole moment: (-12.090738, -11.152553, -0.174802) |e|*Ang

Energy contributions relative to reference atoms: (reference = -14434.854043)

Kinetic:       +147.275045
Potential:     -139.789962
External:        +0.000000
XC:            -318.094565
Entropy (-ST):   -0.162113
Local:           +0.786557
--------------------------
Free energy:   -309.985038
Extrapolated:  -309.903981

Dipole-layer corrected work functions: 3.410152, 3.746182 eV

Showing only first 2 kpts
 Kpt  Band  Eigenvalues  Occupancy
  0    31     -3.77540    1.96202
  0    32     -3.59642    1.18056
  0    33     -3.56598    0.87875
  0    34     -3.47147    0.21167

  1    31     -3.89252    1.99629
  1    32     -3.53248    0.57249
  1    33     -3.46309    0.18199
  1    34     -3.45641    0.16107


Fermi level: -3.57817

No gap

Forces in eV/Ang:
  0 Li    0.01509    0.01173   -0.28712
  1 Li   -0.00804    0.00495   -0.29390
  2 Li   -0.01272   -0.01002   -0.29459
  3 Li    0.00703   -0.00884   -0.29034
  4 Li   -0.01612   -0.01774   -0.28631
  5 Li    0.00960    0.00408   -0.29240
  6 Li   -0.00660   -0.01298   -0.29546
  7 Li    0.00511    0.00905   -0.29350
  8 Li   -0.00042   -0.00196   -0.25597
  9 Li   -0.04465   -0.03254    0.28535
 10 Li    0.00178   -0.00930    0.28429
 11 Li    0.03150   -0.02630    0.32200
 12 Li   -0.01666    0.01070    0.29745
 13 Li    0.01243    0.01934    0.28850
 14 Li    0.00884    0.03607    0.27548
 15 Li   -0.03594    0.04612    0.32714
 16 Li    0.02375    0.01838    0.26973
 17 Li    0.03911    0.05083    0.26144
 18 Li    0.00269   -0.00128    0.00089
 19 Li    0.00012   -0.00613    0.00169
 20 Li    0.00162   -0.01380    0.00357
 21 Li   -0.00463   -0.00206    0.00153
 22 Li   -0.00592   -0.00569   -0.00872
 23 Li    0.00689    0.00452    0.00785
 24 Li   -0.01104   -0.00435    0.00635
 25 Li    0.01141    0.00378    0.00776
 26 Li    0.00798   -0.00392    0.00124
 27 Li    0.00435   -0.00301    0.00203
 28 Li    0.00505   -0.00112   -0.00193
 29 Li   -0.00402   -0.00992   -0.01726
 30 Li    0.00079   -0.00133   -0.00297
 31 Li    0.00201    0.00585   -0.00044
 32 Li    0.00008   -0.00967   -0.00968
 33 Li   -0.01779   -0.00405   -0.00797
 34 Li   -0.00404    0.00068   -0.00875
 35 Li    0.01686    0.01478   -0.00844
 36 O    -0.01140   -0.02109   -0.02567
 37 C    -0.00293   -0.00045    0.00180
 38 C     0.00865    0.00186    0.01609
 39 H    -0.01018   -0.02389   -0.00709
 40 H     0.00576    0.00759    0.00003
 41 H    -0.01373   -0.00638    0.01369
 42 H     0.03160    0.00284    0.02904
 43 H    -0.00438    0.00847   -0.00986
 44 H     0.02731    0.03229    0.02149
 45 N    -0.03077    0.04947    0.00720
 46 N     0.03435   -0.04951    0.00163

System changes: positions 

Initializing position-dependent things.

Density initialized from wave functions
       .-----------------------.  
      /|                       |  
     / |                       |  
    /  |                       |  
   /   |                       |  
  /    |                       |  
 *     |                       |  
 |     |                       |  
 |     |                       |  
 |     |                      H|  
 |     |                       |  
 |     |                       |  
 |     |                  H    |  
 |     H                      Li  
 |OC C |                 N N   |  
 |   LH|     Li       Li H     |  
 |     |                  Li   |  
 | Li  |  LLi     LLi          |  
 |     |                       |  
 |     |LLi     LLi     Li     |  
 |   Li|     Li      Li        |  
 |    Li  Li  Li  Li  Li  Li   |  
 | Li  |   Li      Li          |  
 |     |Li      Li      Li     |  
 Li    | Li      Li            |  
 |    Li      Li      Li       |  
 |     |                       |  
 |     |                       |  
 |     |                       |  
 |     |                       |  
 |     |                       |  
 |     |                       |  
 |     .-----------------------.  
 |    /                       /   
 |   /                       /    
 |  /                       /     
 | /                       /      
 |/                       /       
 *-----------------------*        

Positions:
   0 Li     1.617037    1.617037   10.000000    ( 0.0000,  0.0000,  0.0000)
   1 Li     4.851111    1.617037   10.000000    ( 0.0000,  0.0000,  0.0000)
   2 Li     8.085185    1.617037   10.000000    ( 0.0000,  0.0000,  0.0000)
   3 Li     1.617037    4.851111   10.000000    ( 0.0000,  0.0000,  0.0000)
   4 Li     4.851111    4.851111   10.000000    ( 0.0000,  0.0000,  0.0000)
   5 Li     8.085185    4.851111   10.000000    ( 0.0000,  0.0000,  0.0000)
   6 Li     1.617037    8.085185   10.000000    ( 0.0000,  0.0000,  0.0000)
   7 Li     4.851111    8.085185   10.000000    ( 0.0000,  0.0000,  0.0000)
   8 Li     8.085185    8.085185   10.000000    ( 0.0000,  0.0000,  0.0000)
   9 Li     0.000000    0.000000   11.617037    ( 0.0000,  0.0000,  0.0000)
  10 Li     3.234074    0.000000   11.617037    ( 0.0000,  0.0000,  0.0000)
  11 Li     6.468148    0.000000   11.617037    ( 0.0000,  0.0000,  0.0000)
  12 Li     0.000000    3.234074   11.617037    ( 0.0000,  0.0000,  0.0000)
  13 Li     3.234074    3.234074   11.617037    ( 0.0000,  0.0000,  0.0000)
  14 Li     6.468148    3.234074   11.617037    ( 0.0000,  0.0000,  0.0000)
  15 Li     0.000000    6.468148   11.617037    ( 0.0000,  0.0000,  0.0000)
  16 Li     3.234074    6.468148   11.617037    ( 0.0000,  0.0000,  0.0000)
  17 Li     6.468148    6.468148   11.617037    ( 0.0000,  0.0000,  0.0000)
  18 Li     1.556043    1.563999   13.478753    ( 0.0000,  0.0000,  0.0000)
  19 Li     4.824650    1.669067   13.482469    ( 0.0000,  0.0000,  0.0000)
  20 Li     8.029757    1.646418   13.496636    ( 0.0000,  0.0000,  0.0000)
  21 Li     1.666177    4.835987   13.489766    ( 0.0000,  0.0000,  0.0000)
  22 Li     4.927804    4.945787   13.500979    ( 0.0000,  0.0000,  0.0000)
  23 Li     8.119962    4.892823   13.505609    ( 0.0000,  0.0000,  0.0000)
  24 Li     1.631234    8.044054   13.486582    ( 0.0000,  0.0000,  0.0000)
  25 Li     4.864043    8.131465   13.510296    ( 0.0000,  0.0000,  0.0000)
  26 Li     8.065507    8.102445   13.587178    ( 0.0000,  0.0000,  0.0000)
  27 Li    -0.215585   -0.194618   15.481396    ( 0.0000,  0.0000,  0.0000)
  28 Li     3.102263    0.043960   15.417474    ( 0.0000,  0.0000,  0.0000)
  29 Li     6.356754    0.188322   15.512462    ( 0.0000,  0.0000,  0.0000)
  30 Li     0.046384    3.147817   15.397438    ( 0.0000,  0.0000,  0.0000)
  31 Li     3.242410    3.220523   15.409171    ( 0.0000,  0.0000,  0.0000)
  32 Li     6.402835    3.445297   15.454196    ( 0.0000,  0.0000,  0.0000)
  33 Li     0.145560    6.413154   15.497933    ( 0.0000,  0.0000,  0.0000)
  34 Li     3.399346    6.408322   15.469339    ( 0.0000,  0.0000,  0.0000)
  35 Li     6.737037    6.779372   15.637268    ( 0.0000,  0.0000,  0.0000)
  36 O     10.157809   10.004435   19.859199    ( 0.0000,  0.0000,  0.0000)
  37 C     10.771667   11.100997   19.169895    ( 0.0000,  0.0000,  0.0000)
  38 C      9.789672   12.208927   18.810317    ( 0.0000,  0.0000,  0.0000)
  39 H     11.535958   11.477153   19.853605    ( 0.0000,  0.0000,  0.0000)
  40 H     11.287636   10.744123   18.266493    ( 0.0000,  0.0000,  0.0000)
  41 H     10.316621   13.035962   18.321544    ( 0.0000,  0.0000,  0.0000)
  42 H      9.016460   11.847597   18.120449    ( 0.0000,  0.0000,  0.0000)
  43 H      9.293923   12.594864   19.702687    ( 0.0000,  0.0000,  0.0000)
  44 H      9.500329    9.606100   19.274205    ( 0.0000,  0.0000,  0.0000)
  45 N      8.553049    7.711789   15.621238    ( 0.0000,  0.0000,  0.0000)
  46 N      7.663521    8.603374   15.622547    ( 0.0000,  0.0000,  0.0000)

Unit cell:
           periodic     x           y           z      points  spacing
  1. axis:    yes    9.702222    0.000000    0.000000    60     0.1617
  2. axis:    yes    0.000000    9.702222    0.000000    60     0.1617
  3. axis:    no     0.000000    0.000000   26.351111   164     0.1607

  Lengths:   9.702222   9.702222  26.351111
  Angles:   90.000000  90.000000  90.000000

Effective grid spacing dv^(1/3) = 0.1614

     iter     time        total  log10-change:
                         energy  eigst   dens
iter:   1 08:19:54  -309.905601  -2.36
iter:   2 08:20:02  -309.904467  -2.96  -2.49
iter:   3 08:20:14  -309.904323c -3.61  -2.71
iter:   4 08:20:24  -309.904329c -4.02  -2.91
Writing to output.gpw (mode='')

iter:   5 08:20:47  -309.904402c -3.62  -3.05
iter:   6 08:21:02  -309.904378c -3.85  -3.35
iter:   7 08:21:15  -309.904437c -3.80  -3.49
iter:   8 08:21:26  -309.904384c -4.78  -3.47
iter:   9 08:21:35  -309.904337c -5.07  -3.58
Writing to output.gpw (mode='')

iter:  10 08:21:43  -309.904369c -4.94  -3.70
iter:  11 08:21:50  -309.904338c -5.04  -3.81
iter:  12 08:21:57  -309.904350c -5.94  -4.02c
iter:  13 08:22:04  -309.904348c -5.74  -4.11c
iter:  14 08:22:11  -309.904343c -5.72  -4.25c
Writing to output.gpw (mode='')

iter:  15 08:22:18  -309.904344c -6.14  -4.36c
iter:  16 08:22:26  -309.904345c -6.64  -4.43c
iter:  17 08:22:33  -309.904346c -6.71  -4.48c
iter:  18 08:22:40  -309.904340c -6.56  -4.55c
iter:  19 08:22:47  -309.904338c -6.65  -4.64c
Writing to output.gpw (mode='')

iter:  20 08:22:54  -309.904340c -7.00  -4.67c
iter:  21 08:23:02  -309.904341c -7.48c -4.86c

Converged after 21 iterations.

Dipole moment: (-12.073211, -11.301487, -0.174080) |e|*Ang

Energy contributions relative to reference atoms: (reference = -14434.854043)

Kinetic:       +147.421115
Potential:     -139.897889
External:        +0.000000
XC:            -318.133029
Entropy (-ST):   -0.162147
Local:           +0.786536
--------------------------
Free energy:   -309.985414
Extrapolated:  -309.904341

Dipole-layer corrected work functions: 3.410058, 3.744700 eV

Showing only first 2 kpts
 Kpt  Band  Eigenvalues  Occupancy
  0    31     -3.77499    1.96230
  0    32     -3.59544    1.17863
  0    33     -3.56503    0.87712
  0    34     -3.47119    0.21362

  1    31     -3.89146    1.99627
  1    32     -3.53183    0.57360
  1    33     -3.46236    0.18217
  1    34     -3.45553    0.16080


Fermi level: -3.57738

No gap
Writing to output.gpw (mode='')


Forces in eV/Ang:
  0 Li    0.01512    0.01192   -0.28710
  1 Li   -0.00812    0.00499   -0.29372
  2 Li   -0.01272   -0.00997   -0.29450
  3 Li    0.00699   -0.00881   -0.29028
  4 Li   -0.01615   -0.01776   -0.28642
  5 Li    0.00966    0.00414   -0.29228
  6 Li   -0.00664   -0.01301   -0.29524
  7 Li    0.00513    0.00913   -0.29347
  8 Li   -0.00039   -0.00194   -0.25577
  9 Li   -0.04372   -0.03238    0.28475
 10 Li    0.00188   -0.00902    0.28347
 11 Li    0.03086   -0.02595    0.32201
 12 Li   -0.01592    0.01035    0.29661
 13 Li    0.01281    0.01915    0.28803
 14 Li    0.00825    0.03557    0.27530
 15 Li   -0.03558    0.04521    0.32647
 16 Li    0.02382    0.01750    0.26947
 17 Li    0.03833    0.05014    0.26181
 18 Li    0.00218   -0.00154    0.00177
 19 Li   -0.00025   -0.00527   -0.00005
 20 Li    0.00111   -0.01406    0.00429
 21 Li   -0.00445   -0.00221    0.00095
 22 Li   -0.00583   -0.00522   -0.00923
 23 Li    0.00651    0.00466    0.00744
 24 Li   -0.01104   -0.00338    0.00702
 25 Li    0.01130    0.00269    0.00694
 26 Li    0.00820   -0.00254    0.00258
 27 Li   -0.00026   -0.00187    0.00301
 28 Li    0.00405   -0.00079   -0.00262
 29 Li   -0.00120   -0.01203   -0.01456
 30 Li    0.00099   -0.00190   -0.00314
 31 Li    0.00214    0.00533   -0.00072
 32 Li    0.00032   -0.00887   -0.00995
 33 Li   -0.01287   -0.00617   -0.00880
 34 Li   -0.00318    0.00096   -0.00853
 35 Li    0.01692    0.01168   -0.00520
 36 O     0.00277   -0.01432    0.00491
 37 C    -0.00091   -0.00271   -0.00191
 38 C     0.00663    0.00347    0.01510
 39 H    -0.01862   -0.01229    0.00175
 40 H     0.00809    0.00265   -0.02030
 41 H    -0.01218   -0.00207    0.01218
 42 H     0.03844   -0.00768    0.02228
 43 H     0.00021    0.01222    0.00246
 44 H     0.00497    0.01760    0.00204
 45 N    -0.02344    0.02507    0.01161
 46 N     0.04097   -0.02597   -0.00153

Timing:                                      incl.     excl.
-------------------------------------------------------------------
Density initialized from wave functions:    16.954    16.951   0.0% |
 Symmetrize density:                         0.003     0.003   0.0% |
Forces:                                     51.466    51.466   0.1% |
Hamiltonian:                               789.528     0.017   0.0% |
 Atomic:                                     0.030     0.030   0.0% |
  XC Correction:                             0.000     0.000   0.0% |
 Calculate atomic Hamiltonians:              0.052     0.052   0.0% |
 Communicate:                               19.854    19.854   0.1% |
 Hartree integrate/restrict:                 3.487     3.487   0.0% |
 Initialize Hamiltonian:                     0.000     0.000   0.0% |
 Poisson:                                   34.337    12.857   0.0% |
  Communicate from 1D:                       3.265     3.265   0.0% |
  Communicate from 2D:                       3.424     3.424   0.0% |
  Communicate to 1D:                         1.876     1.876   0.0% |
  Communicate to 2D:                         4.436     4.436   0.0% |
  FFT 1D:                                    4.326     4.326   0.0% |
  FFT 2D:                                    4.153     4.153   0.0% |
 XC 3D grid:                               731.074   111.945   0.3% |
  VdW-DF integral:                         619.129     4.698   0.0% |
   Convolution:                             53.558    53.558   0.1% |
   FFT:                                     22.332    22.332   0.1% |
   gather:                                 215.933   215.933   0.6% |
   hmm1:                                    18.341    18.341   0.0% |
   hmm2:                                    24.291    24.291   0.1% |
   iFFT:                                    23.279    23.279   0.1% |
   potential:                              253.083     6.156   0.0% |
    collect:                                33.559    33.559   0.1% |
    p1:                                     99.742    99.742   0.3% |
    p2:                                     37.496    37.496   0.1% |
    sum:                                    76.131    76.131   0.2% |
   splines:                                  3.614     3.614   0.0% |
 vbar:                                       0.676     0.676   0.0% |
LCAO initialization:                         1.086     0.182   0.0% |
 LCAO eigensolver:                           0.245     0.000   0.0% |
  Calculate projections:                     0.000     0.000   0.0% |
  DenseAtomicCorrection:                     0.000     0.000   0.0% |
  Distribute overlap matrix:                 0.180     0.180   0.0% |
  Orbital Layouts:                           0.063     0.063   0.0% |
  Potential matrix:                          0.001     0.001   0.0% |
  Sum over cells:                            0.001     0.001   0.0% |
 LCAO to grid:                               0.549     0.549   0.0% |
 Set positions (LCAO WFS):                   0.110     0.065   0.0% |
  Basic WFS set positions:                   0.001     0.001   0.0% |
  Basis functions set positions:             0.000     0.000   0.0% |
  P tci:                                     0.000     0.000   0.0% |
  ST tci:                                    0.013     0.013   0.0% |
  mktci:                                     0.031     0.031   0.0% |
Redistribute:                                0.084     0.084   0.0% |
SCF-cycle:                               37000.725  1469.938   3.9% |-|
 Davidson:                                8577.851  2626.680   6.9% |--|
  Apply hamiltonian:                       525.966   525.966   1.4% ||
  Subspace diag:                          1683.928     0.615   0.0% |
   calc_h_matrix:                          873.685   234.147   0.6% |
    Apply hamiltonian:                     639.538   639.538   1.7% ||
   diagonalize:                            101.290   101.290   0.3% |
   rotate_psi:                             708.339   708.339   1.9% ||
  calc. matrices:                         2587.739  1343.231   3.5% ||
   Apply hamiltonian:                     1244.508  1244.508   3.3% ||
  diagonalize:                              23.387    23.387   0.1% |
  rotate_psi:                             1130.151  1130.151   3.0% ||
 Density:                                  271.184     0.100   0.0% |
  Atomic density matrices:                  58.514    58.514   0.2% |
  Mix:                                     100.260   100.260   0.3% |
  Multipole moments:                        37.700    37.700   0.1% |
  Pseudo density:                           74.611    74.522   0.2% |
   Symmetrize density:                       0.089     0.089   0.0% |
 Hamiltonian:                            26658.144     0.571   0.0% |
  Atomic:                                    1.121     1.109   0.0% |
   XC Correction:                            0.012     0.012   0.0% |
  Calculate atomic Hamiltonians:             1.766     1.766   0.0% |
  Communicate:                             761.915   761.915   2.0% ||
  Hartree integrate/restrict:               84.511    84.511   0.2% |
  Poisson:                                1209.994   449.806   1.2% |
   Communicate from 1D:                    122.125   122.125   0.3% |
   Communicate from 2D:                    126.245   126.245   0.3% |
   Communicate to 1D:                       73.774    73.774   0.2% |
   Communicate to 2D:                      143.679   143.679   0.4% |
   FFT 1D:                                 148.474   148.474   0.4% |
   FFT 2D:                                 145.890   145.890   0.4% |
  XC 3D grid:                            24579.021  3764.537   9.9% |---|
   VdW-DF integral:                      20814.483   159.296   0.4% |
    Convolution:                          1799.845  1799.845   4.7% |-|
    FFT:                                   754.818   754.818   2.0% ||
    gather:                               7439.004  7439.004  19.6% |-------|
    hmm1:                                  621.623   621.623   1.6% ||
    hmm2:                                  814.878   814.878   2.1% ||
    iFFT:                                  789.241   789.241   2.1% ||
    potential:                            8435.738   206.458   0.5% |
     collect:                             1288.627  1288.627   3.4% ||
     p1:                                  3376.358  3376.358   8.9% |---|
     p2:                                  1247.094  1247.094   3.3% ||
     sum:                                 2317.200  2317.200   6.1% |-|
    splines:                                 0.041     0.041   0.0% |
  vbar:                                     19.246    19.246   0.1% |
 Orthonormalize:                            23.608     0.018   0.0% |
  calc_s_matrix:                             3.158     3.158   0.0% |
  inverse-cholesky:                          7.953     7.953   0.0% |
  projections:                               0.003     0.003   0.0% |
  rotate_psi_s:                             12.476    12.476   0.0% |
Set symmetry:                                0.002     0.002   0.0% |
Other:                                     138.018   138.018   0.4% |
-------------------------------------------------------------------
Total:                                             37997.863 100.0%

Memory usage: 1.13 GiB
Date: Thu Mar  9 08:23:02 2023
