
  ___ ___ ___ _ _ _  
 |   |   |_  | | | | 
 | | | | | . | | | | 
 |__ |  _|___|_____|  22.8.0
 |___|_|             

User:   vazumah@f001
Date:   Wed Mar  8 12:32:19 2023
Arch:   x86_64
Pid:    21042
CWD:    /home/vazumah/Research_Projects/LiMEAS/LiNRR_proton_donors/on_pure_surface/Li_BCC100/adsorbates/ethanediol_y/bridge/8.085_1.617
Python: 3.10.6
gpaw:   /home/vazumah/anaconda3/envs/NAME/lib/python3.10/site-packages/gpaw
_gpaw:  /home/vazumah/anaconda3/envs/NAME/lib/python3.10/site-packages/
        _gpaw.cpython-310-x86_64-linux-gnu.so
ase:    /home/vazumah/anaconda3/envs/NAME/lib/python3.10/site-packages/ase (version 3.22.1)
numpy:  /home/vazumah/anaconda3/envs/NAME/lib/python3.10/site-packages/numpy (version 1.23.3)
scipy:  /home/vazumah/anaconda3/envs/NAME/lib/python3.10/site-packages/scipy (version 1.9.1)
libxc:  5.2.3
units:  Angstrom and eV
cores: 32
OpenMP: True
OMP_NUM_THREADS: 1

Input parameters:
  h: 0.16
  kpts: {size: [4, 4, 1]}
  occupations: {name: fermi-dirac,
                width: 0.05}
  poissonsolver: {dipolelayer: xy}
  xc: BEEF-vdW

System changes: positions, numbers, cell, pbc, initial_charges, initial_magmoms 

Initialize ...

species:
  Li:
    name: Lithium
    id: 830b4218f175192f93f959cfc0aad614
    Z: 3.0
    valence: 1
    core: 2
    charge: 0.0
    file: /home/vazumah/anaconda3/envs/NAME/share/gpaw/Li.PBE.gz
    compensation charges: {type: gauss,
                           rc: 0.33,
                           lmax: 2}
    cutoffs: {filter: 1.91,
              core: 2.55}
    valence states:
      #              energy  rcut
      - 2s(1.00)    -2.874   1.058
      - 2p(0.00)    -1.090   1.058
      -  s          24.337   1.058
  
    # Using partial waves for Li as LCAO basis

  O:
    name: Oxygen
    id: 32ecd46bf208036f09c70b0ec9a88b78
    Z: 8.0
    valence: 6
    core: 2
    charge: 0.0
    file: /home/vazumah/anaconda3/envs/NAME/share/gpaw/O.PBE.gz
    compensation charges: {type: gauss,
                           rc: 0.21,
                           lmax: 2}
    cutoffs: {filter: 1.17,
              core: 0.83}
    valence states:
      #              energy  rcut
      - 2s(2.00)   -23.961   0.688
      - 2p(4.00)    -9.029   0.598
      -  s           3.251   0.688
      -  p          18.182   0.598
      -  d           0.000   0.619
  
    # Using partial waves for O as LCAO basis

  C:
    name: Carbon
    id: 4aa54d4b901d75f77cc0ea3eec22967b
    Z: 6.0
    valence: 4
    core: 2
    charge: 0.0
    file: /home/vazumah/anaconda3/envs/NAME/share/gpaw/C.PBE.gz
    compensation charges: {type: gauss,
                           rc: 0.20,
                           lmax: 2}
    cutoffs: {filter: 1.14,
              core: 1.14}
    valence states:
      #              energy  rcut
      - 2s(2.00)   -13.751   0.635
      - 2p(2.00)    -5.284   0.635
      -  s          13.461   0.635
      -  p          21.927   0.635
      -  d           0.000   0.635
  
    # Using partial waves for C as LCAO basis

  H:
    name: Hydrogen
    id: d65de229564ff8ea4db303e23b6d1ecf
    Z: 1.0
    valence: 1
    core: 0
    charge: 0.0
    file: /home/vazumah/anaconda3/envs/NAME/share/gpaw/H.PBE.gz
    compensation charges: {type: gauss,
                           rc: 0.15,
                           lmax: 2}
    cutoffs: {filter: 0.85,
              core: 0.53}
    valence states:
      #              energy  rcut
      - 1s(1.00)    -6.494   0.476
      -  s          20.717   0.476
      -  p           0.000   0.476
  
    # Using partial waves for H as LCAO basis

Reference energy: -13512.263335  # eV

Spin-paired calculation

Convergence criteria:
 Maximum [total energy] change in last 3 cyles: 0.0005 eV / electron
 Maximum integral of absolute [dens]ity change: 0.0001 electrons / valence electron
 Maximum integral of absolute [eigenst]ate change: 4e-08 eV^2 / valence electron
 Maximum number of scf [iter]ations: 333
 (Square brackets indicate name in SCF output, whereas a 'c' in
 the SCF output indicates the quantity has converged.)

Symmetries present (total): 1

  ( 1  0  0)
  ( 0  1  0)
  ( 0  0  1)

16 k-points: 4 x 4 x 1 Monkhorst-Pack grid
8 k-points in the irreducible part of the Brillouin zone
       k-points in crystal coordinates                weights
   0:     0.12500000   -0.37500000    0.00000000          2/16
   1:     0.12500000   -0.12500000    0.00000000          2/16
   2:     0.12500000    0.12500000    0.00000000          2/16
   3:     0.12500000    0.37500000    0.00000000          2/16
   4:     0.37500000   -0.37500000    0.00000000          2/16
   5:     0.37500000   -0.12500000    0.00000000          2/16
   6:     0.37500000    0.12500000    0.00000000          2/16
   7:     0.37500000    0.37500000    0.00000000          2/16

Wave functions: Uniform real-space grid
  Kinetic energy operator: 6*3+1=19 point O(h^6) finite-difference Laplacian
  ScaLapack parameters: grid=1x1, blocksize=None
  Wavefunction extrapolation:
    Improved wavefunction reuse through dual PAW basis 

Occupation numbers: Fermi-Dirac:
  width: 0.0500  # eV
 

Eigensolver
   Davidson(niter=2) 

Densities:
  Coarse grid: 60*60*156 grid
  Fine grid: 120*120*312 grid
  Total Charge: 0.000000 

Density mixing:
  Method: separate
  Backend: pulay
  Linear mixing parameter: 0.05
  old densities: 5
  Damping of long wavelength oscillations: 50 

Hamiltonian:
  XC and Coulomb potentials evaluated on a 120*120*312 grid
  Using the BEEF-vdW Exchange-Correlation functional
  Interpolation: tri-quintic (5. degree polynomial)
  Poisson solver: FastPoissonSolver using
    Stencil: 6*3+1=19 point O(h^6) finite-difference Laplacian
    FFT axes: [0, 1]
    FST axes: [2]

Dipole correction along z-axis 

XC parameters: BEEF-vdW with 2 nearest neighbor stencil

Memory estimate:
  Process memory now: 212.36 MiB
  Calculator: 298.81 MiB
    Density: 88.21 MiB
      Arrays: 27.47 MiB
      Localized functions: 50.30 MiB
      Mixer: 10.44 MiB
    Hamiltonian: 21.93 MiB
      Arrays: 17.96 MiB
      XC: 0.00 MiB
      Poisson: 0.00 MiB
      vbar: 3.97 MiB
    Wavefunctions: 188.67 MiB
      Arrays psit_nG: 87.67 MiB
      Eigensolver: 98.38 MiB
      Projections: 0.04 MiB
      Projectors: 2.58 MiB

Total number of cores used: 32
Parallelization over k-points: 8
Domain decomposition: 1 x 1 x 4

Number of atoms: 46
Number of atomic orbitals: 166
Number of bands in calculation: 42
Number of valence electrons: 62
Bands to converge: occupied

... initialized

Initializing position-dependent things.

Density initialized from atomic densities
Creating initial wave functions:
  42 bands from LCAO basis set

       .-----------------------.  
      /|                       |  
     / |                       |  
    /  |                       |  
   /   |                       |  
  /    |                       |  
 *     |                       |  
 |     |                       |  
 |     |                       |  
 |     |                       |  
 |     |                  H    |  
 |     |                O C    |  
 |   H |              H        |  
 | H   |              O  C     |  
 |   Li|     Li      Li  H     |  
 |     |  Li      Li      Li   |  
 | Li  |   Li      Li          |  
 |     |Li      Li      Li     |  
 Li    | Li      Li            |  
 |   LLi     LLi     LLi       |  
 |     |  Li      Li      Li   |  
 | Li  |   Li      Li          |  
 |     |Li      Li      Li     |  
 Li    | Li      Li            |  
 |    Li      Li      Li       |  
 |     |                       |  
 |     |                       |  
 |     |                       |  
 |     |                       |  
 |     |                       |  
 |     |                       |  
 |     .-----------------------.  
 |    /                       /   
 |   /                       /    
 |  /                       /     
 | /                       /      
 |/                       /       
 *-----------------------*        

Positions:
   0 Li     1.617037    1.617037   10.000000    ( 0.0000,  0.0000,  0.0000)
   1 Li     4.851111    1.617037   10.000000    ( 0.0000,  0.0000,  0.0000)
   2 Li     8.085185    1.617037   10.000000    ( 0.0000,  0.0000,  0.0000)
   3 Li     1.617037    4.851111   10.000000    ( 0.0000,  0.0000,  0.0000)
   4 Li     4.851111    4.851111   10.000000    ( 0.0000,  0.0000,  0.0000)
   5 Li     8.085185    4.851111   10.000000    ( 0.0000,  0.0000,  0.0000)
   6 Li     1.617037    8.085185   10.000000    ( 0.0000,  0.0000,  0.0000)
   7 Li     4.851111    8.085185   10.000000    ( 0.0000,  0.0000,  0.0000)
   8 Li     8.085185    8.085185   10.000000    ( 0.0000,  0.0000,  0.0000)
   9 Li     0.000000    0.000000   11.617037    ( 0.0000,  0.0000,  0.0000)
  10 Li     3.234074    0.000000   11.617037    ( 0.0000,  0.0000,  0.0000)
  11 Li     6.468148    0.000000   11.617037    ( 0.0000,  0.0000,  0.0000)
  12 Li     0.000000    3.234074   11.617037    ( 0.0000,  0.0000,  0.0000)
  13 Li     3.234074    3.234074   11.617037    ( 0.0000,  0.0000,  0.0000)
  14 Li     6.468148    3.234074   11.617037    ( 0.0000,  0.0000,  0.0000)
  15 Li     0.000000    6.468148   11.617037    ( 0.0000,  0.0000,  0.0000)
  16 Li     3.234074    6.468148   11.617037    ( 0.0000,  0.0000,  0.0000)
  17 Li     6.468148    6.468148   11.617037    ( 0.0000,  0.0000,  0.0000)
  18 Li     1.617038    1.617038   13.469728    ( 0.0000,  0.0000,  0.0000)
  19 Li     4.851111    1.617038   13.469729    ( 0.0000,  0.0000,  0.0000)
  20 Li     8.085184    1.617038   13.469728    ( 0.0000,  0.0000,  0.0000)
  21 Li     1.617038    4.851111   13.469729    ( 0.0000,  0.0000,  0.0000)
  22 Li     4.851111    4.851111   13.469730    ( 0.0000,  0.0000,  0.0000)
  23 Li     8.085184    4.851111   13.469729    ( 0.0000,  0.0000,  0.0000)
  24 Li     1.617038    8.085184   13.469728    ( 0.0000,  0.0000,  0.0000)
  25 Li     4.851111    8.085184   13.469729    ( 0.0000,  0.0000,  0.0000)
  26 Li     8.085184    8.085184   13.469728    ( 0.0000,  0.0000,  0.0000)
  27 Li    -0.000000   -0.000000   15.445939    ( 0.0000,  0.0000,  0.0000)
  28 Li     3.234074    0.000000   15.445939    ( 0.0000,  0.0000,  0.0000)
  29 Li     6.468148    0.000000   15.445939    ( 0.0000,  0.0000,  0.0000)
  30 Li     0.000000    3.234074   15.445939    ( 0.0000,  0.0000,  0.0000)
  31 Li     3.234076    3.234076   15.445938    ( 0.0000,  0.0000,  0.0000)
  32 Li     6.468146    3.234076   15.445938    ( 0.0000,  0.0000,  0.0000)
  33 Li     0.000000    6.468148   15.445939    ( 0.0000,  0.0000,  0.0000)
  34 Li     3.234076    6.468146   15.445938    ( 0.0000,  0.0000,  0.0000)
  35 Li     6.468146    6.468146   15.445938    ( 0.0000,  0.0000,  0.0000)
  36 O      8.085185    1.617037   18.445939    ( 0.0000,  0.0000,  0.0000)
  37 O      8.129179    4.515235   18.213250    ( 0.0000,  0.0000,  0.0000)
  38 C      9.256397    2.345598   18.033562    ( 0.0000,  0.0000,  0.0000)
  39 C      9.270087    3.754783   18.602713    ( 0.0000,  0.0000,  0.0000)
  40 H     10.170788    1.817472   18.326395    ( 0.0000,  0.0000,  0.0000)
  41 H      9.209099    2.378347   16.943996    ( 0.0000,  0.0000,  0.0000)
  42 H     10.144353    4.291502   18.226232    ( 0.0000,  0.0000,  0.0000)
  43 H      9.345589    3.705053   19.701774    ( 0.0000,  0.0000,  0.0000)
  44 H      8.159700    1.447612   19.393261    ( 0.0000,  0.0000,  0.0000)
  45 H      7.362058    3.935769   18.309689    ( 0.0000,  0.0000,  0.0000)

Unit cell:
           periodic     x           y           z      points  spacing
  1. axis:    yes    9.702222    0.000000    0.000000    60     0.1617
  2. axis:    yes    0.000000    9.702222    0.000000    60     0.1617
  3. axis:    no     0.000000    0.000000   24.851111   156     0.1593

  Lengths:   9.702222   9.702222  24.851111
  Angles:   90.000000  90.000000  90.000000

Effective grid spacing dv^(1/3) = 0.1609

     iter     time        total  log10-change:
                         energy  eigst   dens
iter:   1 12:33:03  -487.041791
iter:   2 12:33:28  -128.019912  +2.45  -0.06
iter:   3 12:33:53   -82.055005  +3.24  -0.19
iter:   4 12:34:19  -144.895462  +2.90  -0.21
Writing to output.gpw (mode='')

iter:   5 12:34:44  -227.217852  +2.84  -0.33
iter:   6 12:35:09  -271.789435  +2.80  -0.43
iter:   7 12:35:35  -322.771847  +2.51  -0.59
iter:   8 12:36:00  -336.458571  +2.28  -0.49
iter:   9 12:36:25  -317.624232  +2.02  -0.48
Writing to output.gpw (mode='')

iter:  10 12:36:51  -321.296069  +1.67  -0.52
iter:  11 12:37:16  -377.537956  +2.09  -0.48
iter:  12 12:37:41  -335.982286  +1.28  -0.43
iter:  13 12:38:06  -302.616484  +1.50  -0.47
iter:  14 12:38:31  -298.497500  +0.81  -0.64
Writing to output.gpw (mode='')

iter:  15 12:38:57  -301.693755  +0.70  -0.65
iter:  16 12:39:22  -295.997137  +0.66  -0.65
iter:  17 12:39:47  -295.663024  +0.32  -0.80
iter:  18 12:40:12  -294.754843  -0.09  -0.81
iter:  19 12:40:38  -292.032129  +0.42  -0.82
Writing to output.gpw (mode='')

iter:  20 12:41:03  -292.384761  -0.16  -0.91
iter:  21 12:41:28  -291.240979  +0.12  -0.98
iter:  22 12:41:53  -290.718403  +0.54  -1.09
iter:  23 12:42:19  -290.582851  -0.28  -1.22
iter:  24 12:42:44  -290.545089  -0.36  -1.35
Writing to output.gpw (mode='')

iter:  25 12:43:09  -290.488817  -0.45  -1.41
iter:  26 12:43:35  -290.498066  -0.62  -1.51
iter:  27 12:44:00  -290.477722c -1.24  -1.64
iter:  28 12:44:26  -290.473663c -1.09  -1.77
iter:  29 12:44:51  -290.471054c -1.53  -1.98
Writing to output.gpw (mode='')

iter:  30 12:45:19  -290.471819c -1.53  -2.02
iter:  31 12:45:44  -290.471586c -1.42  -2.10
iter:  32 12:46:09  -290.470891c -1.97  -2.20
iter:  33 12:46:34  -290.471097c -2.06  -2.29
iter:  34 12:47:00  -290.472427c -2.36  -2.35
Writing to output.gpw (mode='')

iter:  35 12:47:25  -290.472941c -2.31  -2.64
iter:  36 12:47:50  -290.473367c -2.50  -2.76
iter:  37 12:48:16  -290.473697c -2.48  -2.77
iter:  38 12:48:41  -290.474052c -2.79  -2.91
iter:  39 12:49:06  -290.474276c -2.96  -2.94
Writing to output.gpw (mode='')

iter:  40 12:49:31  -290.474473c -2.86  -2.99
iter:  41 12:49:57  -290.474680c -2.94  -3.03
iter:  42 12:50:22  -290.474862c -2.88  -3.13
iter:  43 12:50:47  -290.474962c -3.31  -3.21
iter:  44 12:51:13  -290.475057c -3.36  -3.22
Writing to output.gpw (mode='')

iter:  45 12:51:38  -290.475105c -3.35  -3.35
iter:  46 12:52:03  -290.475168c -3.40  -3.58
iter:  47 12:52:29  -290.475220c -3.51  -3.64
iter:  48 12:52:54  -290.475270c -3.54  -3.76
iter:  49 12:53:19  -290.475303c -3.75  -3.80
Writing to output.gpw (mode='')

iter:  50 12:53:45  -290.475329c -3.93  -3.84
iter:  51 12:54:10  -290.475362c -3.84  -3.91
iter:  52 12:54:35  -290.475378c -4.13  -3.95
iter:  53 12:55:00  -290.475398c -3.92  -4.00
iter:  54 12:55:26  -290.475417c -4.38  -4.07c
Writing to output.gpw (mode='')

iter:  55 12:55:51  -290.475427c -4.31  -4.27c
iter:  56 12:56:16  -290.475437c -4.32  -4.48c
iter:  57 12:56:42  -290.475444c -4.44  -4.54c
iter:  58 12:57:07  -290.475450c -4.53  -4.55c
iter:  59 12:57:32  -290.475455c -4.59  -4.57c
Writing to output.gpw (mode='')

iter:  60 12:57:58  -290.475460c -4.56  -4.68c
iter:  61 12:58:23  -290.475464c -4.74  -4.70c
iter:  62 12:58:48  -290.475467c -4.81  -4.69c
iter:  63 12:59:14  -290.475469c -4.90  -4.61c
iter:  64 12:59:39  -290.475471c -5.06  -4.72c
Writing to output.gpw (mode='')

iter:  65 13:00:04  -290.475473c -4.99  -4.68c
iter:  66 13:00:30  -290.475475c -5.08  -4.62c
iter:  67 13:00:55  -290.475476c -5.06  -4.64c
iter:  68 13:01:20  -290.475478c -5.15  -4.54c
iter:  69 13:01:46  -290.475479c -5.36  -4.56c
Writing to output.gpw (mode='')

iter:  70 13:02:11  -290.475479c -5.29  -4.50c
iter:  71 13:02:36  -290.475480c -5.42  -4.51c
iter:  72 13:03:02  -290.475480c -5.40  -4.60c
iter:  73 13:03:27  -290.475481c -5.48  -4.55c
iter:  74 13:03:53  -290.475482c -5.52  -4.71c
Writing to output.gpw (mode='')

iter:  75 13:04:18  -290.475482c -5.71  -4.73c
iter:  76 13:04:43  -290.475483c -5.70  -4.73c
iter:  77 13:05:09  -290.475483c -5.66  -4.66c
iter:  78 13:05:34  -290.475483c -5.76  -4.61c
iter:  79 13:05:59  -290.475484c -5.96  -4.66c
Writing to output.gpw (mode='')

iter:  80 13:06:25  -290.475483c -5.83  -4.66c
iter:  81 13:06:50  -290.475484c -6.10  -4.70c
iter:  82 13:07:15  -290.475483c -6.11  -4.66c
iter:  83 13:07:41  -290.475484c -6.20  -4.66c
iter:  84 13:08:06  -290.475484c -6.18  -4.65c
Writing to output.gpw (mode='')

iter:  85 13:08:31  -290.475484c -6.16  -4.69c
iter:  86 13:08:57  -290.475484c -5.97  -4.70c
iter:  87 13:09:22  -290.475485c -6.17  -4.72c
iter:  88 13:09:47  -290.475485c -6.28  -4.80c
iter:  89 13:10:12  -290.475485c -6.40  -4.85c
Writing to output.gpw (mode='')

iter:  90 13:10:38  -290.475486c -6.43  -4.88c
iter:  91 13:11:03  -290.475485c -6.47  -4.91c
iter:  92 13:11:28  -290.475485c -6.59  -5.12c
iter:  93 13:11:54  -290.475485c -6.60  -5.20c
iter:  94 13:12:19  -290.475485c -6.50  -5.33c
Writing to output.gpw (mode='')

iter:  95 13:12:44  -290.475485c -6.76  -5.38c
iter:  96 13:13:09  -290.475485c -6.78  -5.43c
iter:  97 13:13:35  -290.475485c -6.84  -5.49c
iter:  98 13:14:00  -290.475485c -6.87  -5.58c
iter:  99 13:14:25  -290.475485c -6.98  -5.75c
Writing to output.gpw (mode='')

iter: 100 13:14:51  -290.475485c -6.95  -5.78c
iter: 101 13:15:16  -290.475485c -6.96  -5.87c
iter: 102 13:15:41  -290.475485c -7.04  -5.96c
iter: 103 13:16:06  -290.475485c -7.08  -6.18c
iter: 104 13:16:32  -290.475485c -7.21  -6.26c
Writing to output.gpw (mode='')

iter: 105 13:16:57  -290.475485c -7.30  -6.26c
iter: 106 13:17:23  -290.475485c -7.34  -6.22c
iter: 107 13:17:48  -290.475485c -7.38  -6.11c
iter: 108 13:18:13  -290.475485c -7.35  -6.18c
iter: 109 13:18:38  -290.475485c -7.37  -6.18c
Writing to output.gpw (mode='')

iter: 110 13:19:04  -290.475485c -7.53c -6.17c

Converged after 110 iterations.

Dipole moment: (14.812242, -3.327805, 0.426057) |e|*Ang

Energy contributions relative to reference atoms: (reference = -13512.263335)

Kinetic:       +140.620901
Potential:     -131.578922
External:        +0.000000
XC:            -300.049926
Entropy (-ST):   -0.151086
Local:           +0.608005
--------------------------
Free energy:   -290.551028
Extrapolated:  -290.475485

Dipole-layer corrected work functions: 3.388833, 2.569804 eV

Showing only first 2 kpts
 Kpt  Band  Eigenvalues  Occupancy
  0    29     -3.23277    1.98750
  0    30     -3.14832    1.93414
  0    31     -2.81583    0.07325
  0    32     -2.72789    0.01301

  1    29     -3.00873    1.28593
  1    30     -2.97081    0.91512
  1    31     -2.94362    0.65742
  1    32     -2.91881    0.45932


Fermi level: -2.97932

No gap

Forces in eV/Ang:
  0 Li    0.00373   -0.00008   -0.26935
  1 Li   -0.00158    0.00297   -0.27226
  2 Li   -0.00281   -0.00780   -0.27055
  3 Li    0.00559    0.00045   -0.26910
  4 Li   -0.00365   -0.00213   -0.27467
  5 Li   -0.00197    0.00594   -0.27086
  6 Li   -0.00447   -0.00069   -0.27201
  7 Li    0.00398   -0.00021   -0.27757
  8 Li    0.00092    0.00170   -0.27205
  9 Li    0.00108   -0.00229    0.25593
 10 Li    0.00281    0.00197    0.26158
 11 Li   -0.00369   -0.00432    0.25338
 12 Li   -0.00054   -0.00343    0.27575
 13 Li    0.00837    0.00257    0.24986
 14 Li   -0.00712    0.00134    0.25983
 15 Li   -0.00017    0.00680    0.25454
 16 Li   -0.00706   -0.00446    0.26552
 17 Li    0.00723    0.00268    0.26043
 18 Li   -0.00375    0.00617    0.05024
 19 Li    0.00799    0.00018    0.04090
 20 Li   -0.00323    0.00204    0.00795
 21 Li   -0.01506   -0.01039    0.06493
 22 Li    0.00943    0.00278    0.04320
 23 Li    0.00577   -0.00676   -0.00539
 24 Li   -0.00381    0.00384    0.04449
 25 Li    0.00263   -0.00352    0.03293
 26 Li    0.00083    0.00469    0.04600
 27 Li    0.01630   -0.08409   -0.10673
 28 Li   -0.00493    0.00665   -0.02626
 29 Li   -0.00198   -0.00112    0.00116
 30 Li    0.17032    0.25673   -0.55334
 31 Li    0.01853    0.01038   -0.03801
 32 Li   -0.07340   -0.00308   -0.11387
 33 Li    0.01215    0.02848   -0.02787
 34 Li   -0.00755   -0.01695   -0.01116
 35 Li   -0.00807    0.00803   -0.00679
 36 O     0.00442    0.09402   -0.30749
 37 O    -0.00139    0.05703   -0.12572
 38 C     0.01860    0.06062    0.84871
 39 C     0.08675    0.04428    0.15543
 40 H     0.04725   -0.03267   -0.10692
 41 H    -0.22945   -0.39466    0.11927
 42 H     0.07162    0.03156    0.02853
 43 H     0.03193    0.00234   -0.06581
 44 H     0.02727   -0.04574    0.01495
 45 H    -0.17917   -0.01730    0.08687

System changes: positions 

Initializing position-dependent things.

Density initialized from wave functions
       .-----------------------.  
      /|                       |  
     / |                       |  
    /  |                       |  
   /   |                       |  
  /    |                       |  
 *     |                       |  
 |     |                       |  
 |     |                       |  
 |     |                       |  
 |     |                  H    |  
 |     |                O C    |  
 |   H Li             HLi      |  
 | H   |              O  C     |  
 |   Li|     Li      Li  H     |  
 |     |  Li      Li      Li   |  
 | Li  |   Li      Li          |  
 |     |Li      Li      Li     |  
 |     | Li                    |  
 |   LLi     LLi     LLi       |  
 |     |  Li      Li      Li   |  
 | Li  |   Li      Li          |  
 |     |Li      Li      Li     |  
 Li    | Li      Li            |  
 |    Li      Li      Li       |  
 |     |                       |  
 |     |                       |  
 |     |                       |  
 |     |                       |  
 |     |                       |  
 |     |                       |  
 |     .-----------------------.  
 |    /                       /   
 |   /                       /    
 |  /                       /     
 | /                       /      
 |/                       /       
 *-----------------------*        

Positions:
   0 Li     1.617037    1.617037   10.000000    ( 0.0000,  0.0000,  0.0000)
   1 Li     4.851111    1.617037   10.000000    ( 0.0000,  0.0000,  0.0000)
   2 Li     8.085185    1.617037   10.000000    ( 0.0000,  0.0000,  0.0000)
   3 Li     1.617037    4.851111   10.000000    ( 0.0000,  0.0000,  0.0000)
   4 Li     4.851111    4.851111   10.000000    ( 0.0000,  0.0000,  0.0000)
   5 Li     8.085185    4.851111   10.000000    ( 0.0000,  0.0000,  0.0000)
   6 Li     1.617037    8.085185   10.000000    ( 0.0000,  0.0000,  0.0000)
   7 Li     4.851111    8.085185   10.000000    ( 0.0000,  0.0000,  0.0000)
   8 Li     8.085185    8.085185   10.000000    ( 0.0000,  0.0000,  0.0000)
   9 Li     0.000000    0.000000   11.617037    ( 0.0000,  0.0000,  0.0000)
  10 Li     3.234074    0.000000   11.617037    ( 0.0000,  0.0000,  0.0000)
  11 Li     6.468148    0.000000   11.617037    ( 0.0000,  0.0000,  0.0000)
  12 Li     0.000000    3.234074   11.617037    ( 0.0000,  0.0000,  0.0000)
  13 Li     3.234074    3.234074   11.617037    ( 0.0000,  0.0000,  0.0000)
  14 Li     6.468148    3.234074   11.617037    ( 0.0000,  0.0000,  0.0000)
  15 Li     0.000000    6.468148   11.617037    ( 0.0000,  0.0000,  0.0000)
  16 Li     3.234074    6.468148   11.617037    ( 0.0000,  0.0000,  0.0000)
  17 Li     6.468148    6.468148   11.617037    ( 0.0000,  0.0000,  0.0000)
  18 Li     1.616985    1.617126   13.470446    ( 0.0000,  0.0000,  0.0000)
  19 Li     4.851225    1.617041   13.470314    ( 0.0000,  0.0000,  0.0000)
  20 Li     8.085138    1.617067   13.469841    ( 0.0000,  0.0000,  0.0000)
  21 Li     1.616823    4.850963   13.470657    ( 0.0000,  0.0000,  0.0000)
  22 Li     4.851246    4.851151   13.470347    ( 0.0000,  0.0000,  0.0000)
  23 Li     8.085266    4.851014   13.469652    ( 0.0000,  0.0000,  0.0000)
  24 Li     1.616984    8.085239   13.470363    ( 0.0000,  0.0000,  0.0000)
  25 Li     4.851149    8.085133   13.470200    ( 0.0000,  0.0000,  0.0000)
  26 Li     8.085196    8.085251   13.470385    ( 0.0000,  0.0000,  0.0000)
  27 Li     0.000233   -0.001201   15.444415    ( 0.0000,  0.0000,  0.0000)
  28 Li     3.234003    0.000095   15.445564    ( 0.0000,  0.0000,  0.0000)
  29 Li     6.468120   -0.000016   15.445955    ( 0.0000,  0.0000,  0.0000)
  30 Li     0.002433    3.237741   15.438034    ( 0.0000,  0.0000,  0.0000)
  31 Li     3.234341    3.234225   15.445395    ( 0.0000,  0.0000,  0.0000)
  32 Li     6.467097    3.234033   15.444311    ( 0.0000,  0.0000,  0.0000)
  33 Li     0.000174    6.468555   15.445541    ( 0.0000,  0.0000,  0.0000)
  34 Li     3.233969    6.467903   15.445779    ( 0.0000,  0.0000,  0.0000)
  35 Li     6.468030    6.468260   15.445841    ( 0.0000,  0.0000,  0.0000)
  36 O      8.085248    1.618380   18.441547    ( 0.0000,  0.0000,  0.0000)
  37 O      8.129159    4.516050   18.211454    ( 0.0000,  0.0000,  0.0000)
  38 C      9.256663    2.346464   18.045686    ( 0.0000,  0.0000,  0.0000)
  39 C      9.271327    3.755416   18.604934    ( 0.0000,  0.0000,  0.0000)
  40 H     10.171463    1.817005   18.324868    ( 0.0000,  0.0000,  0.0000)
  41 H      9.205821    2.372709   16.945700    ( 0.0000,  0.0000,  0.0000)
  42 H     10.145376    4.291952   18.226640    ( 0.0000,  0.0000,  0.0000)
  43 H      9.346045    3.705087   19.700834    ( 0.0000,  0.0000,  0.0000)
  44 H      8.160090    1.446959   19.393474    ( 0.0000,  0.0000,  0.0000)
  45 H      7.359499    3.935522   18.310930    ( 0.0000,  0.0000,  0.0000)

Unit cell:
           periodic     x           y           z      points  spacing
  1. axis:    yes    9.702222    0.000000    0.000000    60     0.1617
  2. axis:    yes    0.000000    9.702222    0.000000    60     0.1617
  3. axis:    no     0.000000    0.000000   24.851111   156     0.1593

  Lengths:   9.702222   9.702222  24.851111
  Angles:   90.000000  90.000000  90.000000

Effective grid spacing dv^(1/3) = 0.1609

     iter     time        total  log10-change:
                         energy  eigst   dens
iter:   1 13:19:38  -290.496735  -1.92
iter:   2 13:20:03  -290.495579  -2.52  -2.36
iter:   3 13:20:28  -290.494949c -3.19  -2.46
iter:   4 13:20:54  -290.493392c -2.52  -2.62
Writing to output.gpw (mode='')

iter:   5 13:21:19  -290.493256c -3.27  -2.77
iter:   6 13:21:45  -290.493020c -3.09  -2.88
iter:   7 13:22:10  -290.493125c -3.04  -3.08
iter:   8 13:22:35  -290.493007c -3.95  -3.10
iter:   9 13:23:00  -290.492995c -4.04  -3.30
Writing to output.gpw (mode='')

iter:  10 13:23:26  -290.493015c -4.36  -3.37
iter:  11 13:23:51  -290.492996c -4.39  -3.53
iter:  12 13:24:16  -290.492999c -5.25  -3.64
iter:  13 13:24:42  -290.492998c -5.27  -3.71
iter:  14 13:25:07  -290.493004c -4.98  -3.76
Writing to output.gpw (mode='')

iter:  15 13:25:32  -290.492994c -5.17  -3.79
iter:  16 13:25:58  -290.492996c -5.51  -3.94
iter:  17 13:26:23  -290.492994c -5.46  -4.08c
iter:  18 13:26:48  -290.492992c -6.02  -4.33c
iter:  19 13:27:13  -290.492993c -6.28  -4.38c
Writing to output.gpw (mode='')

iter:  20 13:27:39  -290.492994c -6.24  -4.52c
iter:  21 13:28:04  -290.492994c -6.80  -4.72c
iter:  22 13:28:29  -290.492994c -7.11  -4.75c
iter:  23 13:28:55  -290.492994c -6.93  -4.86c
iter:  24 13:29:20  -290.492994c -7.38  -5.02c
Writing to output.gpw (mode='')

iter:  25 13:29:45  -290.492994c -7.24  -5.14c
iter:  26 13:30:11  -290.492994c -7.56c -5.25c

Converged after 26 iterations.

Dipole moment: (14.803402, -3.315965, 0.427171) |e|*Ang

Energy contributions relative to reference atoms: (reference = -13512.263335)

Kinetic:       +140.400996
Potential:     -131.449586
External:        +0.000000
XC:            -299.976366
Entropy (-ST):   -0.151086
Local:           +0.607505
--------------------------
Free energy:   -290.568537
Extrapolated:  -290.492994

Dipole-layer corrected work functions: 3.388505, 2.567336 eV

Showing only first 2 kpts
 Kpt  Band  Eigenvalues  Occupancy
  0    29     -3.23152    1.98754
  0    30     -3.14709    1.93437
  0    31     -2.81401    0.07265
  0    32     -2.72662    0.01305

  1    29     -3.00689    1.28188
  1    30     -2.96952    0.91623
  1    31     -2.94250    0.65988
  1    32     -2.91719    0.45776


Fermi level: -2.97792

No gap
Writing to output.gpw (mode='')


Forces in eV/Ang:
  0 Li    0.00372   -0.00005   -0.26965
  1 Li   -0.00155    0.00299   -0.27228
  2 Li   -0.00280   -0.00786   -0.27084
  3 Li    0.00561    0.00047   -0.26936
  4 Li   -0.00375   -0.00221   -0.27460
  5 Li   -0.00191    0.00594   -0.27114
  6 Li   -0.00456   -0.00074   -0.27205
  7 Li    0.00395   -0.00023   -0.27757
  8 Li    0.00096    0.00178   -0.27202
  9 Li    0.00119   -0.00243    0.25669
 10 Li    0.00275    0.00194    0.26223
 11 Li   -0.00373   -0.00443    0.25393
 12 Li   -0.00028   -0.00340    0.27697
 13 Li    0.00808    0.00264    0.25079
 14 Li   -0.00722    0.00133    0.26066
 15 Li    0.00003    0.00676    0.25529
 16 Li   -0.00690   -0.00446    0.26604
 17 Li    0.00695    0.00282    0.26077
 18 Li   -0.00249    0.00499    0.04661
 19 Li    0.00761   -0.00011    0.03959
 20 Li   -0.00355    0.00126    0.00624
 21 Li   -0.01277   -0.00808    0.06038
 22 Li    0.00910    0.00308    0.04178
 23 Li    0.00428   -0.00477   -0.00835
 24 Li   -0.00323    0.00348    0.04292
 25 Li    0.00261   -0.00342    0.03209
 26 Li    0.00038    0.00428    0.04447
 27 Li    0.01533   -0.07913   -0.10306
 28 Li   -0.00434    0.00626   -0.02558
 29 Li   -0.00208   -0.00133    0.00131
 30 Li    0.15949    0.23862   -0.51561
 31 Li    0.01928    0.01041   -0.03720
 32 Li   -0.06954   -0.00323   -0.10979
 33 Li    0.01192    0.02898   -0.02707
 34 Li   -0.00768   -0.01686   -0.01074
 35 Li   -0.00791    0.00808   -0.00630
 36 O     0.00524    0.02497    0.10101
 37 O    -0.06792   -0.05414   -0.08600
 38 C    -0.00741    0.05468    0.17291
 39 C     0.03997    0.09481    0.11117
 40 H     0.10097   -0.06765   -0.01466
 41 H    -0.15923   -0.32890    0.36195
 42 H     0.06393    0.01362    0.03559
 43 H     0.03010    0.04605    0.03861
 44 H    -0.05331   -0.03791   -0.19781
 45 H    -0.06234    0.06348    0.06910

System changes: positions 

Initializing position-dependent things.

Density initialized from wave functions
       .-----------------------.  
      /|                       |  
     / |                       |  
    /  |                       |  
   /   |                       |  
  /    |                       |  
 *     |                       |  
 |     |                       |  
 |     |                       |  
 |     |                       |  
 |     |                  H    |  
 |     |                O C    |  
 |   H Li             HLi      |  
 | H   |              O  C     |  
 |   Li|     Li      Li  H     |  
 |     |  Li      Li      Li   |  
 | Li  |   Li      Li          |  
 |     |Li      Li      Li     |  
 |     | Li                    |  
 |   LLi     LLi     LLi       |  
 |     |  Li      Li      Li   |  
 | Li  |   Li      Li          |  
 |     |Li      Li      Li     |  
 Li    | Li      Li            |  
 |    Li      Li      Li       |  
 |     |                       |  
 |     |                       |  
 |     |                       |  
 |     |                       |  
 |     |                       |  
 |     |                       |  
 |     .-----------------------.  
 |    /                       /   
 |   /                       /    
 |  /                       /     
 | /                       /      
 |/                       /       
 *-----------------------*        

Positions:
   0 Li     1.617037    1.617037   10.000000    ( 0.0000,  0.0000,  0.0000)
   1 Li     4.851111    1.617037   10.000000    ( 0.0000,  0.0000,  0.0000)
   2 Li     8.085185    1.617037   10.000000    ( 0.0000,  0.0000,  0.0000)
   3 Li     1.617037    4.851111   10.000000    ( 0.0000,  0.0000,  0.0000)
   4 Li     4.851111    4.851111   10.000000    ( 0.0000,  0.0000,  0.0000)
   5 Li     8.085185    4.851111   10.000000    ( 0.0000,  0.0000,  0.0000)
   6 Li     1.617037    8.085185   10.000000    ( 0.0000,  0.0000,  0.0000)
   7 Li     4.851111    8.085185   10.000000    ( 0.0000,  0.0000,  0.0000)
   8 Li     8.085185    8.085185   10.000000    ( 0.0000,  0.0000,  0.0000)
   9 Li     0.000000    0.000000   11.617037    ( 0.0000,  0.0000,  0.0000)
  10 Li     3.234074    0.000000   11.617037    ( 0.0000,  0.0000,  0.0000)
  11 Li     6.468148    0.000000   11.617037    ( 0.0000,  0.0000,  0.0000)
  12 Li     0.000000    3.234074   11.617037    ( 0.0000,  0.0000,  0.0000)
  13 Li     3.234074    3.234074   11.617037    ( 0.0000,  0.0000,  0.0000)
  14 Li     6.468148    3.234074   11.617037    ( 0.0000,  0.0000,  0.0000)
  15 Li     0.000000    6.468148   11.617037    ( 0.0000,  0.0000,  0.0000)
  16 Li     3.234074    6.468148   11.617037    ( 0.0000,  0.0000,  0.0000)
  17 Li     6.468148    6.468148   11.617037    ( 0.0000,  0.0000,  0.0000)
  18 Li     1.616858    1.617360   13.472523    ( 0.0000,  0.0000,  0.0000)
  19 Li     4.851561    1.617041   13.472052    ( 0.0000,  0.0000,  0.0000)
  20 Li     8.084988    1.617133   13.470138    ( 0.0000,  0.0000,  0.0000)
  21 Li     1.616235    4.850578   13.473346    ( 0.0000,  0.0000,  0.0000)
  22 Li     4.851646    4.851280   13.472183    ( 0.0000,  0.0000,  0.0000)
  23 Li     8.085474    4.850778   13.469333    ( 0.0000,  0.0000,  0.0000)
  24 Li     1.616835    8.085395   13.472250    ( 0.0000,  0.0000,  0.0000)
  25 Li     4.851262    8.084983   13.471606    ( 0.0000,  0.0000,  0.0000)
  26 Li     8.085219    8.085443   13.472339    ( 0.0000,  0.0000,  0.0000)
  27 Li     0.000913   -0.004711   15.439885    ( 0.0000,  0.0000,  0.0000)
  28 Li     3.233806    0.000373   15.444443    ( 0.0000,  0.0000,  0.0000)
  29 Li     6.468031   -0.000071   15.446010    ( 0.0000,  0.0000,  0.0000)
  30 Li     0.009519    3.248371   15.415086    ( 0.0000,  0.0000,  0.0000)
  31 Li     3.235167    3.234676   15.443768    ( 0.0000,  0.0000,  0.0000)
  32 Li     6.464020    3.233895   15.439483    ( 0.0000,  0.0000,  0.0000)
  33 Li     0.000695    6.469806   15.444353    ( 0.0000,  0.0000,  0.0000)
  34 Li     3.233637    6.467170   15.445306    ( 0.0000,  0.0000,  0.0000)
  35 Li     6.467684    6.468610   15.445560    ( 0.0000,  0.0000,  0.0000)
  36 O      8.085464    1.620482   18.439913    ( 0.0000,  0.0000,  0.0000)
  37 O      8.127190    4.515337   18.207134    ( 0.0000,  0.0000,  0.0000)
  38 C      9.256724    2.348926   18.063156    ( 0.0000,  0.0000,  0.0000)
  39 C      9.273752    3.758789   18.610414    ( 0.0000,  0.0000,  0.0000)
  40 H     10.175056    1.814583   18.322871    ( 0.0000,  0.0000,  0.0000)
  41 H      9.197871    2.357456   16.957842    ( 0.0000,  0.0000,  0.0000)
  42 H     10.148266    4.292808   18.228081    ( 0.0000,  0.0000,  0.0000)
  43 H      9.347379    3.706442   19.700971    ( 0.0000,  0.0000,  0.0000)
  44 H      8.158962    1.445197   19.388020    ( 0.0000,  0.0000,  0.0000)
  45 H      7.355070    3.937088   18.314193    ( 0.0000,  0.0000,  0.0000)

Unit cell:
           periodic     x           y           z      points  spacing
  1. axis:    yes    9.702222    0.000000    0.000000    60     0.1617
  2. axis:    yes    0.000000    9.702222    0.000000    60     0.1617
  3. axis:    no     0.000000    0.000000   24.851111   156     0.1593

  Lengths:   9.702222   9.702222  24.851111
  Angles:   90.000000  90.000000  90.000000

Effective grid spacing dv^(1/3) = 0.1609

     iter     time        total  log10-change:
                         energy  eigst   dens
iter:   1 13:30:45  -290.524857  -1.48
iter:   2 13:31:10  -290.524222  -2.25  -2.29
iter:   3 13:31:35  -290.523047c -2.77  -2.42
iter:   4 13:32:01  -290.519831c -2.11  -2.43
Writing to output.gpw (mode='')

iter:   5 13:32:26  -290.519606c -3.35  -2.58
iter:   6 13:32:51  -290.519198c -3.01  -2.81
iter:   7 13:33:17  -290.519534c -2.58  -2.90
iter:   8 13:33:42  -290.519155c -3.59  -2.78
iter:   9 13:34:07  -290.519112c -3.64  -2.92
Writing to output.gpw (mode='')

iter:  10 13:34:33  -290.518964c -3.44  -3.05
iter:  11 13:34:58  -290.518979c -4.27  -3.21
iter:  12 13:35:23  -290.518974c -4.27  -3.30
iter:  13 13:35:48  -290.518971c -4.27  -3.35
iter:  14 13:36:14  -290.518994c -4.16  -3.57
Writing to output.gpw (mode='')

iter:  15 13:36:39  -290.518985c -5.19  -3.62
iter:  16 13:37:05  -290.518971c -4.74  -3.76
iter:  17 13:37:30  -290.518975c -5.51  -3.94
iter:  18 13:37:55  -290.518974c -6.20  -4.17c
iter:  19 13:38:20  -290.518974c -6.12  -4.20c
Writing to output.gpw (mode='')

iter:  20 13:38:46  -290.518974c -5.84  -4.33c
iter:  21 13:39:11  -290.518974c -6.50  -4.46c
iter:  22 13:39:36  -290.518973c -6.58  -4.66c
iter:  23 13:40:02  -290.518973c -6.45  -4.74c
iter:  24 13:40:27  -290.518973c -7.00  -4.76c
Writing to output.gpw (mode='')

iter:  25 13:40:52  -290.518974c -6.84  -4.87c
iter:  26 13:41:18  -290.518973c -7.04  -4.99c
iter:  27 13:41:43  -290.518974c -7.29  -5.03c
iter:  28 13:42:08  -290.518974c -7.27  -5.21c
iter:  29 13:42:33  -290.518974c -7.69c -5.45c

Converged after 29 iterations.

Dipole moment: (14.737553, -3.270178, 0.426401) |e|*Ang

Energy contributions relative to reference atoms: (reference = -13512.263335)

Kinetic:       +140.720941
Potential:     -131.721454
External:        +0.000000
XC:            -300.049493
Entropy (-ST):   -0.151024
Local:           +0.606544
--------------------------
Free energy:   -290.594486
Extrapolated:  -290.518974

Dipole-layer corrected work functions: 3.388090, 2.568401 eV

Showing only first 2 kpts
 Kpt  Band  Eigenvalues  Occupancy
  0    29     -3.23230    1.98765
  0    30     -3.14800    1.93510
  0    31     -2.81310    0.07094
  0    32     -2.72739    0.01316

  1    29     -3.00597    1.27035
  1    30     -2.97005    0.91825
  1    31     -2.94358    0.66663
  1    32     -2.91724    0.45584


Fermi level: -2.97825

No gap
Writing to output.gpw (mode='')


Forces in eV/Ang:
  0 Li    0.00367    0.00014   -0.27048
  1 Li   -0.00151    0.00309   -0.27240
  2 Li   -0.00276   -0.00793   -0.27169
  3 Li    0.00551    0.00039   -0.27003
  4 Li   -0.00394   -0.00256   -0.27447
  5 Li   -0.00166    0.00592   -0.27191
  6 Li   -0.00494   -0.00083   -0.27216
  7 Li    0.00394   -0.00023   -0.27753
  8 Li    0.00116    0.00192   -0.27202
  9 Li    0.00155   -0.00287    0.25858
 10 Li    0.00256    0.00185    0.26408
 11 Li   -0.00386   -0.00477    0.25519
 12 Li    0.00052   -0.00328    0.27976
 13 Li    0.00729    0.00288    0.25330
 14 Li   -0.00757    0.00129    0.26262
 15 Li    0.00061    0.00662    0.25732
 16 Li   -0.00653   -0.00450    0.26757
 17 Li    0.00612    0.00326    0.26166
 18 Li    0.00082    0.00167    0.03721
 19 Li    0.00652   -0.00111    0.03551
 20 Li   -0.00425   -0.00077    0.00217
 21 Li   -0.00597   -0.00132    0.04756
 22 Li    0.00801    0.00411    0.03736
 23 Li   -0.00007    0.00062   -0.01544
 24 Li   -0.00139    0.00232    0.03802
 25 Li    0.00247   -0.00318    0.02988
 26 Li   -0.00105    0.00317    0.03987
 27 Li    0.01386   -0.06929   -0.09528
 28 Li   -0.00309    0.00541   -0.02367
 29 Li   -0.00227   -0.00181    0.00226
 30 Li    0.12948    0.19025   -0.42474
 31 Li    0.02017    0.01039   -0.03463
 32 Li   -0.06072   -0.00283   -0.10043
 33 Li    0.01124    0.02952   -0.02473
 34 Li   -0.00810   -0.01664   -0.00948
 35 Li   -0.00707    0.00771   -0.00489
 36 O    -0.03492    0.01960    0.21572
 37 O    -0.02230   -0.09656   -0.02235
 38 C     0.05581   -0.06941   -0.40934
 39 C    -0.07402    0.08953   -0.05173
 40 H     0.07570   -0.05078    0.09761
 41 H    -0.04727   -0.15587    0.39705
 42 H     0.03762    0.00605    0.04781
 43 H     0.02061    0.11784    0.20508
 44 H    -0.11680   -0.10447   -0.02838
 45 H     0.01684    0.08448    0.06222

System changes: positions 

Initializing position-dependent things.

Density initialized from wave functions
       .-----------------------.  
      /|                       |  
     / |                       |  
    /  |                       |  
   /   |                       |  
  /    |                       |  
 *     |                       |  
 |     |                       |  
 |     |                       |  
 |     |                       |  
 |     |                  H    |  
 |     |                  C    |  
 |   H Li             HLO      |  
 | H   |              O  C     |  
 |   Li|     Li      Li  H     |  
 |     |  Li      Li      Li   |  
 | Li  |   Li      Li          |  
 |     |Li      Li      Li     |  
 |     | Li                    |  
 |   LLi     LLi     LLi       |  
 |     |  Li      Li      Li   |  
 | Li  |   Li      Li          |  
 |     |Li      Li      Li     |  
 Li    | Li      Li            |  
 |    Li      Li      Li       |  
 |     |                       |  
 |     |                       |  
 |     |                       |  
 |     |                       |  
 |     |                       |  
 |     |                       |  
 |     .-----------------------.  
 |    /                       /   
 |   /                       /    
 |  /                       /     
 | /                       /      
 |/                       /       
 *-----------------------*        

Positions:
   0 Li     1.617037    1.617037   10.000000    ( 0.0000,  0.0000,  0.0000)
   1 Li     4.851111    1.617037   10.000000    ( 0.0000,  0.0000,  0.0000)
   2 Li     8.085185    1.617037   10.000000    ( 0.0000,  0.0000,  0.0000)
   3 Li     1.617037    4.851111   10.000000    ( 0.0000,  0.0000,  0.0000)
   4 Li     4.851111    4.851111   10.000000    ( 0.0000,  0.0000,  0.0000)
   5 Li     8.085185    4.851111   10.000000    ( 0.0000,  0.0000,  0.0000)
   6 Li     1.617037    8.085185   10.000000    ( 0.0000,  0.0000,  0.0000)
   7 Li     4.851111    8.085185   10.000000    ( 0.0000,  0.0000,  0.0000)
   8 Li     8.085185    8.085185   10.000000    ( 0.0000,  0.0000,  0.0000)
   9 Li     0.000000    0.000000   11.617037    ( 0.0000,  0.0000,  0.0000)
  10 Li     3.234074    0.000000   11.617037    ( 0.0000,  0.0000,  0.0000)
  11 Li     6.468148    0.000000   11.617037    ( 0.0000,  0.0000,  0.0000)
  12 Li     0.000000    3.234074   11.617037    ( 0.0000,  0.0000,  0.0000)
  13 Li     3.234074    3.234074   11.617037    ( 0.0000,  0.0000,  0.0000)
  14 Li     6.468148    3.234074   11.617037    ( 0.0000,  0.0000,  0.0000)
  15 Li     0.000000    6.468148   11.617037    ( 0.0000,  0.0000,  0.0000)
  16 Li     3.234074    6.468148   11.617037    ( 0.0000,  0.0000,  0.0000)
  17 Li     6.468148    6.468148   11.617037    ( 0.0000,  0.0000,  0.0000)
  18 Li     1.616750    1.617629   13.475411    ( 0.0000,  0.0000,  0.0000)
  19 Li     4.852039    1.617015   13.474564    ( 0.0000,  0.0000,  0.0000)
  20 Li     8.084746    1.617182   13.470481    ( 0.0000,  0.0000,  0.0000)
  21 Li     1.615521    4.850169   13.477068    ( 0.0000,  0.0000,  0.0000)
  22 Li     4.852220    4.851500   13.474831    ( 0.0000,  0.0000,  0.0000)
  23 Li     8.085677    4.850558   13.468677    ( 0.0000,  0.0000,  0.0000)
  24 Li     1.616657    8.085601   13.474964    ( 0.0000,  0.0000,  0.0000)
  25 Li     4.851430    8.084764   13.473664    ( 0.0000,  0.0000,  0.0000)
  26 Li     8.085218    8.085703   13.475161    ( 0.0000,  0.0000,  0.0000)
  27 Li     0.001899   -0.009744   15.433267    ( 0.0000,  0.0000,  0.0000)
  28 Li     3.233541    0.000769   15.442805    ( 0.0000,  0.0000,  0.0000)
  29 Li     6.467893   -0.000165   15.446116    ( 0.0000,  0.0000,  0.0000)
  30 Li     0.019420    3.263141   15.382852    ( 0.0000,  0.0000,  0.0000)
  31 Li     3.236431    3.235355   15.441386    ( 0.0000,  0.0000,  0.0000)
  32 Li     6.459614    3.233698   15.432457    ( 0.0000,  0.0000,  0.0000)
  33 Li     0.001461    6.471700   15.442627    ( 0.0000,  0.0000,  0.0000)
  34 Li     3.233128    6.466072   15.444627    ( 0.0000,  0.0000,  0.0000)
  35 Li     6.467186    6.469127   15.445173    ( 0.0000,  0.0000,  0.0000)
  36 O      8.084744    1.623660   18.439504    ( 0.0000,  0.0000,  0.0000)
  37 O      8.125563    4.513418   18.202199    ( 0.0000,  0.0000,  0.0000)
  38 C      9.258515    2.349424   18.075857    ( 0.0000,  0.0000,  0.0000)
  39 C      9.274549    3.763608   18.614530    ( 0.0000,  0.0000,  0.0000)
  40 H     10.179682    1.811457   18.322572    ( 0.0000,  0.0000,  0.0000)
  41 H      9.188662    2.338860   16.976458    ( 0.0000,  0.0000,  0.0000)
  42 H     10.151946    4.293940   18.230550    ( 0.0000,  0.0000,  0.0000)
  43 H      9.349143    3.710243   19.705258    ( 0.0000,  0.0000,  0.0000)
  44 H      8.155803    1.440804   19.384694    ( 0.0000,  0.0000,  0.0000)
  45 H      7.350198    3.939805   18.318961    ( 0.0000,  0.0000,  0.0000)

Unit cell:
           periodic     x           y           z      points  spacing
  1. axis:    yes    9.702222    0.000000    0.000000    60     0.1617
  2. axis:    yes    0.000000    9.702222    0.000000    60     0.1617
  3. axis:    no     0.000000    0.000000   24.851111   156     0.1593

  Lengths:   9.702222   9.702222  24.851111
  Angles:   90.000000  90.000000  90.000000

Effective grid spacing dv^(1/3) = 0.1609

     iter     time        total  log10-change:
                         energy  eigst   dens
iter:   1 13:43:07  -290.546670  -1.41
iter:   2 13:43:33  -290.545854  -2.17  -2.23
iter:   3 13:43:58  -290.543886c -2.74  -2.34
iter:   4 13:44:23  -290.541112c -2.24  -2.38
Writing to output.gpw (mode='')

iter:   5 13:44:48  -290.541293c -3.30  -2.61
iter:   6 13:45:14  -290.540590c -2.96  -2.70
iter:   7 13:45:39  -290.540779c -2.46  -2.86
iter:   8 13:46:04  -290.540406c -3.53  -2.78
iter:   9 13:46:30  -290.540649c -3.25  -3.11
Writing to output.gpw (mode='')

iter:  10 13:46:55  -290.540386c -3.49  -2.98
iter:  11 13:47:20  -290.540406c -4.06  -3.26
iter:  12 13:47:45  -290.540400c -4.30  -3.52
iter:  13 13:48:11  -290.540401c -5.01  -3.58
iter:  14 13:48:36  -290.540390c -4.77  -3.72
Writing to output.gpw (mode='')

iter:  15 13:49:01  -290.540395c -4.83  -3.86
iter:  16 13:49:27  -290.540391c -5.18  -3.90
iter:  17 13:49:52  -290.540389c -5.29  -3.99
iter:  18 13:50:17  -290.540391c -6.06  -4.17c
iter:  19 13:50:43  -290.540392c -5.93  -4.30c
Writing to output.gpw (mode='')

iter:  20 13:51:08  -290.540391c -6.04  -4.42c
iter:  21 13:51:33  -290.540392c -6.41  -4.49c
iter:  22 13:51:58  -290.540392c -6.50  -4.62c
iter:  23 13:52:24  -290.540392c -6.68  -4.70c
iter:  24 13:52:49  -290.540392c -6.60  -4.81c
Writing to output.gpw (mode='')

iter:  25 13:53:15  -290.540392c -6.89  -4.97c
iter:  26 13:53:40  -290.540392c -6.85  -5.07c
iter:  27 13:54:05  -290.540392c -7.00  -5.15c
iter:  28 13:54:30  -290.540392c -7.18  -5.21c
iter:  29 13:54:56  -290.540392c -7.33  -5.23c
Writing to output.gpw (mode='')

iter:  30 13:55:21  -290.540392c -7.41c -5.45c

Converged after 30 iterations.

Dipole moment: (14.635579, -3.201933, 0.422361) |e|*Ang

Energy contributions relative to reference atoms: (reference = -13512.263335)

Kinetic:       +140.975174
Potential:     -131.930578
External:        +0.000000
XC:            -300.115445
Entropy (-ST):   -0.150886
Local:           +0.605900
--------------------------
Free energy:   -290.615835
Extrapolated:  -290.540392

Dipole-layer corrected work functions: 3.387808, 2.575884 eV

Showing only first 2 kpts
 Kpt  Band  Eigenvalues  Occupancy
  0    29     -3.23654    1.98781
  0    30     -3.15233    1.93602
  0    31     -2.81515    0.06885
  0    32     -2.73167    0.01334

  1    29     -3.00798    1.25558
  1    30     -2.97397    0.92137
  1    31     -2.94807    0.67456
  1    32     -2.92066    0.45457


Fermi level: -2.98185

No gap

Forces in eV/Ang:
  0 Li    0.00368    0.00039   -0.27160
  1 Li   -0.00153    0.00322   -0.27259
  2 Li   -0.00273   -0.00797   -0.27282
  3 Li    0.00535    0.00027   -0.27090
  4 Li   -0.00411   -0.00307   -0.27432
  5 Li   -0.00132    0.00593   -0.27291
  6 Li   -0.00545   -0.00092   -0.27232
  7 Li    0.00394   -0.00019   -0.27755
  8 Li    0.00141    0.00200   -0.27203
  9 Li    0.00211   -0.00343    0.26136
 10 Li    0.00241    0.00157    0.26659
 11 Li   -0.00415   -0.00531    0.25690
 12 Li    0.00171   -0.00315    0.28351
 13 Li    0.00634    0.00324    0.25689
 14 Li   -0.00824    0.00126    0.26516
 15 Li    0.00142    0.00644    0.26019
 16 Li   -0.00610   -0.00448    0.26971
 17 Li    0.00502    0.00397    0.26289
 18 Li    0.00552   -0.00305    0.02435
 19 Li    0.00493   -0.00269    0.02935
 20 Li   -0.00524   -0.00334   -0.00338
 21 Li    0.00412    0.00860    0.02902
 22 Li    0.00632    0.00577    0.03074
 23 Li   -0.00622    0.00787   -0.02417
 24 Li    0.00122    0.00065    0.03088
 25 Li    0.00222   -0.00289    0.02668
 26 Li   -0.00307    0.00170    0.03319
 27 Li    0.01246   -0.05809   -0.08597
 28 Li   -0.00156    0.00433   -0.02105
 29 Li   -0.00246   -0.00236    0.00410
 30 Li    0.09472    0.13382   -0.32348
 31 Li    0.02071    0.01016   -0.03103
 32 Li   -0.04994   -0.00188   -0.08875
 33 Li    0.01007    0.02966   -0.02142
 34 Li   -0.00855   -0.01615   -0.00774
 35 Li   -0.00569    0.00689   -0.00311
 36 O    -0.07249   -0.01228    0.35560
 37 O    -0.00189   -0.08713    0.01607
 38 C     0.06712   -0.12119   -0.56236
 39 C    -0.08115   -0.00700   -0.08572
 40 H     0.03445   -0.02607    0.18477
 41 H     0.07139    0.03793    0.14044
 42 H    -0.01074    0.00673    0.05437
 43 H    -0.00242    0.16818    0.20357
 44 H    -0.15686   -0.13762    0.06407
 45 H     0.08570    0.08675    0.05823

System changes: positions 

Initializing position-dependent things.

Density initialized from wave functions
       .-----------------------.  
      /|                       |  
     / |                       |  
    /  |                       |  
   /   |                       |  
  /    |                       |  
 *     |                       |  
 |     |                       |  
 |     |                       |  
 |     |                       |  
 |     |                  H    |  
 |     |                  C    |  
 |   H Li             HLO      |  
 | H   |              O  C     |  
 |   Li|     Li      Li  H     |  
 |     |  Li      Li      Li   |  
 | Li  |   Li      Li          |  
 |     |Li      Li      Li     |  
 |     | Li                    |  
 |   LLi     LLi     LLi       |  
 |     |  Li      Li      Li   |  
 | Li  |   Li      Li          |  
 |     |Li      Li      Li     |  
 Li    | Li      Li            |  
 |    Li      Li      Li       |  
 |     |                       |  
 |     |                       |  
 |     |                       |  
 |     |                       |  
 |     |                       |  
 |     |                       |  
 |     .-----------------------.  
 |    /                       /   
 |   /                       /    
 |  /                       /     
 | /                       /      
 |/                       /       
 *-----------------------*        

Positions:
   0 Li     1.617037    1.617037   10.000000    ( 0.0000,  0.0000,  0.0000)
   1 Li     4.851111    1.617037   10.000000    ( 0.0000,  0.0000,  0.0000)
   2 Li     8.085185    1.617037   10.000000    ( 0.0000,  0.0000,  0.0000)
   3 Li     1.617037    4.851111   10.000000    ( 0.0000,  0.0000,  0.0000)
   4 Li     4.851111    4.851111   10.000000    ( 0.0000,  0.0000,  0.0000)
   5 Li     8.085185    4.851111   10.000000    ( 0.0000,  0.0000,  0.0000)
   6 Li     1.617037    8.085185   10.000000    ( 0.0000,  0.0000,  0.0000)
   7 Li     4.851111    8.085185   10.000000    ( 0.0000,  0.0000,  0.0000)
   8 Li     8.085185    8.085185   10.000000    ( 0.0000,  0.0000,  0.0000)
   9 Li     0.000000    0.000000   11.617037    ( 0.0000,  0.0000,  0.0000)
  10 Li     3.234074    0.000000   11.617037    ( 0.0000,  0.0000,  0.0000)
  11 Li     6.468148    0.000000   11.617037    ( 0.0000,  0.0000,  0.0000)
  12 Li     0.000000    3.234074   11.617037    ( 0.0000,  0.0000,  0.0000)
  13 Li     3.234074    3.234074   11.617037    ( 0.0000,  0.0000,  0.0000)
  14 Li     6.468148    3.234074   11.617037    ( 0.0000,  0.0000,  0.0000)
  15 Li     0.000000    6.468148   11.617037    ( 0.0000,  0.0000,  0.0000)
  16 Li     3.234074    6.468148   11.617037    ( 0.0000,  0.0000,  0.0000)
  17 Li     6.468148    6.468148   11.617037    ( 0.0000,  0.0000,  0.0000)
  18 Li     1.616772    1.617781   13.478163    ( 0.0000,  0.0000,  0.0000)
  19 Li     4.852511    1.616941   13.477109    ( 0.0000,  0.0000,  0.0000)
  20 Li     8.084454    1.617157   13.470689    ( 0.0000,  0.0000,  0.0000)
  21 Li     1.615042    4.850016   13.480560    ( 0.0000,  0.0000,  0.0000)
  22 Li     4.852793    4.851787   13.477511    ( 0.0000,  0.0000,  0.0000)
  23 Li     8.085715    4.850535   13.467699    ( 0.0000,  0.0000,  0.0000)
  24 Li     1.616542    8.085775   13.477699    ( 0.0000,  0.0000,  0.0000)
  25 Li     4.851604    8.084535   13.475804    ( 0.0000,  0.0000,  0.0000)
  26 Li     8.085157    8.085942   13.478027    ( 0.0000,  0.0000,  0.0000)
  27 Li     0.002924   -0.014858   15.426372    ( 0.0000,  0.0000,  0.0000)
  28 Li     3.233299    0.001166   15.441107    ( 0.0000,  0.0000,  0.0000)
  29 Li     6.467736   -0.000284   15.446283    ( 0.0000,  0.0000,  0.0000)
  30 Li     0.029094    3.277434   15.351023    ( 0.0000,  0.0000,  0.0000)
  31 Li     3.237823    3.236085   15.438908    ( 0.0000,  0.0000,  0.0000)
  32 Li     6.455162    3.233510   15.425188    ( 0.0000,  0.0000,  0.0000)
  33 Li     0.002259    6.473763   15.440852    ( 0.0000,  0.0000,  0.0000)
  34 Li     3.232561    6.464895   15.443942    ( 0.0000,  0.0000,  0.0000)
  35 Li     6.466684    6.469666   15.444807    ( 0.0000,  0.0000,  0.0000)
  36 O      8.082770    1.626215   18.443770    ( 0.0000,  0.0000,  0.0000)
  37 O      8.124536    4.511117   18.198279    ( 0.0000,  0.0000,  0.0000)
  38 C      9.261154    2.347814   18.080903    ( 0.0000,  0.0000,  0.0000)
  39 C      9.274361    3.766536   18.616947    ( 0.0000,  0.0000,  0.0000)
  40 H     10.183591    1.808739   18.325272    ( 0.0000,  0.0000,  0.0000)
  41 H      9.182425    2.324685   16.991030    ( 0.0000,  0.0000,  0.0000)
  42 H     10.154574    4.295106   18.233483    ( 0.0000,  0.0000,  0.0000)
  43 H      9.350431    3.716153   19.711204    ( 0.0000,  0.0000,  0.0000)
  44 H      8.150851    1.434769   19.384269    ( 0.0000,  0.0000,  0.0000)
  45 H      7.347290    3.943059   18.323966    ( 0.0000,  0.0000,  0.0000)

Unit cell:
           periodic     x           y           z      points  spacing
  1. axis:    yes    9.702222    0.000000    0.000000    60     0.1617
  2. axis:    yes    0.000000    9.702222    0.000000    60     0.1617
  3. axis:    no     0.000000    0.000000   24.851111   156     0.1593

  Lengths:   9.702222   9.702222  24.851111
  Angles:   90.000000  90.000000  90.000000

Effective grid spacing dv^(1/3) = 0.1609

     iter     time        total  log10-change:
                         energy  eigst   dens
iter:   1 13:55:55  -290.561982  -1.50
iter:   2 13:56:20  -290.560843  -2.24  -2.23
iter:   3 13:56:45  -290.559488c -2.80  -2.36
iter:   4 13:57:11  -290.556432c -2.39  -2.38
Writing to output.gpw (mode='')

iter:   5 13:57:36  -290.556713c -3.52  -2.66
iter:   6 13:58:02  -290.556149c -3.15  -2.71
iter:   7 13:58:27  -290.556223c -2.48  -2.87
iter:   8 13:58:52  -290.555944c -3.59  -2.84
iter:   9 13:59:18  -290.556206c -3.14  -3.19
Writing to output.gpw (mode='')

iter:  10 13:59:43  -290.555953c -3.87  -2.95
iter:  11 14:00:08  -290.555947c -3.53  -3.33
iter:  12 14:00:34  -290.555942c -4.84  -3.50
iter:  13 14:00:59  -290.555945c -5.04  -3.65
iter:  14 14:01:24  -290.555938c -4.47  -3.75
Writing to output.gpw (mode='')

iter:  15 14:01:50  -290.555936c -5.28  -3.67
iter:  16 14:02:15  -290.555938c -5.04  -3.88
iter:  17 14:02:41  -290.555938c -5.69  -4.03c
iter:  18 14:03:06  -290.555939c -5.48  -4.06c
iter:  19 14:03:31  -290.555940c -5.66  -4.25c
Writing to output.gpw (mode='')

iter:  20 14:03:57  -290.555938c -5.98  -4.28c
iter:  21 14:04:22  -290.555937c -6.16  -4.54c
iter:  22 14:04:47  -290.555937c -6.57  -4.67c
iter:  23 14:05:13  -290.555938c -6.59  -4.72c
iter:  24 14:05:38  -290.555938c -6.68  -4.82c
Writing to output.gpw (mode='')

iter:  25 14:06:03  -290.555938c -6.75  -4.89c
iter:  26 14:06:29  -290.555938c -6.97  -5.08c
iter:  27 14:06:54  -290.555938c -6.83  -5.15c
iter:  28 14:07:19  -290.555938c -7.18  -5.18c
iter:  29 14:07:45  -290.555938c -7.17  -5.40c
Writing to output.gpw (mode='')

iter:  30 14:08:10  -290.555938c -7.38  -5.41c
iter:  31 14:08:36  -290.555938c -7.35  -5.48c
iter:  32 14:09:01  -290.555938c -7.45c -5.63c

Converged after 32 iterations.

Dipole moment: (14.537550, -3.131903, 0.417462) |e|*Ang

Energy contributions relative to reference atoms: (reference = -13512.263335)

Kinetic:       +141.134553
Potential:     -132.051437
External:        +0.000000
XC:            -300.169272
Entropy (-ST):   -0.150705
Local:           +0.605570
--------------------------
Free energy:   -290.631291
Extrapolated:  -290.555938

Dipole-layer corrected work functions: 3.387754, 2.585249 eV

Showing only first 2 kpts
 Kpt  Band  Eigenvalues  Occupancy
  0    29     -3.24189    1.98797
  0    30     -3.15769    1.93687
  0    31     -2.81832    0.06690
  0    32     -2.73709    0.01354

  1    29     -3.01118    1.24189
  1    30     -2.97900    0.92511
  1    31     -2.95342    0.68072
  1    32     -2.92517    0.45353


Fermi level: -2.98650

No gap
Writing to output.gpw (mode='')


Forces in eV/Ang:
  0 Li    0.00375    0.00063   -0.27271
  1 Li   -0.00161    0.00334   -0.27280
  2 Li   -0.00272   -0.00799   -0.27393
  3 Li    0.00519    0.00015   -0.27178
  4 Li   -0.00425   -0.00358   -0.27423
  5 Li   -0.00103    0.00597   -0.27392
  6 Li   -0.00593   -0.00097   -0.27250
  7 Li    0.00393   -0.00014   -0.27762
  8 Li    0.00164    0.00202   -0.27205
  9 Li    0.00269   -0.00402    0.26413
 10 Li    0.00240    0.00115    0.26895
 11 Li   -0.00454   -0.00594    0.25851
 12 Li    0.00294   -0.00306    0.28710
 13 Li    0.00553    0.00360    0.26039
 14 Li   -0.00908    0.00124    0.26751
 15 Li    0.00224    0.00632    0.26296
 16 Li   -0.00561   -0.00430    0.27165
 17 Li    0.00385    0.00483    0.26395
 18 Li    0.01019   -0.00774    0.01192
 19 Li    0.00333   -0.00439    0.02296
 20 Li   -0.00616   -0.00569   -0.00862
 21 Li    0.01467    0.01886    0.01019
 22 Li    0.00455    0.00759    0.02389
 23 Li   -0.01234    0.01481   -0.03194
 24 Li    0.00388   -0.00104    0.02362
 25 Li    0.00195   -0.00264    0.02342
 26 Li   -0.00512    0.00030    0.02641
 27 Li    0.01137   -0.04815   -0.07744
 28 Li   -0.00016    0.00329   -0.01845
 29 Li   -0.00267   -0.00287    0.00616
 30 Li    0.06876    0.09291   -0.24976
 31 Li    0.02063    0.00977   -0.02746
 32 Li   -0.03991   -0.00059   -0.07767
 33 Li    0.00873    0.02918   -0.01797
 34 Li   -0.00886   -0.01546   -0.00599
 35 Li   -0.00420    0.00589   -0.00135
 36 O    -0.07552   -0.00774    0.26665
 37 O     0.04791   -0.03351    0.03100
 38 C     0.00391   -0.11893   -0.35114
 39 C    -0.02984   -0.09440   -0.05311
 40 H    -0.00640   -0.00920    0.21358
 41 H     0.13180    0.13946   -0.15451
 42 H    -0.05875    0.00547    0.05283
 43 H    -0.02591    0.17326    0.09974
 44 H    -0.14129   -0.15854    0.21755
 45 H     0.08583    0.05106    0.06535

System changes: positions 

Initializing position-dependent things.

Density initialized from wave functions
       .-----------------------.  
      /|                       |  
     / |                       |  
    /  |                       |  
   /   |                       |  
  /    |                       |  
 *     |                       |  
 |     |                       |  
 |     |                       |  
 |     |                       |  
 |     |                  H    |  
 |     |                  C    |  
 |   H Li             HLO      |  
 | H   |              O  C     |  
 |   Li|     Li      Li  H     |  
 |     |  Li      Li      Li   |  
 | Li  |   Li      Li          |  
 |     |Li      Li      Li     |  
 |     | Li                    |  
 |   LLi     LLi     LLi       |  
 |     |  Li      Li      Li   |  
 | Li  |   Li      Li          |  
 |     |Li      Li      Li     |  
 Li    | Li      Li            |  
 |    Li      Li      Li       |  
 |     |                       |  
 |     |                       |  
 |     |                       |  
 |     |                       |  
 |     |                       |  
 |     |                       |  
 |     .-----------------------.  
 |    /                       /   
 |   /                       /    
 |  /                       /     
 | /                       /      
 |/                       /       
 *-----------------------*        

Positions:
   0 Li     1.617037    1.617037   10.000000    ( 0.0000,  0.0000,  0.0000)
   1 Li     4.851111    1.617037   10.000000    ( 0.0000,  0.0000,  0.0000)
   2 Li     8.085185    1.617037   10.000000    ( 0.0000,  0.0000,  0.0000)
   3 Li     1.617037    4.851111   10.000000    ( 0.0000,  0.0000,  0.0000)
   4 Li     4.851111    4.851111   10.000000    ( 0.0000,  0.0000,  0.0000)
   5 Li     8.085185    4.851111   10.000000    ( 0.0000,  0.0000,  0.0000)
   6 Li     1.617037    8.085185   10.000000    ( 0.0000,  0.0000,  0.0000)
   7 Li     4.851111    8.085185   10.000000    ( 0.0000,  0.0000,  0.0000)
   8 Li     8.085185    8.085185   10.000000    ( 0.0000,  0.0000,  0.0000)
   9 Li     0.000000    0.000000   11.617037    ( 0.0000,  0.0000,  0.0000)
  10 Li     3.234074    0.000000   11.617037    ( 0.0000,  0.0000,  0.0000)
  11 Li     6.468148    0.000000   11.617037    ( 0.0000,  0.0000,  0.0000)
  12 Li     0.000000    3.234074   11.617037    ( 0.0000,  0.0000,  0.0000)
  13 Li     3.234074    3.234074   11.617037    ( 0.0000,  0.0000,  0.0000)
  14 Li     6.468148    3.234074   11.617037    ( 0.0000,  0.0000,  0.0000)
  15 Li     0.000000    6.468148   11.617037    ( 0.0000,  0.0000,  0.0000)
  16 Li     3.234074    6.468148   11.617037    ( 0.0000,  0.0000,  0.0000)
  17 Li     6.468148    6.468148   11.617037    ( 0.0000,  0.0000,  0.0000)
  18 Li     1.616986    1.617780   13.481019    ( 0.0000,  0.0000,  0.0000)
  19 Li     4.853025    1.616787   13.479970    ( 0.0000,  0.0000,  0.0000)
  20 Li     8.084059    1.617028   13.470727    ( 0.0000,  0.0000,  0.0000)
  21 Li     1.614865    4.850229   13.484085    ( 0.0000,  0.0000,  0.0000)
  22 Li     4.853426    4.852206   13.480518    ( 0.0000,  0.0000,  0.0000)
  23 Li     8.085519    4.850790   13.466170    ( 0.0000,  0.0000,  0.0000)
  24 Li     1.616505    8.085922   13.480754    ( 0.0000,  0.0000,  0.0000)
  25 Li     4.851807    8.084266   13.478288    ( 0.0000,  0.0000,  0.0000)
  26 Li     8.085002    8.086176   13.481261    ( 0.0000,  0.0000,  0.0000)
  27 Li     0.004121   -0.020663   15.418319    ( 0.0000,  0.0000,  0.0000)
  28 Li     3.233065    0.001609   15.439136    ( 0.0000,  0.0000,  0.0000)
  29 Li     6.467537   -0.000452   15.446561    ( 0.0000,  0.0000,  0.0000)
  30 Li     0.039692    3.292944   15.315708    ( 0.0000,  0.0000,  0.0000)
  31 Li     3.239535    3.236966   15.436023    ( 0.0000,  0.0000,  0.0000)
  32 Li     6.450149    3.233322   15.416775    ( 0.0000,  0.0000,  0.0000)
  33 Li     0.003184    6.476279   15.438818    ( 0.0000,  0.0000,  0.0000)
  34 Li     3.231854    6.463481   15.443175    ( 0.0000,  0.0000,  0.0000)
  35 Li     6.466127    6.470289   15.444432    ( 0.0000,  0.0000,  0.0000)
  36 O      8.079667    1.628761   18.451048    ( 0.0000,  0.0000,  0.0000)
  37 O      8.124659    4.508793   18.194873    ( 0.0000,  0.0000,  0.0000)
  38 C      9.263257    2.344505   18.082984    ( 0.0000,  0.0000,  0.0000)
  39 C      9.274231    3.767370   18.618958    ( 0.0000,  0.0000,  0.0000)
  40 H     10.187109    1.805985   18.331354    ( 0.0000,  0.0000,  0.0000)
  41 H      9.178518    2.313169   17.000945    ( 0.0000,  0.0000,  0.0000)
  42 H     10.155953    4.296354   18.237212    ( 0.0000,  0.0000,  0.0000)
  43 H      9.351150    3.724695   19.717703    ( 0.0000,  0.0000,  0.0000)
  44 H      8.143938    1.426149   19.388424    ( 0.0000,  0.0000,  0.0000)
  45 H      7.345549    3.946767   18.330072    ( 0.0000,  0.0000,  0.0000)

Unit cell:
           periodic     x           y           z      points  spacing
  1. axis:    yes    9.702222    0.000000    0.000000    60     0.1617
  2. axis:    yes    0.000000    9.702222    0.000000    60     0.1617
  3. axis:    no     0.000000    0.000000   24.851111   156     0.1593

  Lengths:   9.702222   9.702222  24.851111
  Angles:   90.000000  90.000000  90.000000

Effective grid spacing dv^(1/3) = 0.1609

     iter     time        total  log10-change:
                         energy  eigst   dens
iter:   1 14:09:35  -290.578200  -1.42
iter:   2 14:10:00  -290.577223  -2.17  -2.22
iter:   3 14:10:25  -290.572529c -2.73  -2.28
iter:   4 14:10:50  -290.571224c -2.57  -2.49
Writing to output.gpw (mode='')

iter:   5 14:11:16  -290.571087c -3.29  -2.66
iter:   6 14:11:41  -290.570707c -3.07  -2.74
iter:   7 14:12:06  -290.570605c -2.99  -2.87
iter:   8 14:12:31  -290.570601c -3.09  -2.98
iter:   9 14:12:57  -290.570574c -3.68  -3.04
Writing to output.gpw (mode='')

iter:  10 14:13:22  -290.570547c -3.49  -3.12
iter:  11 14:13:47  -290.570553c -4.12  -3.41
iter:  12 14:14:13  -290.570552c -4.34  -3.57
iter:  13 14:14:38  -290.570555c -4.46  -3.61
iter:  14 14:15:03  -290.570549c -4.84  -3.63
Writing to output.gpw (mode='')

iter:  15 14:15:31  -290.570541c -4.80  -3.72
iter:  16 14:15:56  -290.570541c -5.15  -3.90
iter:  17 14:16:21  -290.570537c -5.37  -3.99
iter:  18 14:16:46  -290.570534c -5.62  -4.23c
iter:  19 14:17:12  -290.570535c -5.75  -4.32c
Writing to output.gpw (mode='')

iter:  20 14:17:37  -290.570535c -5.84  -4.46c
iter:  21 14:18:02  -290.570536c -6.05  -4.55c
iter:  22 14:18:28  -290.570536c -6.20  -4.62c
iter:  23 14:18:53  -290.570536c -6.19  -4.69c
iter:  24 14:19:18  -290.570536c -6.41  -4.73c
Writing to output.gpw (mode='')

iter:  25 14:19:43  -290.570537c -6.49  -4.82c
iter:  26 14:20:09  -290.570537c -6.55  -4.92c
iter:  27 14:20:34  -290.570537c -6.75  -5.03c
iter:  28 14:20:59  -290.570537c -6.94  -5.19c
iter:  29 14:21:25  -290.570537c -6.96  -5.32c
Writing to output.gpw (mode='')

iter:  30 14:21:50  -290.570537c -6.95  -5.36c
iter:  31 14:22:15  -290.570537c -7.19  -5.40c
iter:  32 14:22:40  -290.570537c -7.37  -5.57c
iter:  33 14:23:06  -290.570537c -7.43c -5.68c

Converged after 33 iterations.

Dipole moment: (14.416615, -3.054257, 0.412685) |e|*Ang

Energy contributions relative to reference atoms: (reference = -13512.263335)

Kinetic:       +141.051217
Potential:     -131.987408
External:        +0.000000
XC:            -300.164419
Entropy (-ST):   -0.150473
Local:           +0.605310
--------------------------
Free energy:   -290.645774
Extrapolated:  -290.570537

Dipole-layer corrected work functions: 3.387748, 2.594426 eV

Showing only first 2 kpts
 Kpt  Band  Eigenvalues  Occupancy
  0    29     -3.24732    1.98817
  0    30     -3.16302    1.93778
  0    31     -2.82128    0.06483
  0    32     -2.74266    0.01381

  1    29     -3.01428    1.22789
  1    30     -2.98413    0.93054
  1    31     -2.95851    0.68529
  1    32     -2.92948    0.45162


Fermi level: -2.99109

No gap
Writing to output.gpw (mode='')


Forces in eV/Ang:
  0 Li    0.00387    0.00089   -0.27396
  1 Li   -0.00173    0.00346   -0.27303
  2 Li   -0.00273   -0.00801   -0.27517
  3 Li    0.00503    0.00003   -0.27274
  4 Li   -0.00439   -0.00416   -0.27412
  5 Li   -0.00070    0.00604   -0.27504
  6 Li   -0.00646   -0.00104   -0.27269
  7 Li    0.00393   -0.00009   -0.27775
  8 Li    0.00189    0.00199   -0.27206
  9 Li    0.00335   -0.00477    0.26724
 10 Li    0.00252    0.00053    0.27148
 11 Li   -0.00509   -0.00677    0.26019
 12 Li    0.00436   -0.00293    0.29107
 13 Li    0.00475    0.00402    0.26425
 14 Li   -0.01018    0.00120    0.27005
 15 Li    0.00317    0.00629    0.26598
 16 Li   -0.00491   -0.00391    0.27354
 17 Li    0.00240    0.00599    0.26495
 18 Li    0.01541   -0.01291   -0.00168
 19 Li    0.00154   -0.00636    0.01565
 20 Li   -0.00709   -0.00811   -0.01412
 21 Li    0.02696    0.03075   -0.01125
 22 Li    0.00249    0.00973    0.01605
 23 Li   -0.01909    0.02237   -0.03991
 24 Li    0.00689   -0.00298    0.01538
 25 Li    0.00162   -0.00243    0.01967
 26 Li   -0.00744   -0.00124    0.01874
 27 Li    0.01019   -0.03707   -0.06768
 28 Li    0.00133    0.00211   -0.01542
 29 Li   -0.00290   -0.00339    0.00851
 30 Li    0.04488    0.05771   -0.18485
 31 Li    0.02007    0.00923   -0.02352
 32 Li   -0.02882    0.00102   -0.06520
 33 Li    0.00707    0.02806   -0.01400
 34 Li   -0.00911   -0.01448   -0.00397
 35 Li   -0.00249    0.00467    0.00070
 36 O    -0.07303   -0.02365    0.20475
 37 O     0.08353    0.00708    0.03098
 38 C    -0.04369   -0.09472   -0.02234
 39 C     0.01905   -0.13957   -0.00855
 40 H    -0.06706    0.00772    0.20000
 41 H     0.16340    0.19193   -0.37960
 42 H    -0.08826   -0.00272    0.03962
 43 H    -0.05122    0.14214   -0.02940
 44 H    -0.10276   -0.14450    0.26060
 45 H     0.07559    0.01950    0.06894

System changes: positions 

Initializing position-dependent things.

Density initialized from wave functions
       .-----------------------.  
      /|                       |  
     / |                       |  
    /  |                       |  
   /   |                       |  
  /    |                       |  
 *     |                       |  
 |     |                       |  
 |     |                       |  
 |     |                       |  
 |     |                  H    |  
 |     |                  C    |  
 |   H Li             HLO      |  
 | H   |              O  C     |  
 |   Li|     Li      Li  H     |  
 |     |  Li      Li      Li   |  
 | Li  |   Li      Li          |  
 |     |Li      Li      Li     |  
 |     | Li                    |  
 |   LLi     LLi     LLi       |  
 |     |  Li      Li      Li   |  
 | Li  |   Li      Li          |  
 |     |Li      Li      Li     |  
 Li    | Li      Li            |  
 |    Li      Li      Li       |  
 |     |                       |  
 |     |                       |  
 |     |                       |  
 |     |                       |  
 |     |                       |  
 |     |                       |  
 |     .-----------------------.  
 |    /                       /   
 |   /                       /    
 |  /                       /     
 | /                       /      
 |/                       /       
 *-----------------------*        

Positions:
   0 Li     1.617037    1.617037   10.000000    ( 0.0000,  0.0000,  0.0000)
   1 Li     4.851111    1.617037   10.000000    ( 0.0000,  0.0000,  0.0000)
   2 Li     8.085185    1.617037   10.000000    ( 0.0000,  0.0000,  0.0000)
   3 Li     1.617037    4.851111   10.000000    ( 0.0000,  0.0000,  0.0000)
   4 Li     4.851111    4.851111   10.000000    ( 0.0000,  0.0000,  0.0000)
   5 Li     8.085185    4.851111   10.000000    ( 0.0000,  0.0000,  0.0000)
   6 Li     1.617037    8.085185   10.000000    ( 0.0000,  0.0000,  0.0000)
   7 Li     4.851111    8.085185   10.000000    ( 0.0000,  0.0000,  0.0000)
   8 Li     8.085185    8.085185   10.000000    ( 0.0000,  0.0000,  0.0000)
   9 Li     0.000000    0.000000   11.617037    ( 0.0000,  0.0000,  0.0000)
  10 Li     3.234074    0.000000   11.617037    ( 0.0000,  0.0000,  0.0000)
  11 Li     6.468148    0.000000   11.617037    ( 0.0000,  0.0000,  0.0000)
  12 Li     0.000000    3.234074   11.617037    ( 0.0000,  0.0000,  0.0000)
  13 Li     3.234074    3.234074   11.617037    ( 0.0000,  0.0000,  0.0000)
  14 Li     6.468148    3.234074   11.617037    ( 0.0000,  0.0000,  0.0000)
  15 Li     0.000000    6.468148   11.617037    ( 0.0000,  0.0000,  0.0000)
  16 Li     3.234074    6.468148   11.617037    ( 0.0000,  0.0000,  0.0000)
  17 Li     6.468148    6.468148   11.617037    ( 0.0000,  0.0000,  0.0000)
  18 Li     1.617412    1.617587   13.483630    ( 0.0000,  0.0000,  0.0000)
  19 Li     4.853521    1.616549   13.482842    ( 0.0000,  0.0000,  0.0000)
  20 Li     8.083590    1.616789   13.470554    ( 0.0000,  0.0000,  0.0000)
  21 Li     1.615107    4.850886   13.487166    ( 0.0000,  0.0000,  0.0000)
  22 Li     4.854047    4.852738   13.483531    ( 0.0000,  0.0000,  0.0000)
  23 Li     8.085055    4.851357   13.464171    ( 0.0000,  0.0000,  0.0000)
  24 Li     1.616574    8.086013   13.483802    ( 0.0000,  0.0000,  0.0000)
  25 Li     4.852019    8.083981   13.480872    ( 0.0000,  0.0000,  0.0000)
  26 Li     8.084748    8.086374   13.484523    ( 0.0000,  0.0000,  0.0000)
  27 Li     0.005377   -0.026571   15.409882    ( 0.0000,  0.0000,  0.0000)
  28 Li     3.232867    0.002048   15.437089    ( 0.0000,  0.0000,  0.0000)
  29 Li     6.467310   -0.000657   15.446945    ( 0.0000,  0.0000,  0.0000)
  30 Li     0.050178    3.308191   15.280246    ( 0.0000,  0.0000,  0.0000)
  31 Li     3.241411    3.237916   15.433011    ( 0.0000,  0.0000,  0.0000)
  32 Li     6.445094    3.233166   15.408042    ( 0.0000,  0.0000,  0.0000)
  33 Li     0.004142    6.479014   15.436735    ( 0.0000,  0.0000,  0.0000)
  34 Li     3.231066    6.461962   15.442408    ( 0.0000,  0.0000,  0.0000)
  35 Li     6.465576    6.470934   15.444097    ( 0.0000,  0.0000,  0.0000)
  36 O      8.075810    1.630640   18.461005    ( 0.0000,  0.0000,  0.0000)
  37 O      8.125884    4.506618   18.192089    ( 0.0000,  0.0000,  0.0000)
  38 C      9.264533    2.340254   18.085118    ( 0.0000,  0.0000,  0.0000)
  39 C      9.274406    3.766421   18.620813    ( 0.0000,  0.0000,  0.0000)
  40 H     10.189328    1.803501   18.339662    ( 0.0000,  0.0000,  0.0000)
  41 H      9.177096    2.304943   17.005200    ( 0.0000,  0.0000,  0.0000)
  42 H     10.156048    4.297410   18.241171    ( 0.0000,  0.0000,  0.0000)
  43 H      9.351057    3.734446   19.723111    ( 0.0000,  0.0000,  0.0000)
  44 H      8.136170    1.416287   19.395304    ( 0.0000,  0.0000,  0.0000)
  45 H      7.344993    3.950537   18.336710    ( 0.0000,  0.0000,  0.0000)

Unit cell:
           periodic     x           y           z      points  spacing
  1. axis:    yes    9.702222    0.000000    0.000000    60     0.1617
  2. axis:    yes    0.000000    9.702222    0.000000    60     0.1617
  3. axis:    no     0.000000    0.000000   24.851111   156     0.1593

  Lengths:   9.702222   9.702222  24.851111
  Angles:   90.000000  90.000000  90.000000

Effective grid spacing dv^(1/3) = 0.1609

     iter     time        total  log10-change:
                         energy  eigst   dens
iter:   1 14:23:40  -290.592547  -1.39
iter:   2 14:24:05  -290.591526  -2.14  -2.23
iter:   3 14:24:30  -290.588383c -2.69  -2.25
iter:   4 14:24:55  -290.584954c -2.28  -2.39
Writing to output.gpw (mode='')

iter:   5 14:25:21  -290.584970c -3.41  -2.57
iter:   6 14:25:46  -290.584395c -2.91  -2.71
iter:   7 14:26:11  -290.584634c -2.40  -2.86
iter:   8 14:26:37  -290.584329c -3.58  -2.78
iter:   9 14:27:02  -290.584295c -3.29  -2.99
Writing to output.gpw (mode='')

iter:  10 14:27:28  -290.584320c -3.59  -3.06
iter:  11 14:27:53  -290.584285c -4.11  -3.18
iter:  12 14:28:18  -290.584269c -3.90  -3.26
iter:  13 14:28:44  -290.584260c -4.20  -3.33
iter:  14 14:29:09  -290.584262c -4.53  -3.55
Writing to output.gpw (mode='')

iter:  15 14:29:34  -290.584245c -4.72  -3.62
iter:  16 14:30:00  -290.584249c -5.01  -3.74
iter:  17 14:30:25  -290.584251c -5.15  -3.93
iter:  18 14:30:51  -290.584244c -5.55  -4.02c
iter:  19 14:31:16  -290.584246c -5.42  -3.99
Writing to output.gpw (mode='')

iter:  20 14:31:41  -290.584246c -5.82  -4.25c
iter:  21 14:32:06  -290.584244c -6.12  -4.32c
iter:  22 14:32:32  -290.584244c -6.11  -4.44c
iter:  23 14:32:57  -290.584244c -6.27  -4.54c
iter:  24 14:33:22  -290.584244c -6.50  -4.62c
Writing to output.gpw (mode='')

iter:  25 14:33:48  -290.584244c -6.62  -4.66c
iter:  26 14:34:13  -290.584244c -6.88  -4.83c
iter:  27 14:34:38  -290.584245c -6.91  -4.90c
iter:  28 14:35:04  -290.584245c -6.93  -4.98c
iter:  29 14:35:29  -290.584245c -6.99  -5.14c
Writing to output.gpw (mode='')

iter:  30 14:35:54  -290.584245c -7.33  -5.31c
iter:  31 14:36:20  -290.584245c -7.33  -5.34c
iter:  32 14:36:45  -290.584245c -7.53c -5.40c

Converged after 32 iterations.

Dipole moment: (14.284689, -2.976797, 0.408691) |e|*Ang

Energy contributions relative to reference atoms: (reference = -13512.263335)

Kinetic:       +140.844498
Potential:     -131.829769
External:        +0.000000
XC:            -300.128956
Entropy (-ST):   -0.150215
Local:           +0.605089
--------------------------
Free energy:   -290.659353
Extrapolated:  -290.584245

Dipole-layer corrected work functions: 3.387825, 2.602180 eV

Showing only first 2 kpts
 Kpt  Band  Eigenvalues  Occupancy
  0    29     -3.25218    1.98839
  0    30     -3.16766    1.93865
  0    31     -2.82357    0.06282
  0    32     -2.74772    0.01413

  1    29     -3.01684    1.21499
  1    30     -2.98877    0.93778
  1    31     -2.96264    0.68721
  1    32     -2.93293    0.44835


Fermi level: -2.99500

No gap
Writing to output.gpw (mode='')


Forces in eV/Ang:
  0 Li    0.00402    0.00113   -0.27526
  1 Li   -0.00188    0.00355   -0.27332
  2 Li   -0.00275   -0.00803   -0.27647
  3 Li    0.00489   -0.00005   -0.27371
  4 Li   -0.00454   -0.00473   -0.27405
  5 Li   -0.00041    0.00614   -0.27621
  6 Li   -0.00696   -0.00113   -0.27292
  7 Li    0.00391   -0.00005   -0.27798
  8 Li    0.00212    0.00194   -0.27209
  9 Li    0.00403   -0.00563    0.27040
 10 Li    0.00279   -0.00026    0.27390
 11 Li   -0.00574   -0.00772    0.26183
 12 Li    0.00585   -0.00275    0.29503
 13 Li    0.00407    0.00444    0.26812
 14 Li   -0.01140    0.00113    0.27257
 15 Li    0.00412    0.00636    0.26897
 16 Li   -0.00397   -0.00327    0.27512
 17 Li    0.00074    0.00738    0.26571
 18 Li    0.02068   -0.01807   -0.01517
 19 Li   -0.00025   -0.00838    0.00815
 20 Li   -0.00793   -0.01041   -0.01924
 21 Li    0.03994    0.04325   -0.03330
 22 Li    0.00038    0.01195    0.00799
 23 Li   -0.02583    0.02986   -0.04738
 24 Li    0.00997   -0.00497    0.00694
 25 Li    0.00128   -0.00227    0.01581
 26 Li   -0.00980   -0.00278    0.01090
 27 Li    0.00886   -0.02534   -0.05728
 28 Li    0.00283    0.00084   -0.01226
 29 Li   -0.00313   -0.00390    0.01080
 30 Li    0.02424    0.02812   -0.12912
 31 Li    0.01910    0.00858   -0.01954
 32 Li   -0.01744    0.00267   -0.05242
 33 Li    0.00526    0.02645   -0.00993
 34 Li   -0.00921   -0.01329   -0.00186
 35 Li   -0.00082    0.00341    0.00283
 36 O    -0.05011   -0.04038    0.11281
 37 O     0.09887    0.02841    0.02263
 38 C    -0.09298   -0.06294    0.19543
 39 C     0.04399   -0.13671    0.02967
 40 H    -0.11591    0.00849    0.17216
 41 H     0.17577    0.22003   -0.43461
 42 H    -0.09140   -0.01691    0.01681
 43 H    -0.07338    0.08789   -0.13105
 44 H    -0.05079   -0.11833    0.28220
 45 H     0.06523   -0.00418    0.06690

System changes: positions 

Initializing position-dependent things.

Density initialized from wave functions
       .-----------------------.  
      /|                       |  
     / |                       |  
    /  |                       |  
   /   |                       |  
  /    |                       |  
 *     |                       |  
 |     |                       |  
 |     |                       |  
 |     |                       |  
 |     |                  H    |  
 |     |                  C    |  
 |   H Li             HLO      |  
 | H   |              O  C     |  
 |   Li|     Li      Li  H     |  
 |     |  Li      Li      Li   |  
 | Li  |   Li      Li          |  
 |     |Li      Li      Li     |  
[...]
Writing to output.gpw (mode='')

iter:  20 16:17:38  -290.642620c -6.14  -4.32c
iter:  21 16:18:04  -290.642620c -6.35  -4.54c
iter:  22 16:18:29  -290.642620c -6.45  -4.64c
iter:  23 16:18:54  -290.642621c -6.59  -4.72c
iter:  24 16:19:19  -290.642620c -6.73  -4.75c
Writing to output.gpw (mode='')

iter:  25 16:19:45  -290.642620c -7.06  -4.85c
iter:  26 16:20:10  -290.642621c -6.91  -4.95c
iter:  27 16:20:35  -290.642621c -7.29  -5.10c
iter:  28 16:21:01  -290.642621c -7.20  -5.14c
iter:  29 16:21:26  -290.642622c -7.36  -5.26c
Writing to output.gpw (mode='')

iter:  30 16:21:51  -290.642622c -7.74c -5.50c

Converged after 30 iterations.

Dipole moment: (12.833013, -2.680301, 0.403516) |e|*Ang

Energy contributions relative to reference atoms: (reference = -13512.263335)

Kinetic:       +141.925099
Potential:     -132.636330
External:        +0.000000
XC:            -300.461154
Entropy (-ST):   -0.148690
Local:           +0.604109
--------------------------
Free energy:   -290.716967
Extrapolated:  -290.642622

Dipole-layer corrected work functions: 3.386981, 2.611284 eV

Showing only first 2 kpts
 Kpt  Band  Eigenvalues  Occupancy
  0    29     -3.26652    1.99053
  0    30     -3.17566    1.94309
  0    31     -2.82105    0.05522
  0    32     -2.76422    0.01806

  1    29     -3.01652    1.17212
  1    30     -2.99649    0.97357
  1    31     -2.96203    0.64514
  1    32     -2.93257    0.41787


Fermi level: -2.99913

No gap

Forces in eV/Ang:
  0 Li    0.00507    0.00099   -0.28055
  1 Li   -0.00313    0.00292   -0.27386
  2 Li   -0.00299   -0.00871   -0.28192
  3 Li    0.00575    0.00077   -0.27682
  4 Li   -0.00596   -0.00642   -0.27150
  5 Li   -0.00047    0.00727   -0.28128
  6 Li   -0.00808   -0.00252   -0.27253
  7 Li    0.00387    0.00046   -0.28026
  8 Li    0.00216    0.00100   -0.27064
  9 Li    0.00653   -0.01645    0.28052
 10 Li    0.01302   -0.01355    0.27169
 11 Li   -0.01413   -0.01816    0.26101
 12 Li    0.01514    0.00243    0.31506
 13 Li    0.01075    0.00415    0.27465
 14 Li   -0.02307   -0.00126    0.27912
 15 Li    0.00698    0.01805    0.26930
 16 Li    0.01962    0.01768    0.25385
 17 Li   -0.02033    0.02639    0.24952
 18 Li    0.02909   -0.01977   -0.04516
 19 Li   -0.00216   -0.01272   -0.02018
 20 Li   -0.01068   -0.01437   -0.02515
 21 Li    0.04797    0.04996   -0.06454
 22 Li   -0.00391    0.01664   -0.02285
 23 Li   -0.02506    0.03692   -0.03508
 24 Li    0.01763   -0.00696   -0.02558
 25 Li   -0.00102   -0.00417   -0.00368
 26 Li   -0.01560   -0.00464   -0.01984
 27 Li    0.00114    0.03267   -0.00621
 28 Li    0.00465   -0.00560    0.00549
 29 Li    0.00069   -0.00176    0.01489
 30 Li   -0.03463   -0.04938    0.02935
 31 Li   -0.00155    0.00238   -0.01050
 32 Li    0.03291    0.00995    0.00137
 33 Li   -0.00234    0.00016   -0.00591
 34 Li   -0.00125    0.00070    0.00999
 35 Li    0.00218   -0.00273    0.01140
 36 O    -0.00216    0.08303    0.03465
 37 O     0.01044   -0.04998    0.01738
 38 C     0.05691   -0.03268   -0.01104
 39 C     0.00999   -0.03638    0.07534
 40 H     0.07257   -0.00336    0.10649
 41 H    -0.06174   -0.10002   -0.11497
 42 H    -0.02475   -0.03635    0.02813
 43 H     0.01152    0.10131    0.10078
 44 H    -0.01509   -0.02458   -0.01156
 45 H    -0.06420    0.04361    0.00239

System changes: positions 

Initializing position-dependent things.

Density initialized from wave functions
       .-----------------------.  
      /|                       |  
     / |                       |  
    /  |                       |  
   /   |                       |  
  /    |                       |  
 *     |                       |  
 |     |                       |  
 |     |                       |  
 |     |                       |  
 |     |                  H    |  
 |     |                  C    |  
 |   H Li             HLO      |  
 | H   |              O  C     |  
 |   Li|     Li      Li  H     |  
 |     |  Li      Li      Li   |  
 | Li  |   Li      Li          |  
 |     |Li      Li      Li     |  
 |     | Li                    |  
 |   LLi     LLi     LLi       |  
 |     |  Li      Li      Li   |  
 | Li  |   Li      Li          |  
 |     |Li      Li      Li     |  
 Li    | Li      Li            |  
 |    Li      Li      Li       |  
 |     |                       |  
 |     |                       |  
 |     |                       |  
 |     |                       |  
 |     |                       |  
 |     |                       |  
 |     .-----------------------.  
 |    /                       /   
 |   /                       /    
 |  /                       /     
 | /                       /      
 |/                       /       
 *-----------------------*        

Positions:
   0 Li     1.617037    1.617037   10.000000    ( 0.0000,  0.0000,  0.0000)
   1 Li     4.851111    1.617037   10.000000    ( 0.0000,  0.0000,  0.0000)
   2 Li     8.085185    1.617037   10.000000    ( 0.0000,  0.0000,  0.0000)
   3 Li     1.617037    4.851111   10.000000    ( 0.0000,  0.0000,  0.0000)
   4 Li     4.851111    4.851111   10.000000    ( 0.0000,  0.0000,  0.0000)
   5 Li     8.085185    4.851111   10.000000    ( 0.0000,  0.0000,  0.0000)
   6 Li     1.617037    8.085185   10.000000    ( 0.0000,  0.0000,  0.0000)
   7 Li     4.851111    8.085185   10.000000    ( 0.0000,  0.0000,  0.0000)
   8 Li     8.085185    8.085185   10.000000    ( 0.0000,  0.0000,  0.0000)
   9 Li     0.000000    0.000000   11.617037    ( 0.0000,  0.0000,  0.0000)
  10 Li     3.234074    0.000000   11.617037    ( 0.0000,  0.0000,  0.0000)
  11 Li     6.468148    0.000000   11.617037    ( 0.0000,  0.0000,  0.0000)
  12 Li     0.000000    3.234074   11.617037    ( 0.0000,  0.0000,  0.0000)
  13 Li     3.234074    3.234074   11.617037    ( 0.0000,  0.0000,  0.0000)
  14 Li     6.468148    3.234074   11.617037    ( 0.0000,  0.0000,  0.0000)
  15 Li     0.000000    6.468148   11.617037    ( 0.0000,  0.0000,  0.0000)
  16 Li     3.234074    6.468148   11.617037    ( 0.0000,  0.0000,  0.0000)
  17 Li     6.468148    6.468148   11.617037    ( 0.0000,  0.0000,  0.0000)
  18 Li     1.638689    1.600289   13.470268    ( 0.0000,  0.0000,  0.0000)
  19 Li     4.853842    1.607482   13.490656    ( 0.0000,  0.0000,  0.0000)
  20 Li     8.075302    1.606594   13.452478    ( 0.0000,  0.0000,  0.0000)
  21 Li     1.655675    4.894818   13.455533    ( 0.0000,  0.0000,  0.0000)
  22 Li     4.854648    4.865781   13.491011    ( 0.0000,  0.0000,  0.0000)
  23 Li     8.060526    4.880729   13.420301    ( 0.0000,  0.0000,  0.0000)
  24 Li     1.627311    8.081054   13.490200    ( 0.0000,  0.0000,  0.0000)
  25 Li     4.853165    8.080956   13.496823    ( 0.0000,  0.0000,  0.0000)
  26 Li     8.074203    8.083829   13.495306    ( 0.0000,  0.0000,  0.0000)
  27 Li     0.014463   -0.050911   15.350796    ( 0.0000,  0.0000,  0.0000)
  28 Li     3.235327    0.002528   15.425117    ( 0.0000,  0.0000,  0.0000)
  29 Li     6.464486   -0.004296   15.458200    ( 0.0000,  0.0000,  0.0000)
  30 Li     0.091111    3.366541   15.093220    ( 0.0000,  0.0000,  0.0000)
  31 Li     3.258056    3.246287   15.411071    ( 0.0000,  0.0000,  0.0000)
  32 Li     6.427591    3.236730   15.352190    ( 0.0000,  0.0000,  0.0000)
  33 Li     0.009127    6.502918   15.424710    ( 0.0000,  0.0000,  0.0000)
  34 Li     3.222655    6.449599   15.441270    ( 0.0000,  0.0000,  0.0000)
  35 Li     6.464272    6.474138   15.447563    ( 0.0000,  0.0000,  0.0000)
  36 O      8.043186    1.626628   18.532432    ( 0.0000,  0.0000,  0.0000)
  37 O      8.135209    4.500319   18.169114    ( 0.0000,  0.0000,  0.0000)
  38 C      9.238859    2.322045   18.140627    ( 0.0000,  0.0000,  0.0000)
  39 C      9.268822    3.759425   18.633648    ( 0.0000,  0.0000,  0.0000)
  40 H     10.136069    1.774245   18.447488    ( 0.0000,  0.0000,  0.0000)
  41 H      9.215567    2.317235   17.052750    ( 0.0000,  0.0000,  0.0000)
  42 H     10.158234    4.262310   18.236124    ( 0.0000,  0.0000,  0.0000)
  43 H      9.323943    3.767727   19.732329    ( 0.0000,  0.0000,  0.0000)
  44 H      8.139600    1.366430   19.455666    ( 0.0000,  0.0000,  0.0000)
  45 H      7.354861    3.974166   18.397432    ( 0.0000,  0.0000,  0.0000)

Unit cell:
           periodic     x           y           z      points  spacing
  1. axis:    yes    9.702222    0.000000    0.000000    60     0.1617
  2. axis:    yes    0.000000    9.702222    0.000000    60     0.1617
  3. axis:    no     0.000000    0.000000   24.851111   156     0.1593

  Lengths:   9.702222   9.702222  24.851111
  Angles:   90.000000  90.000000  90.000000

Effective grid spacing dv^(1/3) = 0.1609

     iter     time        total  log10-change:
                         energy  eigst   dens
iter:   1 16:22:25  -290.688941  -1.30
iter:   2 16:22:50  -290.656760  -1.81  -1.76
iter:   3 16:23:16  -290.650148  -2.83  -2.05
iter:   4 16:23:41  -290.646425c -2.36  -2.30
Writing to output.gpw (mode='')

iter:   5 16:24:06  -290.646941c -3.38  -2.71
iter:   6 16:24:32  -290.646490c -3.02  -2.59
iter:   7 16:24:57  -290.646566c -2.34  -2.75
iter:   8 16:25:22  -290.646384c -3.51  -2.86
iter:   9 16:25:47  -290.646400c -3.82  -3.14
Writing to output.gpw (mode='')

iter:  10 16:26:13  -290.646397c -3.54  -3.20
iter:  11 16:26:38  -290.646379c -3.92  -3.33
iter:  12 16:27:03  -290.646361c -4.54  -3.37
iter:  13 16:27:29  -290.646347c -4.52  -3.44
iter:  14 16:27:54  -290.646346c -4.58  -3.60
Writing to output.gpw (mode='')

iter:  15 16:28:20  -290.646346c -4.98  -3.81
iter:  16 16:28:45  -290.646346c -5.19  -3.85
iter:  17 16:29:10  -290.646348c -5.16  -3.99
iter:  18 16:29:36  -290.646349c -5.43  -4.11c
iter:  19 16:30:01  -290.646350c -5.67  -4.19c
Writing to output.gpw (mode='')

iter:  20 16:30:28  -290.646348c -5.97  -4.20c
iter:  21 16:30:53  -290.646346c -6.06  -4.29c
iter:  22 16:31:19  -290.646345c -6.19  -4.55c
iter:  23 16:31:44  -290.646345c -6.45  -4.68c
iter:  24 16:32:10  -290.646346c -6.45  -4.71c
Writing to output.gpw (mode='')

iter:  25 16:32:35  -290.646346c -6.69  -4.83c
iter:  26 16:33:00  -290.646346c -6.89  -5.05c
iter:  27 16:33:26  -290.646346c -6.81  -5.11c
iter:  28 16:33:51  -290.646347c -7.09  -5.31c
iter:  29 16:34:16  -290.646347c -7.26  -5.38c
Writing to output.gpw (mode='')

iter:  30 16:34:42  -290.646347c -7.29  -5.45c
iter:  31 16:35:07  -290.646347c -7.29  -5.48c
iter:  32 16:35:32  -290.646347c -7.48c -5.56c

Converged after 32 iterations.

Dipole moment: (12.740327, -2.665458, 0.402807) |e|*Ang

Energy contributions relative to reference atoms: (reference = -13512.263335)

Kinetic:       +141.937635
Potential:     -132.645459
External:        +0.000000
XC:            -300.468366
Entropy (-ST):   -0.148492
Local:           +0.604089
--------------------------
Free energy:   -290.720593
Extrapolated:  -290.646347

Dipole-layer corrected work functions: 3.386911, 2.612578 eV

Showing only first 2 kpts
 Kpt  Band  Eigenvalues  Occupancy
  0    29     -3.26887    1.99085
  0    30     -3.17677    1.94364
  0    31     -2.82110    0.05462
  0    32     -2.76694    0.01883

  1    29     -3.01685    1.16945
  1    30     -2.99726    0.97520
  1    31     -2.96181    0.63782
  1    32     -2.93244    0.41305


Fermi level: -2.99974

No gap
Writing to output.gpw (mode='')


Forces in eV/Ang:
  0 Li    0.00517    0.00082   -0.28105
  1 Li   -0.00326    0.00275   -0.27382
  2 Li   -0.00303   -0.00884   -0.28244
  3 Li    0.00599    0.00099   -0.27706
  4 Li   -0.00620   -0.00647   -0.27101
  5 Li   -0.00064    0.00740   -0.28180
  6 Li   -0.00805   -0.00278   -0.27232
  7 Li    0.00384    0.00052   -0.28066
  8 Li    0.00205    0.00089   -0.27030
  9 Li    0.00673   -0.01819    0.28080
 10 Li    0.01514   -0.01603    0.26955
 11 Li   -0.01565   -0.01993    0.25963
 12 Li    0.01622    0.00348    0.31709
 13 Li    0.01240    0.00400    0.27398
 14 Li   -0.02471   -0.00161    0.27916
 15 Li    0.00706    0.02033    0.26788
 16 Li    0.02435    0.02194    0.24797
 17 Li   -0.02393    0.02971    0.24535
 18 Li    0.02795   -0.01791   -0.04454
 19 Li   -0.00170   -0.01235   -0.02150
 20 Li   -0.01080   -0.01412   -0.02362
 21 Li    0.04317    0.04504   -0.05967
 22 Li   -0.00361    0.01607   -0.02420
 23 Li   -0.02207    0.03452   -0.02963
 24 Li    0.01725   -0.00613   -0.02706
 25 Li   -0.00119   -0.00442   -0.00539
 26 Li   -0.01530   -0.00409   -0.02140
 27 Li    0.00046    0.03657   -0.00275
 28 Li    0.00441   -0.00633    0.00707
 29 Li    0.00178   -0.00087    0.01448
 30 Li   -0.03785   -0.05456    0.04320
 31 Li   -0.00426    0.00167   -0.01078
 32 Li    0.03711    0.01019    0.00612
 33 Li   -0.00277   -0.00355   -0.00672
 34 Li    0.00035    0.00271    0.01111
 35 Li    0.00191   -0.00318    0.01180
 36 O    -0.00569    0.06155   -0.00871
 37 O     0.03951   -0.03749    0.03364
 38 C     0.03715   -0.02762    0.11697
 39 C     0.03714   -0.07840    0.08048
 40 H     0.05181    0.02114    0.08834
 41 H    -0.03016   -0.08730   -0.21682
 42 H    -0.05652   -0.01026    0.05749
 43 H     0.00320    0.10477    0.00068
 44 H    -0.02710   -0.04542    0.04957
 45 H    -0.04915    0.03258   -0.00387

System changes: positions 

Initializing position-dependent things.

Density initialized from wave functions
       .-----------------------.  
      /|                       |  
     / |                       |  
    /  |                       |  
   /   |                       |  
  /    |                       |  
 *     |                       |  
 |     |                       |  
 |     |                       |  
 |     |                       |  
 |     |                  H    |  
 |     |                  C    |  
 |   H Li             HLO      |  
 | H   |              O  C     |  
 |   Li|     Li      Li  H     |  
 |     |  Li      Li      Li   |  
 | Li  |   Li      Li          |  
 |     |Li      Li      Li     |  
 |     | Li                    |  
 |   LLi     LLi     LLi       |  
 |     |  Li      Li      Li   |  
 | Li  |   Li      Li          |  
 |     |Li      Li      Li     |  
 Li    | Li      Li            |  
 |    Li      Li      Li       |  
 |     |                       |  
 |     |                       |  
 |     |                       |  
 |     |                       |  
 |     |                       |  
 |     |                       |  
 |     .-----------------------.  
 |    /                       /   
 |   /                       /    
 |  /                       /     
 | /                       /      
 |/                       /       
 *-----------------------*        

Positions:
   0 Li     1.617037    1.617037   10.000000    ( 0.0000,  0.0000,  0.0000)
   1 Li     4.851111    1.617037   10.000000    ( 0.0000,  0.0000,  0.0000)
   2 Li     8.085185    1.617037   10.000000    ( 0.0000,  0.0000,  0.0000)
   3 Li     1.617037    4.851111   10.000000    ( 0.0000,  0.0000,  0.0000)
   4 Li     4.851111    4.851111   10.000000    ( 0.0000,  0.0000,  0.0000)
   5 Li     8.085185    4.851111   10.000000    ( 0.0000,  0.0000,  0.0000)
   6 Li     1.617037    8.085185   10.000000    ( 0.0000,  0.0000,  0.0000)
   7 Li     4.851111    8.085185   10.000000    ( 0.0000,  0.0000,  0.0000)
   8 Li     8.085185    8.085185   10.000000    ( 0.0000,  0.0000,  0.0000)
   9 Li     0.000000    0.000000   11.617037    ( 0.0000,  0.0000,  0.0000)
  10 Li     3.234074    0.000000   11.617037    ( 0.0000,  0.0000,  0.0000)
  11 Li     6.468148    0.000000   11.617037    ( 0.0000,  0.0000,  0.0000)
  12 Li     0.000000    3.234074   11.617037    ( 0.0000,  0.0000,  0.0000)
  13 Li     3.234074    3.234074   11.617037    ( 0.0000,  0.0000,  0.0000)
  14 Li     6.468148    3.234074   11.617037    ( 0.0000,  0.0000,  0.0000)
  15 Li     0.000000    6.468148   11.617037    ( 0.0000,  0.0000,  0.0000)
  16 Li     3.234074    6.468148   11.617037    ( 0.0000,  0.0000,  0.0000)
  17 Li     6.468148    6.468148   11.617037    ( 0.0000,  0.0000,  0.0000)
  18 Li     1.643649    1.596512   13.464865    ( 0.0000,  0.0000,  0.0000)
  19 Li     4.853664    1.605349   13.489905    ( 0.0000,  0.0000,  0.0000)
  20 Li     8.073465    1.604203   13.448232    ( 0.0000,  0.0000,  0.0000)
  21 Li     1.664718    4.904404   13.446114    ( 0.0000,  0.0000,  0.0000)
  22 Li     4.854365    4.868704   13.490006    ( 0.0000,  0.0000,  0.0000)
  23 Li     8.055411    4.887332   13.412046    ( 0.0000,  0.0000,  0.0000)
  24 Li     1.630046    8.079856   13.488848    ( 0.0000,  0.0000,  0.0000)
  25 Li     4.853222    8.080278   13.498414    ( 0.0000,  0.0000,  0.0000)
  26 Li     8.071666    8.083121   13.494941    ( 0.0000,  0.0000,  0.0000)
  27 Li     0.015632   -0.051154   15.343326    ( 0.0000,  0.0000,  0.0000)
  28 Li     3.236025    0.002133   15.424132    ( 0.0000,  0.0000,  0.0000)
  29 Li     6.464172   -0.004897   15.460765    ( 0.0000,  0.0000,  0.0000)
  30 Li     0.093114    3.369478   15.073500    ( 0.0000,  0.0000,  0.0000)
  31 Li     3.259972    3.247479   15.407695    ( 0.0000,  0.0000,  0.0000)
  32 Li     6.428187    3.237959   15.345734    ( 0.0000,  0.0000,  0.0000)
  33 Li     0.009509    6.505836   15.422919    ( 0.0000,  0.0000,  0.0000)
  34 Li     3.221517    6.448156   15.441930    ( 0.0000,  0.0000,  0.0000)
  35 Li     6.464320    6.474297   15.448901    ( 0.0000,  0.0000,  0.0000)
  36 O      8.039146    1.631393   18.540664    ( 0.0000,  0.0000,  0.0000)
  37 O      8.134798    4.496637   18.166216    ( 0.0000,  0.0000,  0.0000)
  38 C      9.239483    2.319215   18.148023    ( 0.0000,  0.0000,  0.0000)
  39 C      9.267933    3.758565   18.639546    ( 0.0000,  0.0000,  0.0000)
  40 H     10.133377    1.769604   18.466927    ( 0.0000,  0.0000,  0.0000)
  41 H      9.214960    2.309996   17.060172    ( 0.0000,  0.0000,  0.0000)
  42 H     10.158910    4.254399   18.236008    ( 0.0000,  0.0000,  0.0000)
  43 H      9.321661    3.775706   19.740922    ( 0.0000,  0.0000,  0.0000)
  44 H      8.141944    1.360649   19.459410    ( 0.0000,  0.0000,  0.0000)
  45 H      7.351395    3.980139   18.405012    ( 0.0000,  0.0000,  0.0000)

Unit cell:
           periodic     x           y           z      points  spacing
  1. axis:    yes    9.702222    0.000000    0.000000    60     0.1617
  2. axis:    yes    0.000000    9.702222    0.000000    60     0.1617
  3. axis:    no     0.000000    0.000000   24.851111   156     0.1593

  Lengths:   9.702222   9.702222  24.851111
  Angles:   90.000000  90.000000  90.000000

Effective grid spacing dv^(1/3) = 0.1609

     iter     time        total  log10-change:
                         energy  eigst   dens
iter:   1 16:36:06  -290.730476  -1.05
iter:   2 16:36:31  -290.668255  -1.58  -1.62
iter:   3 16:36:56  -290.656246  -2.65  -1.94
iter:   4 16:37:21  -290.650666c -2.16  -2.21
Writing to output.gpw (mode='')

iter:   5 16:37:47  -290.651352c -3.08  -2.62
iter:   6 16:38:12  -290.650715c -2.73  -2.51
iter:   7 16:38:37  -290.650840c -2.19  -2.67
iter:   8 16:39:03  -290.650611c -3.40  -2.80
iter:   9 16:39:28  -290.650647c -3.62  -3.09
Writing to output.gpw (mode='')

iter:  10 16:39:53  -290.650625c -3.49  -3.13
iter:  11 16:40:18  -290.650604c -3.68  -3.29
iter:  12 16:40:44  -290.650585c -4.18  -3.34
iter:  13 16:41:09  -290.650576c -4.37  -3.39
iter:  14 16:41:34  -290.650577c -4.43  -3.53
Writing to output.gpw (mode='')

iter:  15 16:42:00  -290.650579c -4.84  -3.75
iter:  16 16:42:25  -290.650581c -4.91  -3.78
iter:  17 16:42:50  -290.650583c -5.01  -3.90
iter:  18 16:43:15  -290.650583c -5.26  -4.03c
iter:  19 16:43:41  -290.650583c -5.47  -4.13c
Writing to output.gpw (mode='')

iter:  20 16:44:06  -290.650582c -5.71  -4.23c
iter:  21 16:44:31  -290.650579c -5.90  -4.33c
iter:  22 16:44:56  -290.650578c -5.93  -4.51c
iter:  23 16:45:21  -290.650579c -6.00  -4.61c
iter:  24 16:45:47  -290.650579c -6.26  -4.68c
Writing to output.gpw (mode='')

iter:  25 16:46:12  -290.650580c -6.44  -4.80c
