
  ___ ___ ___ _ _ _  
 |   |   |_  | | | | 
 | | | | | . | | | | 
 |__ |  _|___|_____|  22.8.0
 |___|_|             

User:   vazumah@r488.ib.bridges2.psc.edu
Date:   Fri Mar 10 21:52:26 2023
Arch:   x86_64
Pid:    37626
CWD:    /jet/home/vazumah/Calcs/LiMEAS/proton_donors/propanediol13_z/ontop/9.702_9.702/N2_z
Python: 3.11.0
gpaw:   /jet/home/vazumah/.conda/envs/GPAW_mpich/lib/python3.11/site-packages/gpaw
_gpaw:  /jet/home/vazumah/.conda/envs/GPAW_mpich/lib/python3.11/site-packages/
        _gpaw.cpython-311-x86_64-linux-gnu.so
ase:    /jet/home/vazumah/.conda/envs/GPAW_mpich/lib/python3.11/site-packages/ase (version 3.22.1)
numpy:  /jet/home/vazumah/.conda/envs/GPAW_mpich/lib/python3.11/site-packages/numpy (version 1.24.2)
scipy:  /jet/home/vazumah/.conda/envs/GPAW_mpich/lib/python3.11/site-packages/scipy (version 1.10.1)
libxc:  5.2.3
units:  Angstrom and eV
cores: 128
OpenMP: True
OMP_NUM_THREADS: 1

Input parameters:
  h: 0.16
  kpts: {size: [4, 4, 1]}
  occupations: {name: fermi-dirac,
                width: 0.05}
  poissonsolver: {dipolelayer: xy}
  xc: BEEF-vdW

System changes: positions, numbers, cell, pbc, initial_charges, initial_magmoms 

Initialize ...

species:
  Li:
    name: Lithium
    id: 830b4218f175192f93f959cfc0aad614
    Z: 3.0
    valence: 1
    core: 2
    charge: 0.0
    file: /jet/home/vazumah/datasets/gpaw-setups-0.9.20000/Li.PBE.gz
    compensation charges: {type: gauss,
                           rc: 0.33,
                           lmax: 2}
    cutoffs: {filter: 1.91,
              core: 2.55}
    valence states:
      #              energy  rcut
      - 2s(1.00)    -2.874   1.058
      - 2p(0.00)    -1.090   1.058
      -  s          24.337   1.058
  
    # Using partial waves for Li as LCAO basis

  O:
    name: Oxygen
    id: 32ecd46bf208036f09c70b0ec9a88b78
    Z: 8.0
    valence: 6
    core: 2
    charge: 0.0
    file: /jet/home/vazumah/datasets/gpaw-setups-0.9.20000/O.PBE.gz
    compensation charges: {type: gauss,
                           rc: 0.21,
                           lmax: 2}
    cutoffs: {filter: 1.17,
              core: 0.83}
    valence states:
      #              energy  rcut
      - 2s(2.00)   -23.961   0.688
      - 2p(4.00)    -9.029   0.598
      -  s           3.251   0.688
      -  p          18.182   0.598
      -  d           0.000   0.619
  
    # Using partial waves for O as LCAO basis

  C:
    name: Carbon
    id: 4aa54d4b901d75f77cc0ea3eec22967b
    Z: 6.0
    valence: 4
    core: 2
    charge: 0.0
    file: /jet/home/vazumah/datasets/gpaw-setups-0.9.20000/C.PBE.gz
    compensation charges: {type: gauss,
                           rc: 0.20,
                           lmax: 2}
    cutoffs: {filter: 1.14,
              core: 1.14}
    valence states:
      #              energy  rcut
      - 2s(2.00)   -13.751   0.635
      - 2p(2.00)    -5.284   0.635
      -  s          13.461   0.635
      -  p          21.927   0.635
      -  d           0.000   0.635
  
    # Using partial waves for C as LCAO basis

  H:
    name: Hydrogen
    id: d65de229564ff8ea4db303e23b6d1ecf
    Z: 1.0
    valence: 1
    core: 0
    charge: 0.0
    file: /jet/home/vazumah/datasets/gpaw-setups-0.9.20000/H.PBE.gz
    compensation charges: {type: gauss,
                           rc: 0.15,
                           lmax: 2}
    cutoffs: {filter: 0.85,
              core: 0.53}
    valence states:
      #              energy  rcut
      - 1s(1.00)    -6.494   0.476
      -  s          20.717   0.476
      -  p           0.000   0.476
  
    # Using partial waves for H as LCAO basis

  N:
    name: Nitrogen
    id: f7500608b86eaa90eef8b1d9a670dc53
    Z: 7.0
    valence: 5
    core: 2
    charge: 0.0
    file: /jet/home/vazumah/datasets/gpaw-setups-0.9.20000/N.PBE.gz
    compensation charges: {type: gauss,
                           rc: 0.18,
                           lmax: 2}
    cutoffs: {filter: 1.11,
              core: 0.96}
    valence states:
      #              energy  rcut
      - 2s(2.00)   -18.583   0.603
      - 2p(3.00)    -7.089   0.529
      -  s           8.629   0.603
      -  p          20.123   0.529
      -  d           0.000   0.577
  
    # Using partial waves for N as LCAO basis

Reference energy: -17528.314784  # eV

Spin-paired calculation

Convergence criteria:
 Maximum [total energy] change in last 3 cyles: 0.0005 eV / electron
 Maximum integral of absolute [dens]ity change: 0.0001 electrons / valence electron
 Maximum integral of absolute [eigenst]ate change: 4e-08 eV^2 / valence electron
 Maximum number of scf [iter]ations: 333
 (Square brackets indicate name in SCF output, whereas a 'c' in
 the SCF output indicates the quantity has converged.)

Symmetries present (total): 1

  ( 1  0  0)
  ( 0  1  0)
  ( 0  0  1)

16 k-points: 4 x 4 x 1 Monkhorst-Pack grid
8 k-points in the irreducible part of the Brillouin zone
       k-points in crystal coordinates                weights
   0:     0.12500000   -0.37500000    0.00000000          2/16
   1:     0.12500000   -0.12500000    0.00000000          2/16
   2:     0.12500000    0.12500000    0.00000000          2/16
   3:     0.12500000    0.37500000    0.00000000          2/16
   4:     0.37500000   -0.37500000    0.00000000          2/16
   5:     0.37500000   -0.12500000    0.00000000          2/16
   6:     0.37500000    0.12500000    0.00000000          2/16
   7:     0.37500000    0.37500000    0.00000000          2/16

Wave functions: Uniform real-space grid
  Kinetic energy operator: 6*3+1=19 point O(h^6) finite-difference Laplacian
  ScaLapack parameters: grid=1x1, blocksize=None
  Wavefunction extrapolation:
    Improved wavefunction reuse through dual PAW basis 

Occupation numbers: Fermi-Dirac:
  width: 0.0500  # eV
 

Eigensolver
   Davidson(niter=2) 

Densities:
  Coarse grid: 60*60*180 grid
  Fine grid: 120*120*360 grid
  Total Charge: 0.000000 

Density mixing:
  Method: separate
  Backend: pulay
  Linear mixing parameter: 0.05
  old densities: 5
  Damping of long wavelength oscillations: 50 

Hamiltonian:
  XC and Coulomb potentials evaluated on a 120*120*360 grid
  Using the BEEF-vdW Exchange-Correlation functional
  Interpolation: tri-quintic (5. degree polynomial)
  Poisson solver: FastPoissonSolver using
    Stencil: 6*3+1=19 point O(h^6) finite-difference Laplacian
    FFT axes: [0, 1]
    FST axes: [2]

Dipole correction along z-axis 

XC parameters: BEEF-vdW with 2 nearest neighbor stencil

Memory estimate:
  Process memory now: 132.88 MiB
  Calculator: 95.77 MiB
    Density: 23.82 MiB
      Arrays: 7.94 MiB
      Localized functions: 12.86 MiB
      Mixer: 3.02 MiB
    Hamiltonian: 6.21 MiB
      Arrays: 5.19 MiB
      XC: 0.00 MiB
      Poisson: 0.00 MiB
      vbar: 1.02 MiB
    Wavefunctions: 65.74 MiB
      Arrays psit_nG: 30.82 MiB
      Eigensolver: 34.24 MiB
      Projections: 0.02 MiB
      Projectors: 0.67 MiB

Total number of cores used: 128
Parallelization over k-points: 8
Domain decomposition: 2 x 2 x 4

Number of atoms: 51
Number of atomic orbitals: 180
Number of bands in calculation: 51
Number of valence electrons: 78
Bands to converge: occupied

... initialized

Initializing position-dependent things.

Density initialized from atomic densities
Creating initial wave functions:
  51 bands from LCAO basis set

       .-----------------------.  
      /|                       |  
     / |                       |  
    /  |                       |  
   /   |                       |  
  /    O                       |  
 *     |                       |  
 |     CH                   H  |  
 |     |                       C  
 |     |                       |  
 |     |H                     C|  
 | H   |                    H  |  
 |     H                       |  
 |     |                       N  
 |  H  |               H       N  
 |     |                       |  
 |     |                       |  
 O     |                       |  
 |   Li|     Li      Li        |  
 |     |                       |  
 | Li  |  LLi     LLi     Li   |  
 |     |                       |  
 Li    |LLi     LLi     Li     |  
 |   Li|     Li      Li        |  
 |    Li  Li  Li  Li  Li  Li   |  
 | Li  |   Li      Li          |  
 |     |Li      Li      Li     |  
 Li    | Li      Li            |  
 |    Li      Li      Li       |  
 |     |                       |  
 |     |                       |  
 |     |                       |  
 |     |                       |  
 |     |                       |  
 |     |                       |  
 |     .-----------------------.  
 |    /                       /   
 |   /                       /    
 |  /                       /     
 | /                       /      
 |/                       /       
 *-----------------------*        

Positions:
   0 Li     1.617037    1.617037   10.000000    ( 0.0000,  0.0000,  0.0000)
   1 Li     4.851111    1.617037   10.000000    ( 0.0000,  0.0000,  0.0000)
   2 Li     8.085185    1.617037   10.000000    ( 0.0000,  0.0000,  0.0000)
   3 Li     1.617037    4.851111   10.000000    ( 0.0000,  0.0000,  0.0000)
   4 Li     4.851111    4.851111   10.000000    ( 0.0000,  0.0000,  0.0000)
   5 Li     8.085185    4.851111   10.000000    ( 0.0000,  0.0000,  0.0000)
   6 Li     1.617037    8.085185   10.000000    ( 0.0000,  0.0000,  0.0000)
   7 Li     4.851111    8.085185   10.000000    ( 0.0000,  0.0000,  0.0000)
   8 Li     8.085185    8.085185   10.000000    ( 0.0000,  0.0000,  0.0000)
   9 Li     0.000000    0.000000   11.617037    ( 0.0000,  0.0000,  0.0000)
  10 Li     3.234074    0.000000   11.617037    ( 0.0000,  0.0000,  0.0000)
  11 Li     6.468148    0.000000   11.617037    ( 0.0000,  0.0000,  0.0000)
  12 Li     0.000000    3.234074   11.617037    ( 0.0000,  0.0000,  0.0000)
  13 Li     3.234074    3.234074   11.617037    ( 0.0000,  0.0000,  0.0000)
  14 Li     6.468148    3.234074   11.617037    ( 0.0000,  0.0000,  0.0000)
  15 Li     0.000000    6.468148   11.617037    ( 0.0000,  0.0000,  0.0000)
  16 Li     3.234074    6.468148   11.617037    ( 0.0000,  0.0000,  0.0000)
  17 Li     6.468148    6.468148   11.617037    ( 0.0000,  0.0000,  0.0000)
  18 Li     1.617038    1.617038   13.469728    ( 0.0000,  0.0000,  0.0000)
  19 Li     4.851111    1.617038   13.469729    ( 0.0000,  0.0000,  0.0000)
  20 Li     8.085184    1.617038   13.469728    ( 0.0000,  0.0000,  0.0000)
  21 Li     1.617038    4.851111   13.469729    ( 0.0000,  0.0000,  0.0000)
  22 Li     4.851111    4.851111   13.469730    ( 0.0000,  0.0000,  0.0000)
  23 Li     8.085184    4.851111   13.469729    ( 0.0000,  0.0000,  0.0000)
  24 Li     1.617038    8.085184   13.469728    ( 0.0000,  0.0000,  0.0000)
  25 Li     4.851111    8.085184   13.469729    ( 0.0000,  0.0000,  0.0000)
  26 Li     8.085184    8.085184   13.469728    ( 0.0000,  0.0000,  0.0000)
  27 Li    -0.000000   -0.000000   15.445939    ( 0.0000,  0.0000,  0.0000)
  28 Li     3.234074    0.000000   15.445939    ( 0.0000,  0.0000,  0.0000)
  29 Li     6.468148    0.000000   15.445939    ( 0.0000,  0.0000,  0.0000)
  30 Li     0.000000    3.234074   15.445939    ( 0.0000,  0.0000,  0.0000)
  31 Li     3.234076    3.234076   15.445938    ( 0.0000,  0.0000,  0.0000)
  32 Li     6.468146    3.234076   15.445938    ( 0.0000,  0.0000,  0.0000)
  33 Li     0.000000    6.468148   15.445939    ( 0.0000,  0.0000,  0.0000)
  34 Li     3.234076    6.468146   15.445938    ( 0.0000,  0.0000,  0.0000)
  35 Li     6.468146    6.468146   15.445938    ( 0.0000,  0.0000,  0.0000)
  36 O      9.702222    9.702222   19.645939    ( 0.0000,  0.0000,  0.0000)
  37 O      9.708332    9.681893   24.508281    ( 0.0000,  0.0000,  0.0000)
  38 C      9.687775    9.700677   22.041854    ( 0.0000,  0.0000,  0.0000)
  39 C      9.699343    8.834403   20.790809    ( 0.0000,  0.0000,  0.0000)
  40 C      9.711704    8.870410   23.324471    ( 0.0000,  0.0000,  0.0000)
  41 H     10.562435   10.361184   22.019771    ( 0.0000,  0.0000,  0.0000)
  42 H      8.799770   10.337788   22.041713    ( 0.0000,  0.0000,  0.0000)
  43 H     10.592891    8.194144   20.785879    ( 0.0000,  0.0000,  0.0000)
  44 H      8.812658    8.185725   20.777267    ( 0.0000,  0.0000,  0.0000)
  45 H     10.579027    8.194844   23.325172    ( 0.0000,  0.0000,  0.0000)
  46 H      8.811601    8.254319   23.401319    ( 0.0000,  0.0000,  0.0000)
  47 H      9.707089    9.157865   18.850414    ( 0.0000,  0.0000,  0.0000)
  48 H     10.482849   10.256933   24.475699    ( 0.0000,  0.0000,  0.0000)
  49 N      9.702000    9.702000   17.195939    ( 0.0000,  0.0000,  0.0000)
  50 N      9.702000    9.702000   18.292561    ( 0.0000,  0.0000,  0.0000)

Unit cell:
           periodic     x           y           z      points  spacing
  1. axis:    yes    9.702222    0.000000    0.000000    60     0.1617
  2. axis:    yes    0.000000    9.702222    0.000000    60     0.1617
  3. axis:    no     0.000000    0.000000   28.601111   180     0.1589

  Lengths:   9.702222   9.702222  28.601111
  Angles:   90.000000  90.000000  90.000000

Effective grid spacing dv^(1/3) = 0.1608

     iter     time        total  log10-change:
                         energy  eigst   dens
iter:   1 21:52:42  -939.296439
iter:   2 21:52:50   379.651782  +2.68  +0.08
iter:   3 21:52:58   699.080531  +3.50  -0.04
iter:   4 21:53:06    34.183755  +3.60  -0.10
Writing to output.gpw (mode='')

iter:   5 21:53:14  -225.692199  +3.24  -0.10
iter:   6 21:53:22  -291.144260  +2.92  -0.25
iter:   7 21:53:30  -375.631072  +2.61  -0.37
iter:   8 21:53:39  -462.990704  +2.50  -0.32
iter:   9 21:53:47  -767.070813  +2.91  -0.22
Writing to output.gpw (mode='')

iter:  10 21:53:55  -383.300048  +2.24  -0.11
iter:  11 21:54:03  -349.967872  +2.03  -0.44
iter:  12 21:54:11  -352.557539  +1.74  -0.60
iter:  13 21:54:19  -360.259697  +2.14  -0.63
iter:  14 21:54:27  -352.505434  +1.51  -0.56
Writing to output.gpw (mode='')

iter:  15 21:54:36  -343.007470  +1.36  -0.60
iter:  16 21:54:51  -344.097646  +1.07  -0.76
iter:  17 21:54:59  -349.617489  +0.76  -0.78
iter:  18 21:55:07  -344.370459  +1.34  -0.66
iter:  19 21:55:15  -345.806329  +0.99  -0.76
Writing to output.gpw (mode='')

iter:  20 21:55:23  -343.884739  +0.47  -0.71
iter:  21 21:55:31  -341.693475  -0.14  -0.74
iter:  22 21:55:39  -342.007632  +0.46  -0.85
iter:  23 21:55:48  -344.091815  +0.92  -0.78
iter:  24 21:55:56  -339.362025  -0.08  -0.74
Writing to output.gpw (mode='')

iter:  25 21:56:04  -339.782859  +0.75  -0.94
iter:  26 21:56:12  -337.709868  +0.02  -0.92
iter:  27 21:56:20  -337.060916  -0.23  -1.08
iter:  28 21:56:28  -336.997586  -0.25  -1.26
iter:  29 21:56:36  -336.814066  -0.70  -1.29
Writing to output.gpw (mode='')

iter:  30 21:56:44  -336.800952  -0.38  -1.38
iter:  31 21:56:52  -336.788284c -0.33  -1.41
iter:  32 21:57:01  -336.644391  -1.03  -1.55
iter:  33 21:57:09  -336.642654  -1.16  -1.58
iter:  34 21:57:17  -336.503160  -0.83  -1.60
Writing to output.gpw (mode='')

iter:  35 21:57:25  -336.501050  -1.23  -1.96
iter:  36 21:57:33  -336.508373c -1.59  -2.04
iter:  37 21:57:41  -336.508874c -1.46  -2.05
iter:  38 21:57:49  -336.506119c -1.92  -2.26
iter:  39 21:57:58  -336.510951c -1.59  -2.35
Writing to output.gpw (mode='')

iter:  40 21:58:06  -336.509331c -1.91  -2.41
iter:  41 21:58:14  -336.510373c -2.26  -2.55
iter:  42 21:58:22  -336.511455c -2.23  -2.67
iter:  43 21:58:30  -336.512741c -2.20  -2.75
iter:  44 21:58:38  -336.513674c -2.50  -2.88
Writing to output.gpw (mode='')

iter:  45 21:58:46  -336.514380c -2.58  -2.94
iter:  46 21:58:54  -336.515225c -2.50  -2.99
iter:  47 21:59:02  -336.515817c -2.72  -3.11
iter:  48 21:59:11  -336.516341c -2.64  -3.12
iter:  49 21:59:19  -336.516771c -2.66  -3.22
Writing to output.gpw (mode='')

iter:  50 21:59:27  -336.517223c -2.63  -3.30
iter:  51 21:59:40  -336.517570c -2.83  -3.43
iter:  52 21:59:56  -336.517926c -2.81  -3.38
iter:  53 22:00:07  -336.518165c -3.11  -3.48
iter:  54 22:00:15  -336.518376c -3.06  -3.43
Writing to output.gpw (mode='')

iter:  55 22:00:23  -336.518557c -3.32  -3.34
iter:  56 22:00:31  -336.518704c -3.22  -3.29
iter:  57 22:00:39  -336.518846c -3.08  -3.27
iter:  58 22:00:47  -336.518982c -3.42  -3.27
iter:  59 22:00:55  -336.519032c -3.43  -3.23
Writing to output.gpw (mode='')

iter:  60 22:01:03  -336.519175c -3.57  -3.20
iter:  61 22:01:11  -336.519233c -3.65  -3.16
iter:  62 22:01:19  -336.519255c -3.71  -3.22
iter:  63 22:01:28  -336.519298c -3.78  -3.46
iter:  64 22:01:36  -336.519338c -3.60  -3.49
Writing to output.gpw (mode='')

iter:  65 22:01:44  -336.519383c -3.81  -3.60
iter:  66 22:01:52  -336.519424c -3.88  -3.65
iter:  67 22:02:00  -336.519440c -3.72  -3.69
iter:  68 22:02:08  -336.519485c -3.99  -3.67
iter:  69 22:02:16  -336.519496c -4.14  -3.84
Writing to output.gpw (mode='')

iter:  70 22:02:24  -336.519512c -4.35  -3.96
iter:  71 22:02:33  -336.519525c -4.04  -4.04c
iter:  72 22:02:41  -336.519536c -4.21  -4.11c
iter:  73 22:02:49  -336.519543c -4.41  -4.12c
iter:  74 22:02:57  -336.519549c -4.65  -4.21c
Writing to output.gpw (mode='')

iter:  75 22:03:05  -336.519555c -4.66  -4.24c
iter:  76 22:03:13  -336.519562c -4.30  -4.25c
iter:  77 22:03:21  -336.519565c -4.74  -4.24c
iter:  78 22:03:29  -336.519567c -4.84  -4.35c
iter:  79 22:03:38  -336.519569c -5.03  -4.38c
Writing to output.gpw (mode='')

iter:  80 22:03:46  -336.519571c -5.08  -4.37c
iter:  81 22:03:54  -336.519572c -4.99  -4.33c
iter:  82 22:04:05  -336.519575c -5.14  -4.29c
iter:  83 22:04:13  -336.519577c -5.32  -4.32c
iter:  84 22:04:21  -336.519578c -5.31  -4.34c
Writing to output.gpw (mode='')

iter:  85 22:04:29  -336.519580c -5.26  -4.38c
iter:  86 22:04:43  -336.519578c -5.28  -4.34c
iter:  87 22:04:52  -336.519579c -5.51  -4.58c
iter:  88 22:05:00  -336.519582c -5.42  -4.63c
iter:  89 22:05:08  -336.519582c -5.44  -4.91c
Writing to output.gpw (mode='')

iter:  90 22:05:16  -336.519582c -5.59  -4.91c
iter:  91 22:05:24  -336.519582c -5.71  -4.98c
iter:  92 22:05:32  -336.519583c -5.83  -5.09c
iter:  93 22:05:40  -336.519583c -5.71  -5.10c
iter:  94 22:05:48  -336.519583c -5.72  -5.13c
Writing to output.gpw (mode='')

iter:  95 22:05:57  -336.519584c -5.83  -5.17c
iter:  96 22:06:05  -336.519584c -6.05  -5.23c
iter:  97 22:06:13  -336.519584c -5.99  -5.26c
iter:  98 22:06:21  -336.519584c -5.97  -5.28c
iter:  99 22:06:29  -336.519585c -6.05  -5.31c
Writing to output.gpw (mode='')

iter: 100 22:06:37  -336.519585c -6.24  -5.38c
iter: 101 22:06:45  -336.519585c -6.23  -5.57c
iter: 102 22:06:54  -336.519585c -6.19  -5.60c
iter: 103 22:07:02  -336.519585c -6.40  -5.65c
iter: 104 22:07:10  -336.519585c -6.27  -5.59c
Writing to output.gpw (mode='')

iter: 105 22:07:18  -336.519585c -6.54  -5.55c
iter: 106 22:07:26  -336.519585c -6.51  -5.58c
iter: 107 22:07:34  -336.519585c -6.61  -5.59c
iter: 108 22:07:42  -336.519585c -6.71  -5.65c
iter: 109 22:07:50  -336.519585c -6.58  -5.81c
Writing to output.gpw (mode='')

iter: 110 22:07:59  -336.519585c -6.68  -5.82c
iter: 111 22:08:07  -336.519585c -6.75  -5.79c
iter: 112 22:08:15  -336.519585c -6.79  -5.69c
iter: 113 22:08:23  -336.519585c -6.97  -5.70c
iter: 114 22:08:31  -336.519585c -6.70  -5.64c
Writing to output.gpw (mode='')

iter: 115 22:08:39  -336.519585c -6.97  -5.63c
iter: 116 22:08:47  -336.519585c -7.09  -5.61c
iter: 117 22:08:56  -336.519585c -7.19  -5.58c
iter: 118 22:09:04  -336.519585c -7.22  -5.51c
iter: 119 22:09:12  -336.519585c -7.13  -5.60c
Writing to output.gpw (mode='')

iter: 120 22:09:20  -336.519585c -6.99  -5.48c
iter: 121 22:09:28  -336.519585c -7.16  -5.50c
iter: 122 22:09:36  -336.519585c -7.26  -5.69c
iter: 123 22:09:49  -336.519585c -7.25  -5.65c
iter: 124 22:09:57  -336.519585c -7.38  -5.67c
Writing to output.gpw (mode='')

iter: 125 22:10:05  -336.519585c -7.13  -5.74c
iter: 126 22:10:13  -336.519585c -7.48c -5.73c

Converged after 126 iterations.

Dipole moment: (-30.173443, -16.138293, 0.014491) |e|*Ang

Energy contributions relative to reference atoms: (reference = -17528.314784)

Kinetic:       +241.791587
Potential:     -212.010947
External:        +0.000000
XC:            -367.358428
Entropy (-ST):   -0.171803
Local:           +1.144104
--------------------------
Free energy:   -336.605487
Extrapolated:  -336.519585

Dipole-layer corrected work functions: 3.391582, 3.363725 eV

Showing only first 2 kpts
 Kpt  Band  Eigenvalues  Occupancy
  0    37     -3.61281    1.98203
  0    38     -3.47324    1.74244
  0    39     -3.27468    0.22622
  0    40     -3.16527    0.02819

  1    37     -3.43734    1.53485
  1    38     -3.37328    0.95629
  1    39     -3.34158    0.65417
  1    40     -3.26999    0.20807


Fermi level: -3.37765

No gap
Writing to output.gpw (mode='')


Forces in eV/Ang:
  0 Li    0.01061    0.00900   -0.27293
  1 Li   -0.00022    0.00343   -0.27095
  2 Li   -0.01044    0.00896   -0.27284
  3 Li   -0.00137    0.00534   -0.27544
  4 Li   -0.00009   -0.00298   -0.28456
  5 Li    0.00144    0.00550   -0.27528
  6 Li    0.00290   -0.01372   -0.27341
  7 Li   -0.00005   -0.00113   -0.27402
  8 Li   -0.00285   -0.01380   -0.27337
  9 Li   -0.00004    0.00454    0.31786
 10 Li    0.01184   -0.00253    0.26778
 11 Li   -0.01182   -0.00253    0.26820
 12 Li   -0.00005    0.00320    0.27425
 13 Li    0.01202   -0.00113    0.25622
 14 Li   -0.01194   -0.00107    0.25658
 15 Li   -0.00003   -0.00879    0.24824
 16 Li   -0.00524    0.00300    0.26122
 17 Li    0.00528    0.00292    0.26113
 18 Li    0.01454    0.00944   -0.03370
 19 Li   -0.00001   -0.00248    0.05366
 20 Li   -0.01432    0.00945   -0.03404
 21 Li   -0.00669   -0.00739    0.04016
 22 Li    0.00008    0.00311    0.03457
 23 Li    0.00664   -0.00732    0.04007
 24 Li   -0.00462   -0.00411    0.00294
 25 Li    0.00005   -0.00000    0.04272
 26 Li    0.00451   -0.00447    0.00263
 27 Li   -0.00010    0.04736   -1.21100
 28 Li    0.02572   -0.00593   -0.00974
 29 Li   -0.02504   -0.00602   -0.00880
 30 Li    0.00010   -0.06024    0.04591
 31 Li    0.01789    0.01811   -0.02726
 32 Li   -0.01822    0.01852   -0.02699
 33 Li    0.00001    0.05131    0.00986
 34 Li   -0.00004   -0.00880   -0.02265
 35 Li    0.00015   -0.00877   -0.02252
 36 O    -0.09979   11.45015   26.29464
 37 O    -0.00029   -0.05139    0.03915
 38 C     0.02140   -0.10357    0.27184
 39 C    -0.02878   -1.10513    3.01451
 40 C     0.00687   -0.02535    0.16245
 41 H    -0.01408   -0.03687   -0.02066
 42 H     0.01251   -0.01308   -0.03021
 43 H    -0.00836    0.09990   -0.24418
 44 H    -0.00637    0.08435   -0.25186
 45 H    -0.01594    0.00899    0.00969
 46 H     0.03525    0.01379   -0.00264
 47 H     0.25053  -25.08577    6.42416
 48 H     0.00107   -0.01969    0.02861
 49 N    -0.06252    3.66046  -11.65882
 50 N    -0.07073   10.99400  -22.78721

System changes: positions 

Initializing position-dependent things.

Density initialized from wave functions
       .-----------------------.  
      /|                       |  
     / |                       |  
    /  |                       |  
   /   |                       |  
  /    O                       |  
 *     |                       |  
 |     CH                   H  |  
 |     |                       C  
 |     |                       |  
 |     |H                     C|  
 | H   |                    H  |  
 |     H                       |  
 |     |                       |  
 |  H  |               H       |  
 |     |                       |  
 |     |       Li      Li      |  
 |     |                 O     |  
 |   Li|     Li      Li        |  
 |     |                 N     |  
 | Li  |  LLi     LLi    NLi   |  
 |     |                       |  
 |     |Li      Li      LLi    |  
 |   Li|     Li      Li        |  
 |    Li  Li  Li  Li  Li  Li   |  
 | Li  |   Li      Li          |  
 |     |Li      Li      Li     |  
 Li    | Li      Li            |  
 |    Li      Li      Li       |  
 |     |                       |  
 |     |                       |  
 |     |                       |  
 |     |                       |  
 |     |                       |  
 |     |                       |  
 |     .-----------------------.  
 |    /                       /   
 |   /                       /    
 |  /                       /     
 | /                       /      
 |/                       /       
 *-----------------------*        

Positions:
   0 Li     1.617037    1.617037   10.000000    ( 0.0000,  0.0000,  0.0000)
   1 Li     4.851111    1.617037   10.000000    ( 0.0000,  0.0000,  0.0000)
   2 Li     8.085185    1.617037   10.000000    ( 0.0000,  0.0000,  0.0000)
   3 Li     1.617037    4.851111   10.000000    ( 0.0000,  0.0000,  0.0000)
   4 Li     4.851111    4.851111   10.000000    ( 0.0000,  0.0000,  0.0000)
   5 Li     8.085185    4.851111   10.000000    ( 0.0000,  0.0000,  0.0000)
   6 Li     1.617037    8.085185   10.000000    ( 0.0000,  0.0000,  0.0000)
   7 Li     4.851111    8.085185   10.000000    ( 0.0000,  0.0000,  0.0000)
   8 Li     8.085185    8.085185   10.000000    ( 0.0000,  0.0000,  0.0000)
   9 Li     0.000000    0.000000   11.617037    ( 0.0000,  0.0000,  0.0000)
  10 Li     3.234074    0.000000   11.617037    ( 0.0000,  0.0000,  0.0000)
  11 Li     6.468148    0.000000   11.617037    ( 0.0000,  0.0000,  0.0000)
  12 Li     0.000000    3.234074   11.617037    ( 0.0000,  0.0000,  0.0000)
  13 Li     3.234074    3.234074   11.617037    ( 0.0000,  0.0000,  0.0000)
  14 Li     6.468148    3.234074   11.617037    ( 0.0000,  0.0000,  0.0000)
  15 Li     0.000000    6.468148   11.617037    ( 0.0000,  0.0000,  0.0000)
  16 Li     3.234074    6.468148   11.617037    ( 0.0000,  0.0000,  0.0000)
  17 Li     6.468148    6.468148   11.617037    ( 0.0000,  0.0000,  0.0000)
  18 Li     1.617058    1.617051   13.469681    ( 0.0000,  0.0000,  0.0000)
  19 Li     4.851111    1.617035   13.469804    ( 0.0000,  0.0000,  0.0000)
  20 Li     8.085164    1.617051   13.469680    ( 0.0000,  0.0000,  0.0000)
  21 Li     1.617029    4.851101   13.469785    ( 0.0000,  0.0000,  0.0000)
  22 Li     4.851111    4.851115   13.469778    ( 0.0000,  0.0000,  0.0000)
  23 Li     8.085193    4.851101   13.469785    ( 0.0000,  0.0000,  0.0000)
  24 Li     1.617032    8.085178   13.469732    ( 0.0000,  0.0000,  0.0000)
  25 Li     4.851111    8.085184   13.469789    ( 0.0000,  0.0000,  0.0000)
  26 Li     8.085190    8.085178   13.469732    ( 0.0000,  0.0000,  0.0000)
  27 Li    -0.000000    0.000066   15.444250    ( 0.0000,  0.0000,  0.0000)
  28 Li     3.234110   -0.000008   15.445925    ( 0.0000,  0.0000,  0.0000)
  29 Li     6.468113   -0.000008   15.445927    ( 0.0000,  0.0000,  0.0000)
  30 Li     0.000000    3.233990   15.446003    ( 0.0000,  0.0000,  0.0000)
  31 Li     3.234101    3.234102   15.445900    ( 0.0000,  0.0000,  0.0000)
  32 Li     6.468120    3.234102   15.445900    ( 0.0000,  0.0000,  0.0000)
  33 Li     0.000000    6.468220   15.445953    ( 0.0000,  0.0000,  0.0000)
  34 Li     3.234076    6.468133   15.445906    ( 0.0000,  0.0000,  0.0000)
  35 Li     6.468146    6.468133   15.445907    ( 0.0000,  0.0000,  0.0000)
  36 O      9.702083    9.718192   19.682613    ( 0.0000,  0.0000,  0.0000)
  37 O      9.708332    9.681822   24.508336    ( 0.0000,  0.0000,  0.0000)
  38 C      9.687805    9.700533   22.042233    ( 0.0000,  0.0000,  0.0000)
  39 C      9.699303    8.832861   20.795014    ( 0.0000,  0.0000,  0.0000)
  40 C      9.711714    8.870375   23.324697    ( 0.0000,  0.0000,  0.0000)
  41 H     10.562416   10.361132   22.019743    ( 0.0000,  0.0000,  0.0000)
  42 H      8.799787   10.337770   22.041671    ( 0.0000,  0.0000,  0.0000)
  43 H     10.592879    8.194283   20.785539    ( 0.0000,  0.0000,  0.0000)
  44 H      8.812649    8.185843   20.776916    ( 0.0000,  0.0000,  0.0000)
  45 H     10.579005    8.194857   23.325185    ( 0.0000,  0.0000,  0.0000)
  46 H      8.811650    8.254339   23.401316    ( 0.0000,  0.0000,  0.0000)
  47 H      9.707438    9.122877   18.859374    ( 0.0000,  0.0000,  0.0000)
  48 H     10.482851   10.256905   24.475738    ( 0.0000,  0.0000,  0.0000)
  49 N      9.701913    9.707105   17.179679    ( 0.0000,  0.0000,  0.0000)
  50 N      9.701901    9.717334   18.260780    ( 0.0000,  0.0000,  0.0000)

Unit cell:
           periodic     x           y           z      points  spacing
  1. axis:    yes    9.702222    0.000000    0.000000    60     0.1617
  2. axis:    yes    0.000000    9.702222    0.000000    60     0.1617
  3. axis:    no     0.000000    0.000000   28.601111   180     0.1589

  Lengths:   9.702222   9.702222  28.601111
  Angles:   90.000000  90.000000  90.000000

Effective grid spacing dv^(1/3) = 0.1608

     iter     time        total  log10-change:
                         energy  eigst   dens
iter:   1 22:10:23  -340.012449  -0.45
iter:   2 22:10:31  -339.773605  -0.82  -1.56
iter:   3 22:10:39  -339.530349  -0.95  -1.39
iter:   4 22:10:47  -339.528756  -0.91  -1.76
Writing to output.gpw (mode='')

iter:   5 22:10:56  -339.439172  -1.15  -1.46
iter:   6 22:11:04  -339.389313  -1.56  -1.88
iter:   7 22:11:12  -339.338927  -1.18  -1.93
iter:   8 22:11:20  -339.338420  -1.94  -2.16
iter:   9 22:11:28  -339.333587c -2.20  -2.14
Writing to output.gpw (mode='')

iter:  10 22:11:37  -339.329029c -2.70  -2.17
iter:  11 22:11:45  -339.316840c -1.83  -2.22
iter:  12 22:11:53  -339.314509c -2.57  -2.26
iter:  13 22:12:01  -339.312594c -2.72  -2.41
iter:  14 22:12:09  -339.313315c -2.54  -2.57
Writing to output.gpw (mode='')

iter:  15 22:12:18  -339.313418c -2.29  -2.64
iter:  16 22:12:26  -339.313522c -2.96  -2.62
iter:  17 22:12:34  -339.313075c -3.01  -2.75
iter:  18 22:12:42  -339.313755c -3.28  -2.88
iter:  19 22:12:50  -339.313744c -3.47  -2.98
Writing to output.gpw (mode='')

iter:  20 22:12:59  -339.313505c -4.08  -3.33
iter:  21 22:13:07  -339.313549c -3.71  -3.29
iter:  22 22:13:15  -339.313536c -4.16  -3.53
iter:  23 22:13:23  -339.313580c -4.43  -3.54
iter:  24 22:13:31  -339.313557c -4.75  -3.65
Writing to output.gpw (mode='')

iter:  25 22:13:40  -339.313569c -4.90  -3.70
iter:  26 22:13:48  -339.313589c -4.98  -3.70
iter:  27 22:13:56  -339.313601c -5.29  -3.69
iter:  28 22:14:04  -339.313596c -4.93  -3.80
iter:  29 22:14:13  -339.313604c -5.58  -4.15c
Writing to output.gpw (mode='')

iter:  30 22:14:21  -339.313619c -5.56  -4.21c
iter:  31 22:14:29  -339.313607c -5.76  -4.41c
iter:  32 22:14:45  -339.313603c -5.97  -4.54c
iter:  33 22:14:54  -339.313604c -6.02  -4.58c
iter:  34 22:15:02  -339.313600c -6.18  -4.65c
Writing to output.gpw (mode='')

iter:  35 22:15:10  -339.313601c -6.22  -4.71c
iter:  36 22:15:18  -339.313606c -6.44  -4.71c
iter:  37 22:15:27  -339.313603c -6.45  -4.79c
iter:  38 22:15:35  -339.313605c -6.61  -4.76c
iter:  39 22:15:43  -339.313605c -6.89  -4.86c
Writing to output.gpw (mode='')

iter:  40 22:15:51  -339.313603c -6.98  -4.98c
iter:  41 22:15:59  -339.313602c -6.70  -5.00c
iter:  42 22:16:08  -339.313603c -6.99  -5.37c
iter:  43 22:16:16  -339.313602c -7.21  -5.36c
iter:  44 22:16:24  -339.313604c -7.22  -5.42c
Writing to output.gpw (mode='')

iter:  45 22:16:32  -339.313604c -7.34  -5.55c
iter:  46 22:16:40  -339.313604c -7.39  -5.58c
iter:  47 22:16:49  -339.313604c -7.36  -5.67c
iter:  48 22:16:57  -339.313604c -7.51c -5.70c

Converged after 48 iterations.

Dipole moment: (-30.178961, -19.406305, -0.207208) |e|*Ang

Energy contributions relative to reference atoms: (reference = -17528.314784)

Kinetic:       +239.484493
Potential:     -213.057438
External:        +0.000000
XC:            -366.780922
Entropy (-ST):   -0.165215
Local:           +1.122870
--------------------------
Free energy:   -339.396212
Extrapolated:  -339.313604

Dipole-layer corrected work functions: 3.400881, 3.799206 eV

Showing only first 2 kpts
 Kpt  Band  Eigenvalues  Occupancy
  0    37     -3.82424    1.97767
  0    38     -3.72072    1.83569
  0    39     -3.48191    0.17212
  0    40     -3.38323    0.02583

  1    37     -3.67623    1.64215
  1    38     -3.58982    0.89809
  1    39     -3.56171    0.63443
  1    40     -3.48770    0.19124


Fermi level: -3.60004

No gap
Writing to output.gpw (mode='')


Forces in eV/Ang:
  0 Li    0.00961    0.01030   -0.27201
  1 Li   -0.00012    0.00361   -0.27143
  2 Li   -0.00951    0.01030   -0.27197
  3 Li   -0.00107    0.00367   -0.27446
  4 Li   -0.00006   -0.00232   -0.28826
  5 Li    0.00111    0.00370   -0.27433
  6 Li    0.00414   -0.01353   -0.27209
  7 Li   -0.00009   -0.00204   -0.27338
  8 Li   -0.00406   -0.01357   -0.27204
  9 Li   -0.00004    0.00304    0.31701
 10 Li    0.01012   -0.00185    0.26737
 11 Li   -0.01008   -0.00182    0.26774
 12 Li   -0.00002    0.00939    0.26568
 13 Li    0.01216   -0.00202    0.25407
 14 Li   -0.01214   -0.00192    0.25432
 15 Li   -0.00001   -0.01339    0.24786
 16 Li    0.00028    0.00355    0.25780
 17 Li   -0.00024    0.00345    0.25773
 18 Li    0.00856    0.01037   -0.02447
 19 Li   -0.00003   -0.00456    0.05210
 20 Li   -0.00838    0.01042   -0.02463
 21 Li   -0.00227   -0.00509    0.03828
 22 Li    0.00006    0.00225    0.03469
 23 Li    0.00224   -0.00495    0.03822
 24 Li   -0.00489   -0.00649    0.00322
 25 Li    0.00011    0.00301    0.04437
 26 Li    0.00477   -0.00684    0.00273
 27 Li    0.00002    0.02899   -1.55795
 28 Li    0.02553   -0.00495   -0.01019
 29 Li   -0.02502   -0.00481   -0.00938
 30 Li    0.00000   -0.04127    0.03268
 31 Li    0.01234    0.01565   -0.02506
 32 Li   -0.01247    0.01584   -0.02472
 33 Li    0.00011    0.03573   -0.00043
 34 Li   -0.00050   -0.00827   -0.02329
 35 Li    0.00043   -0.00840   -0.02325
 36 O    -0.06656    6.09166   23.01300
 37 O     0.00461   -0.05507    0.12003
 38 C     0.02321   -0.39230    0.67704
 39 C    -0.02560   -0.27061    3.13055
 40 C     0.00290    0.10845    0.15389
 41 H    -0.00402   -0.04554   -0.03842
 42 H     0.00520   -0.02186   -0.04656
 43 H     0.03968    0.04836   -0.18095
 44 H    -0.05625    0.03306   -0.19159
 45 H    -0.00709    0.00157    0.01009
 46 H     0.02709    0.00856   -0.00081
 47 H     0.16108  -15.21637    4.72129
 48 H    -0.00683   -0.02542    0.02211
 49 N    -0.05562    2.56736  -11.68539
 50 N    -0.02659    7.10535  -18.08723

System changes: positions 

Initializing position-dependent things.

Density initialized from wave functions
       .-----------------------.  
      /|                       |  
     / |                       |  
    /  |                       |  
   /   |                       |  
  /    O                       |  
 *     |                       |  
 |     CH                   H  |  
 |     |                       C  
 |     |                       |  
 |     |H                     C|  
 | H   |                    H  |  
 |     H                       |  
 |     |                       |  
 |  H  |               H       |  
 |     |                       |  
 |     |       Li      Li      |  
 |     |                 O     |  
 |   Li|     Li      Li        |  
 |     |                 N     |  
 |     |  LLi     LLi    NLLi  |  
 |     |                       |  
 Li    |Li      Li      Li     |  
 |   Li|     Li      Li        |  
 |    Li  Li  Li  Li  Li  Li   |  
 | Li  |   Li      Li          |  
 |     |Li      Li      Li     |  
 Li    | Li      Li            |  
 |    Li      Li      Li       |  
 |     |                       |  
 |     |                       |  
 |     |                       |  
 |     |                       |  
 |     |                       |  
 |     |                       |  
 |     .-----------------------.  
 |    /                       /   
 |   /                       /    
 |  /                       /     
 | /                       /      
 |/                       /       
 *-----------------------*        

Positions:
   0 Li     1.617037    1.617037   10.000000    ( 0.0000,  0.0000,  0.0000)
   1 Li     4.851111    1.617037   10.000000    ( 0.0000,  0.0000,  0.0000)
   2 Li     8.085185    1.617037   10.000000    ( 0.0000,  0.0000,  0.0000)
   3 Li     1.617037    4.851111   10.000000    ( 0.0000,  0.0000,  0.0000)
   4 Li     4.851111    4.851111   10.000000    ( 0.0000,  0.0000,  0.0000)
   5 Li     8.085185    4.851111   10.000000    ( 0.0000,  0.0000,  0.0000)
   6 Li     1.617037    8.085185   10.000000    ( 0.0000,  0.0000,  0.0000)
   7 Li     4.851111    8.085185   10.000000    ( 0.0000,  0.0000,  0.0000)
   8 Li     8.085185    8.085185   10.000000    ( 0.0000,  0.0000,  0.0000)
   9 Li     0.000000    0.000000   11.617037    ( 0.0000,  0.0000,  0.0000)
  10 Li     3.234074    0.000000   11.617037    ( 0.0000,  0.0000,  0.0000)
  11 Li     6.468148    0.000000   11.617037    ( 0.0000,  0.0000,  0.0000)
  12 Li     0.000000    3.234074   11.617037    ( 0.0000,  0.0000,  0.0000)
  13 Li     3.234074    3.234074   11.617037    ( 0.0000,  0.0000,  0.0000)
  14 Li     6.468148    3.234074   11.617037    ( 0.0000,  0.0000,  0.0000)
  15 Li     0.000000    6.468148   11.617037    ( 0.0000,  0.0000,  0.0000)
  16 Li     3.234074    6.468148   11.617037    ( 0.0000,  0.0000,  0.0000)
  17 Li     6.468148    6.468148   11.617037    ( 0.0000,  0.0000,  0.0000)
  18 Li     1.617057    1.617077   13.469658    ( 0.0000,  0.0000,  0.0000)
  19 Li     4.851111    1.617018   13.469914    ( 0.0000,  0.0000,  0.0000)
  20 Li     8.085166    1.617078   13.469658    ( 0.0000,  0.0000,  0.0000)
  21 Li     1.617039    4.851097   13.469864    ( 0.0000,  0.0000,  0.0000)
  22 Li     4.851111    4.851117   13.469856    ( 0.0000,  0.0000,  0.0000)
  23 Li     8.085183    4.851098   13.469864    ( 0.0000,  0.0000,  0.0000)
  24 Li     1.617020    8.085156   13.469740    ( 0.0000,  0.0000,  0.0000)
  25 Li     4.851112    8.085200   13.469893    ( 0.0000,  0.0000,  0.0000)
  26 Li     8.085202    8.085155   13.469738    ( 0.0000,  0.0000,  0.0000)
  27 Li     0.000000    0.000068   15.439628    ( 0.0000,  0.0000,  0.0000)
  28 Li     3.234165   -0.000016   15.445901    ( 0.0000,  0.0000,  0.0000)
  29 Li     6.468058   -0.000015   15.445904    ( 0.0000,  0.0000,  0.0000)
  30 Li    -0.000000    3.233963   15.446030    ( 0.0000,  0.0000,  0.0000)
  31 Li     3.234110    3.234128   15.445852    ( 0.0000,  0.0000,  0.0000)
  32 Li     6.468112    3.234128   15.445853    ( 0.0000,  0.0000,  0.0000)
  33 Li     0.000001    6.468246   15.445917    ( 0.0000,  0.0000,  0.0000)
  34 Li     3.234074    6.468117   15.445853    ( 0.0000,  0.0000,  0.0000)
  35 Li     6.468148    6.468116   15.445853    ( 0.0000,  0.0000,  0.0000)
  36 O      9.702049    9.713451   19.722331    ( 0.0000,  0.0000,  0.0000)
  37 O      9.708359    9.681687   24.508876    ( 0.0000,  0.0000,  0.0000)
  38 C      9.687862    9.698685   22.045106    ( 0.0000,  0.0000,  0.0000)
  39 C      9.699258    8.835098   20.802328    ( 0.0000,  0.0000,  0.0000)
  40 C      9.711707    8.871069   23.325008    ( 0.0000,  0.0000,  0.0000)
  41 H     10.562441   10.361002   22.019597    ( 0.0000,  0.0000,  0.0000)
  42 H      8.799774   10.337692   22.041512    ( 0.0000,  0.0000,  0.0000)
  43 H     10.593130    8.194215   20.785354    ( 0.0000,  0.0000,  0.0000)
  44 H      8.812355    8.185742   20.776697    ( 0.0000,  0.0000,  0.0000)
  45 H     10.579019    8.194835   23.325209    ( 0.0000,  0.0000,  0.0000)
  46 H      8.811683    8.254340   23.401320    ( 0.0000,  0.0000,  0.0000)
  47 H      9.707490    9.122774   18.864024    ( 0.0000,  0.0000,  0.0000)
  48 H     10.482809   10.256830   24.475765    ( 0.0000,  0.0000,  0.0000)
  49 N      9.701813    9.709066   17.153759    ( 0.0000,  0.0000,  0.0000)
  50 N      9.701993    9.719827   18.236768    ( 0.0000,  0.0000,  0.0000)

Unit cell:
           periodic     x           y           z      points  spacing
  1. axis:    yes    9.702222    0.000000    0.000000    60     0.1617
  2. axis:    yes    0.000000    9.702222    0.000000    60     0.1617
  3. axis:    no     0.000000    0.000000   28.601111   180     0.1589

  Lengths:   9.702222   9.702222  28.601111
  Angles:   90.000000  90.000000  90.000000

Effective grid spacing dv^(1/3) = 0.1608

     iter     time        total  log10-change:
                         energy  eigst   dens
iter:   1 22:17:07  -341.072712  -0.70
iter:   2 22:17:15  -341.045658  -1.18  -1.95
iter:   3 22:17:23  -341.028403  -1.45  -1.83
iter:   4 22:17:31  -341.016753c -1.34  -1.99
Writing to output.gpw (mode='')

iter:   5 22:17:40  -340.994575c -1.94  -1.91
iter:   6 22:17:48  -340.988758c -1.94  -2.26
iter:   7 22:17:56  -340.984376c -2.26  -2.34
iter:   8 22:18:04  -340.983514c -2.50  -2.52
iter:   9 22:18:12  -340.983598c -2.69  -2.63
Writing to output.gpw (mode='')

iter:  10 22:18:20  -340.983425c -3.09  -2.83
iter:  11 22:18:29  -340.982792c -2.93  -2.88
iter:  12 22:18:37  -340.982889c -3.62  -2.98
iter:  13 22:18:45  -340.982930c -3.80  -3.05
iter:  14 22:18:53  -340.983053c -3.72  -3.16
Writing to output.gpw (mode='')

iter:  15 22:19:01  -340.983044c -3.93  -3.33
iter:  16 22:19:09  -340.983095c -4.43  -3.36
iter:  17 22:19:18  -340.983053c -4.54  -3.45
iter:  18 22:19:26  -340.983082c -4.63  -3.51
iter:  19 22:19:34  -340.983084c -4.61  -3.63
Writing to output.gpw (mode='')

iter:  20 22:19:48  -340.983117c -5.00  -3.82
iter:  21 22:19:58  -340.983124c -5.27  -3.88
iter:  22 22:20:06  -340.983113c -5.34  -3.95
iter:  23 22:20:14  -340.983110c -5.41  -4.12c
iter:  24 22:20:23  -340.983121c -5.60  -4.20c
Writing to output.gpw (mode='')

iter:  25 22:20:31  -340.983117c -5.99  -4.26c
iter:  26 22:20:39  -340.983117c -5.86  -4.37c
iter:  27 22:20:47  -340.983124c -6.17  -4.50c
iter:  28 22:20:55  -340.983122c -6.31  -4.70c
iter:  29 22:21:04  -340.983121c -6.43  -4.73c
Writing to output.gpw (mode='')

iter:  30 22:21:12  -340.983121c -6.43  -4.77c
iter:  31 22:21:20  -340.983122c -6.80  -4.82c
iter:  32 22:21:28  -340.983122c -6.87  -4.95c
iter:  33 22:21:36  -340.983122c -6.78  -5.04c
iter:  34 22:21:44  -340.983123c -7.05  -5.07c
Writing to output.gpw (mode='')

iter:  35 22:21:53  -340.983123c -7.08  -5.10c
iter:  36 22:22:01  -340.983123c -7.38  -5.19c
iter:  37 22:22:09  -340.983122c -7.38  -5.25c
iter:  38 22:22:17  -340.983122c -7.62c -5.47c

Converged after 38 iterations.

Dipole moment: (-30.174775, -19.111075, -0.391036) |e|*Ang

Energy contributions relative to reference atoms: (reference = -17528.314784)

Kinetic:       +238.987828
Potential:     -214.091411
External:        +0.000000
XC:            -366.922676
Entropy (-ST):   -0.149332
Local:           +1.117803
--------------------------
Free energy:   -341.057788
Extrapolated:  -340.983122

Dipole-layer corrected work functions: 3.407000, 4.158705 eV

Showing only first 2 kpts
 Kpt  Band  Eigenvalues  Occupancy
  0    37     -4.01144    1.97953
  0    38     -3.96706    1.95099
  0    39     -3.63974    0.10810
  0    40     -3.56376    0.02469

  1    37     -3.84983    1.58482
  1    38     -3.76851    0.85752
  1    39     -3.74329    0.62376
  1    40     -3.66925    0.18693


Fermi level: -3.78285

No gap
Writing to output.gpw (mode='')


Forces in eV/Ang:
  0 Li    0.00844    0.01046   -0.27152
  1 Li   -0.00006    0.00311   -0.27158
  2 Li   -0.00839    0.01050   -0.27151
  3 Li   -0.00090    0.00168   -0.27289
  4 Li   -0.00003   -0.00202   -0.28964
  5 Li    0.00092    0.00165   -0.27280
  6 Li    0.00496   -0.01190   -0.27116
  7 Li   -0.00009   -0.00190   -0.27219
  8 Li   -0.00489   -0.01193   -0.27111
  9 Li   -0.00005    0.00156    0.31471
 10 Li    0.00892   -0.00134    0.26534
 11 Li   -0.00887   -0.00131    0.26565
 12 Li   -0.00000    0.01316    0.25899
 13 Li    0.01106   -0.00148    0.25253
 14 Li   -0.01106   -0.00135    0.25266
 15 Li    0.00001   -0.01568    0.24948
 16 Li    0.00371    0.00280    0.25617
 17 Li   -0.00368    0.00267    0.25610
 18 Li    0.00521    0.01131   -0.01990
 19 Li   -0.00001   -0.00520    0.05124
 20 Li   -0.00511    0.01142   -0.02005
 21 Li    0.00048   -0.00347    0.03952
 22 Li    0.00003    0.00170    0.03307
 23 Li   -0.00049   -0.00335    0.03949
 24 Li   -0.00285   -0.00831    0.00024
 25 Li    0.00013    0.00433    0.04594
 26 Li    0.00275   -0.00861   -0.00030
 27 Li    0.00008    0.01971   -1.93390
 28 Li    0.02585   -0.00406   -0.01214
 29 Li   -0.02549   -0.00386   -0.01147
 30 Li   -0.00002   -0.02085    0.01881
 31 Li    0.00976    0.01486   -0.02500
 32 Li   -0.00983    0.01496   -0.02468
 33 Li    0.00015    0.02054   -0.00965
 34 Li    0.00151   -0.00919   -0.02487
 35 Li   -0.00167   -0.00938   -0.02485
 36 O    -0.04572    2.39982   20.36296
 37 O     0.01046   -0.05838    0.18540
 38 C     0.02103   -0.48321    1.04892
 39 C    -0.02028    0.10669    3.18705
 40 C    -0.00045    0.16899    0.19002
 41 H    -0.01169   -0.06851   -0.04091
 42 H     0.01633   -0.04466   -0.04786
 43 H     0.05214    0.00632   -0.07216
 44 H    -0.06869   -0.00719   -0.08481
 45 H    -0.00966    0.00317    0.01342
 46 H     0.02906    0.01045    0.00300
 47 H     0.12711  -11.41980    6.13708
 48 H    -0.01343   -0.02722    0.01924
 49 N    -0.05231    1.51150   -9.47326
 50 N    -0.01964    7.85803  -19.46940

System changes: positions 

Initializing position-dependent things.

Density initialized from wave functions
       .-----------------------.  
      /|                       |  
     / |                       |  
    /  |                       |  
   /   |                       |  
  /    O                       |  
 *     |                       |  
 |     CH                   H  |  
 |     |                       C  
 |     |                       |  
 |     |H                     C|  
 | H   |                    H  O  
 |     H                       |  
 |     |                       |  
 |  H  |               H       |  
 |     |                       |  
 |     |       Li      Li      |  
 |     |                       |  
 |   Li|     Li      Li        |  
 |     |                 N     |  
 |     |  LLi     LLi    NLLi  |  
 |     |                       |  
 Li    |Li      Li      Li     |  
 |   Li|     Li      Li        |  
 |    Li  Li  Li  Li  Li  Li   |  
 | Li  |   Li      Li          |  
 |     |Li      Li      Li     |  
 Li    | Li      Li            |  
 |    Li      Li      Li       |  
 |     |                       |  
 |     |                       |  
 |     |                       |  
 |     |                       |  
 |     |                       |  
 |     |                       |  
 |     .-----------------------.  
 |    /                       /   
 |   /                       /    
 |  /                       /     
 | /                       /      
 |/                       /       
 *-----------------------*        

Positions:
   0 Li     1.617037    1.617037   10.000000    ( 0.0000,  0.0000,  0.0000)
   1 Li     4.851111    1.617037   10.000000    ( 0.0000,  0.0000,  0.0000)
   2 Li     8.085185    1.617037   10.000000    ( 0.0000,  0.0000,  0.0000)
   3 Li     1.617037    4.851111   10.000000    ( 0.0000,  0.0000,  0.0000)
   4 Li     4.851111    4.851111   10.000000    ( 0.0000,  0.0000,  0.0000)
   5 Li     8.085185    4.851111   10.000000    ( 0.0000,  0.0000,  0.0000)
   6 Li     1.617037    8.085185   10.000000    ( 0.0000,  0.0000,  0.0000)
   7 Li     4.851111    8.085185   10.000000    ( 0.0000,  0.0000,  0.0000)
   8 Li     8.085185    8.085185   10.000000    ( 0.0000,  0.0000,  0.0000)
   9 Li     0.000000    0.000000   11.617037    ( 0.0000,  0.0000,  0.0000)
  10 Li     3.234074    0.000000   11.617037    ( 0.0000,  0.0000,  0.0000)
  11 Li     6.468148    0.000000   11.617037    ( 0.0000,  0.0000,  0.0000)
  12 Li     0.000000    3.234074   11.617037    ( 0.0000,  0.0000,  0.0000)
  13 Li     3.234074    3.234074   11.617037    ( 0.0000,  0.0000,  0.0000)
  14 Li     6.468148    3.234074   11.617037    ( 0.0000,  0.0000,  0.0000)
  15 Li     0.000000    6.468148   11.617037    ( 0.0000,  0.0000,  0.0000)
  16 Li     3.234074    6.468148   11.617037    ( 0.0000,  0.0000,  0.0000)
  17 Li     6.468148    6.468148   11.617037    ( 0.0000,  0.0000,  0.0000)
  18 Li     1.617050    1.617108   13.469640    ( 0.0000,  0.0000,  0.0000)
  19 Li     4.851111    1.616999   13.470033    ( 0.0000,  0.0000,  0.0000)
  20 Li     8.085173    1.617109   13.469640    ( 0.0000,  0.0000,  0.0000)
  21 Li     1.617055    4.851097   13.469954    ( 0.0000,  0.0000,  0.0000)
  22 Li     4.851111    4.851119   13.469935    ( 0.0000,  0.0000,  0.0000)
  23 Li     8.085167    4.851098   13.469954    ( 0.0000,  0.0000,  0.0000)
  24 Li     1.617013    8.085128   13.469740    ( 0.0000,  0.0000,  0.0000)
  25 Li     4.851112    8.085221   13.470009    ( 0.0000,  0.0000,  0.0000)
  26 Li     8.085208    8.085126   13.469736    ( 0.0000,  0.0000,  0.0000)
  27 Li     0.000001    0.000056   15.433748    ( 0.0000,  0.0000,  0.0000)
  28 Li     3.234227   -0.000022   15.445870    ( 0.0000,  0.0000,  0.0000)
  29 Li     6.467996   -0.000020   15.445874    ( 0.0000,  0.0000,  0.0000)
  30 Li    -0.000001    3.233978   15.446030    ( 0.0000,  0.0000,  0.0000)
  31 Li     3.234115    3.234156   15.445798    ( 0.0000,  0.0000,  0.0000)
  32 Li     6.468107    3.234156   15.445801    ( 0.0000,  0.0000,  0.0000)
  33 Li     0.000001    6.468242   15.445858    ( 0.0000,  0.0000,  0.0000)
  34 Li     3.234077    6.468096   15.445790    ( 0.0000,  0.0000,  0.0000)
  35 Li     6.468144    6.468094   15.445790    ( 0.0000,  0.0000,  0.0000)
  36 O      9.702048    9.701430   19.760482    ( 0.0000,  0.0000,  0.0000)
  37 O      9.708401    9.681534   24.509597    ( 0.0000,  0.0000,  0.0000)
  38 C      9.687918    9.696598   22.049024    ( 0.0000,  0.0000,  0.0000)
  39 C      9.699220    8.838056   20.810407    ( 0.0000,  0.0000,  0.0000)
  40 C      9.711692    8.871910   23.325455    ( 0.0000,  0.0000,  0.0000)
  41 H     10.562441   10.360801   22.019443    ( 0.0000,  0.0000,  0.0000)
  42 H      8.799795   10.337548   22.041346    ( 0.0000,  0.0000,  0.0000)
  43 H     10.593408    8.194056   20.785414    ( 0.0000,  0.0000,  0.0000)
  44 H      8.812032    8.185552   20.776718    ( 0.0000,  0.0000,  0.0000)
  45 H     10.579022    8.194821   23.325244    ( 0.0000,  0.0000,  0.0000)
  46 H      8.811729    8.254350   23.401334    ( 0.0000,  0.0000,  0.0000)
  47 H      9.707511    9.126852   18.874181    ( 0.0000,  0.0000,  0.0000)
  48 H     10.482750   10.256746   24.475791    ( 0.0000,  0.0000,  0.0000)
  49 N      9.701709    9.708968   17.131627    ( 0.0000,  0.0000,  0.0000)
  50 N      9.702083    9.727196   18.203582    ( 0.0000,  0.0000,  0.0000)

Unit cell:
           periodic     x           y           z      points  spacing
  1. axis:    yes    9.702222    0.000000    0.000000    60     0.1617
  2. axis:    yes    0.000000    9.702222    0.000000    60     0.1617
  3. axis:    no     0.000000    0.000000   28.601111   180     0.1589

  Lengths:   9.702222   9.702222  28.601111
  Angles:   90.000000  90.000000  90.000000

Effective grid spacing dv^(1/3) = 0.1608

     iter     time        total  log10-change:
                         energy  eigst   dens
iter:   1 22:22:27  -342.764852  -0.73
iter:   2 22:22:35  -342.693389  -0.93  -1.65
iter:   3 22:22:43  -342.656039  -1.48  -1.70
iter:   4 22:22:52  -342.651889  -1.07  -2.02
Writing to output.gpw (mode='')

iter:   5 22:23:00  -342.638776c -1.98  -2.02
iter:   6 22:23:08  -342.637300c -1.73  -2.17
iter:   7 22:23:17  -342.627846c -2.14  -2.16
iter:   8 22:23:25  -342.626913c -2.52  -2.50
iter:   9 22:23:33  -342.626994c -2.94  -2.64
Writing to output.gpw (mode='')

iter:  10 22:23:41  -342.626001c -2.53  -2.59
iter:  11 22:23:49  -342.625836c -2.86  -2.81
iter:  12 22:23:58  -342.625831c -3.43  -2.95
iter:  13 22:24:06  -342.625874c -3.69  -3.06
iter:  14 22:24:14  -342.625836c -3.50  -3.08
Writing to output.gpw (mode='')

iter:  15 22:24:22  -342.625822c -3.90  -3.20
iter:  16 22:24:31  -342.625769c -4.16  -3.33
iter:  17 22:24:45  -342.625774c -4.52  -3.46
iter:  18 22:24:54  -342.625731c -4.38  -3.56
iter:  19 22:25:02  -342.625731c -4.76  -3.75
Writing to output.gpw (mode='')

iter:  20 22:25:10  -342.625738c -5.12  -3.77
iter:  21 22:25:19  -342.625752c -5.00  -3.89
iter:  22 22:25:27  -342.625747c -5.35  -3.88
iter:  23 22:25:35  -342.625742c -5.35  -3.99
iter:  24 22:25:43  -342.625746c -5.58  -4.08c
Writing to output.gpw (mode='')

iter:  25 22:25:51  -342.625751c -5.46  -4.20c
iter:  26 22:26:00  -342.625748c -6.10  -4.34c
iter:  27 22:26:08  -342.625750c -5.80  -4.41c
iter:  28 22:26:16  -342.625750c -6.23  -4.61c
iter:  29 22:26:25  -342.625751c -6.27  -4.73c
Writing to output.gpw (mode='')

iter:  30 22:26:33  -342.625750c -6.50  -4.74c
iter:  31 22:26:41  -342.625749c -6.45  -4.87c
iter:  32 22:26:49  -342.625750c -6.69  -5.06c
iter:  33 22:26:58  -342.625750c -6.95  -5.18c
iter:  34 22:27:06  -342.625750c -7.00  -5.19c
Writing to output.gpw (mode='')

iter:  35 22:27:14  -342.625751c -6.83  -5.22c
iter:  36 22:27:22  -342.625751c -7.02  -5.29c
iter:  37 22:27:31  -342.625750c -7.17  -5.37c
iter:  38 22:27:39  -342.625750c -7.42c -5.53c

Converged after 38 iterations.

Dipole moment: (-30.177151, -18.306705, -0.452633) |e|*Ang

Energy contributions relative to reference atoms: (reference = -17528.314784)

Kinetic:       +238.510946
Potential:     -214.998227
External:        +0.000000
XC:            -367.185367
Entropy (-ST):   -0.143749
Local:           +1.118772
--------------------------
Free energy:   -342.697625
Extrapolated:  -342.625750

Dipole-layer corrected work functions: 3.406110, 4.276226 eV

Showing only first 2 kpts
 Kpt  Band  Eigenvalues  Occupancy
  0    37     -4.08822    1.98581
  0    38     -4.03760    1.96142
  0    39     -3.67849    0.07440
  0    40     -3.62663    0.02702

  1    37     -3.89483    1.49043
  1    38     -3.82709    0.86018
  1    39     -3.80428    0.64702
  1    40     -3.73229    0.20358


Fermi level: -3.84117

No gap
Writing to output.gpw (mode='')


Forces in eV/Ang:
  0 Li    0.00667    0.00949   -0.27018
  1 Li   -0.00000    0.00235   -0.27136
  2 Li   -0.00666    0.00954   -0.27020
  3 Li   -0.00092    0.00056   -0.27188
  4 Li   -0.00000   -0.00125   -0.28853
  5 Li    0.00092    0.00049   -0.27183
  6 Li    0.00500   -0.01000   -0.26997
  7 Li   -0.00007   -0.00163   -0.27154
  8 Li   -0.00495   -0.01001   -0.26994
  9 Li   -0.00003   -0.00004    0.30979
 10 Li    0.00823   -0.00052    0.26316
 11 Li   -0.00818   -0.00049    0.26334
 12 Li    0.00000    0.01441    0.25479
 13 Li    0.00831   -0.00105    0.25284
 14 Li   -0.00834   -0.00093    0.25290
 15 Li    0.00002   -0.01493    0.25134
 16 Li    0.00549    0.00168    0.25524
 17 Li   -0.00548    0.00158    0.25515
 18 Li    0.00244    0.01061   -0.01130
 19 Li   -0.00001   -0.00326    0.04851
 20 Li   -0.00239    0.01070   -0.01138
 21 Li    0.00231   -0.00145    0.03984
 22 Li    0.00000    0.00029    0.03193
 23 Li   -0.00232   -0.00132    0.03983
 24 Li   -0.00005   -0.00910    0.00008
 25 Li    0.00013    0.00352    0.04608
 26 Li   -0.00005   -0.00934   -0.00047
 27 Li    0.00013    0.00228   -2.23259
 28 Li    0.03006   -0.00292   -0.02141
 29 Li   -0.02992   -0.00267   -0.02091
 30 Li   -0.00005   -0.00575    0.00303
 31 Li    0.00723    0.01299   -0.02558
 32 Li   -0.00723    0.01299   -0.02527
 33 Li    0.00018    0.00618   -0.02357
 34 Li    0.00299   -0.00934   -0.02715
 35 Li   -0.00320   -0.00955   -0.02716
 36 O    -0.02744    0.09529   16.35419
 37 O     0.01375   -0.06181    0.19953
 38 C     0.01563   -0.39245    1.25178
 39 C    -0.01168   -0.16993    3.29984
 40 C    -0.00107    0.14966    0.25328
 41 H    -0.02401   -0.08759   -0.02951
 42 H     0.03133   -0.06372   -0.03550
 43 H     0.04525   -0.04483    0.07048
 44 H    -0.06106   -0.05536    0.05580
 45 H    -0.01884    0.01210    0.01684
 46 H     0.03618    0.01680    0.00651
 47 H     0.09025   -7.95512    6.67927
 48 H    -0.01526   -0.02569    0.02128
 49 N    -0.03540    0.29971   -9.69126
 50 N    -0.01852    8.19194  -16.13177

System changes: positions 

Initializing position-dependent things.

Density initialized from wave functions
       .-----------------------.  
      /|                       |  
     / |                       |  
    /  |                       |  
   /   |                       |  
  /    O                       |  
 *     |                       |  
 |     CH                   H  |  
 |     |                       C  
 |     |                       |  
 |     |H                     C|  
 | H   |                    H  O  
 |     H                       |  
 |     |                       |  
 |  H  |               H       |  
 |     |                       |  
 |     Li      Li      Li      |  
 |     |                       |  
 |   Li|     Li      Li        |  
 |     |                 N     |  
 |     |  LLi     LLi    NLLi  |  
 |     |                       |  
 |     |Li      Li      Li     |  
 |   Li|     Li      Li        |  
 |    Li  Li  Li  Li  Li  Li   |  
 | Li  |   Li      Li          |  
 |     |Li      Li      Li     |  
 Li    | Li      Li            |  
 |    Li      Li      Li       |  
 |     |                       |  
 |     |                       |  
 |     |                       |  
 |     |                       |  
 |     |                       |  
 |     |                       |  
 |     .-----------------------.  
 |    /                       /   
 |   /                       /    
 |  /                       /     
 | /                       /      
 |/                       /       
 *-----------------------*        

Positions:
   0 Li     1.617037    1.617037   10.000000    ( 0.0000,  0.0000,  0.0000)
   1 Li     4.851111    1.617037   10.000000    ( 0.0000,  0.0000,  0.0000)
   2 Li     8.085185    1.617037   10.000000    ( 0.0000,  0.0000,  0.0000)
   3 Li     1.617037    4.851111   10.000000    ( 0.0000,  0.0000,  0.0000)
   4 Li     4.851111    4.851111   10.000000    ( 0.0000,  0.0000,  0.0000)
   5 Li     8.085185    4.851111   10.000000    ( 0.0000,  0.0000,  0.0000)
   6 Li     1.617037    8.085185   10.000000    ( 0.0000,  0.0000,  0.0000)
   7 Li     4.851111    8.085185   10.000000    ( 0.0000,  0.0000,  0.0000)
   8 Li     8.085185    8.085185   10.000000    ( 0.0000,  0.0000,  0.0000)
   9 Li     0.000000    0.000000   11.617037    ( 0.0000,  0.0000,  0.0000)
  10 Li     3.234074    0.000000   11.617037    ( 0.0000,  0.0000,  0.0000)
  11 Li     6.468148    0.000000   11.617037    ( 0.0000,  0.0000,  0.0000)
  12 Li     0.000000    3.234074   11.617037    ( 0.0000,  0.0000,  0.0000)
  13 Li     3.234074    3.234074   11.617037    ( 0.0000,  0.0000,  0.0000)
  14 Li     6.468148    3.234074   11.617037    ( 0.0000,  0.0000,  0.0000)
  15 Li     0.000000    6.468148   11.617037    ( 0.0000,  0.0000,  0.0000)
  16 Li     3.234074    6.468148   11.617037    ( 0.0000,  0.0000,  0.0000)
  17 Li     6.468148    6.468148   11.617037    ( 0.0000,  0.0000,  0.0000)
  18 Li     1.617037    1.617141   13.469660    ( 0.0000,  0.0000,  0.0000)
  19 Li     4.851111    1.616995   13.470185    ( 0.0000,  0.0000,  0.0000)
  20 Li     8.085186    1.617142   13.469660    ( 0.0000,  0.0000,  0.0000)
  21 Li     1.617077    4.851104   13.470088    ( 0.0000,  0.0000,  0.0000)
  22 Li     4.851111    4.851111   13.470044    ( 0.0000,  0.0000,  0.0000)
  23 Li     8.085145    4.851106   13.470087    ( 0.0000,  0.0000,  0.0000)
  24 Li     1.617023    8.085090   13.469747    ( 0.0000,  0.0000,  0.0000)
  25 Li     4.851113    8.085233   13.470171    ( 0.0000,  0.0000,  0.0000)
  26 Li     8.085197    8.085088   13.469740    ( 0.0000,  0.0000,  0.0000)
  27 Li     0.000002   -0.000055   15.424327    ( 0.0000,  0.0000,  0.0000)
  28 Li     3.234354   -0.000026   15.445747    ( 0.0000,  0.0000,  0.0000)
  29 Li     6.467869   -0.000022   15.445752    ( 0.0000,  0.0000,  0.0000)
  30 Li    -0.000001    3.234042   15.445952    ( 0.0000,  0.0000,  0.0000)
  31 Li     3.234119    3.234187   15.445711    ( 0.0000,  0.0000,  0.0000)
  32 Li     6.468104    3.234186   15.445715    ( 0.0000,  0.0000,  0.0000)
  33 Li     0.000002    6.468181   15.445695    ( 0.0000,  0.0000,  0.0000)
  34 Li     3.234090    6.468066   15.445685    ( 0.0000,  0.0000,  0.0000)
  35 Li     6.468129    6.468063   15.445684    ( 0.0000,  0.0000,  0.0000)
  36 O      9.702085    9.684568   19.793344    ( 0.0000,  0.0000,  0.0000)
  37 O      9.708466    9.681298   24.510417    ( 0.0000,  0.0000,  0.0000)
  38 C      9.687951    9.695267   22.054645    ( 0.0000,  0.0000,  0.0000)
  39 C      9.699223    8.837050   20.822655    ( 0.0000,  0.0000,  0.0000)
  40 C      9.711683    8.872502   23.326591    ( 0.0000,  0.0000,  0.0000)
  41 H     10.562328   10.360419   22.019368    ( 0.0000,  0.0000,  0.0000)
  42 H      8.799947   10.337249   22.041256    ( 0.0000,  0.0000,  0.0000)
  43 H     10.593610    8.193589   20.786363    ( 0.0000,  0.0000,  0.0000)
  44 H      8.811774    8.185061   20.777602    ( 0.0000,  0.0000,  0.0000)
  45 H     10.578931    8.194892   23.325315    ( 0.0000,  0.0000,  0.0000)
  46 H      8.811871    8.254427   23.401373    ( 0.0000,  0.0000,  0.0000)
  47 H      9.707489    9.132766   18.893615    ( 0.0000,  0.0000,  0.0000)
  48 H     10.482682   10.256655   24.475867    ( 0.0000,  0.0000,  0.0000)
  49 N      9.701688    9.703044   17.092068    ( 0.0000,  0.0000,  0.0000)
  50 N      9.702110    9.747165   18.179361    ( 0.0000,  0.0000,  0.0000)

Unit cell:
           periodic     x           y           z      points  spacing
  1. axis:    yes    9.702222    0.000000    0.000000    60     0.1617
  2. axis:    yes    0.000000    9.702222    0.000000    60     0.1617
  3. axis:    no     0.000000    0.000000   28.601111   180     0.1589

  Lengths:   9.702222   9.702222  28.601111
  Angles:   90.000000  90.000000  90.000000

Effective grid spacing dv^(1/3) = 0.1608

     iter     time        total  log10-change:
                         energy  eigst   dens
iter:   1 22:27:49  -344.204738  -0.66
iter:   2 22:27:57  -344.173569  -1.30  -2.03
iter:   3 22:28:05  -344.129125  -1.23  -2.06
iter:   4 22:28:13  -344.121373  -1.13  -1.95
Writing to output.gpw (mode='')

iter:   5 22:28:21  -344.112829c -2.12  -2.19
iter:   6 22:28:29  -344.111608c -2.10  -2.48
iter:   7 22:28:38  -344.113723c -2.06  -2.62
iter:   8 22:28:46  -344.112647c -2.74  -2.70
iter:   9 22:28:54  -344.111775c -2.78  -2.62
Writing to output.gpw (mode='')

iter:  10 22:29:02  -344.111850c -3.37  -2.84
iter:  11 22:29:10  -344.112022c -3.13  -2.85
iter:  12 22:29:18  -344.111492c -3.25  -2.95
iter:  13 22:29:26  -344.111470c -3.63  -3.29
iter:  14 22:29:35  -344.111491c -3.96  -3.38
Writing to output.gpw (mode='')

iter:  15 22:29:51  -344.111469c -3.96  -3.43
iter:  16 22:30:02  -344.111484c -4.05  -3.55
iter:  17 22:30:11  -344.111491c -4.67  -3.64
iter:  18 22:30:19  -344.111497c -4.48  -3.76
iter:  19 22:30:27  -344.111486c -4.84  -3.77
Writing to output.gpw (mode='')

iter:  20 22:30:35  -344.111482c -5.00  -3.92
iter:  21 22:30:43  -344.111484c -5.14  -4.01c
iter:  22 22:30:51  -344.111489c -5.59  -4.09c
iter:  23 22:31:00  -344.111493c -5.67  -4.12c
iter:  24 22:31:08  -344.111490c -5.53  -4.23c
Writing to output.gpw (mode='')

iter:  25 22:31:16  -344.111489c -5.74  -4.43c
iter:  26 22:31:24  -344.111491c -5.87  -4.47c
iter:  27 22:31:32  -344.111491c -6.01  -4.58c
iter:  28 22:31:40  -344.111491c -6.22  -4.68c
iter:  29 22:31:48  -344.111491c -6.22  -4.75c
Writing to output.gpw (mode='')

iter:  30 22:31:57  -344.111491c -6.79  -4.99c
iter:  31 22:32:05  -344.111491c -6.84  -5.00c
iter:  32 22:32:13  -344.111491c -6.69  -5.00c
iter:  33 22:32:21  -344.111491c -6.91  -5.01c
iter:  34 22:32:29  -344.111491c -7.00  -5.09c
Writing to output.gpw (mode='')

iter:  35 22:32:38  -344.111491c -6.81  -5.29c
iter:  36 22:32:46  -344.111491c -7.10  -5.47c
iter:  37 22:32:54  -344.111491c -6.84  -5.57c
iter:  38 22:33:02  -344.111492c -6.83  -5.62c
iter:  39 22:33:10  -344.111491c -7.50c -5.63c

Converged after 39 iterations.

Dipole moment: (-30.201966, -17.586773, -0.449131) |e|*Ang

Energy contributions relative to reference atoms: (reference = -17528.314784)

Kinetic:       +233.424677
Potential:     -211.943787
External:        +0.000000
XC:            -366.643798
Entropy (-ST):   -0.143648
Local:           +1.123241
--------------------------
Free energy:   -344.183315
Extrapolated:  -344.111491

Dipole-layer corrected work functions: 3.405126, 4.268509 eV

Showing only first 2 kpts
 Kpt  Band  Eigenvalues  Occupancy
  0    37     -4.08442    1.98596
  0    38     -4.03307    1.96128
  0    39     -3.67260    0.07222
  0    40     -3.62358    0.02772

  1    37     -3.88578    1.45389
  1    38     -3.82348    0.86741
  1    39     -3.80155    0.66123
  1    40     -3.72680    0.19945


Fermi level: -3.83682

No gap
Writing to output.gpw (mode='')


Forces in eV/Ang:
  0 Li    0.00622    0.00919   -0.27003
  1 Li    0.00001    0.00179   -0.27104
  2 Li   -0.00622    0.00923   -0.27006
  3 Li   -0.00118    0.00046   -0.27140
  4 Li   -0.00000   -0.00069   -0.28823
  5 Li    0.00119    0.00038   -0.27136
  6 Li    0.00524   -0.00961   -0.27027
  7 Li   -0.00007   -0.00125   -0.27122
  8 Li   -0.00520   -0.00961   -0.27023
  9 Li   -0.00002   -0.00088    0.30949
 10 Li    0.00819   -0.00001    0.26298
 11 Li   -0.00815    0.00003    0.26312
 12 Li   -0.00000    0.01464    0.25443
 13 Li    0.00709   -0.00066    0.25343
 14 Li   -0.00713   -0.00056    0.25348
 15 Li    0.00002   -0.01382    0.25262
 16 Li    0.00658    0.00067    0.25467
 17 Li   -0.00656    0.00060    0.25457
 18 Li    0.00274    0.01131   -0.01119
 19 Li   -0.00003   -0.00239    0.04765
 20 Li   -0.00268    0.01136   -0.01118
 21 Li    0.00229   -0.00039    0.04068
 22 Li    0.00000   -0.00070    0.03140
 23 Li   -0.00230   -0.00024    0.04067
 24 Li    0.00329   -0.01102   -0.00539
 25 Li    0.00013    0.00321    0.04693
 26 Li   -0.00340   -0.01123   -0.00593
 27 Li    0.00032   -0.01850   -2.68845
 28 Li    0.02884   -0.00204   -0.02189
 29 Li   -0.02873   -0.00175   -0.02142
 30 Li   -0.00007   -0.00700    0.00169
 31 Li    0.00752    0.01313   -0.02594
 32 Li   -0.00748    0.01308   -0.02561
 33 Li    0.00019    0.00409   -0.02501
 34 Li    0.00494   -0.01074   -0.02853
 35 Li   -0.00516   -0.01095   -0.02854
 36 O    -0.01777   -0.36975   12.57853
 37 O     0.01590   -0.05901    0.20051
 38 C     0.00976   -0.24260    1.27934
 39 C    -0.01031   -0.83278    3.34336
 40 C     0.00234    0.09359    0.33392
 41 H    -0.03186   -0.09715   -0.00845
 42 H     0.03947   -0.07298   -0.01383
 43 H     0.06151   -0.13835    0.23070
 44 H    -0.07450   -0.14511    0.21492
 45 H    -0.02558    0.01897    0.02238
 46 H     0.03914    0.01969    0.01240
 47 H     0.06340   -5.61260    5.80769
 48 H    -0.01543   -0.02371    0.02632
 49 N    -0.02803   -0.36549   -6.12438
 50 N    -0.01457    7.71448  -15.04462

System changes: positions 

Initializing position-dependent things.

Density initialized from wave functions
       .-----------------------.  
      /|                       |  
     / |                       |  
    /  |                       |  
   /   |                       |  
  /    O                       |  
 *     |                       |  
 |     CH                   H  |  
 |     |                       C  
 |     |                       |  
 |     |H                     C|  
 | H   |                    H  O  
 |     H                       |  
 |     |                       |  
 |  H  |               H       N  
 |     |                       |  
 |     Li      Li      Li      |  
 |     |                       |  
 |   Li|     Li      Li        |  
 |     |                 N     |  
 |     |  LLi     LLi     LLi  |  
 |     |                       |  
 |     |Li      Li      Li     |  
 |   Li|     Li      Li        |  
 |    Li  Li  Li  Li  Li  Li   |  
 | Li  |   Li      Li          |  
 |     |Li      Li      Li     |  
 Li    | Li      Li            |  
 |    Li      Li      Li       |  
 |     |                       |  
 |     |                       |  
 |     |                       |  
 |     |                       |  
 |     |                       |  
 |     |                       |  
 |     .-----------------------.  
 |    /                       /   
 |   /                       /    
 |  /                       /     
 | /                       /      
 |/                       /       
 *-----------------------*        

Positions:
   0 Li     1.617037    1.617037   10.000000    ( 0.0000,  0.0000,  0.0000)
   1 Li     4.851111    1.617037   10.000000    ( 0.0000,  0.0000,  0.0000)
   2 Li     8.085185    1.617037   10.000000    ( 0.0000,  0.0000,  0.0000)
   3 Li     1.617037    4.851111   10.000000    ( 0.0000,  0.0000,  0.0000)
   4 Li     4.851111    4.851111   10.000000    ( 0.0000,  0.0000,  0.0000)
   5 Li     8.085185    4.851111   10.000000    ( 0.0000,  0.0000,  0.0000)
   6 Li     1.617037    8.085185   10.000000    ( 0.0000,  0.0000,  0.0000)
   7 Li     4.851111    8.085185   10.000000    ( 0.0000,  0.0000,  0.0000)
   8 Li     8.085185    8.085185   10.000000    ( 0.0000,  0.0000,  0.0000)
   9 Li     0.000000    0.000000   11.617037    ( 0.0000,  0.0000,  0.0000)
  10 Li     3.234074    0.000000   11.617037    ( 0.0000,  0.0000,  0.0000)
  11 Li     6.468148    0.000000   11.617037    ( 0.0000,  0.0000,  0.0000)
  12 Li     0.000000    3.234074   11.617037    ( 0.0000,  0.0000,  0.0000)
  13 Li     3.234074    3.234074   11.617037    ( 0.0000,  0.0000,  0.0000)
  14 Li     6.468148    3.234074   11.617037    ( 0.0000,  0.0000,  0.0000)
  15 Li     0.000000    6.468148   11.617037    ( 0.0000,  0.0000,  0.0000)
  16 Li     3.234074    6.468148   11.617037    ( 0.0000,  0.0000,  0.0000)
  17 Li     6.468148    6.468148   11.617037    ( 0.0000,  0.0000,  0.0000)
  18 Li     1.617043    1.617201   13.469645    ( 0.0000,  0.0000,  0.0000)
  19 Li     4.851110    1.616998   13.470428    ( 0.0000,  0.0000,  0.0000)
  20 Li     8.085180    1.617201   13.469648    ( 0.0000,  0.0000,  0.0000)
  21 Li     1.617095    4.851117   13.470306    ( 0.0000,  0.0000,  0.0000)
  22 Li     4.851111    4.851093   13.470219    ( 0.0000,  0.0000,  0.0000)
  23 Li     8.085127    4.851121   13.470306    ( 0.0000,  0.0000,  0.0000)
  24 Li     1.617067    8.085016   13.469699    ( 0.0000,  0.0000,  0.0000)
  25 Li     4.851114    8.085243   13.470432    ( 0.0000,  0.0000,  0.0000)
  26 Li     8.085153    8.085013   13.469690    ( 0.0000,  0.0000,  0.0000)
  27 Li     0.000005   -0.000398   15.406052    ( 0.0000,  0.0000,  0.0000)
  28 Li     3.234528   -0.000028   15.445579    ( 0.0000,  0.0000,  0.0000)
  29 Li     6.467695   -0.000021   15.445586    ( 0.0000,  0.0000,  0.0000)
  30 Li    -0.000002    3.233998   15.445916    ( 0.0000,  0.0000,  0.0000)
  31 Li     3.234149    3.234248   15.445567    ( 0.0000,  0.0000,  0.0000)
  32 Li     6.468075    3.234245   15.445573    ( 0.0000,  0.0000,  0.0000)
  33 Li     0.000004    6.468163   15.445497    ( 0.0000,  0.0000,  0.0000)
  34 Li     3.234124    6.468003   15.445513    ( 0.0000,  0.0000,  0.0000)
  35 Li     6.468093    6.467999   15.445512    ( 0.0000,  0.0000,  0.0000)
  36 O      9.702117    9.675475   19.821423    ( 0.0000,  0.0000,  0.0000)
  37 O      9.708562    9.680983   24.511400    ( 0.0000,  0.0000,  0.0000)
  38 C      9.687953    9.695294   22.061730    ( 0.0000,  0.0000,  0.0000)
  39 C      9.699199    8.825955   20.842123    ( 0.0000,  0.0000,  0.0000)
  40 C      9.711728    8.872485   23.329106    ( 0.0000,  0.0000,  0.0000)
  41 H     10.562107   10.359836   22.019502    ( 0.0000,  0.0000,  0.0000)
  42 H      8.800212   10.336800   22.041366    ( 0.0000,  0.0000,  0.0000)
  43 H     10.594080    8.192001   20.789042    ( 0.0000,  0.0000,  0.0000)
  44 H      8.811250    8.183468   20.780179    ( 0.0000,  0.0000,  0.0000)
  45 H     10.578732    8.195065   23.325476    ( 0.0000,  0.0000,  0.0000)
  46 H      8.812113    8.254566   23.401482    ( 0.0000,  0.0000,  0.0000)
  47 H      9.707402    9.141702   18.907759    ( 0.0000,  0.0000,  0.0000)
  48 H     10.482607   10.256543   24.476062    ( 0.0000,  0.0000,  0.0000)
  49 N      9.701683    9.693273   17.066048    ( 0.0000,  0.0000,  0.0000)
  50 N      9.702148    9.771516   18.147627    ( 0.0000,  0.0000,  0.0000)

Unit cell:
           periodic     x           y           z      points  spacing
  1. axis:    yes    9.702222    0.000000    0.000000    60     0.1617
  2. axis:    yes    0.000000    9.702222    0.000000    60     0.1617
  3. axis:    no     0.000000    0.000000   28.601111   180     0.1589

  Lengths:   9.702222   9.702222  28.601111
  Angles:   90.000000  90.000000  90.000000

Effective grid spacing dv^(1/3) = 0.1608

     iter     time        total  log10-change:
                         energy  eigst   dens
iter:   1 22:33:20  -345.417423  -0.80
iter:   2 22:33:28  -345.378234  -1.17  -1.82
iter:   3 22:33:37  -345.358971  -1.79  -1.87
iter:   4 22:33:45  -345.356242c -1.20  -2.19
Writing to output.gpw (mode='')

iter:   5 22:33:53  -345.347974c -2.19  -2.17
iter:   6 22:34:01  -345.343903c -2.39  -2.33
iter:   7 22:34:09  -345.346459c -2.09  -2.65
iter:   8 22:34:18  -345.345978c -2.75  -2.55
iter:   9 22:34:26  -345.345887c -2.93  -2.59
Writing to output.gpw (mode='')

iter:  10 22:34:34  -345.343508c -2.57  -2.57
iter:  11 22:34:49  -345.343926c -2.87  -3.06
iter:  12 22:34:57  -345.344088c -3.23  -2.98
iter:  13 22:35:05  -345.343611c -2.94  -2.95
iter:  14 22:35:13  -345.343548c -4.01  -3.17
Writing to output.gpw (mode='')

iter:  15 22:35:22  -345.343562c -3.88  -3.43
iter:  16 22:35:30  -345.343557c -4.48  -3.62
iter:  17 22:35:38  -345.343539c -4.36  -3.67
iter:  18 22:35:46  -345.343540c -4.80  -3.69
iter:  19 22:35:56  -345.343542c -4.94  -3.78
Writing to output.gpw (mode='')

iter:  20 22:36:04  -345.343538c -4.94  -3.88
iter:  21 22:36:12  -345.343539c -5.46  -4.15c
iter:  22 22:36:20  -345.343541c -5.37  -4.16c
iter:  23 22:36:28  -345.343537c -5.34  -4.22c
iter:  24 22:36:37  -345.343537c -6.00  -4.17c
Writing to output.gpw (mode='')

iter:  25 22:36:45  -345.343538c -5.70  -4.28c
iter:  26 22:36:53  -345.343539c -6.08  -4.50c
iter:  27 22:37:01  -345.343542c -5.95  -4.57c
iter:  28 22:37:10  -345.343543c -6.23  -4.59c
iter:  29 22:37:18  -345.343542c -6.11  -4.66c
Writing to output.gpw (mode='')

iter:  30 22:37:26  -345.343542c -6.36  -4.79c
iter:  31 22:37:34  -345.343542c -6.51  -4.82c
iter:  32 22:37:43  -345.343541c -6.56  -4.91c
iter:  33 22:37:51  -345.343541c -6.75  -5.12c
iter:  34 22:37:59  -345.343541c -6.91  -5.19c
Writing to output.gpw (mode='')

iter:  35 22:38:07  -345.343541c -6.88  -5.34c
iter:  36 22:38:16  -345.343541c -7.21  -5.28c
iter:  37 22:38:24  -345.343541c -6.94  -5.30c
iter:  38 22:38:32  -345.343541c -7.40c -5.31c

Converged after 38 iterations.

Dipole moment: (-30.233597, -17.337059, -0.427800) |e|*Ang

Energy contributions relative to reference atoms: (reference = -17528.314784)

Kinetic:       +229.972035
Potential:     -210.089681
External:        +0.000000
XC:            -366.282113
Entropy (-ST):   -0.143270
Local:           +1.127854
--------------------------
Free energy:   -345.415176
Extrapolated:  -345.343541

Dipole-layer corrected work functions: 3.403685, 4.226064 eV

Showing only first 2 kpts
 Kpt  Band  Eigenvalues  Occupancy
  0    37     -4.06303    1.98612
  0    38     -4.00991    1.96035
  0    39     -3.64318    0.06251
  0    40     -3.60429    0.02921

  1    37     -3.85892    1.41403
  1    38     -3.80215    0.87349
  1    39     -3.78245    0.68669
  1    40     -3.70530    0.20102


Fermi level: -3.81487

No gap
Writing to output.gpw (mode='')


Forces in eV/Ang:
  0 Li    0.00614    0.00870   -0.26978
  1 Li    0.00002    0.00136   -0.27070
  2 Li   -0.00615    0.00874   -0.26980
  3 Li   -0.00134    0.00055   -0.27081
  4 Li    0.00000   -0.00038   -0.28824
  5 Li    0.00134    0.00047   -0.27078
  6 Li    0.00531   -0.00917   -0.27056
  7 Li   -0.00006   -0.00068   -0.27068
  8 Li   -0.00527   -0.00917   -0.27052
  9 Li   -0.00002   -0.00142    0.30997
 10 Li    0.00855    0.00033    0.26243
 11 Li   -0.00852    0.00036    0.26254
 12 Li   -0.00000    0.01477    0.25473
 13 Li    0.00630    0.00002    0.25357
 14 Li   -0.00633    0.00011    0.25363
 15 Li    0.00002   -0.01290    0.25358
 16 Li    0.00715   -0.00053    0.25427
 17 Li   -0.00713   -0.00059    0.25417
 18 Li    0.00457    0.01282   -0.01066
 19 Li   -0.00004   -0.00141    0.04624
 20 Li   -0.00450    0.01284   -0.01060
 21 Li    0.00239   -0.00006    0.04087
 22 Li    0.00000   -0.00116    0.03083
 23 Li   -0.00240    0.00009    0.04085
 24 Li    0.00742   -0.01329   -0.00901
 25 Li    0.00012    0.00222    0.04631
 26 Li   -0.00753   -0.01348   -0.00953
 27 Li    0.00042   -0.03802   -2.83949
 28 Li    0.03004   -0.00160   -0.02599
 29 Li   -0.02994   -0.00130   -0.02554
 30 Li   -0.00008   -0.00324   -0.00509
 31 Li    0.00720    0.01205   -0.02646
 32 Li   -0.00715    0.01198   -0.02612
 33 Li    0.00020   -0.00213   -0.02898
 34 Li    0.00491   -0.01019   -0.02884
 35 Li   -0.00514   -0.01039   -0.02885
 36 O    -0.01132   -0.60960    9.11831
 37 O     0.01845   -0.05339    0.23850
 38 C     0.00466   -0.25295    1.25232
 39 C    -0.00654   -0.87160    2.88639
 40 C     0.00645    0.09704    0.40305
 41 H    -0.02516   -0.10220    0.00577
 42 H     0.03097   -0.07709    0.00236
 43 H     0.13209   -0.28505    0.37484
 44 H    -0.14404   -0.29004    0.35925
 45 H    -0.02001    0.01411    0.03320
 46 H     0.03055    0.01286    0.02452
 47 H     0.04346   -3.73547    5.19665
 48 H    -0.01702   -0.02358    0.03080
 49 N    -0.02063   -0.76237   -5.89805
 50 N    -0.00877    6.91661  -11.04650

System changes: positions 

Initializing position-dependent things.

Density initialized from wave functions
       .-----------------------.  
      /|                       |  
     / |                       |  
    /  |                       |  
   /   |                       |  
  /    O                       |  
 *     |                       |  
 |     CH                   H  |  
 |     |                       C  
 |     |                       |  
 |     |H                     C|  
 | H   |                    H  O  
 |     H                       |  
 |     |                       |  
 |  H  |               H       N  
 |     |                       |  
 |     Li      Li      Li      |  
 |     |                       |  
 |   Li|     Li      Li        |  
 N     |                       |  
 |     |  LLi     LLi     LLi  |  
 |     |                       |  
 |     |Li      Li      Li     |  
 |   Li|     Li      Li        |  
 |    Li  Li  Li  Li  Li  Li   |  
 | Li  |   Li      Li          |  
 |     |Li      Li      Li     |  
 Li    | Li      Li            |  
 |    Li      Li      Li       |  
 |     |                       |  
 |     |                       |  
 |     |                       |  
 |     |                       |  
 |     |                       |  
 |     |                       |  
 |     .-----------------------.  
 |    /                       /   
 |   /                       /    
 |  /                       /     
 | /                       /      
 |/                       /       
 *-----------------------*        

Positions:
   0 Li     1.617037    1.617037   10.000000    ( 0.0000,  0.0000,  0.0000)
   1 Li     4.851111    1.617037   10.000000    ( 0.0000,  0.0000,  0.0000)
   2 Li     8.085185    1.617037   10.000000    ( 0.0000,  0.0000,  0.0000)
   3 Li     1.617037    4.851111   10.000000    ( 0.0000,  0.0000,  0.0000)
   4 Li     4.851111    4.851111   10.000000    ( 0.0000,  0.0000,  0.0000)
   5 Li     8.085185    4.851111   10.000000    ( 0.0000,  0.0000,  0.0000)
[...]
External:        +0.000000
XC:            -357.122194
Entropy (-ST):   -0.147781
Local:           +1.168488
--------------------------
Free energy:   -352.419759
Extrapolated:  -352.345869

Dipole-layer corrected work functions: 3.402876, 3.845063 eV

Showing only first 2 kpts
 Kpt  Band  Eigenvalues  Occupancy
  0    37     -3.87026    1.98559
  0    38     -3.81751    1.95917
  0    39     -3.46943    0.08697
  0    40     -3.41999    0.03326

  1    37     -3.67156    1.44293
  1    38     -3.61095    0.87053
  1    39     -3.58213    0.60440
  1    40     -3.53632    0.29536


Fermi level: -3.62397

No gap
Writing to output.gpw (mode='')


Forces in eV/Ang:
  0 Li    0.01824   -0.00110   -0.26357
  1 Li   -0.00039    0.00039   -0.27327
  2 Li   -0.01792   -0.00130   -0.26352
  3 Li   -0.00160    0.01605   -0.27481
  4 Li   -0.00011   -0.00121   -0.28286
  5 Li    0.00181    0.01646   -0.27456
  6 Li   -0.00371   -0.01227   -0.27128
  7 Li    0.00003    0.00256   -0.28200
  8 Li    0.00375   -0.01248   -0.27122
  9 Li   -0.00021   -0.02013    0.26328
 10 Li    0.00448   -0.01975    0.26758
 11 Li   -0.00403   -0.02043    0.26796
 12 Li    0.00003   -0.00303    0.29495
 13 Li    0.00612    0.00148    0.28358
 14 Li   -0.00578    0.00162    0.28385
 15 Li   -0.00026    0.00455    0.24118
 16 Li   -0.05849    0.00550    0.28776
 17 Li    0.05875    0.00603    0.28752
 18 Li    0.01273    0.01103    0.00036
 19 Li    0.00006    0.00977   -0.00008
 20 Li   -0.01336    0.01089   -0.00118
 21 Li   -0.00498    0.00307   -0.00337
 22 Li   -0.00028    0.00606    0.00377
 23 Li    0.00476    0.00330   -0.00357
 24 Li    0.01625   -0.00342    0.00313
 25 Li    0.00005   -0.00106    0.00233
 26 Li   -0.01683   -0.00341    0.00277
 27 Li    0.00169    0.01743   -0.01410
 28 Li   -0.00329   -0.00316   -0.00368
 29 Li    0.00235   -0.00434   -0.00440
 30 Li   -0.00000    0.00102    0.00190
 31 Li   -0.01004   -0.00839    0.00473
 32 Li    0.00936   -0.00745    0.00441
 33 Li   -0.00030   -0.00635   -0.01045
 34 Li   -0.00673    0.00394    0.00635
 35 Li    0.00737    0.00424    0.00635
 36 O     0.02994   -0.00949    0.00520
 37 O    -0.00668   -0.00637   -0.00234
 38 C    -0.00773   -0.01754    0.00527
 39 C     0.00234   -0.00207   -0.00791
 40 C     0.00105    0.02145    0.00074
 41 H     0.00382   -0.00011   -0.00309
 42 H    -0.00303   -0.00011   -0.01069
 43 H     0.00603    0.00647   -0.00004
 44 H    -0.01218   -0.01154   -0.00198
 45 H    -0.01123   -0.00911   -0.01497
 46 H     0.01995    0.00255    0.00800
 47 H    -0.00078    0.01654    0.00058
 48 H     0.00113    0.00923   -0.00297
 49 N    -0.00520    0.04096    0.03407
 50 N     0.02876   -0.01111   -0.00446

System changes: positions 

Initializing position-dependent things.

Density initialized from wave functions
       .-----------------------.  
      /|                       |  
     / |                       |  
    /  |                       |  
   /   |                       |  
  /    |                       O  
 *     C                       |  
 |     |H                   H  |  
 |     C                       |  
 |     |                       |  
 | H   |H                   H C|  
 |     |                       O  
 |     |                      H|  
 | H   |               H       |  
 |     |                       |  
 |     |                       |  
 |     |       Li      Li      Li 
 |     |                       |  
 |     |     Li      Li   N  Li|  
 |     |  Li              Ni   |  
 | Li  |   Li     LLi          |  
 |     |Li              Li     |  
 |     |        Li             |  
 |   Li|     Li      Li        |  
 |    Li  Li  Li  Li  Li  Li   |  
 | Li  |   Li      Li          |  
 |     |Li      Li      Li     |  
 Li    | Li      Li            |  
 |    Li      Li      Li       |  
 |     |                       |  
 |     |                       |  
 |     |                       |  
 |     |                       |  
 |     |                       |  
 |     |                       |  
 |     .-----------------------.  
 |    /                       /   
 |   /                       /    
 |  /                       /     
 | /                       /      
 |/                       /       
 *-----------------------*        

Positions:
   0 Li     1.617037    1.617037   10.000000    ( 0.0000,  0.0000,  0.0000)
   1 Li     4.851111    1.617037   10.000000    ( 0.0000,  0.0000,  0.0000)
   2 Li     8.085185    1.617037   10.000000    ( 0.0000,  0.0000,  0.0000)
   3 Li     1.617037    4.851111   10.000000    ( 0.0000,  0.0000,  0.0000)
   4 Li     4.851111    4.851111   10.000000    ( 0.0000,  0.0000,  0.0000)
   5 Li     8.085185    4.851111   10.000000    ( 0.0000,  0.0000,  0.0000)
   6 Li     1.617037    8.085185   10.000000    ( 0.0000,  0.0000,  0.0000)
   7 Li     4.851111    8.085185   10.000000    ( 0.0000,  0.0000,  0.0000)
   8 Li     8.085185    8.085185   10.000000    ( 0.0000,  0.0000,  0.0000)
   9 Li     0.000000    0.000000   11.617037    ( 0.0000,  0.0000,  0.0000)
  10 Li     3.234074    0.000000   11.617037    ( 0.0000,  0.0000,  0.0000)
  11 Li     6.468148    0.000000   11.617037    ( 0.0000,  0.0000,  0.0000)
  12 Li     0.000000    3.234074   11.617037    ( 0.0000,  0.0000,  0.0000)
  13 Li     3.234074    3.234074   11.617037    ( 0.0000,  0.0000,  0.0000)
  14 Li     6.468148    3.234074   11.617037    ( 0.0000,  0.0000,  0.0000)
  15 Li     0.000000    6.468148   11.617037    ( 0.0000,  0.0000,  0.0000)
  16 Li     3.234074    6.468148   11.617037    ( 0.0000,  0.0000,  0.0000)
  17 Li     6.468148    6.468148   11.617037    ( 0.0000,  0.0000,  0.0000)
  18 Li     1.593688    1.593492   13.466688    ( 0.0000,  0.0000,  0.0000)
  19 Li     4.851407    1.597546   13.464613    ( 0.0000,  0.0000,  0.0000)
  20 Li     8.108550    1.593734   13.466280    ( 0.0000,  0.0000,  0.0000)
  21 Li     1.582748    4.831747   13.510301    ( 0.0000,  0.0000,  0.0000)
  22 Li     4.851725    4.878632   13.450271    ( 0.0000,  0.0000,  0.0000)
  23 Li     8.119530    4.831653   13.510490    ( 0.0000,  0.0000,  0.0000)
  24 Li     1.573175    8.100210   13.524521    ( 0.0000,  0.0000,  0.0000)
  25 Li     4.850913    8.071637   13.462127    ( 0.0000,  0.0000,  0.0000)
  26 Li     8.128975    8.099963   13.525265    ( 0.0000,  0.0000,  0.0000)
  27 Li    -0.002052   -0.014199   15.599525    ( 0.0000,  0.0000,  0.0000)
  28 Li     3.272278   -0.014992   15.412809    ( 0.0000,  0.0000,  0.0000)
  29 Li     6.429013   -0.015580   15.413374    ( 0.0000,  0.0000,  0.0000)
  30 Li     0.001049    3.176679   15.542028    ( 0.0000,  0.0000,  0.0000)
  31 Li     3.295372    3.257835   15.355816    ( 0.0000,  0.0000,  0.0000)
  32 Li     6.407042    3.257874   15.356546    ( 0.0000,  0.0000,  0.0000)
  33 Li    -0.000075    6.446673   15.507821    ( 0.0000,  0.0000,  0.0000)
  34 Li     3.231174    6.468887   15.424596    ( 0.0000,  0.0000,  0.0000)
  35 Li     6.471402    6.469447   15.425689    ( 0.0000,  0.0000,  0.0000)
  36 O      9.666744    9.538134   20.098517    ( 0.0000,  0.0000,  0.0000)
  37 O      9.661988    9.550049   24.973218    ( 0.0000,  0.0000,  0.0000)
  38 C      9.707096    9.570394   22.499634    ( 0.0000,  0.0000,  0.0000)
  39 C      9.682239    8.689015   21.258331    ( 0.0000,  0.0000,  0.0000)
  40 C      9.747613    8.747761   23.788388    ( 0.0000,  0.0000,  0.0000)
  41 H     10.580705   10.229644   22.451464    ( 0.0000,  0.0000,  0.0000)
  42 H      8.818042   10.206258   22.509623    ( 0.0000,  0.0000,  0.0000)
  43 H     10.564828    8.035658   21.236917    ( 0.0000,  0.0000,  0.0000)
  44 H      8.789627    8.048847   21.273093    ( 0.0000,  0.0000,  0.0000)
  45 H     10.648607    8.120201   23.815701    ( 0.0000,  0.0000,  0.0000)
  46 H      8.882878    8.082372   23.835983    ( 0.0000,  0.0000,  0.0000)
  47 H      9.632223    8.972215   19.316407    ( 0.0000,  0.0000,  0.0000)
  48 H     10.473269   10.066889   25.045243    ( 0.0000,  0.0000,  0.0000)
  49 N      9.693172   11.062837   17.061457    ( 0.0000,  0.0000,  0.0000)
  50 N      9.688333   11.938750   17.772298    ( 0.0000,  0.0000,  0.0000)

Unit cell:
           periodic     x           y           z      points  spacing
  1. axis:    yes    9.702222    0.000000    0.000000    60     0.1617
  2. axis:    yes    0.000000    9.702222    0.000000    60     0.1617
  3. axis:    no     0.000000    0.000000   28.601111   180     0.1589

  Lengths:   9.702222   9.702222  28.601111
  Angles:   90.000000  90.000000  90.000000

Effective grid spacing dv^(1/3) = 0.1608

     iter     time        total  log10-change:
                         energy  eigst   dens
iter:   1 06:09:15  -352.346680  -3.15
iter:   2 06:09:23  -352.346550  -3.64  -2.77
iter:   3 06:09:31  -352.346278c -4.39  -2.89
iter:   4 06:09:45  -352.346267c -4.77  -3.24
Writing to output.gpw (mode='')

iter:   5 06:09:54  -352.346232c -4.45  -3.28
iter:   6 06:10:02  -352.346227c -4.12  -3.61
iter:   7 06:10:10  -352.346214c -5.01  -3.73
iter:   8 06:10:18  -352.346194c -5.30  -3.83
iter:   9 06:10:26  -352.346200c -5.47  -4.03c
Writing to output.gpw (mode='')

iter:  10 06:10:34  -352.346201c -5.84  -4.09c
iter:  11 06:10:42  -352.346208c -6.11  -4.12c
iter:  12 06:10:50  -352.346207c -6.51  -4.31c
iter:  13 06:10:58  -352.346204c -6.42  -4.36c
iter:  14 06:11:07  -352.346206c -6.43  -4.68c
Writing to output.gpw (mode='')

iter:  15 06:11:15  -352.346208c -6.73  -4.75c
iter:  16 06:11:23  -352.346206c -7.22  -4.82c
iter:  17 06:11:31  -352.346205c -7.22  -4.92c
iter:  18 06:11:39  -352.346205c -7.82c -5.08c

Converged after 18 iterations.

Dipole moment: (-21.294928, 23.896631, -0.230300) |e|*Ang

Energy contributions relative to reference atoms: (reference = -17528.314784)

Kinetic:       +178.166473
Potential:     -174.459445
External:        +0.000000
XC:            -357.147831
Entropy (-ST):   -0.147726
Local:           +1.168461
--------------------------
Free energy:   -352.420068
Extrapolated:  -352.346205

Dipole-layer corrected work functions: 3.402850, 3.845565 eV

Showing only first 2 kpts
 Kpt  Band  Eigenvalues  Occupancy
  0    37     -3.87069    1.98564
  0    38     -3.81787    1.95927
  0    39     -3.46952    0.08673
  0    40     -3.42011    0.03319

  1    37     -3.67163    1.44163
  1    38     -3.61123    0.87096
  1    39     -3.58239    0.60465
  1    40     -3.53649    0.29501


Fermi level: -3.62421

No gap
Writing to output.gpw (mode='')


Forces in eV/Ang:
  0 Li    0.01831   -0.00106   -0.26361
  1 Li   -0.00038    0.00043   -0.27317
  2 Li   -0.01799   -0.00127   -0.26357
  3 Li   -0.00161    0.01601   -0.27474
  4 Li   -0.00011   -0.00122   -0.28301
  5 Li    0.00183    0.01641   -0.27450
  6 Li   -0.00364   -0.01229   -0.27134
  7 Li    0.00003    0.00249   -0.28206
  8 Li    0.00368   -0.01249   -0.27130
  9 Li   -0.00020   -0.01998    0.26455
 10 Li    0.00485   -0.01972    0.26739
 11 Li   -0.00445   -0.02040    0.26772
 12 Li    0.00004   -0.00310    0.29459
 13 Li    0.00650    0.00218    0.28298
 14 Li   -0.00620    0.00232    0.28321
 15 Li   -0.00026    0.00499    0.24116
 16 Li   -0.05821    0.00531    0.28754
 17 Li    0.05844    0.00582    0.28731
 18 Li    0.01100    0.00992    0.00059
 19 Li    0.00004    0.00909    0.00004
 20 Li   -0.01159    0.00981   -0.00069
 21 Li   -0.00402    0.00273   -0.00297
 22 Li   -0.00027    0.00554    0.00401
 23 Li    0.00382    0.00292   -0.00314
 24 Li    0.01488   -0.00310    0.00256
 25 Li    0.00002   -0.00125    0.00211
 26 Li   -0.01539   -0.00307    0.00226
 27 Li    0.00152    0.01991   -0.00923
 28 Li   -0.00317   -0.00298   -0.00369
 29 Li    0.00235   -0.00403   -0.00440
 30 Li   -0.00000    0.00177    0.00073
 31 Li   -0.00895   -0.00725    0.00467
 32 Li    0.00834   -0.00641    0.00434
 33 Li   -0.00029   -0.00569   -0.01015
 34 Li   -0.00626    0.00337    0.00650
 35 Li    0.00687    0.00365    0.00649
 36 O     0.00719   -0.00396   -0.01050
 37 O     0.01024    0.00498   -0.00928
 38 C     0.00099    0.01114    0.00332
 39 C     0.00264   -0.01162    0.01540
 40 C    -0.00144   -0.01124   -0.00479
 41 H    -0.00335   -0.00170   -0.00775
 42 H    -0.00139    0.00044   -0.01060
 43 H     0.00355   -0.00788    0.00651
 44 H     0.00457   -0.00157   -0.00840
 45 H    -0.00274   -0.00256   -0.00959
 46 H    -0.00117   -0.00785    0.01056
 47 H    -0.00018    0.01888   -0.00532
 48 H    -0.00577    0.01061    0.00470
 49 N    -0.00251    0.01724    0.01286
 50 N     0.02809    0.00880    0.01408

Timing:                                      incl.     excl.
-------------------------------------------------------------------
Density initialized from wave functions:     6.198     6.195   0.0% |
 Symmetrize density:                         0.003     0.003   0.0% |
Forces:                                     56.558    56.558   0.2% |
Hamiltonian:                               648.476     0.015   0.0% |
 Atomic:                                     0.027     0.026   0.0% |
  XC Correction:                             0.000     0.000   0.0% |
 Calculate atomic Hamiltonians:              0.048     0.048   0.0% |
 Communicate:                                7.553     7.553   0.0% |
 Hartree integrate/restrict:                 2.312     2.312   0.0% |
 Initialize Hamiltonian:                     0.000     0.000   0.0% |
 Poisson:                                   31.831    11.952   0.0% |
  Communicate from 1D:                       3.140     3.140   0.0% |
  Communicate from 2D:                       3.089     3.089   0.0% |
  Communicate to 1D:                         1.771     1.771   0.0% |
  Communicate to 2D:                         3.431     3.431   0.0% |
  FFT 1D:                                    4.034     4.034   0.0% |
  FFT 2D:                                    4.414     4.414   0.0% |
 XC 3D grid:                               606.171   101.326   0.3% |
  VdW-DF integral:                         504.846     4.027   0.0% |
   Convolution:                             44.606    44.606   0.1% |
   FFT:                                     18.981    18.981   0.1% |
   gather:                                 165.414   165.414   0.6% |
   hmm1:                                    17.090    17.090   0.1% |
   hmm2:                                    22.430    22.430   0.1% |
   iFFT:                                    19.587    19.587   0.1% |
   potential:                              208.957     5.440   0.0% |
    collect:                                31.324    31.324   0.1% |
    p1:                                     92.517    92.517   0.3% |
    p2:                                     34.583    34.583   0.1% |
    sum:                                    45.093    45.093   0.2% |
   splines:                                  3.753     3.753   0.0% |
 vbar:                                       0.518     0.518   0.0% |
LCAO initialization:                         1.251     0.182   0.0% |
 LCAO eigensolver:                           0.209     0.000   0.0% |
  Calculate projections:                     0.000     0.000   0.0% |
  DenseAtomicCorrection:                     0.000     0.000   0.0% |
  Distribute overlap matrix:                 0.191     0.191   0.0% |
  Orbital Layouts:                           0.015     0.015   0.0% |
  Potential matrix:                          0.001     0.001   0.0% |
  Sum over cells:                            0.001     0.001   0.0% |
 LCAO to grid:                               0.750     0.750   0.0% |
 Set positions (LCAO WFS):                   0.109     0.065   0.0% |
  Basic WFS set positions:                   0.001     0.001   0.0% |
  Basis functions set positions:             0.000     0.000   0.0% |
  P tci:                                     0.000     0.000   0.0% |
  ST tci:                                    0.012     0.012   0.0% |
  mktci:                                     0.030     0.030   0.0% |
Redistribute:                                0.063     0.063   0.0% |
SCF-cycle:                               29126.514   493.313   1.6% ||
 Davidson:                                8532.809  2562.853   8.6% |--|
  Apply hamiltonian:                       545.324   545.324   1.8% ||
  Subspace diag:                          1589.900     0.409   0.0% |
   calc_h_matrix:                          832.922   279.163   0.9% |
    Apply hamiltonian:                     553.759   553.759   1.8% ||
   diagonalize:                             56.370    56.370   0.2% |
   rotate_psi:                             700.200   700.200   2.3% ||
  calc. matrices:                         2705.133  1392.695   4.6% |-|
   Apply hamiltonian:                     1312.439  1312.439   4.4% |-|
  diagonalize:                              24.791    24.791   0.1% |
  rotate_psi:                             1104.807  1104.807   3.7% ||
 Density:                                  150.947     0.101   0.0% |
  Atomic density matrices:                  20.399    20.399   0.1% |
  Mix:                                      64.922    64.922   0.2% |
  Multipole moments:                         4.907     4.907   0.0% |
  Pseudo density:                           60.618    60.535   0.2% |
   Symmetrize density:                       0.084     0.084   0.0% |
 Hamiltonian:                            19926.633     0.473   0.0% |
  Atomic:                                    0.886     0.877   0.0% |
   XC Correction:                            0.009     0.009   0.0% |
  Calculate atomic Hamiltonians:             1.457     1.457   0.0% |
  Communicate:                             271.350   271.350   0.9% |
  Hartree integrate/restrict:               73.709    73.709   0.2% |
  Poisson:                                 983.892   367.561   1.2% |
   Communicate from 1D:                     96.574    96.574   0.3% |
   Communicate from 2D:                     95.452    95.452   0.3% |
   Communicate to 1D:                       54.611    54.611   0.2% |
   Communicate to 2D:                      106.854   106.854   0.4% |
   FFT 1D:                                 125.677   125.677   0.4% |
   FFT 2D:                                 137.163   137.163   0.5% |
  XC 3D grid:                            18577.867  3105.237  10.4% |---|
   VdW-DF integral:                      15472.630   125.088   0.4% |
    Convolution:                          1380.527  1380.527   4.6% |-|
    FFT:                                   587.960   587.960   2.0% ||
    gather:                               5237.654  5237.654  17.5% |------|
    hmm1:                                  528.481   528.481   1.8% ||
    hmm2:                                  696.907   696.907   2.3% ||
    iFFT:                                  605.896   605.896   2.0% ||
    potential:                            6310.088   168.947   0.6% |
     collect:                              983.327   983.327   3.3% ||
     p1:                                  2870.118  2870.118   9.6% |---|
     p2:                                  1070.340  1070.340   3.6% ||
     sum:                                 1217.355  1217.355   4.1% |-|
    splines:                                 0.027     0.027   0.0% |
  vbar:                                     16.999    16.999   0.1% |
 Orthonormalize:                            22.811     0.016   0.0% |
  calc_s_matrix:                             3.618     3.618   0.0% |
  inverse-cholesky:                          5.768     5.768   0.0% |
  projections:                               0.003     0.003   0.0% |
  rotate_psi_s:                             13.407    13.407   0.0% |
Set symmetry:                                0.002     0.002   0.0% |
Other:                                     114.257   114.257   0.4% |
-------------------------------------------------------------------
Total:                                             29953.318 100.0%

Memory usage: 1.22 GiB
Date: Sat Mar 11 06:11:40 2023
