
  ___ ___ ___ _ _ _  
 |   |   |_  | | | | 
 | | | | | . | | | | 
 |__ |  _|___|_____|  22.8.0
 |___|_|             

User:   vazumah@f001
Date:   Wed Mar  1 22:06:43 2023
Arch:   x86_64
Pid:    1619
CWD:    /home/vazumah/Research_Projects/LiMEAS/LiNRR_proton_donors/N2_with_proton_donor/Li_BCC_100/adsorbates/CH3CH2OH_z/bridge/8.085_1.617/N2_x/barrier/8.42_2.97_15.78
Python: 3.10.6
gpaw:   /home/vazumah/anaconda3/envs/NAME/lib/python3.10/site-packages/gpaw
_gpaw:  /home/vazumah/anaconda3/envs/NAME/lib/python3.10/site-packages/
        _gpaw.cpython-310-x86_64-linux-gnu.so
ase:    /home/vazumah/anaconda3/envs/NAME/lib/python3.10/site-packages/ase (version 3.22.1)
numpy:  /home/vazumah/anaconda3/envs/NAME/lib/python3.10/site-packages/numpy (version 1.23.3)
scipy:  /home/vazumah/anaconda3/envs/NAME/lib/python3.10/site-packages/scipy (version 1.9.1)
libxc:  5.2.3
units:  Angstrom and eV
cores: 32
OpenMP: True
OMP_NUM_THREADS: 1

Input parameters:
  h: 0.16
  kpts: {size: [4, 4, 1]}
  occupations: {name: fermi-dirac,
                width: 0.05}
  poissonsolver: {dipolelayer: xy}
  xc: BEEF-vdW

System changes: positions, numbers, cell, pbc, initial_charges, initial_magmoms 

Initialize ...

species:
  Li:
    name: Lithium
    id: 830b4218f175192f93f959cfc0aad614
    Z: 3.0
    valence: 1
    core: 2
    charge: 0.0
    file: /home/vazumah/anaconda3/envs/NAME/share/gpaw/Li.PBE.gz
    compensation charges: {type: gauss,
                           rc: 0.33,
                           lmax: 2}
    cutoffs: {filter: 1.91,
              core: 2.55}
    valence states:
      #              energy  rcut
      - 2s(1.00)    -2.874   1.058
      - 2p(0.00)    -1.090   1.058
      -  s          24.337   1.058
  
    # Using partial waves for Li as LCAO basis

  O:
    name: Oxygen
    id: 32ecd46bf208036f09c70b0ec9a88b78
    Z: 8.0
    valence: 6
    core: 2
    charge: 0.0
    file: /home/vazumah/anaconda3/envs/NAME/share/gpaw/O.PBE.gz
    compensation charges: {type: gauss,
                           rc: 0.21,
                           lmax: 2}
    cutoffs: {filter: 1.17,
              core: 0.83}
    valence states:
      #              energy  rcut
      - 2s(2.00)   -23.961   0.688
      - 2p(4.00)    -9.029   0.598
      -  s           3.251   0.688
      -  p          18.182   0.598
      -  d           0.000   0.619
  
    # Using partial waves for O as LCAO basis

  C:
    name: Carbon
    id: 4aa54d4b901d75f77cc0ea3eec22967b
    Z: 6.0
    valence: 4
    core: 2
    charge: 0.0
    file: /home/vazumah/anaconda3/envs/NAME/share/gpaw/C.PBE.gz
    compensation charges: {type: gauss,
                           rc: 0.20,
                           lmax: 2}
    cutoffs: {filter: 1.14,
              core: 1.14}
    valence states:
      #              energy  rcut
      - 2s(2.00)   -13.751   0.635
      - 2p(2.00)    -5.284   0.635
      -  s          13.461   0.635
      -  p          21.927   0.635
      -  d           0.000   0.635
  
    # Using partial waves for C as LCAO basis

  H:
    name: Hydrogen
    id: d65de229564ff8ea4db303e23b6d1ecf
    Z: 1.0
    valence: 1
    core: 0
    charge: 0.0
    file: /home/vazumah/anaconda3/envs/NAME/share/gpaw/H.PBE.gz
    compensation charges: {type: gauss,
                           rc: 0.15,
                           lmax: 2}
    cutoffs: {filter: 0.85,
              core: 0.53}
    valence states:
      #              energy  rcut
      - 1s(1.00)    -6.494   0.476
      -  s          20.717   0.476
      -  p           0.000   0.476
  
    # Using partial waves for H as LCAO basis

  N:
    name: Nitrogen
    id: f7500608b86eaa90eef8b1d9a670dc53
    Z: 7.0
    valence: 5
    core: 2
    charge: 0.0
    file: /home/vazumah/anaconda3/envs/NAME/share/gpaw/N.PBE.gz
    compensation charges: {type: gauss,
                           rc: 0.18,
                           lmax: 2}
    cutoffs: {filter: 1.11,
              core: 0.96}
    valence states:
      #              energy  rcut
      - 2s(2.00)   -18.583   0.603
      - 2p(3.00)    -7.089   0.529
      -  s           8.629   0.603
      -  p          20.123   0.529
      -  d           0.000   0.577
  
    # Using partial waves for N as LCAO basis

Reference energy: -14434.854043  # eV

Spin-paired calculation

Convergence criteria:
 Maximum [total energy] change in last 3 cyles: 0.0005 eV / electron
 Maximum integral of absolute [dens]ity change: 0.0001 electrons / valence electron
 Maximum integral of absolute [eigenst]ate change: 4e-08 eV^2 / valence electron
 Maximum number of scf [iter]ations: 333
 (Square brackets indicate name in SCF output, whereas a 'c' in
 the SCF output indicates the quantity has converged.)

Symmetries present (total): 1

  ( 1  0  0)
  ( 0  1  0)
  ( 0  0  1)

16 k-points: 4 x 4 x 1 Monkhorst-Pack grid
8 k-points in the irreducible part of the Brillouin zone
       k-points in crystal coordinates                weights
   0:     0.12500000   -0.37500000    0.00000000          2/16
   1:     0.12500000   -0.12500000    0.00000000          2/16
   2:     0.12500000    0.12500000    0.00000000          2/16
   3:     0.12500000    0.37500000    0.00000000          2/16
   4:     0.37500000   -0.37500000    0.00000000          2/16
   5:     0.37500000   -0.12500000    0.00000000          2/16
   6:     0.37500000    0.12500000    0.00000000          2/16
   7:     0.37500000    0.37500000    0.00000000          2/16

Wave functions: Uniform real-space grid
  Kinetic energy operator: 6*3+1=19 point O(h^6) finite-difference Laplacian
  ScaLapack parameters: grid=1x1, blocksize=None
  Wavefunction extrapolation:
    Improved wavefunction reuse through dual PAW basis 

Occupation numbers: Fermi-Dirac:
  width: 0.0500  # eV
 

Eigensolver
   Davidson(niter=2) 

Densities:
  Coarse grid: 60*60*156 grid
  Fine grid: 120*120*312 grid
  Total Charge: 0.000000 

Density mixing:
  Method: separate
  Backend: pulay
  Linear mixing parameter: 0.05
  old densities: 5
  Damping of long wavelength oscillations: 50 

Hamiltonian:
  XC and Coulomb potentials evaluated on a 120*120*312 grid
  Using the BEEF-vdW Exchange-Correlation functional
  Interpolation: tri-quintic (5. degree polynomial)
  Poisson solver: FastPoissonSolver using
    Stencil: 6*3+1=19 point O(h^6) finite-difference Laplacian
    FFT axes: [0, 1]
    FST axes: [2]

Dipole correction along z-axis 

XC parameters: BEEF-vdW with 2 nearest neighbor stencil

Memory estimate:
  Process memory now: 212.63 MiB
  Calculator: 307.36 MiB
    Density: 88.33 MiB
      Arrays: 27.47 MiB
      Localized functions: 50.43 MiB
      Mixer: 10.44 MiB
    Hamiltonian: 21.95 MiB
      Arrays: 17.96 MiB
      XC: 0.00 MiB
      Poisson: 0.00 MiB
      vbar: 3.99 MiB
    Wavefunctions: 197.08 MiB
      Arrays psit_nG: 91.85 MiB
      Eigensolver: 102.58 MiB
      Projections: 0.05 MiB
      Projectors: 2.60 MiB

Total number of cores used: 32
Parallelization over k-points: 8
Domain decomposition: 1 x 1 x 4

Number of atoms: 47
Number of atomic orbitals: 170
Number of bands in calculation: 44
Number of valence electrons: 66
Bands to converge: occupied

... initialized

Initializing position-dependent things.

Density initialized from atomic densities
Creating initial wave functions:
  44 bands from LCAO basis set

       .-----------------------.  
      /|                       |  
     / |                       |  
    /  |                       |  
   /   |                       |  
  /    |                       |  
 *     |                       |  
 |     |                       |  
 |     |                       |  
 |     |                       |  
 |     |           H  H H      |  
 |     |             C         |  
 |     |       Li H    Li      |  
 |     |          H C  H       |  
 |   Li|     Li      Li        |  
 |     |  Li      LiLi  N Li   |  
 |  Li |    Li                 |  
 |N    |Li      Li      Li     |  
 |     |                 Li    |  
 |   LLi     LLi     LLi       |  
 |     |  Li      Li      Li   |  
 | Li  |   Li      Li          |  
 |     |Li      Li      Li     |  
 Li    | Li      Li            |  
 |    Li      Li      Li       |  
 |     |                       |  
 |     |                       |  
 |     |                       |  
 |     |                       |  
 |     |                       |  
 |     |                       |  
 |     .-----------------------.  
 |    /                       /   
 |   /                       /    
 |  /                       /     
 | /                       /      
 |/                       /       
 *-----------------------*        

Positions:
   0 Li     1.617037    1.617037   10.000000    ( 0.0000,  0.0000,  0.0000)
   1 Li     4.851111    1.617037   10.000000    ( 0.0000,  0.0000,  0.0000)
   2 Li     8.085185    1.617037   10.000000    ( 0.0000,  0.0000,  0.0000)
   3 Li     1.617037    4.851111   10.000000    ( 0.0000,  0.0000,  0.0000)
   4 Li     4.851111    4.851111   10.000000    ( 0.0000,  0.0000,  0.0000)
   5 Li     8.085185    4.851111   10.000000    ( 0.0000,  0.0000,  0.0000)
   6 Li     1.617037    8.085185   10.000000    ( 0.0000,  0.0000,  0.0000)
   7 Li     4.851111    8.085185   10.000000    ( 0.0000,  0.0000,  0.0000)
   8 Li     8.085185    8.085185   10.000000    ( 0.0000,  0.0000,  0.0000)
   9 Li     0.000000    0.000000   11.617037    ( 0.0000,  0.0000,  0.0000)
  10 Li     3.234074    0.000000   11.617037    ( 0.0000,  0.0000,  0.0000)
  11 Li     6.468148    0.000000   11.617037    ( 0.0000,  0.0000,  0.0000)
  12 Li     0.000000    3.234074   11.617037    ( 0.0000,  0.0000,  0.0000)
  13 Li     3.234074    3.234074   11.617037    ( 0.0000,  0.0000,  0.0000)
  14 Li     6.468148    3.234074   11.617037    ( 0.0000,  0.0000,  0.0000)
  15 Li     0.000000    6.468148   11.617037    ( 0.0000,  0.0000,  0.0000)
  16 Li     3.234074    6.468148   11.617037    ( 0.0000,  0.0000,  0.0000)
  17 Li     6.468148    6.468148   11.617037    ( 0.0000,  0.0000,  0.0000)
  18 Li     1.665476    1.646605   13.478570    ( 0.0000,  0.0000,  0.0000)
  19 Li     4.952245    1.583733   13.556254    ( 0.0000,  0.0000,  0.0000)
  20 Li     8.087999    1.598335   13.562666    ( 0.0000,  0.0000,  0.0000)
  21 Li     1.683062    4.863988   13.497936    ( 0.0000,  0.0000,  0.0000)
  22 Li     4.928552    4.799202   13.483123    ( 0.0000,  0.0000,  0.0000)
  23 Li     8.128551    4.751446   13.530912    ( 0.0000,  0.0000,  0.0000)
  24 Li     1.607727    8.103887   13.481905    ( 0.0000,  0.0000,  0.0000)
  25 Li     4.825819    7.992194   13.493215    ( 0.0000,  0.0000,  0.0000)
  26 Li     8.072457    8.025416   13.499146    ( 0.0000,  0.0000,  0.0000)
  27 Li    -0.095575    0.053597   15.425829    ( 0.0000,  0.0000,  0.0000)
  28 Li     3.187534   -0.030191   15.434694    ( 0.0000,  0.0000,  0.0000)
  29 Li     6.443061   -0.289417   15.450339    ( 0.0000,  0.0000,  0.0000)
  30 Li     0.233239    3.186901   15.475375    ( 0.0000,  0.0000,  0.0000)
  31 Li     3.424301    3.304742   15.450019    ( 0.0000,  0.0000,  0.0000)
  32 Li     6.913998    2.758107   16.081893    ( 0.0000,  0.0000,  0.0000)
  33 Li     0.057705    6.469195   15.410291    ( 0.0000,  0.0000,  0.0000)
  34 Li     3.232747    6.490421   15.473579    ( 0.0000,  0.0000,  0.0000)
  35 Li     6.402890    6.221734   15.485528    ( 0.0000,  0.0000,  0.0000)
  36 O      6.901716    2.759913   18.082228    ( 0.0000,  0.0000,  0.0000)
  37 C      7.442073    1.627911   18.815540    ( 0.0000,  0.0000,  0.0000)
  38 C      7.721131    1.956131   20.270996    ( 0.0000,  0.0000,  0.0000)
  39 H      6.756007    0.777881   18.725103    ( 0.0000,  0.0000,  0.0000)
  40 H      8.363831    1.375588   18.293683    ( 0.0000,  0.0000,  0.0000)
  41 H      8.146456    1.079982   20.767394    ( 0.0000,  0.0000,  0.0000)
  42 H      8.434800    2.777758   20.353999    ( 0.0000,  0.0000,  0.0000)
  43 H      6.805753    2.223131   20.805922    ( 0.0000,  0.0000,  0.0000)
  44 H      6.077583    3.036661   18.504576    ( 0.0000,  0.0000,  0.0000)
  45 N      8.424729    2.972504   15.778634    ( 0.0000,  0.0000,  0.0000)
  46 N      9.771054    1.620249   15.450602    ( 0.0000,  0.0000,  0.0000)

Unit cell:
           periodic     x           y           z      points  spacing
  1. axis:    yes    9.702222    0.000000    0.000000    60     0.1617
  2. axis:    yes    0.000000    9.702222    0.000000    60     0.1617
  3. axis:    no     0.000000    0.000000   24.851111   156     0.1593

  Lengths:   9.702222   9.702222  24.851111
  Angles:   90.000000  90.000000  90.000000

Effective grid spacing dv^(1/3) = 0.1609

     iter     time        total  log10-change:
                         energy  eigst   dens
iter:   1 22:07:28  -462.804793
iter:   2 22:07:54  -151.070080  +2.35  -0.08
iter:   3 22:08:20  -129.677395  +3.15  -0.24
iter:   4 22:08:46  -171.269421  +2.68  -0.35
Writing to output.gpw (mode='')

iter:   5 22:09:12  -213.598371  +2.59  -0.49
iter:   6 22:09:38  -256.631851  +2.60  -0.61
iter:   7 22:10:04  -307.620770  +2.52  -0.76
iter:   8 22:10:30  -326.597780  +2.16  -0.63
iter:   9 22:10:56  -326.499703  +1.79  -0.61
Writing to output.gpw (mode='')

iter:  10 22:11:22  -331.490336  +1.41  -0.70
iter:  11 22:11:48  -353.523631  +1.77  -0.67
iter:  12 22:12:14  -350.327267  +1.29  -0.57
iter:  13 22:12:40  -317.500230  +1.47  -0.54
iter:  14 22:13:06  -307.211901  +0.75  -0.54
Writing to output.gpw (mode='')

iter:  15 22:13:32  -307.096743  +0.20  -0.84
iter:  16 22:13:58  -306.747236  +0.27  -0.84
iter:  17 22:14:24  -306.650795  -0.08  -0.86
iter:  18 22:14:50  -305.135886  +0.21  -0.87
iter:  19 22:15:16  -305.684687  +0.56  -1.00
Writing to output.gpw (mode='')

iter:  20 22:15:43  -304.371655  +0.59  -1.04
iter:  21 22:16:09  -304.236653  -0.52  -1.09
iter:  22 22:16:35  -304.116259  +0.05  -1.19
iter:  23 22:17:00  -304.014866  +0.02  -1.27
iter:  24 22:17:26  -304.069346  -0.24  -1.46
Writing to output.gpw (mode='')

iter:  25 22:17:53  -303.904880  -0.69  -1.51
iter:  26 22:18:19  -303.885775  -0.92  -1.62
iter:  27 22:18:44  -303.896034c -1.19  -1.82
iter:  28 22:19:10  -303.877513c -1.34  -1.92
iter:  29 22:19:36  -303.876078c -1.54  -2.02
Writing to output.gpw (mode='')

iter:  30 22:20:02  -303.868710c -1.46  -2.10
iter:  31 22:20:28  -303.865524c -1.50  -2.24
iter:  32 22:20:54  -303.865958c -2.22  -2.41
iter:  33 22:21:20  -303.866315c -2.28  -2.48
iter:  34 22:21:46  -303.866635c -2.52  -2.70
Writing to output.gpw (mode='')

iter:  35 22:22:12  -303.866951c -2.50  -2.71
iter:  36 22:22:38  -303.867294c -2.75  -2.75
iter:  37 22:23:04  -303.867459c -3.00  -2.88
iter:  38 22:23:30  -303.867613c -3.07  -2.97
iter:  39 22:23:56  -303.867750c -3.20  -3.05
Writing to output.gpw (mode='')

iter:  40 22:24:22  -303.867856c -3.23  -3.23
iter:  41 22:24:48  -303.867977c -3.47  -3.36
iter:  42 22:25:14  -303.868041c -3.42  -3.52
iter:  43 22:25:40  -303.868101c -3.59  -3.51
iter:  44 22:26:05  -303.868153c -3.67  -3.53
Writing to output.gpw (mode='')

iter:  45 22:26:31  -303.868196c -3.78  -3.55
iter:  46 22:26:57  -303.868219c -3.91  -3.64
iter:  47 22:27:23  -303.868250c -4.02  -3.68
iter:  48 22:27:49  -303.868278c -3.95  -3.80
iter:  49 22:28:15  -303.868296c -4.19  -3.91
Writing to output.gpw (mode='')

iter:  50 22:28:41  -303.868308c -4.45  -3.86
iter:  51 22:29:07  -303.868318c -4.35  -3.95
iter:  52 22:29:33  -303.868326c -4.60  -3.98
iter:  53 22:29:59  -303.868336c -4.61  -3.92
iter:  54 22:30:25  -303.868341c -4.54  -4.01c
Writing to output.gpw (mode='')

iter:  55 22:30:51  -303.868349c -4.68  -4.00c
iter:  56 22:31:17  -303.868349c -4.79  -3.98
iter:  57 22:31:42  -303.868357c -4.55  -3.98
iter:  58 22:32:08  -303.868354c -5.04  -3.98
iter:  59 22:32:34  -303.868365c -4.96  -3.88
Writing to output.gpw (mode='')

iter:  60 22:33:00  -303.868369c -5.15  -3.98
iter:  61 22:33:26  -303.868370c -5.32  -3.97
iter:  62 22:33:52  -303.868373c -5.30  -3.95
iter:  63 22:34:18  -303.868374c -5.20  -3.95
iter:  64 22:34:44  -303.868371c -5.29  -3.88
Writing to output.gpw (mode='')

iter:  65 22:35:10  -303.868372c -5.61  -4.01c
iter:  66 22:35:36  -303.868369c -5.48  -3.98
iter:  67 22:36:02  -303.868367c -5.37  -4.06c
iter:  68 22:36:28  -303.868369c -5.46  -4.03c
iter:  69 22:36:54  -303.868370c -5.74  -3.96
Writing to output.gpw (mode='')

iter:  70 22:37:20  -303.868376c -5.41  -4.02c
iter:  71 22:37:46  -303.868376c -5.62  -3.88
iter:  72 22:38:11  -303.868375c -5.57  -3.82
iter:  73 22:38:38  -303.868375c -5.52  -4.02c
iter:  74 22:39:03  -303.868372c -5.52  -4.09c
Writing to output.gpw (mode='')

iter:  75 22:39:30  -303.868374c -5.62  -4.14c
iter:  76 22:39:56  -303.868374c -6.02  -4.12c
iter:  77 22:40:21  -303.868376c -6.03  -4.24c
iter:  78 22:40:47  -303.868372c -6.27  -4.30c
iter:  79 22:41:13  -303.868371c -6.16  -4.53c
Writing to output.gpw (mode='')

iter:  80 22:41:39  -303.868372c -6.45  -4.65c
iter:  81 22:42:05  -303.868372c -6.26  -4.76c
iter:  82 22:42:31  -303.868372c -6.62  -4.81c
iter:  83 22:42:57  -303.868374c -6.42  -4.88c
iter:  84 22:43:23  -303.868374c -6.84  -4.99c
Writing to output.gpw (mode='')

iter:  85 22:43:49  -303.868374c -6.95  -5.11c
iter:  86 22:44:15  -303.868374c -6.87  -5.09c
iter:  87 22:44:41  -303.868374c -6.80  -5.21c
iter:  88 22:45:07  -303.868374c -6.79  -5.29c
iter:  89 22:45:33  -303.868374c -7.21  -5.29c
Writing to output.gpw (mode='')

iter:  90 22:45:59  -303.868374c -7.08  -5.51c
iter:  91 22:46:25  -303.868374c -7.37  -5.66c
iter:  92 22:46:50  -303.868374c -7.28  -5.73c
iter:  93 22:47:17  -303.868374c -7.52c -5.65c

Converged after 93 iterations.

Dipole moment: (-14.213689, -0.148329, 0.262010) |e|*Ang

Energy contributions relative to reference atoms: (reference = -14434.854043)

Kinetic:       +163.054895
Potential:     -148.576925
External:        +0.000000
XC:            -319.078168
Entropy (-ST):   -0.167181
Local:           +0.815415
--------------------------
Free energy:   -303.951964
Extrapolated:  -303.868374

Dipole-layer corrected work functions: 3.414690, 2.911016 eV

Showing only first 2 kpts
 Kpt  Band  Eigenvalues  Occupancy
  0    31     -3.33185    1.93415
  0    32     -3.21138    1.45044
  0    33     -3.14801    0.85265
  0    34     -2.99008    0.06122

  1    31     -3.41516    1.98721
  1    32     -3.16049    0.97633
  1    33     -3.10373    0.46921
  1    34     -3.02078    0.11026


Fermi level: -3.16285

No gap
Writing to output.gpw (mode='')


Forces in eV/Ang:
  0 Li    0.00308    0.00009   -0.27771
  1 Li   -0.00165    0.00364   -0.30369
  2 Li   -0.01409    0.00397   -0.24296
  3 Li    0.00092    0.00339   -0.28180
  4 Li   -0.00953    0.00395   -0.27145
  5 Li   -0.00888    0.00294   -0.27201
  6 Li   -0.00036   -0.00803   -0.26716
  7 Li    0.00614    0.00596   -0.28870
  8 Li   -0.00435   -0.00468   -0.30127
  9 Li   -0.04524    0.01318    0.29437
 10 Li    0.02742    0.00030    0.33188
 11 Li    0.05500    0.01166    0.30673
 12 Li    0.04580    0.02723    0.13958
 13 Li    0.03405   -0.04539    0.31386
 14 Li    0.02707   -0.05744    0.19068
 15 Li   -0.01615   -0.06931    0.32887
 16 Li    0.03877    0.00201    0.21502
 17 Li    0.01785   -0.05327    0.29385
 18 Li   -0.45233    0.01689    0.53735
 19 Li   -0.04979   -0.01641   -0.02821
 20 Li    0.48822    0.33724    0.95177
 21 Li    0.12325    0.11443   -0.13063
 22 Li   -0.11313   -0.00337   -0.00744
 23 Li    0.00369   -0.27202    0.35615
 24 Li   -0.00550   -0.11110   -0.03898
 25 Li    0.04307    0.07401    0.03530
 26 Li   -0.03519   -0.09194   -0.05865
 27 Li   -0.25101   -4.07968    0.07012
 28 Li    0.03946    0.02333    0.04191
 29 Li   -0.05757   -0.02695    0.00652
 30 Li    5.16936    5.09451   -0.62216
 31 Li   -0.01863   -0.03409    0.01379
 32 Li   -4.46528   -0.35994    1.18302
 33 Li   -0.05109   -0.00131    0.05131
 34 Li    0.01620   -0.00625   -0.02307
 35 Li    0.01451    0.09666    0.01903
 36 O    -0.30558   -0.06783    0.19207
 37 C     0.04053    0.11539   -0.06197
 38 C    -0.01495   -0.03945    0.03367
 39 H    -0.04620   -0.03246    0.04717
 40 H     0.02084    0.05413   -0.09340
 41 H     0.00909   -0.00550    0.00199
 42 H    -0.03206    0.01655   -0.00845
 43 H    -0.00038    0.03866   -0.00529
 44 H    -0.08400   -0.05310    0.15330
 45 N     2.00426   -2.18477   -1.91279
 46 N    -2.09377    1.57798   -0.56938

System changes: positions 

Initializing position-dependent things.

Density initialized from wave functions
       .-----------------------.  
      /|                       |  
     / |                       |  
    /  |                       |  
   /   |                       |  
  /    |                       |  
 *     |                       |  
 |     |                       |  
 |     |                       |  
 |     |                       |  
 |     |           H  H H      |  
 |     |             C         |  
 |     |       Li H    Li      |  
 |     |          H C  H       |  
 |   Li|     Li      Li        |  
 |     |  Li      LiLi  N Li   |  
 |  Li |    Li                 |  
 |N    |Li      Li      Li     |  
 |     |                 Li    |  
 |   LLi     LLi     LLi       |  
 |     |  Li      Li      Li   |  
 | Li  |   Li      Li          |  
 |     |Li      Li      Li     |  
 Li    | Li      Li            |  
 |    Li      Li      Li       |  
 |     |                       |  
 |     |                       |  
 |     |                       |  
 |     |                       |  
 |     |                       |  
 |     |                       |  
 |     .-----------------------.  
 |    /                       /   
 |   /                       /    
 |  /                       /     
 | /                       /      
 |/                       /       
 *-----------------------*        

Positions:
   0 Li     1.617037    1.617037   10.000000    ( 0.0000,  0.0000,  0.0000)
   1 Li     4.851111    1.617037   10.000000    ( 0.0000,  0.0000,  0.0000)
   2 Li     8.085185    1.617037   10.000000    ( 0.0000,  0.0000,  0.0000)
   3 Li     1.617037    4.851111   10.000000    ( 0.0000,  0.0000,  0.0000)
   4 Li     4.851111    4.851111   10.000000    ( 0.0000,  0.0000,  0.0000)
   5 Li     8.085185    4.851111   10.000000    ( 0.0000,  0.0000,  0.0000)
   6 Li     1.617037    8.085185   10.000000    ( 0.0000,  0.0000,  0.0000)
   7 Li     4.851111    8.085185   10.000000    ( 0.0000,  0.0000,  0.0000)
   8 Li     8.085185    8.085185   10.000000    ( 0.0000,  0.0000,  0.0000)
   9 Li     0.000000    0.000000   11.617037    ( 0.0000,  0.0000,  0.0000)
  10 Li     3.234074    0.000000   11.617037    ( 0.0000,  0.0000,  0.0000)
  11 Li     6.468148    0.000000   11.617037    ( 0.0000,  0.0000,  0.0000)
  12 Li     0.000000    3.234074   11.617037    ( 0.0000,  0.0000,  0.0000)
  13 Li     3.234074    3.234074   11.617037    ( 0.0000,  0.0000,  0.0000)
  14 Li     6.468148    3.234074   11.617037    ( 0.0000,  0.0000,  0.0000)
  15 Li     0.000000    6.468148   11.617037    ( 0.0000,  0.0000,  0.0000)
  16 Li     3.234074    6.468148   11.617037    ( 0.0000,  0.0000,  0.0000)
  17 Li     6.468148    6.468148   11.617037    ( 0.0000,  0.0000,  0.0000)
  18 Li     1.662992    1.646698   13.481521    ( 0.0000,  0.0000,  0.0000)
  19 Li     4.951971    1.583643   13.556099    ( 0.0000,  0.0000,  0.0000)
  20 Li     8.090680    1.600187   13.567892    ( 0.0000,  0.0000,  0.0000)
  21 Li     1.683739    4.864616   13.497219    ( 0.0000,  0.0000,  0.0000)
  22 Li     4.927931    4.799183   13.483082    ( 0.0000,  0.0000,  0.0000)
  23 Li     8.128572    4.749952   13.532867    ( 0.0000,  0.0000,  0.0000)
  24 Li     1.607697    8.103277   13.481691    ( 0.0000,  0.0000,  0.0000)
  25 Li     4.826056    7.992600   13.493409    ( 0.0000,  0.0000,  0.0000)
  26 Li     8.072264    8.024912   13.498824    ( 0.0000,  0.0000,  0.0000)
  27 Li    -0.096953    0.031195   15.426214    ( 0.0000,  0.0000,  0.0000)
  28 Li     3.187751   -0.030063   15.434924    ( 0.0000,  0.0000,  0.0000)
  29 Li     6.442745   -0.289565   15.450375    ( 0.0000,  0.0000,  0.0000)
  30 Li     0.261625    3.214876   15.471959    ( 0.0000,  0.0000,  0.0000)
  31 Li     3.424199    3.304555   15.450095    ( 0.0000,  0.0000,  0.0000)
  32 Li     6.889478    2.756131   16.088389    ( 0.0000,  0.0000,  0.0000)
  33 Li     0.057424    6.469187   15.410573    ( 0.0000,  0.0000,  0.0000)
  34 Li     3.232836    6.490386   15.473452    ( 0.0000,  0.0000,  0.0000)
  35 Li     6.402970    6.222265   15.485632    ( 0.0000,  0.0000,  0.0000)
  36 O      6.900038    2.759541   18.083282    ( 0.0000,  0.0000,  0.0000)
  37 C      7.442296    1.628544   18.815200    ( 0.0000,  0.0000,  0.0000)
  38 C      7.721049    1.955915   20.271181    ( 0.0000,  0.0000,  0.0000)
  39 H      6.755754    0.777703   18.725362    ( 0.0000,  0.0000,  0.0000)
  40 H      8.363945    1.375885   18.293170    ( 0.0000,  0.0000,  0.0000)
  41 H      8.146506    1.079952   20.767405    ( 0.0000,  0.0000,  0.0000)
  42 H      8.434624    2.777849   20.353952    ( 0.0000,  0.0000,  0.0000)
  43 H      6.805751    2.223344   20.805893    ( 0.0000,  0.0000,  0.0000)
  44 H      6.077121    3.036369   18.505418    ( 0.0000,  0.0000,  0.0000)
  45 N      8.435735    2.960507   15.768131    ( 0.0000,  0.0000,  0.0000)
  46 N      9.759557    1.628914   15.447475    ( 0.0000,  0.0000,  0.0000)

Unit cell:
           periodic     x           y           z      points  spacing
  1. axis:    yes    9.702222    0.000000    0.000000    60     0.1617
  2. axis:    yes    0.000000    9.702222    0.000000    60     0.1617
  3. axis:    no     0.000000    0.000000   24.851111   156     0.1593

  Lengths:   9.702222   9.702222  24.851111
  Angles:   90.000000  90.000000  90.000000

Effective grid spacing dv^(1/3) = 0.1609

     iter     time        total  log10-change:
                         energy  eigst   dens
iter:   1 22:47:52  -304.552621  -0.69
iter:   2 22:48:17  -304.491128  -0.99  -1.61
iter:   3 22:48:43  -304.459989  -1.86  -1.79
iter:   4 22:49:09  -304.457964  -2.09  -2.27
Writing to output.gpw (mode='')

iter:   5 22:49:35  -304.453036c -1.69  -2.35
iter:   6 22:50:01  -304.452177c -2.25  -2.40
iter:   7 22:50:27  -304.451583c -2.57  -2.58
iter:   8 22:50:53  -304.451619c -2.83  -2.74
iter:   9 22:51:19  -304.451524c -3.09  -2.79
Writing to output.gpw (mode='')

iter:  10 22:51:45  -304.451576c -3.40  -2.96
iter:  11 22:52:11  -304.451633c -3.56  -3.10
iter:  12 22:52:37  -304.451622c -3.78  -3.13
iter:  13 22:53:03  -304.451663c -3.95  -3.32
iter:  14 22:53:28  -304.451649c -4.35  -3.41
Writing to output.gpw (mode='')

iter:  15 22:53:54  -304.451647c -4.44  -3.53
iter:  16 22:54:20  -304.451666c -4.64  -3.71
iter:  17 22:54:46  -304.451662c -4.71  -3.78
iter:  18 22:55:12  -304.451660c -4.99  -4.06c
iter:  19 22:55:38  -304.451657c -5.00  -4.10c
Writing to output.gpw (mode='')

iter:  20 22:56:04  -304.451659c -5.15  -4.19c
iter:  21 22:56:30  -304.451659c -5.31  -4.27c
iter:  22 22:56:55  -304.451661c -5.62  -4.30c
iter:  23 22:57:21  -304.451660c -5.70  -4.39c
iter:  24 22:57:47  -304.451660c -5.69  -4.46c
Writing to output.gpw (mode='')

iter:  25 22:58:13  -304.451660c -6.00  -4.51c
iter:  26 22:58:39  -304.451662c -5.95  -4.62c
iter:  27 22:59:05  -304.451662c -6.31  -4.75c
iter:  28 22:59:31  -304.451662c -6.36  -4.82c
iter:  29 22:59:57  -304.451662c -6.47  -4.98c
Writing to output.gpw (mode='')

iter:  30 23:00:23  -304.451663c -6.42  -5.02c
iter:  31 23:00:48  -304.451663c -6.72  -5.03c
iter:  32 23:01:14  -304.451663c -6.99  -5.06c
iter:  33 23:01:40  -304.451662c -6.87  -5.24c
iter:  34 23:02:06  -304.451662c -7.10  -5.26c
Writing to output.gpw (mode='')

iter:  35 23:02:32  -304.451662c -6.96  -5.26c
iter:  36 23:02:58  -304.451663c -7.00  -5.21c
iter:  37 23:03:24  -304.451663c -7.22  -5.23c
iter:  38 23:03:50  -304.451663c -7.44c -5.25c

Converged after 38 iterations.

Dipole moment: (-13.562289, 0.109790, 0.269092) |e|*Ang

Energy contributions relative to reference atoms: (reference = -14434.854043)

Kinetic:       +159.229956
Potential:     -145.970237
External:        +0.000000
XC:            -318.431507
Entropy (-ST):   -0.167716
Local:           +0.803983
--------------------------
Free energy:   -304.535521
Extrapolated:  -304.451663

Dipole-layer corrected work functions: 3.412795, 2.895508 eV

Showing only first 2 kpts
 Kpt  Band  Eigenvalues  Occupancy
  0    31     -3.32030    1.93041
  0    32     -3.19815    1.41362
  0    33     -3.13997    0.85916
  0    34     -2.98445    0.06496

  1    31     -3.41036    1.98817
  1    32     -3.15281    0.98661
  1    33     -3.08788    0.41985
  1    34     -3.01285    0.11186


Fermi level: -3.15415

No gap
Writing to output.gpw (mode='')


Forces in eV/Ang:
  0 Li    0.00233   -0.00038   -0.27785
  1 Li   -0.00173    0.00374   -0.30358
  2 Li   -0.01391    0.00362   -0.24325
  3 Li    0.00097    0.00373   -0.28237
  4 Li   -0.01041    0.00313   -0.27084
  5 Li   -0.00902    0.00265   -0.27219
  6 Li   -0.00127   -0.00879   -0.26748
  7 Li    0.00578    0.00614   -0.28860
  8 Li   -0.00400   -0.00460   -0.30173
  9 Li   -0.04616    0.01312    0.29631
 10 Li    0.02684    0.00201    0.33306
 11 Li    0.05667    0.01279    0.31010
 12 Li    0.04583    0.02680    0.14146
 13 Li    0.03163   -0.04622    0.31414
 14 Li    0.02737   -0.05828    0.19439
 15 Li   -0.01661   -0.07025    0.32824
 16 Li    0.04077    0.00277    0.21450
 17 Li    0.01778   -0.05321    0.29373
 18 Li   -0.44609    0.01650    0.52885
 19 Li   -0.04810   -0.01498   -0.02583
 20 Li    0.48318    0.33415    0.95065
 21 Li    0.12940    0.12148   -0.13673
 22 Li   -0.10845   -0.00404   -0.00508
 23 Li    0.00530   -0.26826    0.34902
 24 Li   -0.00343   -0.11000   -0.04026
 25 Li    0.04179    0.07308    0.03373
 26 Li   -0.03570   -0.09211   -0.05993
 27 Li   -0.16518   -3.35894    0.08332
 28 Li    0.04724    0.02148    0.04074
 29 Li   -0.05932   -0.02929    0.00433
 30 Li    4.57031    4.47358   -0.49806
 31 Li   -0.00899   -0.03076    0.01087
 32 Li   -3.54698   -0.22108    0.98419
 33 Li   -0.04726    0.00250    0.04799
 34 Li    0.00989   -0.01057   -0.02121
 35 Li    0.01306    0.10067    0.01727
 36 O    -0.25548   -0.05662    0.14736
 37 C     0.01702    0.06793   -0.04123
 38 C    -0.00714   -0.02384    0.02131
 39 H    -0.02653   -0.01478    0.04636
 40 H     0.01708    0.05999   -0.09385
 41 H     0.00958   -0.00902    0.00241
 42 H    -0.03318    0.01296   -0.00512
 43 H    -0.00246    0.03619   -0.00514
 44 H    -0.12454   -0.03975    0.18148
 45 N     1.72061   -2.38802   -1.86176
 46 N    -2.27314    1.56510   -0.55367

System changes: positions 

Initializing position-dependent things.

Density initialized from wave functions
       .-----------------------.  
      /|                       |  
     / |                       |  
    /  |                       |  
   /   |                       |  
  /    |                       |  
 *     |                       |  
 |     |                       |  
 |     |                       |  
 |     |                       |  
 |     |           H  H H      |  
 |     |             C         |  
 |     |       Li H    Li      |  
 |     |          H C  H       |  
 |   Li|     Li      Li        |  
 |     |  Li      LiLi    Li   |  
 |  Li |    Li          N      |  
 |N    |Li      Li      Li     |  
 |     |                 Li    |  
 |   LLi     LLi     LLi       |  
 |     |  Li      Li      Li   |  
 | Li  |   Li      Li          |  
 |     |Li      Li      Li     |  
 Li    | Li      Li            |  
 |    Li      Li      Li       |  
 |     |                       |  
 |     |                       |  
 |     |                       |  
 |     |                       |  
 |     |                       |  
 |     |                       |  
 |     .-----------------------.  
 |    /                       /   
 |   /                       /    
 |  /                       /     
 | /                       /      
 |/                       /       
 *-----------------------*        

Positions:
   0 Li     1.617037    1.617037   10.000000    ( 0.0000,  0.0000,  0.0000)
   1 Li     4.851111    1.617037   10.000000    ( 0.0000,  0.0000,  0.0000)
   2 Li     8.085185    1.617037   10.000000    ( 0.0000,  0.0000,  0.0000)
   3 Li     1.617037    4.851111   10.000000    ( 0.0000,  0.0000,  0.0000)
   4 Li     4.851111    4.851111   10.000000    ( 0.0000,  0.0000,  0.0000)
   5 Li     8.085185    4.851111   10.000000    ( 0.0000,  0.0000,  0.0000)
   6 Li     1.617037    8.085185   10.000000    ( 0.0000,  0.0000,  0.0000)
   7 Li     4.851111    8.085185   10.000000    ( 0.0000,  0.0000,  0.0000)
   8 Li     8.085185    8.085185   10.000000    ( 0.0000,  0.0000,  0.0000)
   9 Li     0.000000    0.000000   11.617037    ( 0.0000,  0.0000,  0.0000)
  10 Li     3.234074    0.000000   11.617037    ( 0.0000,  0.0000,  0.0000)
  11 Li     6.468148    0.000000   11.617037    ( 0.0000,  0.0000,  0.0000)
  12 Li     0.000000    3.234074   11.617037    ( 0.0000,  0.0000,  0.0000)
  13 Li     3.234074    3.234074   11.617037    ( 0.0000,  0.0000,  0.0000)
  14 Li     6.468148    3.234074   11.617037    ( 0.0000,  0.0000,  0.0000)
  15 Li     0.000000    6.468148   11.617037    ( 0.0000,  0.0000,  0.0000)
  16 Li     3.234074    6.468148   11.617037    ( 0.0000,  0.0000,  0.0000)
  17 Li     6.468148    6.468148   11.617037    ( 0.0000,  0.0000,  0.0000)
  18 Li     1.659840    1.646814   13.485251    ( 0.0000,  0.0000,  0.0000)
  19 Li     4.951638    1.583545   13.555930    ( 0.0000,  0.0000,  0.0000)
  20 Li     8.094106    1.602559   13.574694    ( 0.0000,  0.0000,  0.0000)
  21 Li     1.684707    4.865535   13.496197    ( 0.0000,  0.0000,  0.0000)
  22 Li     4.927186    4.799150   13.483062    ( 0.0000,  0.0000,  0.0000)
  23 Li     8.128621    4.748056   13.535318    ( 0.0000,  0.0000,  0.0000)
  24 Li     1.607686    8.102496   13.481394    ( 0.0000,  0.0000,  0.0000)
  25 Li     4.826346    7.993117   13.493640    ( 0.0000,  0.0000,  0.0000)
  26 Li     8.072005    8.024251   13.498386    ( 0.0000,  0.0000,  0.0000)
  27 Li    -0.097550    0.012066   15.426901    ( 0.0000,  0.0000,  0.0000)
  28 Li     3.188142   -0.029921   15.435208    ( 0.0000,  0.0000,  0.0000)
  29 Li     6.442308   -0.289790   15.450391    ( 0.0000,  0.0000,  0.0000)
  30 Li     0.290262    3.242670   15.469240    ( 0.0000,  0.0000,  0.0000)
  31 Li     3.424200    3.304357   15.450153    ( 0.0000,  0.0000,  0.0000)
  32 Li     6.870354    2.755497   16.094078    ( 0.0000,  0.0000,  0.0000)
  33 Li     0.057112    6.469231   15.410894    ( 0.0000,  0.0000,  0.0000)
  34 Li     3.232864    6.490281   15.473313    ( 0.0000,  0.0000,  0.0000)
  35 Li     6.403053    6.223014   15.485744    ( 0.0000,  0.0000,  0.0000)
  36 O      6.898551    2.759212   18.084032    ( 0.0000,  0.0000,  0.0000)
  37 C      7.442257    1.628706   18.815046    ( 0.0000,  0.0000,  0.0000)
  38 C      7.721051    1.955851   20.271249    ( 0.0000,  0.0000,  0.0000)
  39 H      6.755698    0.777718   18.725689    ( 0.0000,  0.0000,  0.0000)
  40 H      8.364042    1.376355   18.292495    ( 0.0000,  0.0000,  0.0000)
  41 H      8.146578    1.079863   20.767425    ( 0.0000,  0.0000,  0.0000)
  42 H      8.434378    2.777917   20.353938    ( 0.0000,  0.0000,  0.0000)
  43 H      6.805719    2.223586   20.805857    ( 0.0000,  0.0000,  0.0000)
  44 H      6.075952    3.036176   18.506910    ( 0.0000,  0.0000,  0.0000)
  45 N      8.446119    2.942014   15.755145    ( 0.0000,  0.0000,  0.0000)
  46 N      9.742049    1.640035   15.443617    ( 0.0000,  0.0000,  0.0000)

Unit cell:
           periodic     x           y           z      points  spacing
  1. axis:    yes    9.702222    0.000000    0.000000    60     0.1617
  2. axis:    yes    0.000000    9.702222    0.000000    60     0.1617
  3. axis:    no     0.000000    0.000000   24.851111   156     0.1593

  Lengths:   9.702222   9.702222  24.851111
  Angles:   90.000000  90.000000  90.000000

Effective grid spacing dv^(1/3) = 0.1609

     iter     time        total  log10-change:
                         energy  eigst   dens
iter:   1 23:04:25  -305.105802  -0.71
iter:   2 23:04:50  -305.033981  -0.96  -1.60
iter:   3 23:05:16  -304.993962  -1.84  -1.74
iter:   4 23:05:42  -304.990654  -2.03  -2.21
Writing to output.gpw (mode='')

iter:   5 23:06:08  -304.984626c -1.60  -2.33
iter:   6 23:06:34  -304.983113c -2.26  -2.36
iter:   7 23:07:00  -304.982389c -2.50  -2.55
iter:   8 23:07:26  -304.982415c -2.76  -2.73
iter:   9 23:07:51  -304.982298c -3.07  -2.77
Writing to output.gpw (mode='')

iter:  10 23:08:17  -304.982312c -3.27  -2.90
iter:  11 23:08:43  -304.982374c -3.51  -3.09
iter:  12 23:09:09  -304.982355c -3.77  -3.10
iter:  13 23:09:35  -304.982387c -3.90  -3.24
iter:  14 23:10:01  -304.982389c -4.27  -3.38
Writing to output.gpw (mode='')

iter:  15 23:10:27  -304.982388c -4.36  -3.43
iter:  16 23:10:53  -304.982377c -4.40  -3.63
iter:  17 23:11:18  -304.982380c -4.68  -3.77
iter:  18 23:11:44  -304.982379c -4.89  -3.83
iter:  19 23:12:10  -304.982381c -4.96  -3.91
Writing to output.gpw (mode='')

iter:  20 23:12:36  -304.982381c -5.18  -4.01c
iter:  21 23:13:02  -304.982382c -5.31  -4.20c
iter:  22 23:13:28  -304.982384c -5.35  -4.25c
iter:  23 23:13:54  -304.982384c -5.41  -4.45c
iter:  24 23:14:20  -304.982385c -5.53  -4.50c
Writing to output.gpw (mode='')

iter:  25 23:14:46  -304.982385c -5.72  -4.55c
iter:  26 23:15:12  -304.982385c -5.72  -4.65c
iter:  27 23:15:38  -304.982384c -5.88  -4.73c
iter:  28 23:16:04  -304.982385c -6.07  -4.82c
iter:  29 23:16:30  -304.982385c -6.38  -4.83c
Writing to output.gpw (mode='')

iter:  30 23:16:56  -304.982384c -6.44  -4.95c
iter:  31 23:17:21  -304.982385c -6.53  -5.05c
iter:  32 23:17:47  -304.982385c -6.69  -5.17c
iter:  33 23:18:13  -304.982385c -6.87  -5.36c
iter:  34 23:18:39  -304.982385c -6.92  -5.41c
Writing to output.gpw (mode='')

iter:  35 23:19:05  -304.982385c -6.79  -5.41c
iter:  36 23:19:31  -304.982385c -7.01  -5.35c
iter:  37 23:19:57  -304.982385c -7.13  -5.42c
iter:  38 23:20:23  -304.982385c -7.13  -5.35c
iter:  39 23:20:49  -304.982385c -7.31  -5.40c
Writing to output.gpw (mode='')

iter:  40 23:21:15  -304.982385c -7.43c -5.46c

Converged after 40 iterations.

Dipole moment: (-12.319071, 0.322236, 0.277911) |e|*Ang

Energy contributions relative to reference atoms: (reference = -14434.854043)

Kinetic:       +155.882778
Potential:     -143.694389
External:        +0.000000
XC:            -317.881297
Entropy (-ST):   -0.168298
Local:           +0.794673
--------------------------
Free energy:   -305.066534
Extrapolated:  -304.982385

Dipole-layer corrected work functions: 3.410342, 2.876101 eV

Showing only first 2 kpts
 Kpt  Band  Eigenvalues  Occupancy
  0    31     -3.30624    1.92609
  0    32     -3.18235    1.37247
  0    33     -3.12916    0.86026
  0    34     -2.97767    0.07038

  1    31     -3.40414    1.98923
  1    32     -3.14346    1.00244
  1    33     -3.06929    0.37129
  1    34     -3.00236    0.11279


Fermi level: -3.14322

Gap: 0.014 eV
Transition (v -> c):
  (s=0, k=1, n=32, [0.12, -0.12, 0.00]) -> (s=0, k=0, n=33, [0.12, -0.38, 0.00])

Forces in eV/Ang:
  0 Li    0.00130   -0.00092   -0.27805
  1 Li   -0.00181    0.00375   -0.30339
  2 Li   -0.01349    0.00341   -0.24362
  3 Li    0.00091    0.00413   -0.28298
  4 Li   -0.01144    0.00221   -0.27012
  5 Li   -0.00911    0.00213   -0.27238
  6 Li   -0.00227   -0.00967   -0.26782
  7 Li    0.00519    0.00622   -0.28827
  8 Li   -0.00360   -0.00452   -0.30215
  9 Li   -0.04732    0.01331    0.29864
 10 Li    0.02600    0.00410    0.33451
 11 Li    0.05867    0.01424    0.31448
 12 Li    0.04595    0.02625    0.14283
 13 Li    0.02884   -0.04723    0.31470
 14 Li    0.02785   -0.05926    0.19901
 15 Li   -0.01705   -0.07167    0.32766
 16 Li    0.04311    0.00363    0.21405
 17 Li    0.01792   -0.05327    0.29363
 18 Li   -0.43626    0.01673    0.51533
 19 Li   -0.04606   -0.01318   -0.02339
 20 Li    0.47439    0.32948    0.94639
 21 Li    0.13529    0.12802   -0.14191
 22 Li   -0.10275   -0.00408   -0.00321
 23 Li    0.00653   -0.26205    0.33903
 24 Li   -0.00132   -0.10764   -0.04110
 25 Li    0.04031    0.07164    0.03196
 26 Li   -0.03530   -0.09119   -0.06035
 27 Li   -0.08402   -2.75485    0.09057
 28 Li    0.05709    0.01779    0.03876
 29 Li   -0.06113   -0.03120    0.00208
 30 Li    3.97634    3.92262   -0.37254
 31 Li    0.00253   -0.02645    0.00758
 32 Li   -2.88210   -0.10509    0.83416
 33 Li   -0.04268    0.00858    0.04412
 34 Li    0.00302   -0.01510   -0.01900
 35 Li    0.01108    0.10524    0.01521
 36 O    -0.25333   -0.03908    0.13473
 37 C     0.01799    0.05059   -0.03152
 38 C    -0.00697   -0.02147    0.01638
 39 H    -0.02113   -0.01352    0.04432
 40 H     0.00759    0.06253   -0.08858
 41 H     0.00831   -0.00733    0.00116
 42 H    -0.03022    0.01385   -0.00348
 43 H    -0.00149    0.03334   -0.00647
 44 H    -0.11665   -0.03987    0.17873
 45 N     1.73138   -2.63159   -1.83485
 46 N    -2.50644    1.60553   -0.48906

System changes: positions 

Initializing position-dependent things.

Density initialized from wave functions
       .-----------------------.  
      /|                       |  
     / |                       |  
    /  |                       |  
   /   |                       |  
  /    |                       |  
 *     |                       |  
 |     |                       |  
 |     |                       |  
 |     |                       |  
 |     |           H  H H      |  
 |     |             C         |  
 |     |       Li H    Li      Li 
 |     |          H C  H       |  
 |   Li|     Li      Li        |  
 |     |  Li      LiLi    Li   |  
 |  Li |    Li          N      |  
 |N    |Li      Li      Li     |  
 |     |                       |  
 |   LLi     LLi     LLi       |  
 |     |  Li      Li      Li   |  
 | Li  |   Li      Li          |  
 |     |Li      Li      Li     |  
 Li    | Li      Li            |  
 |    Li      Li      Li       |  
 |     |                       |  
 |     |                       |  
 |     |                       |  
 |     |                       |  
 |     |                       |  
 |     |                       |  
 |     .-----------------------.  
 |    /                       /   
 |   /                       /    
 |  /                       /     
 | /                       /      
 |/                       /       
 *-----------------------*        

Positions:
   0 Li     1.617037    1.617037   10.000000    ( 0.0000,  0.0000,  0.0000)
   1 Li     4.851111    1.617037   10.000000    ( 0.0000,  0.0000,  0.0000)
   2 Li     8.085185    1.617037   10.000000    ( 0.0000,  0.0000,  0.0000)
   3 Li     1.617037    4.851111   10.000000    ( 0.0000,  0.0000,  0.0000)
   4 Li     4.851111    4.851111   10.000000    ( 0.0000,  0.0000,  0.0000)
   5 Li     8.085185    4.851111   10.000000    ( 0.0000,  0.0000,  0.0000)
   6 Li     1.617037    8.085185   10.000000    ( 0.0000,  0.0000,  0.0000)
   7 Li     4.851111    8.085185   10.000000    ( 0.0000,  0.0000,  0.0000)
   8 Li     8.085185    8.085185   10.000000    ( 0.0000,  0.0000,  0.0000)
   9 Li     0.000000    0.000000   11.617037    ( 0.0000,  0.0000,  0.0000)
  10 Li     3.234074    0.000000   11.617037    ( 0.0000,  0.0000,  0.0000)
  11 Li     6.468148    0.000000   11.617037    ( 0.0000,  0.0000,  0.0000)
  12 Li     0.000000    3.234074   11.617037    ( 0.0000,  0.0000,  0.0000)
  13 Li     3.234074    3.234074   11.617037    ( 0.0000,  0.0000,  0.0000)
  14 Li     6.468148    3.234074   11.617037    ( 0.0000,  0.0000,  0.0000)
  15 Li     0.000000    6.468148   11.617037    ( 0.0000,  0.0000,  0.0000)
  16 Li     3.234074    6.468148   11.617037    ( 0.0000,  0.0000,  0.0000)
  17 Li     6.468148    6.468148   11.617037    ( 0.0000,  0.0000,  0.0000)
  18 Li     1.656116    1.646959   13.489634    ( 0.0000,  0.0000,  0.0000)
  19 Li     4.951256    1.583447   13.555751    ( 0.0000,  0.0000,  0.0000)
  20 Li     8.098175    1.605395   13.582926    ( 0.0000,  0.0000,  0.0000)
  21 Li     1.685952    4.866723   13.494899    ( 0.0000,  0.0000,  0.0000)
  22 Li     4.926343    4.799111   13.483056    ( 0.0000,  0.0000,  0.0000)
  23 Li     8.128693    4.745821   13.538188    ( 0.0000,  0.0000,  0.0000)
  24 Li     1.607697    8.101575   13.481024    ( 0.0000,  0.0000,  0.0000)
  25 Li     4.826684    7.993730   13.493901    ( 0.0000,  0.0000,  0.0000)
  26 Li     8.071696    8.023458   13.497850    ( 0.0000,  0.0000,  0.0000)
  27 Li    -0.097405   -0.004986   15.427801    ( 0.0000,  0.0000,  0.0000)
  28 Li     3.188733   -0.029795   15.435530    ( 0.0000,  0.0000,  0.0000)
  29 Li     6.441755   -0.290085   15.450386    ( 0.0000,  0.0000,  0.0000)
  30 Li     0.318701    3.270732   15.467299    ( 0.0000,  0.0000,  0.0000)
  31 Li     3.424333    3.304166   15.450187    ( 0.0000,  0.0000,  0.0000)
  32 Li     6.853589    2.755925   16.099512    ( 0.0000,  0.0000,  0.0000)
  33 Li     0.056783    6.469357   15.411241    ( 0.0000,  0.0000,  0.0000)
  34 Li     3.232821    6.490103   15.473169    ( 0.0000,  0.0000,  0.0000)
  35 Li     6.403132    6.223977   15.485857    ( 0.0000,  0.0000,  0.0000)
  36 O      6.896629    2.759020   18.084897    ( 0.0000,  0.0000,  0.0000)
  37 C      7.442288    1.628798   18.814935    ( 0.0000,  0.0000,  0.0000)
  38 C      7.721035    1.955762   20.271299    ( 0.0000,  0.0000,  0.0000)
  39 H      6.755650    0.777704   18.726061    ( 0.0000,  0.0000,  0.0000)
  40 H      8.364040    1.376946   18.291745    ( 0.0000,  0.0000,  0.0000)
  41 H      8.146647    1.079788   20.767431    ( 0.0000,  0.0000,  0.0000)
  42 H      8.434123    2.778023   20.353935    ( 0.0000,  0.0000,  0.0000)
  43 H      6.805699    2.223849   20.805795    ( 0.0000,  0.0000,  0.0000)
  44 H      6.074748    3.035902   18.508613    ( 0.0000,  0.0000,  0.0000)
  45 N      8.459707    2.916712   15.739548    ( 0.0000,  0.0000,  0.0000)
  46 N      9.718023    1.654177   15.439756    ( 0.0000,  0.0000,  0.0000)

Unit cell:
           periodic     x           y           z      points  spacing
  1. axis:    yes    9.702222    0.000000    0.000000    60     0.1617
  2. axis:    yes    0.000000    9.702222    0.000000    60     0.1617
  3. axis:    no     0.000000    0.000000   24.851111   156     0.1593

  Lengths:   9.702222   9.702222  24.851111
  Angles:   90.000000  90.000000  90.000000

Effective grid spacing dv^(1/3) = 0.1609

     iter     time        total  log10-change:
                         energy  eigst   dens
iter:   1 23:21:50  -305.703276  -0.66
iter:   2 23:22:16  -305.595071  -0.80  -1.52
iter:   3 23:22:41  -305.528727  -1.71  -1.64
iter:   4 23:23:07  -305.522834  -1.89  -2.12
Writing to output.gpw (mode='')

iter:   5 23:23:33  -305.514637c -1.56  -2.27
iter:   6 23:23:59  -305.511979c -1.93  -2.30
iter:   7 23:24:25  -305.510946c -2.36  -2.50
iter:   8 23:24:51  -305.510952c -2.69  -2.69
iter:   9 23:25:17  -305.510822c -3.03  -2.72
Writing to output.gpw (mode='')

iter:  10 23:25:43  -305.510833c -3.37  -2.85
iter:  11 23:26:09  -305.510888c -3.34  -2.98
iter:  12 23:26:35  -305.510857c -3.49  -3.07
iter:  13 23:27:01  -305.510860c -4.03  -3.15
iter:  14 23:27:27  -305.510874c -4.04  -3.23
Writing to output.gpw (mode='')

iter:  15 23:27:53  -305.510870c -4.46  -3.40
iter:  16 23:28:19  -305.510865c -4.51  -3.44
iter:  17 23:28:44  -305.510847c -4.45  -3.60
iter:  18 23:29:10  -305.510859c -4.81  -3.74
iter:  19 23:29:36  -305.510860c -4.91  -3.83
Writing to output.gpw (mode='')

iter:  20 23:30:02  -305.510853c -5.06  -3.91
iter:  21 23:30:28  -305.510856c -5.28  -3.95
iter:  22 23:30:54  -305.510860c -5.29  -4.04c
iter:  23 23:31:20  -305.510858c -5.87  -4.10c
iter:  24 23:31:46  -305.510860c -5.81  -4.19c
Writing to output.gpw (mode='')

iter:  25 23:32:13  -305.510863c -5.68  -4.29c
iter:  26 23:32:39  -305.510861c -6.12  -4.46c
iter:  27 23:33:05  -305.510859c -6.17  -4.57c
iter:  28 23:33:31  -305.510860c -6.41  -4.73c
iter:  29 23:33:57  -305.510860c -6.57  -4.80c
Writing to output.gpw (mode='')

iter:  30 23:34:23  -305.510860c -6.66  -4.85c
iter:  31 23:34:49  -305.510859c -6.72  -4.90c
iter:  32 23:35:14  -305.510859c -6.98  -4.98c
iter:  33 23:35:40  -305.510860c -6.85  -5.14c
iter:  34 23:36:06  -305.510860c -7.17  -5.30c
Writing to output.gpw (mode='')

iter:  35 23:36:33  -305.510860c -7.26  -5.33c
iter:  36 23:36:59  -305.510860c -7.33  -5.31c
iter:  37 23:37:25  -305.510860c -7.50c -5.36c

Converged after 37 iterations.

Dipole moment: (-10.249897, 0.493578, 0.289506) |e|*Ang

Energy contributions relative to reference atoms: (reference = -14434.854043)

Kinetic:       +152.890917
Potential:     -141.680381
External:        +0.000000
XC:            -317.425062
Entropy (-ST):   -0.169087
Local:           +0.788210
--------------------------
Free energy:   -305.595403
Extrapolated:  -305.510860

Dipole-layer corrected work functions: 3.407021, 2.850490 eV

Showing only first 2 kpts
 Kpt  Band  Eigenvalues  Occupancy
  0    31     -3.28836    1.92107
  0    32     -3.16241    1.32435
  0    33     -3.11400    0.85350
  0    34     -2.96886    0.07849

  1    31     -3.39583    1.99047
  1    32     -3.13141    1.02658
  1    33     -3.04627    0.32230
  1    34     -2.98814    0.11331


Fermi level: -3.12876

Gap: 0.017 eV
Transition (v -> c):
  (s=0, k=1, n=32, [0.12, -0.12, 0.00]) -> (s=0, k=0, n=33, [0.12, -0.38, 0.00])
Writing to output.gpw (mode='')


Forces in eV/Ang:
  0 Li   -0.00012   -0.00153   -0.27822
  1 Li   -0.00198    0.00374   -0.30300
  2 Li   -0.01276    0.00329   -0.24412
  3 Li    0.00075    0.00445   -0.28374
  4 Li   -0.01263    0.00110   -0.26925
  5 Li   -0.00921    0.00129   -0.27267
  6 Li   -0.00348   -0.01063   -0.26824
  7 Li    0.00427    0.00619   -0.28758
  8 Li   -0.00314   -0.00446   -0.30246
  9 Li   -0.04861    0.01362    0.30150
 10 Li    0.02496    0.00667    0.33618
 11 Li    0.06098    0.01594    0.32010
 12 Li    0.04603    0.02556    0.14356
 13 Li    0.02554   -0.04828    0.31538
 14 Li    0.02858   -0.06029    0.20493
 15 Li   -0.01738   -0.07338    0.32703
 16 Li    0.04590    0.00451    0.21402
 17 Li    0.01823   -0.05326    0.29335
 18 Li   -0.42091    0.01732    0.49550
 19 Li   -0.04350   -0.01077   -0.02034
 20 Li    0.45931    0.32096    0.93301
 21 Li    0.14052    0.13376   -0.14601
 22 Li   -0.09538   -0.00382   -0.00120
 23 Li    0.00741   -0.25127    0.32387
 24 Li    0.00094   -0.10351   -0.04134
 25 Li    0.03842    0.06973    0.02963
 26 Li   -0.03387   -0.08895   -0.05959
 27 Li   -0.00644   -2.21785    0.08979
 28 Li    0.06930    0.01243    0.03596
 29 Li   -0.06423   -0.03435   -0.00069
 30 Li    3.46530    3.44189   -0.26641
 31 Li    0.01617   -0.02127    0.00370
 32 Li   -2.29278    0.00369    0.69204
 33 Li   -0.03736    0.01731    0.03964
 34 Li   -0.00447   -0.01987   -0.01635
 35 Li    0.00825    0.11079    0.01270
 36 O    -0.22917   -0.03207    0.11222
 37 C     0.00914    0.03862   -0.02226
 38 C    -0.00388   -0.01692    0.01200
 39 H    -0.01444   -0.01180    0.04168
 40 H     0.00122    0.06398   -0.08410
 41 H     0.00722   -0.00616    0.00037
 42 H    -0.02818    0.01343   -0.00183
 43 H    -0.00111    0.03009   -0.00813
 44 H    -0.12325   -0.03481    0.18112
 45 N     1.82170   -2.92735   -1.82726
 46 N    -2.75594    1.66554   -0.42182

System changes: positions 

Initializing position-dependent things.

Density initialized from wave functions
       .-----------------------.  
      /|                       |  
     / |                       |  
    /  |                       |  
   /   |                       |  
  /    |                       |  
 *     |                       |  
 |     |                       |  
 |     |                       |  
 |     |                       |  
 |     |           H  H H      |  
 |     |             C         |  
 |     |       Li H    Li      Li 
 |     |          H C  H       |  
 |   Li|     Li      Li        |  
 |     |  Li      LiLi    Li   |  
 |  Li |    Li          N      |  
 |     |Li      Li      LiN    |  
 |     |                       |  
 |   LLi     LLi     LLi       |  
 |     |  Li      Li      Li   |  
 | Li  |   Li      Li          |  
 |     |Li      Li      Li     |  
 Li    | Li      Li            |  
 |    Li      Li      Li       |  
 |     |                       |  
 |     |                       |  
 |     |                       |  
 |     |                       |  
 |     |                       |  
 |     |                       |  
 |     .-----------------------.  
 |    /                       /   
 |   /                       /    
 |  /                       /     
 | /                       /      
 |/                       /       
 *-----------------------*        

Positions:
   0 Li     1.617037    1.617037   10.000000    ( 0.0000,  0.0000,  0.0000)
   1 Li     4.851111    1.617037   10.000000    ( 0.0000,  0.0000,  0.0000)
   2 Li     8.085185    1.617037   10.000000    ( 0.0000,  0.0000,  0.0000)
   3 Li     1.617037    4.851111   10.000000    ( 0.0000,  0.0000,  0.0000)
   4 Li     4.851111    4.851111   10.000000    ( 0.0000,  0.0000,  0.0000)
   5 Li     8.085185    4.851111   10.000000    ( 0.0000,  0.0000,  0.0000)
   6 Li     1.617037    8.085185   10.000000    ( 0.0000,  0.0000,  0.0000)
   7 Li     4.851111    8.085185   10.000000    ( 0.0000,  0.0000,  0.0000)
   8 Li     8.085185    8.085185   10.000000    ( 0.0000,  0.0000,  0.0000)
   9 Li     0.000000    0.000000   11.617037    ( 0.0000,  0.0000,  0.0000)
  10 Li     3.234074    0.000000   11.617037    ( 0.0000,  0.0000,  0.0000)
  11 Li     6.468148    0.000000   11.617037    ( 0.0000,  0.0000,  0.0000)
  12 Li     0.000000    3.234074   11.617037    ( 0.0000,  0.0000,  0.0000)
  13 Li     3.234074    3.234074   11.617037    ( 0.0000,  0.0000,  0.0000)
  14 Li     6.468148    3.234074   11.617037    ( 0.0000,  0.0000,  0.0000)
  15 Li     0.000000    6.468148   11.617037    ( 0.0000,  0.0000,  0.0000)
  16 Li     3.234074    6.468148   11.617037    ( 0.0000,  0.0000,  0.0000)
  17 Li     6.468148    6.468148   11.617037    ( 0.0000,  0.0000,  0.0000)
  18 Li     1.652058    1.647130   13.494395    ( 0.0000,  0.0000,  0.0000)
  19 Li     4.950847    1.583359   13.555577    ( 0.0000,  0.0000,  0.0000)
  20 Li     8.102622    1.608514   13.592087    ( 0.0000,  0.0000,  0.0000)
  21 Li     1.687399    4.868112   13.493403    ( 0.0000,  0.0000,  0.0000)
  22 Li     4.925460    4.799070   13.483066    ( 0.0000,  0.0000,  0.0000)
  23 Li     8.128779    4.743404   13.541283    ( 0.0000,  0.0000,  0.0000)
  24 Li     1.607728    8.100576   13.480606    ( 0.0000,  0.0000,  0.0000)
  25 Li     4.827048    7.994405   13.494175    ( 0.0000,  0.0000,  0.0000)
  26 Li     8.071364    8.022588   13.497257    ( 0.0000,  0.0000,  0.0000)
  27 Li    -0.096623   -0.020341   15.428767    ( 0.0000,  0.0000,  0.0000)
  28 Li     3.189515   -0.029706   15.435867    ( 0.0000,  0.0000,  0.0000)
  29 Li     6.441099   -0.290449   15.450355    ( 0.0000,  0.0000,  0.0000)
  30 Li     0.347025    3.298941   15.465898    ( 0.0000,  0.0000,  0.0000)
  31 Li     3.424608    3.303998   15.450190    ( 0.0000,  0.0000,  0.0000)
  32 Li     6.838711    2.757236   16.104608    ( 0.0000,  0.0000,  0.0000)
  33 Li     0.056460    6.469588   15.411594    ( 0.0000,  0.0000,  0.0000)
  34 Li     3.232707    6.489860   15.473030    ( 0.0000,  0.0000,  0.0000)
  35 Li     6.403194    6.225118   15.485961    ( 0.0000,  0.0000,  0.0000)
  36 O      6.894662    2.758827   18.085705    ( 0.0000,  0.0000,  0.0000)
  37 C      7.442252    1.628880   18.814863    ( 0.0000,  0.0000,  0.0000)
  38 C      7.721040    1.955684   20.271335    ( 0.0000,  0.0000,  0.0000)
  39 H      6.755630    0.777676   18.726456    ( 0.0000,  0.0000,  0.0000)
  40 H      8.363989    1.377616   18.290941    ( 0.0000,  0.0000,  0.0000)
  41 H      8.146714    1.079719   20.767431    ( 0.0000,  0.0000,  0.0000)
  42 H      8.433854    2.778141   20.353941    ( 0.0000,  0.0000,  0.0000)
  43 H      6.805683    2.224118   20.805706    ( 0.0000,  0.0000,  0.0000)
  44 H      6.073355    3.035631   18.510527    ( 0.0000,  0.0000,  0.0000)
  45 N      8.476697    2.885341   15.721834    ( 0.0000,  0.0000,  0.0000)
  46 N      9.688608    1.670854   15.436040    ( 0.0000,  0.0000,  0.0000)

Unit cell:
           periodic     x           y           z      points  spacing
  1. axis:    yes    9.702222    0.000000    0.000000    60     0.1617
  2. axis:    yes    0.000000    9.702222    0.000000    60     0.1617
  3. axis:    no     0.000000    0.000000   24.851111   156     0.1593

  Lengths:   9.702222   9.702222  24.851111
  Angles:   90.000000  90.000000  90.000000

Effective grid spacing dv^(1/3) = 0.1609

     iter     time        total  log10-change:
                         energy  eigst   dens
iter:   1 23:38:00  -306.357610  -0.60
iter:   2 23:38:26  -306.194178  -0.61  -1.43
iter:   3 23:38:52  -306.079597  -1.54  -1.53
iter:   4 23:39:18  -306.069870  -1.78  -2.02
Writing to output.gpw (mode='')

iter:   5 23:39:44  -306.060079c -1.63  -2.20
iter:   6 23:40:10  -306.054907c -1.61  -2.26
iter:   7 23:40:36  -306.052708c -2.39  -2.40
iter:   8 23:41:02  -306.052944c -2.45  -2.69
iter:   9 23:41:28  -306.052990c -2.79  -2.67
Writing to output.gpw (mode='')

iter:  10 23:41:54  -306.052944c -3.15  -2.85
iter:  11 23:42:20  -306.052901c -3.11  -2.85
iter:  12 23:42:46  -306.052941c -3.58  -2.99
iter:  13 23:43:12  -306.052957c -3.46  -3.06
iter:  14 23:43:38  -306.052932c -3.92  -3.20
Writing to output.gpw (mode='')

iter:  15 23:44:04  -306.052929c -4.14  -3.26
iter:  16 23:44:30  -306.052941c -4.25  -3.38
iter:  17 23:45:00  -306.052941c -4.24  -3.52
iter:  18 23:45:26  -306.052933c -4.71  -3.60
iter:  19 23:45:52  -306.052931c -4.81  -3.69
Writing to output.gpw (mode='')

iter:  20 23:46:18  -306.052923c -4.81  -3.74
iter:  21 23:46:49  -306.052925c -5.14  -3.94
iter:  22 23:47:18  -306.052923c -5.17  -4.00c
iter:  23 23:47:47  -306.052924c -5.29  -4.05c
iter:  24 23:48:24  -306.052926c -5.49  -4.25c
Writing to output.gpw (mode='')

iter:  25 23:48:52  -306.052925c -5.65  -4.28c
iter:  26 23:49:23  -306.052926c -5.70  -4.32c
iter:  27 23:49:49  -306.052925c -5.83  -4.43c
iter:  28 23:50:17  -306.052925c -5.91  -4.52c
iter:  29 23:50:45  -306.052926c -6.18  -4.58c
Writing to output.gpw (mode='')

iter:  30 23:51:14  -306.052926c -6.40  -4.67c
iter:  31 23:51:52  -306.052924c -6.49  -4.70c
iter:  32 23:52:21  -306.052924c -6.66  -4.84c
iter:  33 23:52:50  -306.052925c -6.52  -5.12c
iter:  34 23:53:20  -306.052925c -6.70  -5.10c
Writing to output.gpw (mode='')

iter:  35 23:53:49  -306.052925c -6.88  -5.22c
iter:  36 23:54:19  -306.052925c -6.99  -5.42c
iter:  37 23:54:49  -306.052925c -6.96  -5.46c
iter:  38 23:55:16  -306.052925c -7.21  -5.52c
iter:  39 23:55:45  -306.052925c -7.34  -5.53c
Writing to output.gpw (mode='')

iter:  40 23:56:16  -306.052925c -7.50c -5.59c

Converged after 40 iterations.

Dipole moment: (-7.302630, 0.624022, 0.303871) |e|*Ang

Energy contributions relative to reference atoms: (reference = -14434.854043)

Kinetic:       +150.264752
Potential:     -139.950338
External:        +0.000000
XC:            -317.065658
Entropy (-ST):   -0.170258
Local:           +0.783447
--------------------------
Free energy:   -306.138054
Extrapolated:  -306.052925

Dipole-layer corrected work functions: 3.402870, 2.818725 eV

Showing only first 2 kpts
 Kpt  Band  Eigenvalues  Occupancy
  0    31     -3.26679    1.91541
  0    32     -3.13877    1.27264
  0    33     -3.09382    0.83182
  0    34     -2.95823    0.09031

  1    31     -3.38557    1.99182
  1    32     -3.11681    1.06008
  1    33     -3.02037    0.28161
  1    34     -2.96952    0.11192


Fermi level: -3.11080

Gap: 0.023 eV
Transition (v -> c):
  (s=0, k=1, n=32, [0.12, -0.12, 0.00]) -> (s=0, k=0, n=33, [0.12, -0.38, 0.00])

Forces in eV/Ang:
  0 Li   -0.00195   -0.00218   -0.27847
  1 Li   -0.00224    0.00375   -0.30239
  2 Li   -0.01171    0.00330   -0.24477
  3 Li    0.00048    0.00464   -0.28467
  4 Li   -0.01395   -0.00028   -0.26833
  5 Li   -0.00933    0.00011   -0.27309
  6 Li   -0.00496   -0.01167   -0.26880
  7 Li    0.00301    0.00599   -0.28654
  8 Li   -0.00265   -0.00441   -0.30268
  9 Li   -0.04990    0.01395    0.30487
 10 Li    0.02388    0.00958    0.33785
 11 Li    0.06345    0.01775    0.32691
 12 Li    0.04597    0.02477    0.14369
 13 Li    0.02193   -0.04905    0.31598
 14 Li    0.02943   -0.06125    0.21202
 15 Li   -0.01736   -0.07518    0.32618
 16 Li    0.04900    0.00530    0.21466
 17 Li    0.01872   -0.05309    0.29280
 18 Li   -0.39891    0.01763    0.46901
 19 Li   -0.04014   -0.00783   -0.01660
 20 Li    0.43564    0.30667    0.90504
 21 Li    0.14476    0.13846   -0.14909
 22 Li   -0.08619   -0.00318    0.00105
 23 Li    0.00750   -0.23485    0.30319
 24 Li    0.00352   -0.09731   -0.04095
 25 Li    0.03619    0.06737    0.02654
 26 Li   -0.03161   -0.08519   -0.05766
 27 Li    0.06352   -1.74407    0.08083
 28 Li    0.08288    0.00612    0.03254
 29 Li   -0.06971   -0.04002   -0.00431
 30 Li    3.01843    3.01304   -0.18095
 31 Li    0.03138   -0.01586   -0.00067
 32 Li   -1.76436    0.10093    0.55290
 33 Li   -0.03193    0.02808    0.03480
 34 Li   -0.01241   -0.02481   -0.01336
 35 Li    0.00507    0.11664    0.00987
 36 O    -0.20969   -0.02420    0.09367
 37 C     0.00219    0.02751   -0.01469
 38 C    -0.00129   -0.01250    0.00825
 39 H    -0.00830   -0.01065    0.03859
 40 H    -0.00577    0.06397   -0.07700
 41 H     0.00613   -0.00497   -0.00052
 42 H    -0.02571    0.01340   -0.00013
 43 H    -0.00050    0.02667   -0.01010
 44 H    -0.12066   -0.03161    0.17527
 45 N     1.91170   -3.24336   -1.80073
 46 N    -3.05543    1.84690   -0.35302

System changes: positions 

Initializing position-dependent things.

Density initialized from wave functions
       .-----------------------.  
      /|                       |  
     / |                       |  
    /  |                       |  
   /   |                       |  
  /    |                       |  
 *     |                       |  
 |     |                       |  
 |     |                       |  
 |     |                       |  
 |     |           H  H H      |  
 |     |             C         |  
 |     |       Li H    Li      Li 
 |     |          H C  H       |  
 |   Li|     Li      Li        |  
 |     |  Li      LiLi    Li   |  
 |  Li |    Li          N      |  
 |     |Li      Li      LiN    |  
 |     |                       |  
 |   LLi     LLi     LLi       |  
 |     |  Li      Li      Li   |  
 | Li  |   Li      Li          |  
 |     |Li      Li      Li     |  
 Li    | Li      Li            |  
 |    Li      Li      Li       |  
 |     |                       |  
 |     |                       |  
 |     |                       |  
 |     |                       |  
 |     |                       |  
 |     |                       |  
 |     .-----------------------.  
 |    /                       /   
 |   /                       /    
 |  /                       /     
 | /                       /      
 |/                       /       
 *-----------------------*        

Positions:
   0 Li     1.617037    1.617037   10.000000    ( 0.0000,  0.0000,  0.0000)
   1 Li     4.851111    1.617037   10.000000    ( 0.0000,  0.0000,  0.0000)
   2 Li     8.085185    1.617037   10.000000    ( 0.0000,  0.0000,  0.0000)
   3 Li     1.617037    4.851111   10.000000    ( 0.0000,  0.0000,  0.0000)
   4 Li     4.851111    4.851111   10.000000    ( 0.0000,  0.0000,  0.0000)
   5 Li     8.085185    4.851111   10.000000    ( 0.0000,  0.0000,  0.0000)
   6 Li     1.617037    8.085185   10.000000    ( 0.0000,  0.0000,  0.0000)
   7 Li     4.851111    8.085185   10.000000    ( 0.0000,  0.0000,  0.0000)
   8 Li     8.085185    8.085185   10.000000    ( 0.0000,  0.0000,  0.0000)
   9 Li     0.000000    0.000000   11.617037    ( 0.0000,  0.0000,  0.0000)
  10 Li     3.234074    0.000000   11.617037    ( 0.0000,  0.0000,  0.0000)
  11 Li     6.468148    0.000000   11.617037    ( 0.0000,  0.0000,  0.0000)
  12 Li     0.000000    3.234074   11.617037    ( 0.0000,  0.0000,  0.0000)
  13 Li     3.234074    3.234074   11.617037    ( 0.0000,  0.0000,  0.0000)
  14 Li     6.468148    3.234074   11.617037    ( 0.0000,  0.0000,  0.0000)
  15 Li     0.000000    6.468148   11.617037    ( 0.0000,  0.0000,  0.0000)
  16 Li     3.234074    6.468148   11.617037    ( 0.0000,  0.0000,  0.0000)
  17 Li     6.468148    6.468148   11.617037    ( 0.0000,  0.0000,  0.0000)
  18 Li     1.648339    1.647296   13.498760    ( 0.0000,  0.0000,  0.0000)
  19 Li     4.950479    1.583295   13.555435    ( 0.0000,  0.0000,  0.0000)
  20 Li     8.106693    1.611385   13.600614    ( 0.0000,  0.0000,  0.0000)
  21 Li     1.688801    4.869458   13.491962    ( 0.0000,  0.0000,  0.0000)
  22 Li     4.924676    4.799038   13.483088    ( 0.0000,  0.0000,  0.0000)
  23 Li     8.128858    4.741218   13.544095    ( 0.0000,  0.0000,  0.0000)
  24 Li     1.607773    8.099667   13.480214    ( 0.0000,  0.0000,  0.0000)
  25 Li     4.827382    7.995035   13.494416    ( 0.0000,  0.0000,  0.0000)
  26 Li     8.071066    8.021786   13.496708    ( 0.0000,  0.0000,  0.0000)
  27 Li    -0.095551   -0.033072   15.429582    ( 0.0000,  0.0000,  0.0000)
  28 Li     3.190350   -0.029665   15.436165    ( 0.0000,  0.0000,  0.0000)
  29 Li     6.440428   -0.290842   15.450301    ( 0.0000,  0.0000,  0.0000)
  30 Li     0.372244    3.324122   15.464875    ( 0.0000,  0.0000,  0.0000)
  31 Li     3.424966    3.303871   15.450165    ( 0.0000,  0.0000,  0.0000)
  32 Li     6.826584    2.758917   16.108823    ( 0.0000,  0.0000,  0.0000)
  33 Li     0.056182    6.469883   15.411902    ( 0.0000,  0.0000,  0.0000)
  34 Li     3.232552    6.489601   15.472915    ( 0.0000,  0.0000,  0.0000)
  35 Li     6.403231    6.226246   15.486043    ( 0.0000,  0.0000,  0.0000)
  36 O      6.892869    2.758668   18.086405    ( 0.0000,  0.0000,  0.0000)
  37 C      7.442189    1.628946   18.814815    ( 0.0000,  0.0000,  0.0000)
  38 C      7.721057    1.955626   20.271361    ( 0.0000,  0.0000,  0.0000)
  39 H      6.755631    0.777637   18.726812    ( 0.0000,  0.0000,  0.0000)
  40 H      8.363902    1.378245   18.290224    ( 0.0000,  0.0000,  0.0000)
  41 H      8.146770    1.079664   20.767424    ( 0.0000,  0.0000,  0.0000)
  42 H      8.433614    2.778257   20.353955    ( 0.0000,  0.0000,  0.0000)
  43 H      6.805673    2.224354   20.805608    ( 0.0000,  0.0000,  0.0000)
  44 H      6.072090    3.035380   18.512272    ( 0.0000,  0.0000,  0.0000)
  45 N      8.493914    2.853380   15.705039    ( 0.0000,  0.0000,  0.0000)
  46 N      9.658546    1.688426   15.432912    ( 0.0000,  0.0000,  0.0000)

Unit cell:
           periodic     x           y           z      points  spacing
  1. axis:    yes    9.702222    0.000000    0.000000    60     0.1617
  2. axis:    yes    0.000000    9.702222    0.000000    60     0.1617
  3. axis:    no     0.000000    0.000000   24.851111   156     0.1593

  Lengths:   9.702222   9.702222  24.851111
  Angles:   90.000000  90.000000  90.000000

Effective grid spacing dv^(1/3) = 0.1609

     iter     time        total  log10-change:
                         energy  eigst   dens
iter:   1 23:56:53  -306.938339  -0.63
iter:   2 23:57:23  -306.741586  -0.51  -1.39
iter:   3 23:57:52  -306.586442  -1.45  -1.47
iter:   4 23:58:21  -306.573955  -1.76  -1.96
Writing to output.gpw (mode='')

iter:   5 23:58:51  -306.565303c -1.71  -2.17
iter:   6 23:59:19  -306.558228c -1.57  -2.24
iter:   7 23:59:48  -306.555906c -2.34  -2.36
iter:   8 00:00:18  -306.555801c -2.26  -2.63
iter:   9 00:00:47  -306.555939c -2.77  -2.67
Writing to output.gpw (mode='')

iter:  10 00:01:17  -306.555725c -2.96  -2.80
iter:  11 00:01:43  -306.555786c -3.32  -3.01
iter:  12 00:02:11  -306.555798c -3.61  -3.07
iter:  13 00:02:38  -306.555824c -3.59  -3.13
iter:  14 00:03:08  -306.555845c -4.05  -3.30
Writing to output.gpw (mode='')

iter:  15 00:03:37  -306.555861c -4.03  -3.34
iter:  16 00:04:06  -306.555870c -4.19  -3.34
iter:  17 00:04:35  -306.555857c -4.25  -3.41
iter:  18 00:05:04  -306.555849c -4.48  -3.57
iter:  19 00:05:32  -306.555849c -4.61  -3.71
Writing to output.gpw (mode='')

iter:  20 00:06:00  -306.555850c -4.62  -3.78
iter:  21 00:06:30  -306.555847c -4.83  -3.79
iter:  22 00:06:59  -306.555849c -5.07  -3.93
iter:  23 00:07:26  -306.555854c -5.19  -3.96
iter:  24 00:07:55  -306.555852c -5.33  -4.04c
Writing to output.gpw (mode='')

iter:  25 00:08:25  -306.555850c -5.37  -4.22c
iter:  26 00:08:54  -306.555851c -5.65  -4.33c
iter:  27 00:09:33  -306.555850c -5.75  -4.38c
iter:  28 00:10:00  -306.555851c -5.89  -4.44c
iter:  29 00:10:30  -306.555851c -5.88  -4.53c
Writing to output.gpw (mode='')

iter:  30 00:11:04  -306.555851c -6.03  -4.61c
iter:  31 00:11:34  -306.555851c -6.13  -4.70c
iter:  32 00:12:17  -306.555851c -6.22  -4.78c
iter:  33 00:12:47  -306.555851c -6.33  -4.80c
iter:  34 00:13:17  -306.555851c -6.53  -4.83c
Writing to output.gpw (mode='')

iter:  35 00:13:47  -306.555850c -6.78  -4.91c
iter:  36 00:14:16  -306.555851c -6.77  -5.01c
iter:  37 00:14:43  -306.555850c -6.91  -5.08c
iter:  38 00:15:12  -306.555850c -6.95  -5.24c
iter:  39 00:15:42  -306.555850c -7.17  -5.28c
Writing to output.gpw (mode='')

iter:  40 00:16:09  -306.555850c -7.22  -5.41c
iter:  41 00:16:39  -306.555850c -7.46c -5.47c

Converged after 41 iterations.

Dipole moment: (-4.030574, 0.708498, 0.318864) |e|*Ang

Energy contributions relative to reference atoms: (reference = -14434.854043)

Kinetic:       +148.313867
Potential:     -138.720485
External:        +0.000000
XC:            -316.843115
Entropy (-ST):   -0.171774
Local:           +0.779770
--------------------------
Free energy:   -306.641737
Extrapolated:  -306.555850

Dipole-layer corrected work functions: 3.398442, 2.785476 eV

Showing only first 2 kpts
 Kpt  Band  Eigenvalues  Occupancy
  0    31     -3.24477    1.91009
  0    32     -3.11497    1.22616
  0    33     -3.07115    0.79482
  0    34     -2.94731    0.10501

  1    31     -3.37487    1.99305
  1    32     -3.10171    1.09721
  1    33     -2.99717    0.26119
  1    34     -2.94811    0.10660


Fermi level: -3.09196

Gap: 0.031 eV
Transition (v -> c):
  (s=0, k=1, n=32, [0.12, -0.12, 0.00]) -> (s=0, k=0, n=33, [0.12, -0.38, 0.00])
Writing to output.gpw (mode='')


Forces in eV/Ang:
  0 Li   -0.00385   -0.00274   -0.27875
  1 Li   -0.00254    0.00369   -0.30152
  2 Li   -0.01056    0.00335   -0.24542
  3 Li    0.00005    0.00470   -0.28563
  4 Li   -0.01525   -0.00175   -0.26741
  5 Li   -0.00934   -0.00119   -0.27351
  6 Li   -0.00652   -0.01265   -0.26931
  7 Li    0.00155    0.00569   -0.28524
  8 Li   -0.00223   -0.00437   -0.30267
  9 Li   -0.05095    0.01428    0.30836
 10 Li    0.02301    0.01233    0.33922
 11 Li    0.06554    0.01933    0.33369
 12 Li    0.04580    0.02387    0.14359
 13 Li    0.01864   -0.04928    0.31629
 14 Li    0.03022   -0.06190    0.21917
 15 Li   -0.01690   -0.07672    0.32514
 16 Li    0.05190    0.00585    0.21601
 17 Li    0.01941   -0.05274    0.29205
 18 Li   -0.37245    0.01739    0.43877
 19 Li   -0.03627   -0.00483   -0.01247
 20 Li    0.40520    0.28771    0.86306
 21 Li    0.14741    0.14156   -0.15102
 22 Li   -0.07642   -0.00210    0.00329
 23 Li    0.00648   -0.21452    0.27996
 24 Li    0.00623   -0.08989   -0.04002
 25 Li    0.03391    0.06476    0.02300
 26 Li   -0.02898   -0.08038   -0.05486
 27 Li    0.11847   -1.36151    0.06621
 28 Li    0.09545    0.00007    0.02921
 29 Li   -0.07750   -0.04820   -0.00841
 30 Li    2.65752    2.67903   -0.11557
 31 Li    0.04588   -0.01123   -0.00472
 32 Li   -1.35261    0.17547    0.43349
 33 Li   -0.02749    0.03874    0.03055
 34 Li   -0.01980   -0.02936   -0.01040
 35 Li    0.00252    0.12145    0.00734
 36 O    -0.18835   -0.01967    0.07640
 37 C    -0.00541    0.01857   -0.00731
 38 C     0.00153   -0.00872    0.00510
 39 H    -0.00272   -0.00974    0.03538
 40 H    -0.01118    0.06254   -0.06905
 41 H     0.00517   -0.00391   -0.00138
 42 H    -0.02346    0.01348    0.00144
 43 H    -0.00001    0.02354   -0.01218
 44 H    -0.11877   -0.02768    0.16799
 45 N     2.01826   -3.51186   -1.68734
 46 N    -3.34509    2.00587   -0.20107

System changes: positions 

Initializing position-dependent things.

Density initialized from wave functions
       .-----------------------.  
      /|                       |  
     / |                       |  
    /  |                       |  
   /   |                       |  
  /    |                       |  
 *     |                       |  
 |     |                       |  
 |     |                       |  
 |     |                       |  
 |     |           H  H H      |  
 |     |             C         |  
 |     |       Li H    Li      Li 
 |     |          H C  H       |  
 |   Li|     Li      Li        |  
 |     |  Li      LiLi    Li   |  
 |  Li |    Li          N      |  
 |     |Li      Li      LiN    |  
 |     |                       |  
 |   LLi     LLi     LLi       |  
 |     |  Li      Li      Li   |  
 | Li  |   Li      Li          |  
 |     |Li      Li      Li     |  
 Li    | Li      Li            |  
 |    Li      Li      Li       |  
 |     |                       |  
 |     |                       |  
 |     |                       |  
 |     |                       |  
 |     |                       |  
 |     |                       |  
 |     .-----------------------.  
 |    /                       /   
 |   /                       /    
 |  /                       /     
 | /                       /      
 |/                       /       
 *-----------------------*        

Positions:
   0 Li     1.617037    1.617037   10.000000    ( 0.0000,  0.0000,  0.0000)
   1 Li     4.851111    1.617037   10.000000    ( 0.0000,  0.0000,  0.0000)
   2 Li     8.085185    1.617037   10.000000    ( 0.0000,  0.0000,  0.0000)
   3 Li     1.617037    4.851111   10.000000    ( 0.0000,  0.0000,  0.0000)
   4 Li     4.851111    4.851111   10.000000    ( 0.0000,  0.0000,  0.0000)
   5 Li     8.085185    4.851111   10.000000    ( 0.0000,  0.0000,  0.0000)
   6 Li     1.617037    8.085185   10.000000    ( 0.0000,  0.0000,  0.0000)
   7 Li     4.851111    8.085185   10.000000    ( 0.0000,  0.0000,  0.0000)
   8 Li     8.085185    8.085185   10.000000    ( 0.0000,  0.0000,  0.0000)
   9 Li     0.000000    0.000000   11.617037    ( 0.0000,  0.0000,  0.0000)
  10 Li     3.234074    0.000000   11.617037    ( 0.0000,  0.0000,  0.0000)
  11 Li     6.468148    0.000000   11.617037    ( 0.0000,  0.0000,  0.0000)
  12 Li     0.000000    3.234074   11.617037    ( 0.0000,  0.0000,  0.0000)
  13 Li     3.234074    3.234074   11.617037    ( 0.0000,  0.0000,  0.0000)
  14 Li     6.468148    3.234074   11.617037    ( 0.0000,  0.0000,  0.0000)
  15 Li     0.000000    6.468148   11.617037    ( 0.0000,  0.0000,  0.0000)
  16 Li     3.234074    6.468148   11.617037    ( 0.0000,  0.0000,  0.0000)
  17 Li     6.468148    6.468148   11.617037    ( 0.0000,  0.0000,  0.0000)
  18 Li     1.644881    1.647455   13.502832    ( 0.0000,  0.0000,  0.0000)
  19 Li     4.950143    1.583249   13.555320    ( 0.0000,  0.0000,  0.0000)
  20 Li     8.110459    1.614056   13.608623    ( 0.0000,  0.0000,  0.0000)
  21 Li     1.690171    4.870777   13.490557    ( 0.0000,  0.0000,  0.0000)
  22 Li     4.923968    4.799016   13.483122    ( 0.0000,  0.0000,  0.0000)
  23 Li     8.128921    4.739220   13.546696    ( 0.0000,  0.0000,  0.0000)
  24 Li     1.607832    8.098830   13.479840    ( 0.0000,  0.0000,  0.0000)
  25 Li     4.827695    7.995634   13.494629    ( 0.0000,  0.0000,  0.0000)
  26 Li     8.070793    8.021037   13.496194    ( 0.0000,  0.0000,  0.0000)
  27 Li    -0.094340   -0.044432   15.430247    ( 0.0000,  0.0000,  0.0000)
  28 Li     3.191229   -0.029658   15.436437    ( 0.0000,  0.0000,  0.0000)
  29 Li     6.439717   -0.291284   15.450223    ( 0.0000,  0.0000,  0.0000)
  30 Li     0.395842    3.347840   15.464013    ( 0.0000,  0.0000,  0.0000)
  31 Li     3.425390    3.303766   15.450121    ( 0.0000,  0.0000,  0.0000)
  32 Li     6.815754    2.760754   16.112510    ( 0.0000,  0.0000,  0.0000)
  33 Li     0.055929    6.470232   15.412183    ( 0.0000,  0.0000,  0.0000)
  34 Li     3.232365    6.489326   15.472819    ( 0.0000,  0.0000,  0.0000)
  35 Li     6.403256    6.227367   15.486111    ( 0.0000,  0.0000,  0.0000)
  36 O      6.891221    2.758511   18.087025    ( 0.0000,  0.0000,  0.0000)
  37 C      7.442093    1.629003   18.814792    ( 0.0000,  0.0000,  0.0000)
  38 C      7.721086    1.955579   20.271380    ( 0.0000,  0.0000,  0.0000)
  39 H      6.755648    0.777593   18.727142    ( 0.0000,  0.0000,  0.0000)
  40 H      8.363798    1.378838   18.289575    ( 0.0000,  0.0000,  0.0000)
  41 H      8.146821    1.079617   20.767414    ( 0.0000,  0.0000,  0.0000)
  42 H      8.433391    2.778372   20.353974    ( 0.0000,  0.0000,  0.0000)
  43 H      6.805667    2.224571   20.805499    ( 0.0000,  0.0000,  0.0000)
  44 H      6.070889    3.035152   18.513904    ( 0.0000,  0.0000,  0.0000)
  45 N      8.511572    2.820976   15.689606    ( 0.0000,  0.0000,  0.0000)
  46 N      9.627680    1.706597   15.431014    ( 0.0000,  0.0000,  0.0000)

Unit cell:
           periodic     x           y           z      points  spacing
  1. axis:    yes    9.702222    0.000000    0.000000    60     0.1617
  2. axis:    yes    0.000000    9.702222    0.000000    60     0.1617
  3. axis:    no     0.000000    0.000000   24.851111   156     0.1593

  Lengths:   9.702222   9.702222  24.851111
  Angles:   90.000000  90.000000  90.000000

Effective grid spacing dv^(1/3) = 0.1609

     iter     time        total  log10-change:
                         energy  eigst   dens
iter:   1 00:17:18  -307.554143  -0.63
iter:   2 00:17:49  -307.300915  -0.39  -1.33
iter:   3 00:18:18  -307.079709  -1.30  -1.40
iter:   4 00:18:47  -307.063206  -1.69  -1.90
Writing to output.gpw (mode='')

iter:   5 00:19:17  -307.054614c -1.71  -2.12
iter:   6 00:19:45  -307.046116c -1.49  -2.21
iter:   7 00:20:12  -307.044024c -2.18  -2.31
iter:   8 00:20:40  -307.043171c -2.18  -2.50
iter:   9 00:21:10  -307.043204c -2.68  -2.64
Writing to output.gpw (mode='')

iter:  10 00:21:40  -307.043191c -2.98  -2.71
iter:  11 00:22:08  -307.043175c -3.02  -2.78
iter:  12 00:22:37  -307.043248c -3.24  -3.02
iter:  13 00:23:06  -307.043274c -3.64  -3.04
iter:  14 00:23:34  -307.043268c -3.48  -3.07
Writing to output.gpw (mode='')

iter:  15 00:24:03  -307.043302c -3.78  -3.15
iter:  16 00:24:33  -307.043317c -4.07  -3.47
iter:  17 00:25:02  -307.043329c -4.09  -3.52
iter:  18 00:25:32  -307.043331c -4.08  -3.58
iter:  19 00:26:01  -307.043343c -4.53  -3.66
Writing to output.gpw (mode='')

iter:  20 00:26:30  -307.043343c -4.62  -3.76
iter:  21 00:26:56  -307.043342c -4.68  -3.79
iter:  22 00:27:25  -307.043348c -4.76  -3.88
iter:  23 00:27:52  -307.043343c -5.00  -3.96
iter:  24 00:28:20  -307.043342c -5.09  -4.01c
Writing to output.gpw (mode='')

iter:  25 00:28:48  -307.043345c -5.31  -4.09c
iter:  26 00:29:16  -307.043347c -5.47  -4.19c
iter:  27 00:29:46  -307.043346c -5.51  -4.28c
iter:  28 00:30:18  -307.043347c -5.72  -4.30c
iter:  29 00:30:48  -307.043349c -5.60  -4.40c
Writing to output.gpw (mode='')

iter:  30 00:31:17  -307.043348c -5.88  -4.62c
iter:  31 00:31:45  -307.043348c -5.98  -4.63c
iter:  32 00:32:13  -307.043348c -6.02  -4.64c
iter:  33 00:32:43  -307.043348c -6.31  -4.63c
iter:  34 00:33:13  -307.043349c -6.42  -4.59c
[...]
iter:  21 18:37:28  -309.970680c -5.89  -4.44c
iter:  22 18:43:20  -309.970681c -6.33  -4.51c
iter:  23 18:49:14  -309.970682c -6.42  -4.60c
iter:  24 18:55:58  -309.970684c -6.50  -4.67c
Writing to output.gpw (mode='')

iter:  25 19:03:28  -309.970683c -6.63  -4.87c
iter:  26 19:09:27  -309.970683c -6.87  -4.88c
iter:  27 19:15:21  -309.970683c -6.87  -4.91c
iter:  28 19:20:23  -309.970684c -7.11  -5.08c
iter:  29 19:26:52  -309.970684c -7.16  -5.18c
Writing to output.gpw (mode='')

iter:  30 19:34:10  -309.970684c -7.18  -5.27c
iter:  31 19:38:25  -309.970684c -7.36  -5.31c
iter:  32 19:42:04  -309.970684c -7.50c -5.32c

Converged after 32 iterations.

Dipole moment: (0.674968, -6.606151, 0.385571) |e|*Ang

Energy contributions relative to reference atoms: (reference = -14434.854043)

Kinetic:       +145.781128
Potential:     -138.441465
External:        +0.000000
XC:            -318.007440
Entropy (-ST):   -0.163159
Local:           +0.778673
--------------------------
Free energy:   -310.052264
Extrapolated:  -309.970684

Dipole-layer corrected work functions: 3.401492, 2.660292 eV

Showing only first 2 kpts
 Kpt  Band  Eigenvalues  Occupancy
  0    31     -3.19426    1.92658
  0    32     -3.08632    1.50371
  0    33     -2.97932    0.52560
  0    34     -2.86188    0.06583

  1    31     -3.23948    1.96962
  1    32     -3.11133    1.66649
  1    33     -2.93008    0.23501
  1    34     -2.85135    0.05367


Fermi level: -3.03089

Gap: 0.043 eV
Transition (v -> c):
  (s=0, k=7, n=32, [0.38, 0.38, 0.00]) -> (s=0, k=7, n=33, [0.38, 0.38, 0.00])
Writing to output.gpw (mode='')


Forces in eV/Ang:
  0 Li    0.00067    0.00695   -0.29133
  1 Li    0.01927   -0.00893   -0.32287
  2 Li    0.00314    0.00311   -0.25904
  3 Li   -0.00498   -0.00466   -0.30943
  4 Li   -0.02298   -0.01257   -0.27726
  5 Li   -0.00327   -0.01093   -0.25720
  6 Li   -0.00935   -0.02210   -0.27745
  7 Li   -0.00471   -0.00114   -0.27359
  8 Li   -0.01299    0.01305   -0.28743
  9 Li   -0.02190    0.05271    0.34089
 10 Li   -0.03667    0.07748    0.35297
 11 Li    0.01013    0.01198    0.31512
 12 Li    0.03700    0.04292    0.26668
 13 Li   -0.02417    0.00901    0.34697
 14 Li   -0.04907    0.04257    0.19354
 15 Li    0.04114   -0.05394    0.29717
 16 Li    0.09132    0.01243    0.29743
 17 Li   -0.00671   -0.05525    0.19056
 18 Li   -0.02484   -0.01767    0.02354
 19 Li    0.01335    0.00284    0.00676
 20 Li    0.09497    0.01173    0.01576
 21 Li   -0.01401   -0.00514   -0.00991
 22 Li    0.00041   -0.00617   -0.00079
 23 Li   -0.01162   -0.01030   -0.02202
 24 Li   -0.01102    0.00904    0.00742
 25 Li    0.00956    0.01333    0.01438
 26 Li   -0.01788    0.01253    0.00449
 27 Li    0.01511   -0.01851   -0.00060
 28 Li    0.00798    0.01064   -0.00726
 29 Li    0.04939    0.04484    0.00935
 30 Li    0.00976   -0.01512   -0.03462
 31 Li   -0.01437   -0.00823    0.00816
 32 Li   -0.01014   -0.00333   -0.02444
 33 Li    0.00407    0.00105   -0.00486
 34 Li   -0.00312   -0.00505   -0.00972
 35 Li    0.01275    0.00403   -0.00606
 36 O    -0.03820   -0.05833   -0.00279
 37 C     0.02785   -0.01157   -0.00631
 38 C     0.00833    0.03010    0.00729
 39 H    -0.01824    0.02677   -0.05562
 40 H     0.03607   -0.04599   -0.02388
 41 H    -0.03587    0.00545    0.00414
 42 H     0.01900    0.04816    0.01848
 43 H    -0.00697   -0.01153    0.00809
 44 H    -0.05390    0.00813    0.00070
 45 N     0.06686   -0.08527    0.03193
 46 N    -0.10512   -0.04915    0.01008

System changes: positions 

Initializing position-dependent things.

Density initialized from wave functions
       .-----------------------.  
      /|                       |  
     / |                       |  
    /  |                       |  
   /   |                       |  
  /    |                       |  
 *     |                       |  
 |     |                       |  
 |     |                       |  
 |     |                       |  
 |     |           H  HH       |  
 |     |             C         |  
 |     |       LiH             |  
 |     |          HOCLH        |  
 |     |     Li              Li|  
 |  Li |  Li      LiLi    Li   |  
 |     |    Li                 |  
 |     |Li      Li     NLiN    |  
 |     |          Li     Li    |  
 |   LLi     LLi     LLi       |  
 |     |  Li      Li      Li   |  
 | Li  |   Li      Li          |  
 |     |Li      Li      Li     |  
 Li    | Li      Li            |  
 |    Li      Li      Li       |  
 |     |                       |  
 |     |                       |  
 |     |                       |  
 |     |                       |  
 |     |                       |  
 |     |                       |  
 |     .-----------------------.  
 |    /                       /   
 |   /                       /    
 |  /                       /     
 | /                       /      
 |/                       /       
 *-----------------------*        

Positions:
   0 Li     1.617037    1.617037   10.000000    ( 0.0000,  0.0000,  0.0000)
   1 Li     4.851111    1.617037   10.000000    ( 0.0000,  0.0000,  0.0000)
   2 Li     8.085185    1.617037   10.000000    ( 0.0000,  0.0000,  0.0000)
   3 Li     1.617037    4.851111   10.000000    ( 0.0000,  0.0000,  0.0000)
   4 Li     4.851111    4.851111   10.000000    ( 0.0000,  0.0000,  0.0000)
   5 Li     8.085185    4.851111   10.000000    ( 0.0000,  0.0000,  0.0000)
   6 Li     1.617037    8.085185   10.000000    ( 0.0000,  0.0000,  0.0000)
   7 Li     4.851111    8.085185   10.000000    ( 0.0000,  0.0000,  0.0000)
   8 Li     8.085185    8.085185   10.000000    ( 0.0000,  0.0000,  0.0000)
   9 Li     0.000000    0.000000   11.617037    ( 0.0000,  0.0000,  0.0000)
  10 Li     3.234074    0.000000   11.617037    ( 0.0000,  0.0000,  0.0000)
  11 Li     6.468148    0.000000   11.617037    ( 0.0000,  0.0000,  0.0000)
  12 Li     0.000000    3.234074   11.617037    ( 0.0000,  0.0000,  0.0000)
  13 Li     3.234074    3.234074   11.617037    ( 0.0000,  0.0000,  0.0000)
  14 Li     6.468148    3.234074   11.617037    ( 0.0000,  0.0000,  0.0000)
  15 Li     0.000000    6.468148   11.617037    ( 0.0000,  0.0000,  0.0000)
  16 Li     3.234074    6.468148   11.617037    ( 0.0000,  0.0000,  0.0000)
  17 Li     6.468148    6.468148   11.617037    ( 0.0000,  0.0000,  0.0000)
  18 Li     1.477659    1.754726   13.678137    ( 0.0000,  0.0000,  0.0000)
  19 Li     4.840810    1.652008   13.474632    ( 0.0000,  0.0000,  0.0000)
  20 Li     8.038237    1.723600   13.423799    ( 0.0000,  0.0000,  0.0000)
  21 Li     1.702205    4.929198   13.529538    ( 0.0000,  0.0000,  0.0000)
  22 Li     4.984321    4.891512   13.595838    ( 0.0000,  0.0000,  0.0000)
  23 Li     8.066672    4.914470   13.600570    ( 0.0000,  0.0000,  0.0000)
  24 Li     1.661216    8.094023   13.491435    ( 0.0000,  0.0000,  0.0000)
  25 Li     4.915308    8.066686   13.528771    ( 0.0000,  0.0000,  0.0000)
  26 Li     8.067031    7.992175   13.452711    ( 0.0000,  0.0000,  0.0000)
  27 Li    -0.102480    0.103419   15.345714    ( 0.0000,  0.0000,  0.0000)
  28 Li     3.342807   -0.080367   15.433522    ( 0.0000,  0.0000,  0.0000)
  29 Li     6.732766    0.254314   15.352643    ( 0.0000,  0.0000,  0.0000)
  30 Li     0.118068    3.598718   15.655085    ( 0.0000,  0.0000,  0.0000)
  31 Li     3.429969    3.300181   15.447283    ( 0.0000,  0.0000,  0.0000)
  32 Li     7.024833    3.069524   16.006004    ( 0.0000,  0.0000,  0.0000)
  33 Li    -0.001359    6.703047   15.503312    ( 0.0000,  0.0000,  0.0000)
  34 Li     3.187984    6.449442   15.554435    ( 0.0000,  0.0000,  0.0000)
  35 Li     6.474463    6.644223   15.601770    ( 0.0000,  0.0000,  0.0000)
  36 O      6.674334    2.715255   17.913733    ( 0.0000,  0.0000,  0.0000)
  37 C      7.299317    1.664480   18.700380    ( 0.0000,  0.0000,  0.0000)
  38 C      7.596088    2.091346   20.124133    ( 0.0000,  0.0000,  0.0000)
  39 H      6.676179    0.762247   18.680597    ( 0.0000,  0.0000,  0.0000)
  40 H      8.223495    1.450004   18.167617    ( 0.0000,  0.0000,  0.0000)
  41 H      8.120427    1.284467   20.644877    ( 0.0000,  0.0000,  0.0000)
  42 H      8.235811    2.973578   20.132971    ( 0.0000,  0.0000,  0.0000)
  43 H      6.682599    2.321485   20.676765    ( 0.0000,  0.0000,  0.0000)
  44 H      5.790768    2.894022   18.264301    ( 0.0000,  0.0000,  0.0000)
  45 N      8.535552    1.989835   15.367364    ( 0.0000,  0.0000,  0.0000)
  46 N      9.640950    1.930481   14.688788    ( 0.0000,  0.0000,  0.0000)

Unit cell:
           periodic     x           y           z      points  spacing
  1. axis:    yes    9.702222    0.000000    0.000000    60     0.1617
  2. axis:    yes    0.000000    9.702222    0.000000    60     0.1617
  3. axis:    no     0.000000    0.000000   24.851111   156     0.1593

  Lengths:   9.702222   9.702222  24.851111
  Angles:   90.000000  90.000000  90.000000

Effective grid spacing dv^(1/3) = 0.1609

     iter     time        total  log10-change:
                         energy  eigst   dens
iter:   1 19:46:07  -309.976700  -1.03
iter:   2 19:51:31  -309.978110  -1.73  -2.22
iter:   3 19:56:37  -309.977661c -2.21  -2.31
iter:   4 20:02:50  -309.976363c -2.48  -2.41
Writing to output.gpw (mode='')

iter:   5 20:05:44  -309.975113c -2.39  -2.54
iter:   6 20:09:55  -309.975097c -2.51  -2.76
iter:   7 20:14:37  -309.975031c -3.14  -2.79
iter:   8 20:18:40  -309.975091c -3.08  -2.97
iter:   9 20:22:31  -309.975136c -3.51  -3.02
Writing to output.gpw (mode='')

iter:  10 20:27:02  -309.975142c -3.70  -3.08
iter:  11 20:30:49  -309.975170c -3.72  -3.21
iter:  12 20:36:35  -309.975143c -4.39  -3.39
iter:  13 20:40:59  -309.975172c -4.34  -3.47
iter:  14 20:44:44  -309.975162c -4.63  -3.74
Writing to output.gpw (mode='')

iter:  15 20:48:42  -309.975173c -4.62  -3.76
iter:  16 20:54:02  -309.975157c -4.90  -3.80
iter:  17 20:59:35  -309.975158c -5.35  -4.07c
iter:  18 21:05:25  -309.975162c -5.41  -4.11c
iter:  19 21:10:33  -309.975159c -5.39  -4.18c
Writing to output.gpw (mode='')

iter:  20 21:15:34  -309.975161c -5.63  -4.33c
iter:  21 21:21:38  -309.975162c -5.84  -4.36c
iter:  22 21:25:33  -309.975162c -5.98  -4.40c
iter:  23 21:28:48  -309.975161c -6.15  -4.57c
iter:  24 21:32:05  -309.975161c -6.36  -4.73c
Writing to output.gpw (mode='')

iter:  25 21:35:39  -309.975162c -6.24  -4.78c
iter:  26 21:39:03  -309.975162c -6.53  -4.86c
iter:  27 21:42:43  -309.975163c -6.61  -4.99c
iter:  28 21:46:06  -309.975163c -6.65  -5.04c
iter:  29 21:48:33  -309.975163c -7.10  -5.09c
Writing to output.gpw (mode='')

iter:  30 21:50:52  -309.975163c -7.03  -5.11c
iter:  31 21:54:18  -309.975163c -7.19  -5.14c
iter:  32 21:57:06  -309.975163c -7.33  -5.33c
iter:  33 22:01:37  -309.975163c -7.31  -5.48c
iter:  34 22:06:05  -309.975163c -7.20  -5.57c
Writing to output.gpw (mode='')

iter:  35 22:08:33  -309.975163c -7.79c -5.60c

Converged after 35 iterations.

Dipole moment: (0.578172, -6.488429, 0.387865) |e|*Ang

Energy contributions relative to reference atoms: (reference = -14434.854043)

Kinetic:       +145.836574
Potential:     -138.445595
External:        +0.000000
XC:            -318.062999
Entropy (-ST):   -0.162940
Local:           +0.778328
--------------------------
Free energy:   -310.056633
Extrapolated:  -309.975163

Dipole-layer corrected work functions: 3.401675, 2.656066 eV

Showing only first 2 kpts
 Kpt  Band  Eigenvalues  Occupancy
  0    31     -3.19400    1.92903
  0    32     -3.08501    1.50902
  0    33     -2.97883    0.53757
  0    34     -2.86033    0.06644

  1    31     -3.23906    1.97056
  1    32     -3.10635    1.64973
  1    33     -2.92832    0.23608
  1    34     -2.84845    0.05276


Fermi level: -3.02887

Gap: 0.043 eV
Transition (v -> c):
  (s=0, k=7, n=32, [0.38, 0.38, 0.00]) -> (s=0, k=7, n=33, [0.38, 0.38, 0.00])

Forces in eV/Ang:
  0 Li    0.00032    0.00699   -0.29217
  1 Li    0.01929   -0.00841   -0.32280
  2 Li    0.00335    0.00315   -0.25788
  3 Li   -0.00488   -0.00325   -0.30815
  4 Li   -0.02278   -0.01255   -0.27775
  5 Li   -0.00388   -0.01178   -0.25835
  6 Li   -0.00960   -0.02267   -0.27829
  7 Li   -0.00548   -0.00135   -0.27281
  8 Li   -0.01338    0.01259   -0.28634
  9 Li   -0.01702    0.05262    0.34282
 10 Li   -0.03574    0.07676    0.35593
 11 Li    0.01106    0.01810    0.31067
 12 Li    0.03778    0.04409    0.26661
 13 Li   -0.02473    0.00637    0.34856
 14 Li   -0.05011    0.04344    0.19510
 15 Li    0.03780   -0.05246    0.29645
 16 Li    0.09928    0.01224    0.29265
 17 Li   -0.00470   -0.05441    0.19011
 18 Li   -0.02026   -0.01430    0.02805
 19 Li    0.01958    0.00165    0.00033
 20 Li    0.10340    0.00108   -0.00382
 21 Li   -0.02170   -0.01367   -0.00258
 22 Li    0.00540   -0.00171   -0.00232
 23 Li   -0.01340   -0.00131   -0.03053
 24 Li   -0.01191    0.02264    0.00838
 25 Li    0.00071    0.01319    0.01494
 26 Li   -0.02327    0.01256   -0.00001
 27 Li    0.00104   -0.01506    0.00550
 28 Li    0.00259    0.01370   -0.00253
 29 Li    0.07416    0.05045   -0.00526
 30 Li    0.01710    0.00025   -0.03118
 31 Li   -0.01695   -0.01344    0.01366
 32 Li   -0.02149   -0.00581   -0.01471
 33 Li    0.00903   -0.01392    0.00231
 34 Li   -0.00259   -0.00378   -0.01344
 35 Li    0.01445    0.00043    0.00045
 36 O    -0.02545   -0.08042    0.00666
 37 C     0.06338   -0.01592    0.00228
 38 C     0.01568    0.05897    0.03468
 39 H    -0.03350    0.06219   -0.06253
 40 H     0.04633   -0.06953   -0.05920
 41 H    -0.05765    0.01414   -0.00404
 42 H     0.02799    0.06375    0.01481
 43 H    -0.02475   -0.03082    0.02175
 44 H    -0.05517    0.00069   -0.00649
 45 N     0.11082   -0.03768    0.08579
 46 N    -0.13997   -0.07331   -0.09998

System changes: positions 

Initializing position-dependent things.

Density initialized from wave functions
       .-----------------------.  
      /|                       |  
     / |                       |  
    /  |                       |  
   /   |                       |  
  /    |                       |  
 *     |                       |  
 |     |                       |  
 |     |                       |  
 |     |                       |  
 |     |           H  HH       |  
 |     |             C         |  
 |     |       LiH             |  
 |     |          HOCLH        |  
 |     |     Li              Li|  
 | Li  |  Li      LiLi    Li   |  
 |     |    Li                 |  
 |     |Li      Li     NLiN    |  
 |     |          Li     Li    |  
 |   LLi     LLi     LLi       |  
 |     |  Li      Li      Li   |  
 | Li  |   Li      Li          |  
 |     |Li      Li      Li     |  
 Li    | Li      Li            |  
 |    Li      Li      Li       |  
 |     |                       |  
 |     |                       |  
 |     |                       |  
 |     |                       |  
 |     |                       |  
 |     |                       |  
 |     .-----------------------.  
 |    /                       /   
 |   /                       /    
 |  /                       /     
 | /                       /      
 |/                       /       
 *-----------------------*        

Positions:
   0 Li     1.617037    1.617037   10.000000    ( 0.0000,  0.0000,  0.0000)
   1 Li     4.851111    1.617037   10.000000    ( 0.0000,  0.0000,  0.0000)
   2 Li     8.085185    1.617037   10.000000    ( 0.0000,  0.0000,  0.0000)
   3 Li     1.617037    4.851111   10.000000    ( 0.0000,  0.0000,  0.0000)
   4 Li     4.851111    4.851111   10.000000    ( 0.0000,  0.0000,  0.0000)
   5 Li     8.085185    4.851111   10.000000    ( 0.0000,  0.0000,  0.0000)
   6 Li     1.617037    8.085185   10.000000    ( 0.0000,  0.0000,  0.0000)
   7 Li     4.851111    8.085185   10.000000    ( 0.0000,  0.0000,  0.0000)
   8 Li     8.085185    8.085185   10.000000    ( 0.0000,  0.0000,  0.0000)
   9 Li     0.000000    0.000000   11.617037    ( 0.0000,  0.0000,  0.0000)
  10 Li     3.234074    0.000000   11.617037    ( 0.0000,  0.0000,  0.0000)
  11 Li     6.468148    0.000000   11.617037    ( 0.0000,  0.0000,  0.0000)
  12 Li     0.000000    3.234074   11.617037    ( 0.0000,  0.0000,  0.0000)
  13 Li     3.234074    3.234074   11.617037    ( 0.0000,  0.0000,  0.0000)
  14 Li     6.468148    3.234074   11.617037    ( 0.0000,  0.0000,  0.0000)
  15 Li     0.000000    6.468148   11.617037    ( 0.0000,  0.0000,  0.0000)
  16 Li     3.234074    6.468148   11.617037    ( 0.0000,  0.0000,  0.0000)
  17 Li     6.468148    6.468148   11.617037    ( 0.0000,  0.0000,  0.0000)
  18 Li     1.476038    1.752952   13.679181    ( 0.0000,  0.0000,  0.0000)
  19 Li     4.838025    1.652523   13.475336    ( 0.0000,  0.0000,  0.0000)
  20 Li     8.043634    1.739493   13.423626    ( 0.0000,  0.0000,  0.0000)
  21 Li     1.703643    4.932560   13.526851    ( 0.0000,  0.0000,  0.0000)
  22 Li     4.982708    4.892712   13.597585    ( 0.0000,  0.0000,  0.0000)
  23 Li     8.061614    4.934856   13.591138    ( 0.0000,  0.0000,  0.0000)
  24 Li     1.664648    8.086307   13.491190    ( 0.0000,  0.0000,  0.0000)
  25 Li     4.927808    8.069865   13.528380    ( 0.0000,  0.0000,  0.0000)
  26 Li     8.069339    8.000300   13.451791    ( 0.0000,  0.0000,  0.0000)
  27 Li    -0.088107    0.091232   15.341541    ( 0.0000,  0.0000,  0.0000)
  28 Li     3.353563   -0.085744   15.425710    ( 0.0000,  0.0000,  0.0000)
  29 Li     6.755201    0.282754   15.362560    ( 0.0000,  0.0000,  0.0000)
  30 Li     0.097545    3.591475   15.645628    ( 0.0000,  0.0000,  0.0000)
  31 Li     3.424315    3.304312   15.442344    ( 0.0000,  0.0000,  0.0000)
  32 Li     7.033107    3.079908   15.997179    ( 0.0000,  0.0000,  0.0000)
  33 Li    -0.004730    6.707438   15.497475    ( 0.0000,  0.0000,  0.0000)
  34 Li     3.189429    6.452345   15.559106    ( 0.0000,  0.0000,  0.0000)
  35 Li     6.474265    6.660782   15.599306    ( 0.0000,  0.0000,  0.0000)
  36 O      6.664925    2.702073   17.899250    ( 0.0000,  0.0000,  0.0000)
  37 C      7.294465    1.661033   18.695111    ( 0.0000,  0.0000,  0.0000)
  38 C      7.589199    2.097824   20.116598    ( 0.0000,  0.0000,  0.0000)
  39 H      6.678767    0.753475   18.680169    ( 0.0000,  0.0000,  0.0000)
  40 H      8.223126    1.449610   18.169041    ( 0.0000,  0.0000,  0.0000)
  41 H      8.112856    1.293544   20.643577    ( 0.0000,  0.0000,  0.0000)
  42 H      8.228001    2.981326   20.119381    ( 0.0000,  0.0000,  0.0000)
  43 H      6.675973    2.332216   20.666640    ( 0.0000,  0.0000,  0.0000)
  44 H      5.780955    2.886840   18.248800    ( 0.0000,  0.0000,  0.0000)
  45 N      8.534800    1.967969   15.367458    ( 0.0000,  0.0000,  0.0000)
  46 N      9.639318    1.917661   14.685543    ( 0.0000,  0.0000,  0.0000)

Unit cell:
           periodic     x           y           z      points  spacing
  1. axis:    yes    9.702222    0.000000    0.000000    60     0.1617
  2. axis:    yes    0.000000    9.702222    0.000000    60     0.1617
  3. axis:    no     0.000000    0.000000   24.851111   156     0.1593

  Lengths:   9.702222   9.702222  24.851111
  Angles:   90.000000  90.000000  90.000000

Effective grid spacing dv^(1/3) = 0.1609

     iter     time        total  log10-change:
                         energy  eigst   dens
iter:   1 22:12:34  -310.000760  -0.95
iter:   2 22:15:52  -309.992113  -1.61  -1.91
iter:   3 22:19:02  -309.987646c -2.21  -2.09
iter:   4 22:20:48  -309.983363c -2.42  -2.26
Writing to output.gpw (mode='')

iter:   5 22:22:29  -309.982392c -2.49  -2.51
iter:   6 22:25:59  -309.981780c -2.48  -2.66
iter:   7 22:27:39  -309.981983c -2.54  -2.83
iter:   8 22:30:56  -309.981808c -3.40  -2.90
iter:   9 22:33:55  -309.981869c -3.60  -3.12
Writing to output.gpw (mode='')

iter:  10 22:35:50  -309.981852c -3.86  -3.18
iter:  11 22:37:36  -309.981892c -3.89  -3.27
iter:  12 22:39:15  -309.981942c -4.03  -3.35
iter:  13 22:42:05  -309.981948c -4.47  -3.43
