
  ___ ___ ___ _ _ _  
 |   |   |_  | | | | 
 | | | | | . | | | | 
 |__ |  _|___|_____|  22.8.0
 |___|_|             

User:   vazumah@c12.hercules
Date:   Sat Jan 28 23:42:42 2023
Arch:   x86_64
Pid:    27554
CWD:    /home/vazumah/Python_projects/LiNRR/Li_adsorb_studies/autocat/proton_donor_calcs/adsorbates/CH3CH2OH_x/bridge/0.0_1.617/N2_y
Python: 3.10.8
gpaw:   /home/vazumah/.conda/envs/GPAW/lib/python3.10/site-packages/gpaw
_gpaw:  /home/vazumah/.conda/envs/GPAW/lib/python3.10/site-packages/
        _gpaw.cpython-310-x86_64-linux-gnu.so
ase:    /home/vazumah/.conda/envs/GPAW/lib/python3.10/site-packages/ase (version 3.22.1)
numpy:  /home/vazumah/.conda/envs/GPAW/lib/python3.10/site-packages/numpy (version 1.24.1)
scipy:  /home/vazumah/.conda/envs/GPAW/lib/python3.10/site-packages/scipy (version 1.10.0)
libxc:  5.2.3
units:  Angstrom and eV
cores: 24
OpenMP: True
OMP_NUM_THREADS: 1

Reading from output.gpw
Read dipole, energy, free_energy, magmom, magmoms
Reading input parameters:
  h: 0.16
  kpts: {size: [4, 4, 1]}
  occupations: {name: fermi-dirac,
                width: 0.05}
  poissonsolver: {dipolelayer: xy}
  xc: BEEF-vdW

Initialize ...

species:
  Li:
    name: Lithium
    id: 830b4218f175192f93f959cfc0aad614
    Z: 3.0
    valence: 1
    core: 2
    charge: 0.0
    file: /home/vazumah/.conda/envs/GPAW/share/gpaw/Li.PBE.gz
    compensation charges: {type: gauss,
                           rc: 0.33,
                           lmax: 2}
    cutoffs: {filter: 1.91,
              core: 2.55}
    valence states:
      #              energy  rcut
      - 2s(1.00)    -2.874   1.058
      - 2p(0.00)    -1.090   1.058
      -  s          24.337   1.058
  
    # Using partial waves for Li as LCAO basis

  O:
    name: Oxygen
    id: 32ecd46bf208036f09c70b0ec9a88b78
    Z: 8.0
    valence: 6
    core: 2
    charge: 0.0
    file: /home/vazumah/.conda/envs/GPAW/share/gpaw/O.PBE.gz
    compensation charges: {type: gauss,
                           rc: 0.21,
                           lmax: 2}
    cutoffs: {filter: 1.17,
              core: 0.83}
    valence states:
      #              energy  rcut
      - 2s(2.00)   -23.961   0.688
      - 2p(4.00)    -9.029   0.598
      -  s           3.251   0.688
      -  p          18.182   0.598
      -  d           0.000   0.619
  
    # Using partial waves for O as LCAO basis

  C:
    name: Carbon
    id: 4aa54d4b901d75f77cc0ea3eec22967b
    Z: 6.0
    valence: 4
    core: 2
    charge: 0.0
    file: /home/vazumah/.conda/envs/GPAW/share/gpaw/C.PBE.gz
    compensation charges: {type: gauss,
                           rc: 0.20,
                           lmax: 2}
    cutoffs: {filter: 1.14,
              core: 1.14}
    valence states:
      #              energy  rcut
      - 2s(2.00)   -13.751   0.635
      - 2p(2.00)    -5.284   0.635
      -  s          13.461   0.635
      -  p          21.927   0.635
      -  d           0.000   0.635
  
    # Using partial waves for C as LCAO basis

  H:
    name: Hydrogen
    id: d65de229564ff8ea4db303e23b6d1ecf
    Z: 1.0
    valence: 1
    core: 0
    charge: 0.0
    file: /home/vazumah/.conda/envs/GPAW/share/gpaw/H.PBE.gz
    compensation charges: {type: gauss,
                           rc: 0.15,
                           lmax: 2}
    cutoffs: {filter: 0.85,
              core: 0.53}
    valence states:
      #              energy  rcut
      - 1s(1.00)    -6.494   0.476
      -  s          20.717   0.476
      -  p           0.000   0.476
  
    # Using partial waves for H as LCAO basis

  N:
    name: Nitrogen
    id: f7500608b86eaa90eef8b1d9a670dc53
    Z: 7.0
    valence: 5
    core: 2
    charge: 0.0
    file: /home/vazumah/.conda/envs/GPAW/share/gpaw/N.PBE.gz
    compensation charges: {type: gauss,
                           rc: 0.18,
                           lmax: 2}
    cutoffs: {filter: 1.11,
              core: 0.96}
    valence states:
      #              energy  rcut
      - 2s(2.00)   -18.583   0.603
      - 2p(3.00)    -7.089   0.529
      -  s           8.629   0.603
      -  p          20.123   0.529
      -  d           0.000   0.577
  
    # Using partial waves for N as LCAO basis

Reference energy: -14434.854043  # eV

Spin-paired calculation

Convergence criteria:
 Maximum [total energy] change in last 3 cyles: 0.0005 eV / electron
 Maximum integral of absolute [dens]ity change: 0.0001 electrons / valence electron
 Maximum integral of absolute [eigenst]ate change: 4e-08 eV^2 / valence electron
 Maximum number of scf [iter]ations: 333
 (Square brackets indicate name in SCF output, whereas a 'c' in
 the SCF output indicates the quantity has converged.)

Symmetries present (total): 1

  ( 1  0  0)
  ( 0  1  0)
  ( 0  0  1)

16 k-points: 4 x 4 x 1 Monkhorst-Pack grid
8 k-points in the irreducible part of the Brillouin zone
       k-points in crystal coordinates                weights
   0:     0.12500000   -0.37500000    0.00000000          2/16
   1:     0.12500000   -0.12500000    0.00000000          2/16
   2:     0.12500000    0.12500000    0.00000000          2/16
   3:     0.12500000    0.37500000    0.00000000          2/16
   4:     0.37500000   -0.37500000    0.00000000          2/16
   5:     0.37500000   -0.12500000    0.00000000          2/16
   6:     0.37500000    0.12500000    0.00000000          2/16
   7:     0.37500000    0.37500000    0.00000000          2/16

Wave functions: Uniform real-space grid
  Kinetic energy operator: 6*3+1=19 point O(h^6) finite-difference Laplacian
  ScaLapack parameters: grid=1x1, blocksize=None
  Wavefunction extrapolation:
    Improved wavefunction reuse through dual PAW basis 

Occupation numbers: Fermi-Dirac:
  width: 0.0500  # eV
 

Eigensolver
   Davidson(niter=2) 

Densities:
  Coarse grid: 60*60*156 grid
  Fine grid: 120*120*312 grid
  Total Charge: 0.000000 

Density mixing:
  Method: separate
  Backend: pulay
  Linear mixing parameter: 0.05
  old densities: 5
  Damping of long wavelength oscillations: 50 

Hamiltonian:
  XC and Coulomb potentials evaluated on a 120*120*312 grid
  Using the BEEF-vdW Exchange-Correlation functional
  Interpolation: tri-quintic (5. degree polynomial)
  Poisson solver: FastPoissonSolver using
    Stencil: 6*3+1=19 point O(h^6) finite-difference Laplacian
    FFT axes: [0, 1]
    FST axes: [2]

Dipole correction along z-axis 

XC parameters: BEEF-vdW with 2 nearest neighbor stencil

Memory estimate:
  Process memory now: 217.05 MiB
  Calculator: 411.72 MiB
    Density: 118.00 MiB
      Arrays: 36.75 MiB
      Localized functions: 67.24 MiB
      Mixer: 14.01 MiB
    Hamiltonian: 29.35 MiB
      Arrays: 24.03 MiB
      XC: 0.00 MiB
      Poisson: 0.00 MiB
      vbar: 5.32 MiB
    Wavefunctions: 264.37 MiB
      Arrays psit_nG: 123.27 MiB
      Eigensolver: 137.57 MiB
      Projections: 0.06 MiB
      Projectors: 3.47 MiB

Total number of cores used: 24
Parallelization over k-points: 8
Domain decomposition: 1 x 1 x 3

Number of atoms: 47
Number of atomic orbitals: 170
Number of bands in calculation: 44
Number of valence electrons: 66
Bands to converge: occupied

... initialized

Initializing position-dependent things.

Creating initial wave functions:
  44 bands from LCAO basis set

       .-----------------------.  
      /|                       |  
     / |                       |  
    /  |                       |  
   /   |                       |  
  /    |                       |  
 *     |                       |  
 |     |                       |  
 |H    | H                     |  
 |O H  |C                      |  
 |   C |H H                    |  
 |  H  |                       |  
 |     Li      Li      Li      |  
 |     |                  N    |  
 |   Li|     Li      Li  N     |  
 |     |  Li      Li      Li   |  
 | Li  |   Li      Li          |  
 |     |Li      Li      Li     |  
 |     |                       |  
 |   LLi     LLi     LLi       |  
 |     |  Li      Li      Li   |  
 | Li  |   Li      Li          |  
 |     |Li      Li      Li     |  
 Li    | Li      Li            |  
 |    Li      Li      Li       |  
 |     |                       |  
 |     |                       |  
 |     |                       |  
 |     |                       |  
 |     |                       |  
 |     |                       |  
 |     .-----------------------.  
 |    /                       /   
 |   /                       /    
 |  /                       /     
 | /                       /      
 |/                       /       
 *-----------------------*        

Positions:
   0 Li     1.617037    1.617037   10.000000    ( 0.0000,  0.0000,  0.0000)
   1 Li     4.851111    1.617037   10.000000    ( 0.0000,  0.0000,  0.0000)
   2 Li     8.085185    1.617037   10.000000    ( 0.0000,  0.0000,  0.0000)
   3 Li     1.617037    4.851111   10.000000    ( 0.0000,  0.0000,  0.0000)
   4 Li     4.851111    4.851111   10.000000    ( 0.0000,  0.0000,  0.0000)
   5 Li     8.085185    4.851111   10.000000    ( 0.0000,  0.0000,  0.0000)
   6 Li     1.617037    8.085185   10.000000    ( 0.0000,  0.0000,  0.0000)
   7 Li     4.851111    8.085185   10.000000    ( 0.0000,  0.0000,  0.0000)
   8 Li     8.085185    8.085185   10.000000    ( 0.0000,  0.0000,  0.0000)
   9 Li     0.000000    0.000000   11.617037    ( 0.0000,  0.0000,  0.0000)
  10 Li     3.234074    0.000000   11.617037    ( 0.0000,  0.0000,  0.0000)
  11 Li     6.468148    0.000000   11.617037    ( 0.0000,  0.0000,  0.0000)
  12 Li     0.000000    3.234074   11.617037    ( 0.0000,  0.0000,  0.0000)
  13 Li     3.234074    3.234074   11.617037    ( 0.0000,  0.0000,  0.0000)
  14 Li     6.468148    3.234074   11.617037    ( 0.0000,  0.0000,  0.0000)
  15 Li     0.000000    6.468148   11.617037    ( 0.0000,  0.0000,  0.0000)
  16 Li     3.234074    6.468148   11.617037    ( 0.0000,  0.0000,  0.0000)
  17 Li     6.468148    6.468148   11.617037    ( 0.0000,  0.0000,  0.0000)
  18 Li     1.616238    1.624947   13.476419    ( 0.0000,  0.0000,  0.0000)
  19 Li     4.851901    1.622685   13.473150    ( 0.0000,  0.0000,  0.0000)
  20 Li     8.085356    1.625159   13.474805    ( 0.0000,  0.0000,  0.0000)
  21 Li     1.621395    4.855768   13.481474    ( 0.0000,  0.0000,  0.0000)
  22 Li     4.850345    4.864818   13.478162    ( 0.0000,  0.0000,  0.0000)
  23 Li     8.081561    4.854819   13.482684    ( 0.0000,  0.0000,  0.0000)
  24 Li     1.625451    8.073976   13.471690    ( 0.0000,  0.0000,  0.0000)
  25 Li     4.850853    8.067903   13.469497    ( 0.0000,  0.0000,  0.0000)
  26 Li     8.077105    8.074505   13.471863    ( 0.0000,  0.0000,  0.0000)
  27 Li     0.004513   -0.047569   15.358352    ( 0.0000,  0.0000,  0.0000)
  28 Li     3.254127   -0.008568   15.399068    ( 0.0000,  0.0000,  0.0000)
  29 Li     6.442510   -0.012116   15.397504    ( 0.0000,  0.0000,  0.0000)
  30 Li     0.003702    3.282323   15.434163    ( 0.0000,  0.0000,  0.0000)
  31 Li     3.247304    3.238917   15.416181    ( 0.0000,  0.0000,  0.0000)
  32 Li     6.451033    3.243136   15.414550    ( 0.0000,  0.0000,  0.0000)
  33 Li     0.000662    6.477061   15.433145    ( 0.0000,  0.0000,  0.0000)
  34 Li     3.224723    6.472376   15.437558    ( 0.0000,  0.0000,  0.0000)
  35 Li     6.476685    6.471615   15.436007    ( 0.0000,  0.0000,  0.0000)
  36 O      0.022616    1.536296   21.488331    ( 0.0000,  0.0000,  0.0000)
  37 C      1.231566    0.761762   21.550655    ( 0.0000,  0.0000,  0.0000)
  38 C      2.489907    1.611917   21.435851    ( 0.0000,  0.0000,  0.0000)
  39 H      1.252982    0.166663   22.471192    ( 0.0000,  0.0000,  0.0000)
  40 H      1.163010    0.064546   20.714223    ( 0.0000,  0.0000,  0.0000)
  41 H      3.378861    0.976571   21.404540    ( 0.0000,  0.0000,  0.0000)
  42 H      2.469013    2.215777   20.526669    ( 0.0000,  0.0000,  0.0000)
  43 H      2.588822    2.285842   22.291455    ( 0.0000,  0.0000,  0.0000)
  44 H      0.028353    2.158035   22.226093    ( 0.0000,  0.0000,  0.0000)
  45 N     -0.094059    1.646533   18.184407    ( 0.0000,  0.0000,  0.0000)
  46 N     -0.145227    0.559185   18.351832    ( 0.0000,  0.0000,  0.0000)

Unit cell:
           periodic     x           y           z      points  spacing
  1. axis:    yes    9.702222    0.000000    0.000000    60     0.1617
  2. axis:    yes    0.000000    9.702222    0.000000    60     0.1617
  3. axis:    no     0.000000    0.000000   24.851111   156     0.1593

  Lengths:   9.702222   9.702222  24.851111
  Angles:   90.000000  90.000000  90.000000

Effective grid spacing dv^(1/3) = 0.1609

     iter     time        total  log10-change:
                         energy  eigst   dens
iter:   1 23:46:15  -307.664570  +1.13
iter:   2 23:48:49  -308.371669  +0.41  -1.73
iter:   3 23:51:24  -308.530605  -0.09  -2.05
iter:   4 23:53:54  -308.590024  -0.50  -2.31
Writing to output.gpw (mode='')

iter:   5 23:56:30  -308.615442  -0.86  -2.55
iter:   6 23:59:01  -308.626754  -1.21  -2.66
iter:   7 00:01:35  -308.631908c -1.47  -2.77
iter:   8 00:04:04  -308.635322c -1.74  -3.08
iter:   9 00:06:31  -308.637396c -1.95  -3.28
Writing to output.gpw (mode='')

iter:  10 00:08:59  -308.639006c -2.10  -3.31
iter:  11 00:11:35  -308.639686c -2.33  -3.21
iter:  12 00:14:14  -308.640283c -2.53  -3.20
iter:  13 00:16:46  -308.640898c -2.63  -3.16
iter:  14 00:19:21  -308.641455c -2.68  -3.09
Writing to output.gpw (mode='')

iter:  15 00:22:00  -308.641394c -2.93  -2.85
iter:  16 00:24:40  -308.641558c -2.85  -3.05
iter:  17 00:27:18  -308.641310c -2.94  -3.00
iter:  18 00:29:58  -308.641395c -3.33  -3.46
iter:  19 00:32:37  -308.641492c -3.49  -3.46
Writing to output.gpw (mode='')

iter:  20 00:35:25  -308.641504c -3.63  -3.55
iter:  21 00:38:03  -308.641533c -3.56  -3.65
iter:  22 00:40:37  -308.641567c -3.88  -3.57
iter:  23 00:43:19  -308.641597c -3.89  -3.71
iter:  24 00:45:54  -308.641609c -4.10  -3.78
Writing to output.gpw (mode='')

iter:  25 00:48:35  -308.641624c -4.24  -3.98
iter:  26 00:51:22  -308.641636c -4.24  -4.10c
iter:  27 00:53:57  -308.641641c -4.43  -4.21c
iter:  28 00:56:34  -308.641649c -4.51  -4.32c
iter:  29 00:59:01  -308.641654c -4.52  -4.55c
Writing to output.gpw (mode='')

iter:  30 01:01:42  -308.641660c -4.69  -4.61c
iter:  31 01:04:16  -308.641663c -4.66  -4.58c
iter:  32 01:07:01  -308.641667c -4.81  -4.40c
iter:  33 01:09:33  -308.641670c -4.88  -4.38c
iter:  34 01:12:11  -308.641674c -4.86  -4.34c
Writing to output.gpw (mode='')

iter:  35 01:14:50  -308.641677c -4.97  -4.33c
iter:  36 01:17:17  -308.641679c -4.94  -4.33c
iter:  37 01:19:57  -308.641683c -5.04  -4.23c
iter:  38 01:22:37  -308.641684c -5.14  -4.18c
iter:  39 01:25:20  -308.641686c -5.22  -4.23c
Writing to output.gpw (mode='')

iter:  40 01:27:57  -308.641689c -5.26  -4.22c
iter:  41 01:30:39  -308.641689c -5.28  -4.26c
iter:  42 01:33:19  -308.641689c -5.27  -4.24c
iter:  43 01:35:56  -308.641691c -5.38  -4.14c
iter:  44 01:38:36  -308.641692c -5.31  -4.17c
Writing to output.gpw (mode='')

iter:  45 01:41:21  -308.641695c -5.44  -4.17c
iter:  46 01:44:00  -308.641695c -5.58  -4.32c
iter:  47 01:46:31  -308.641700c -5.51  -4.27c
iter:  48 01:49:07  -308.641701c -5.48  -4.40c
iter:  49 01:51:40  -308.641705c -5.36  -4.46c
Writing to output.gpw (mode='')

iter:  50 01:54:19  -308.641707c -5.48  -4.63c
iter:  51 01:56:55  -308.641707c -5.55  -4.68c
iter:  52 01:59:23  -308.641707c -5.63  -4.72c
iter:  53 02:01:54  -308.641707c -5.71  -4.72c
iter:  54 02:04:32  -308.641707c -5.83  -4.73c
Writing to output.gpw (mode='')

iter:  55 02:07:13  -308.641708c -5.83  -4.76c
iter:  56 02:09:45  -308.641709c -5.88  -4.85c
iter:  57 02:12:14  -308.641709c -5.91  -4.91c
iter:  58 02:14:48  -308.641709c -5.93  -4.94c
iter:  59 02:17:25  -308.641709c -5.90  -5.02c
Writing to output.gpw (mode='')

iter:  60 02:20:02  -308.641709c -6.04  -5.11c
iter:  61 02:22:32  -308.641709c -6.02  -5.11c
iter:  62 02:25:11  -308.641710c -6.06  -5.16c
iter:  63 02:27:45  -308.641711c -6.15  -5.37c
iter:  64 02:30:26  -308.641711c -6.15  -5.50c
Writing to output.gpw (mode='')

iter:  65 02:33:00  -308.641711c -6.15  -5.51c
iter:  66 02:35:32  -308.641711c -6.16  -5.56c
iter:  67 02:38:08  -308.641711c -6.07  -5.58c
iter:  68 02:40:42  -308.641712c -6.29  -5.54c
iter:  69 02:43:18  -308.641712c -6.37  -5.59c
Writing to output.gpw (mode='')

iter:  70 02:45:49  -308.641712c -6.42  -5.61c
iter:  71 02:48:20  -308.641712c -6.32  -5.58c
iter:  72 02:50:50  -308.641712c -6.46  -5.54c
iter:  73 02:53:23  -308.641712c -6.42  -5.50c
iter:  74 02:56:01  -308.641712c -6.50  -5.45c
Writing to output.gpw (mode='')

iter:  75 02:58:38  -308.641712c -6.58  -5.38c
iter:  76 03:01:11  -308.641712c -6.63  -5.53c
iter:  77 03:03:43  -308.641712c -6.62  -5.45c
iter:  78 03:06:20  -308.641712c -6.61  -5.46c
iter:  79 03:08:58  -308.641712c -6.45  -5.45c
Writing to output.gpw (mode='')

iter:  80 03:11:33  -308.641712c -6.61  -5.44c
iter:  81 03:14:03  -308.641713c -6.69  -5.40c
iter:  82 03:16:35  -308.641712c -6.68  -5.33c
iter:  83 03:19:11  -308.641713c -6.81  -5.30c
iter:  84 03:21:39  -308.641713c -6.77  -5.35c
Writing to output.gpw (mode='')

iter:  85 03:24:13  -308.641713c -6.77  -5.40c
iter:  86 03:26:40  -308.641713c -6.72  -5.31c
iter:  87 03:29:14  -308.641713c -6.81  -5.39c
iter:  88 03:31:45  -308.641713c -6.79  -5.41c
iter:  89 03:34:13  -308.641713c -7.00  -5.51c
Writing to output.gpw (mode='')

iter:  90 03:36:49  -308.641713c -7.00  -5.62c
iter:  91 03:39:21  -308.641713c -6.98  -5.61c
iter:  92 03:41:51  -308.641714c -6.93  -5.59c
iter:  93 03:44:24  -308.641714c -6.91  -5.58c
iter:  94 03:46:52  -308.641714c -7.07  -5.69c
Writing to output.gpw (mode='')

iter:  95 03:49:27  -308.641714c -7.10  -5.77c
iter:  96 03:52:01  -308.641714c -7.01  -5.82c
iter:  97 03:54:43  -308.641714c -6.92  -5.86c
iter:  98 03:57:26  -308.641714c -7.06  -5.91c
iter:  99 04:00:03  -308.641714c -7.31  -6.10c
Writing to output.gpw (mode='')

iter: 100 04:02:36  -308.641714c -7.17  -6.08c
iter: 101 04:05:07  -308.641714c -7.30  -6.18c
iter: 102 04:07:34  -308.641714c -7.36  -6.24c
iter: 103 04:10:01  -308.641714c -7.37  -6.49c
iter: 104 04:12:37  -308.641714c -7.43c -6.62c

Converged after 104 iterations.

Dipole moment: (3.142015, -13.380523, 0.310113) |e|*Ang

Energy contributions relative to reference atoms: (reference = -14434.854043)

Kinetic:       +151.116870
Potential:     -147.087084
External:        +0.000000
XC:            -313.342846
Entropy (-ST):   -0.151910
Local:           +0.747301
--------------------------
Free energy:   -308.717669
Extrapolated:  -308.641714

Dipole-layer corrected work functions: 3.395254, 2.799109 eV

Showing only first 2 kpts
 Kpt  Band  Eigenvalues  Occupancy
  0    31     -3.35488    1.98851
  0    32     -3.27353    1.94289
  0    33     -2.92069    0.05695
  0    34     -2.85034    0.01425

  1    31     -3.11163    1.14349
  1    32     -3.08265    0.85570
  1    33     -3.06445    0.68387
  1    34     -3.05287    0.58382


Fermi level: -3.09718

No gap
Writing to output.gpw (mode='')


Forces in eV/Ang:
  0 Li    0.00638    0.00137   -0.27344
  1 Li   -0.00097   -0.00001   -0.27803
  2 Li   -0.00554    0.00175   -0.27300
  3 Li   -0.00162    0.00205   -0.27402
  4 Li    0.00037   -0.00383   -0.27868
  5 Li    0.00136    0.00316   -0.27383
  6 Li   -0.00069   -0.00362   -0.27350
  7 Li    0.00015    0.00200   -0.27474
  8 Li    0.00055   -0.00488   -0.27362
  9 Li    0.00035   -0.00361    0.28883
 10 Li    0.00547   -0.00083    0.27064
 11 Li   -0.00551   -0.00199    0.27122
 12 Li    0.00062    0.01040    0.27031
 13 Li    0.00799    0.00652    0.26433
 14 Li   -0.00846    0.00886    0.26387
 15 Li   -0.00034   -0.00789    0.25907
 16 Li   -0.00701   -0.00399    0.25597
 17 Li    0.00729   -0.00557    0.25590
 18 Li    0.00078    0.00202    0.00133
 19 Li   -0.00074   -0.00119    0.00120
 20 Li   -0.00046    0.00183    0.00132
 21 Li   -0.00319   -0.00292    0.00522
 22 Li   -0.00047   -0.00072    0.00175
 23 Li    0.00347   -0.00283    0.00459
 24 Li   -0.00229    0.00159    0.00358
 25 Li   -0.00074    0.00171    0.00393
 26 Li    0.00269    0.00158    0.00344
 27 Li    0.00011    0.00866   -0.00601
 28 Li   -0.00661    0.00205   -0.00568
 29 Li    0.00561    0.00157   -0.00766
 30 Li   -0.00021   -0.01194    0.00644
 31 Li   -0.00179   -0.00100   -0.00394
 32 Li    0.00126   -0.00050   -0.00529
 33 Li   -0.00026    0.00262   -0.00908
 34 Li    0.00227   -0.00078   -0.00212
 35 Li   -0.00199   -0.00065   -0.00235
 36 O     0.01985    0.00729    0.01877
 37 C     0.01442   -0.00384    0.00115
 38 C     0.00699    0.00442   -0.01845
 39 H     0.01357   -0.00345   -0.00441
 40 H     0.00173    0.00306    0.00226
 41 H     0.00345   -0.00499    0.02166
 42 H    -0.01756   -0.00645   -0.02841
 43 H     0.00161   -0.01129   -0.01462
 44 H    -0.00258   -0.00496   -0.00979
 45 N     0.02940    0.03662   -0.00844
 46 N     0.00712   -0.03409    0.01643

Timing:                              incl.     excl.
-----------------------------------------------------------
Forces:                              8.731     8.731   0.1% |
Hamiltonian:                       122.823     0.000   0.0% |
 Atomic:                             0.141     0.001   0.0% |
  XC Correction:                     0.140     0.140   0.0% |
 Calculate atomic Hamiltonians:      0.561     0.561   0.0% |
 Communicate:                        0.350     0.350   0.0% |
 Hartree integrate/restrict:         0.155     0.155   0.0% |
 Poisson:                            4.276     1.973   0.0% |
  Communicate from 1D:               0.203     0.203   0.0% |
  Communicate from 2D:               0.429     0.429   0.0% |
  Communicate to 1D:                 0.135     0.135   0.0% |
  Communicate to 2D:                 0.697     0.697   0.0% |
  FFT 1D:                            0.514     0.514   0.0% |
  FFT 2D:                            0.325     0.325   0.0% |
 XC 3D grid:                       117.292    10.100   0.1% |
  VdW-DF integral:                 107.193     0.203   0.0% |
   Convolution:                      5.909     5.909   0.0% |
   FFT:                              0.937     0.937   0.0% |
   gather:                          76.443    76.443   0.5% |
   hmm1:                             0.812     0.812   0.0% |
   hmm2:                             1.040     1.040   0.0% |
   iFFT:                             1.014     1.014   0.0% |
   potential:                        7.289     0.085   0.0% |
    collect:                         0.602     0.602   0.0% |
    p1:                              2.734     2.734   0.0% |
    p2:                              1.838     1.838   0.0% |
    sum:                             2.030     2.030   0.0% |
   splines:                         13.547    13.547   0.1% |
 vbar:                               0.047     0.047   0.0% |
LCAO initialization:                10.937     0.942   0.0% |
 LCAO eigensolver:                   2.464     0.001   0.0% |
  Calculate projections:             0.000     0.000   0.0% |
  DenseAtomicCorrection:             0.000     0.000   0.0% |
  Distribute overlap matrix:         2.275     2.275   0.0% |
  Orbital Layouts:                   0.103     0.103   0.0% |
  Potential matrix:                  0.080     0.080   0.0% |
  Sum over cells:                    0.005     0.005   0.0% |
 LCAO to grid:                       6.182     6.182   0.0% |
 Set positions (LCAO WFS):           1.349     1.011   0.0% |
  Basic WFS set positions:           0.015     0.015   0.0% |
  Basis functions set positions:     0.001     0.001   0.0% |
  P tci:                             0.000     0.000   0.0% |
  ST tci:                            0.166     0.166   0.0% |
  mktci:                             0.156     0.156   0.0% |
Redistribute:                        0.011     0.011   0.0% |
SCF-cycle:                       16034.997   217.105   1.3% ||
 Davidson:                        4827.677  1942.048  12.0% |----|
  Apply hamiltonian:               298.675   298.675   1.8% ||
  Subspace diag:                   672.618     0.024   0.0% |
   calc_h_matrix:                  413.638   121.887   0.8% |
    Apply hamiltonian:             291.751   291.751   1.8% ||
   diagonalize:                     21.008    21.008   0.1% |
   rotate_psi:                     237.948   237.948   1.5% ||
  calc. matrices:                 1449.931   907.756   5.6% |-|
   Apply hamiltonian:              542.175   542.175   3.3% ||
  diagonalize:                       2.247     2.247   0.0% |
  rotate_psi:                      462.160   462.160   2.9% ||
 Density:                          102.596     0.004   0.0% |
  Atomic density matrices:          26.563    26.563   0.2% |
  Mix:                              30.907    30.907   0.2% |
  Multipole moments:                 0.577     0.577   0.0% |
  Pseudo density:                   44.544    44.541   0.3% |
   Symmetrize density:               0.003     0.003   0.0% |
 Hamiltonian:                    10883.434     0.021   0.0% |
  Atomic:                           16.545     0.272   0.0% |
   XC Correction:                   16.273    16.273   0.1% |
  Calculate atomic Hamiltonians:    54.976    54.976   0.3% |
  Communicate:                      50.016    50.016   0.3% |
  Hartree integrate/restrict:       18.127    18.127   0.1% |
  Poisson:                         410.284   186.119   1.1% |
   Communicate from 1D:             31.394    31.394   0.2% |
   Communicate from 2D:             50.771    50.771   0.3% |
   Communicate to 1D:               12.490    12.490   0.1% |
   Communicate to 2D:               48.589    48.589   0.3% |
   FFT 1D:                          39.744    39.744   0.2% |
   FFT 2D:                          41.176    41.176   0.3% |
  XC 3D grid:                    10328.995   992.117   6.1% |-|
   VdW-DF integral:               9336.878    20.800   0.1% |
    Convolution:                   600.849   600.849   3.7% ||
    FFT:                           100.045   100.045   0.6% |
    gather:                       7536.062  7536.062  46.5% |------------------|
    hmm1:                          100.261   100.261   0.6% |
    hmm2:                          134.764   134.764   0.8% |
    iFFT:                          104.191   104.191   0.6% |
    potential:                     739.906     8.070   0.0% |
     collect:                       68.079    68.079   0.4% |
     p1:                           291.908   291.908   1.8% ||
     p2:                           189.310   189.310   1.2% |
     sum:                          182.538   182.538   1.1% |
    splines:                         0.001     0.001   0.0% |
  vbar:                              4.469     4.469   0.0% |
 Orthonormalize:                     4.185     0.000   0.0% |
  calc_s_matrix:                     0.522     0.522   0.0% |
  inverse-cholesky:                  0.149     0.149   0.0% |
  projections:                       2.540     2.540   0.0% |
  rotate_psi_s:                      0.974     0.974   0.0% |
Set symmetry:                        0.003     0.003   0.0% |
Other:                              27.325    27.325   0.2% |
-----------------------------------------------------------
Total:                                     16204.828 100.0%

Memory usage: 1.54 GiB
Date: Sun Jan 29 04:12:47 2023
