
  ___ ___ ___ _ _ _  
 |   |   |_  | | | | 
 | | | | | . | | | | 
 |__ |  _|___|_____|  22.8.0
 |___|_|             

User:   vazumah@r306.ib.bridges2.psc.edu
Date:   Fri Mar 10 12:22:51 2023
Arch:   x86_64
Pid:    1367
CWD:    /jet/home/vazumah/Calcs/LiMEAS/proton_donors/ethanediol_y/ontop/9.702_9.702/N2_x
Python: 3.11.0
gpaw:   /jet/home/vazumah/.conda/envs/GPAW_mpich/lib/python3.11/site-packages/gpaw
_gpaw:  /jet/home/vazumah/.conda/envs/GPAW_mpich/lib/python3.11/site-packages/
        _gpaw.cpython-311-x86_64-linux-gnu.so
ase:    /jet/home/vazumah/.conda/envs/GPAW_mpich/lib/python3.11/site-packages/ase (version 3.22.1)
numpy:  /jet/home/vazumah/.conda/envs/GPAW_mpich/lib/python3.11/site-packages/numpy (version 1.24.2)
scipy:  /jet/home/vazumah/.conda/envs/GPAW_mpich/lib/python3.11/site-packages/scipy (version 1.10.1)
libxc:  5.2.3
units:  Angstrom and eV
cores: 128
OpenMP: True
OMP_NUM_THREADS: 1

Input parameters:
  h: 0.16
  kpts: {size: [4, 4, 1]}
  occupations: {name: fermi-dirac,
                width: 0.05}
  poissonsolver: {dipolelayer: xy}
  xc: BEEF-vdW

System changes: positions, numbers, cell, pbc, initial_charges, initial_magmoms 

Initialize ...

species:
  Li:
    name: Lithium
    id: 830b4218f175192f93f959cfc0aad614
    Z: 3.0
    valence: 1
    core: 2
    charge: 0.0
    file: /jet/home/vazumah/datasets/gpaw-setups-0.9.20000/Li.PBE.gz
    compensation charges: {type: gauss,
                           rc: 0.33,
                           lmax: 2}
    cutoffs: {filter: 1.91,
              core: 2.55}
    valence states:
      #              energy  rcut
      - 2s(1.00)    -2.874   1.058
      - 2p(0.00)    -1.090   1.058
      -  s          24.337   1.058
  
    # Using partial waves for Li as LCAO basis

  O:
    name: Oxygen
    id: 32ecd46bf208036f09c70b0ec9a88b78
    Z: 8.0
    valence: 6
    core: 2
    charge: 0.0
    file: /jet/home/vazumah/datasets/gpaw-setups-0.9.20000/O.PBE.gz
    compensation charges: {type: gauss,
                           rc: 0.21,
                           lmax: 2}
    cutoffs: {filter: 1.17,
              core: 0.83}
    valence states:
      #              energy  rcut
      - 2s(2.00)   -23.961   0.688
      - 2p(4.00)    -9.029   0.598
      -  s           3.251   0.688
      -  p          18.182   0.598
      -  d           0.000   0.619
  
    # Using partial waves for O as LCAO basis

  C:
    name: Carbon
    id: 4aa54d4b901d75f77cc0ea3eec22967b
    Z: 6.0
    valence: 4
    core: 2
    charge: 0.0
    file: /jet/home/vazumah/datasets/gpaw-setups-0.9.20000/C.PBE.gz
    compensation charges: {type: gauss,
                           rc: 0.20,
                           lmax: 2}
    cutoffs: {filter: 1.14,
              core: 1.14}
    valence states:
      #              energy  rcut
      - 2s(2.00)   -13.751   0.635
      - 2p(2.00)    -5.284   0.635
      -  s          13.461   0.635
      -  p          21.927   0.635
      -  d           0.000   0.635
  
    # Using partial waves for C as LCAO basis

  H:
    name: Hydrogen
    id: d65de229564ff8ea4db303e23b6d1ecf
    Z: 1.0
    valence: 1
    core: 0
    charge: 0.0
    file: /jet/home/vazumah/datasets/gpaw-setups-0.9.20000/H.PBE.gz
    compensation charges: {type: gauss,
                           rc: 0.15,
                           lmax: 2}
    cutoffs: {filter: 0.85,
              core: 0.53}
    valence states:
      #              energy  rcut
      - 1s(1.00)    -6.494   0.476
      -  s          20.717   0.476
      -  p           0.000   0.476
  
    # Using partial waves for H as LCAO basis

  N:
    name: Nitrogen
    id: f7500608b86eaa90eef8b1d9a670dc53
    Z: 7.0
    valence: 5
    core: 2
    charge: 0.0
    file: /jet/home/vazumah/datasets/gpaw-setups-0.9.20000/N.PBE.gz
    compensation charges: {type: gauss,
                           rc: 0.18,
                           lmax: 2}
    cutoffs: {filter: 1.11,
              core: 0.96}
    valence states:
      #              energy  rcut
      - 2s(2.00)   -18.583   0.603
      - 2p(3.00)    -7.089   0.529
      -  s           8.629   0.603
      -  p          20.123   0.529
      -  d           0.000   0.577
  
    # Using partial waves for N as LCAO basis

Reference energy: -16475.706344  # eV

Spin-paired calculation

Convergence criteria:
 Maximum [total energy] change in last 3 cyles: 0.0005 eV / electron
 Maximum integral of absolute [dens]ity change: 0.0001 electrons / valence electron
 Maximum integral of absolute [eigenst]ate change: 4e-08 eV^2 / valence electron
 Maximum number of scf [iter]ations: 333
 (Square brackets indicate name in SCF output, whereas a 'c' in
 the SCF output indicates the quantity has converged.)

Symmetries present (total): 1

  ( 1  0  0)
  ( 0  1  0)
  ( 0  0  1)

16 k-points: 4 x 4 x 1 Monkhorst-Pack grid
8 k-points in the irreducible part of the Brillouin zone
       k-points in crystal coordinates                weights
   0:     0.12500000   -0.37500000    0.00000000          2/16
   1:     0.12500000   -0.12500000    0.00000000          2/16
   2:     0.12500000    0.12500000    0.00000000          2/16
   3:     0.12500000    0.37500000    0.00000000          2/16
   4:     0.37500000   -0.37500000    0.00000000          2/16
   5:     0.37500000   -0.12500000    0.00000000          2/16
   6:     0.37500000    0.12500000    0.00000000          2/16
   7:     0.37500000    0.37500000    0.00000000          2/16

Wave functions: Uniform real-space grid
  Kinetic energy operator: 6*3+1=19 point O(h^6) finite-difference Laplacian
  ScaLapack parameters: grid=1x1, blocksize=None
  Wavefunction extrapolation:
    Improved wavefunction reuse through dual PAW basis 

Occupation numbers: Fermi-Dirac:
  width: 0.0500  # eV
 

Eigensolver
   Davidson(niter=2) 

Densities:
  Coarse grid: 60*60*164 grid
  Fine grid: 120*120*328 grid
  Total Charge: 0.000000 

Density mixing:
  Method: separate
  Backend: pulay
  Linear mixing parameter: 0.05
  old densities: 5
  Damping of long wavelength oscillations: 50 

Hamiltonian:
  XC and Coulomb potentials evaluated on a 120*120*328 grid
  Using the BEEF-vdW Exchange-Correlation functional
  Interpolation: tri-quintic (5. degree polynomial)
  Poisson solver: FastPoissonSolver using
    Stencil: 6*3+1=19 point O(h^6) finite-difference Laplacian
    FFT axes: [0, 1]
    FST axes: [2]

Dipole correction along z-axis 

XC parameters: BEEF-vdW with 2 nearest neighbor stencil

Memory estimate:
  Process memory now: 128.29 MiB
  Calculator: 84.78 MiB
    Density: 22.56 MiB
      Arrays: 7.22 MiB
      Localized functions: 12.59 MiB
      Mixer: 2.75 MiB
    Hamiltonian: 5.72 MiB
      Arrays: 4.72 MiB
      XC: 0.00 MiB
      Poisson: 0.00 MiB
      vbar: 0.99 MiB
    Wavefunctions: 56.50 MiB
      Arrays psit_nG: 26.37 MiB
      Eigensolver: 29.47 MiB
      Projections: 0.01 MiB
      Projectors: 0.66 MiB

Total number of cores used: 128
Parallelization over k-points: 8
Domain decomposition: 2 x 2 x 4

Number of atoms: 48
Number of atomic orbitals: 174
Number of bands in calculation: 48
Number of valence electrons: 72
Bands to converge: occupied

... initialized

Initializing position-dependent things.

Density initialized from atomic densities
Creating initial wave functions:
  48 bands from LCAO basis set

       .-----------------------.  
      /|                       |  
     / |                       |  
    /  |                       |  
   /   |                       |  
  /    |                       |  
 *     |                       |  
 |     H                       |  
 |     |                       |  
 |     |                       |  
 |     |                       |  
 |     |                    N  N  
 |   H |                       |  
 | O C |H                H     |  
 O  C H|                       |  
 |   Li|     Li      Li        |  
 |  H  |                       |  
 | Li  |  LLi     LLi     Li   |  
 |     |                       |  
 Li    |LLi     LLi     Li     |  
 |   Li|     Li      Li        |  
 |    Li  Li  Li  Li  Li  Li   |  
 | Li  |   Li      Li          |  
 |     |Li      Li      Li     |  
 Li    | Li      Li            |  
 |    Li      Li      Li       |  
 |     |                       |  
 |     |                       |  
 |     |                       |  
 |     |                       |  
 |     |                       |  
 |     |                       |  
 |     .-----------------------.  
 |    /                       /   
 |   /                       /    
 |  /                       /     
 | /                       /      
 |/                       /       
 *-----------------------*        

Positions:
   0 Li     1.617037    1.617037   10.000000    ( 0.0000,  0.0000,  0.0000)
   1 Li     4.851111    1.617037   10.000000    ( 0.0000,  0.0000,  0.0000)
   2 Li     8.085185    1.617037   10.000000    ( 0.0000,  0.0000,  0.0000)
   3 Li     1.617037    4.851111   10.000000    ( 0.0000,  0.0000,  0.0000)
   4 Li     4.851111    4.851111   10.000000    ( 0.0000,  0.0000,  0.0000)
   5 Li     8.085185    4.851111   10.000000    ( 0.0000,  0.0000,  0.0000)
   6 Li     1.617037    8.085185   10.000000    ( 0.0000,  0.0000,  0.0000)
   7 Li     4.851111    8.085185   10.000000    ( 0.0000,  0.0000,  0.0000)
   8 Li     8.085185    8.085185   10.000000    ( 0.0000,  0.0000,  0.0000)
   9 Li     0.000000    0.000000   11.617037    ( 0.0000,  0.0000,  0.0000)
  10 Li     3.234074    0.000000   11.617037    ( 0.0000,  0.0000,  0.0000)
  11 Li     6.468148    0.000000   11.617037    ( 0.0000,  0.0000,  0.0000)
  12 Li     0.000000    3.234074   11.617037    ( 0.0000,  0.0000,  0.0000)
  13 Li     3.234074    3.234074   11.617037    ( 0.0000,  0.0000,  0.0000)
  14 Li     6.468148    3.234074   11.617037    ( 0.0000,  0.0000,  0.0000)
  15 Li     0.000000    6.468148   11.617037    ( 0.0000,  0.0000,  0.0000)
  16 Li     3.234074    6.468148   11.617037    ( 0.0000,  0.0000,  0.0000)
  17 Li     6.468148    6.468148   11.617037    ( 0.0000,  0.0000,  0.0000)
  18 Li     1.617038    1.617038   13.469728    ( 0.0000,  0.0000,  0.0000)
  19 Li     4.851111    1.617038   13.469729    ( 0.0000,  0.0000,  0.0000)
  20 Li     8.085184    1.617038   13.469728    ( 0.0000,  0.0000,  0.0000)
  21 Li     1.617038    4.851111   13.469729    ( 0.0000,  0.0000,  0.0000)
  22 Li     4.851111    4.851111   13.469730    ( 0.0000,  0.0000,  0.0000)
  23 Li     8.085184    4.851111   13.469729    ( 0.0000,  0.0000,  0.0000)
  24 Li     1.617038    8.085184   13.469728    ( 0.0000,  0.0000,  0.0000)
  25 Li     4.851111    8.085184   13.469729    ( 0.0000,  0.0000,  0.0000)
  26 Li     8.085184    8.085184   13.469728    ( 0.0000,  0.0000,  0.0000)
  27 Li    -0.000000   -0.000000   15.445939    ( 0.0000,  0.0000,  0.0000)
  28 Li     3.234074    0.000000   15.445939    ( 0.0000,  0.0000,  0.0000)
  29 Li     6.468148    0.000000   15.445939    ( 0.0000,  0.0000,  0.0000)
  30 Li     0.000000    3.234074   15.445939    ( 0.0000,  0.0000,  0.0000)
  31 Li     3.234076    3.234076   15.445938    ( 0.0000,  0.0000,  0.0000)
  32 Li     6.468146    3.234076   15.445938    ( 0.0000,  0.0000,  0.0000)
  33 Li     0.000000    6.468148   15.445939    ( 0.0000,  0.0000,  0.0000)
  34 Li     3.234076    6.468146   15.445938    ( 0.0000,  0.0000,  0.0000)
  35 Li     6.468146    6.468146   15.445938    ( 0.0000,  0.0000,  0.0000)
  36 O      9.702222    9.702222   19.445939    ( 0.0000,  0.0000,  0.0000)
  37 O      9.746216   12.600420   19.213250    ( 0.0000,  0.0000,  0.0000)
  38 C     10.873434   10.430783   19.033562    ( 0.0000,  0.0000,  0.0000)
  39 C     10.887124   11.839968   19.602713    ( 0.0000,  0.0000,  0.0000)
  40 H     11.787824    9.902657   19.326395    ( 0.0000,  0.0000,  0.0000)
  41 H     10.826136   10.463532   17.943996    ( 0.0000,  0.0000,  0.0000)
  42 H     11.761390   12.376687   19.226232    ( 0.0000,  0.0000,  0.0000)
  43 H     10.962625   11.790239   20.701774    ( 0.0000,  0.0000,  0.0000)
  44 H      9.776737    9.532798   20.393261    ( 0.0000,  0.0000,  0.0000)
  45 H      8.979095   12.020954   19.309689    ( 0.0000,  0.0000,  0.0000)
  46 N      9.702000    9.702000   16.945939    ( 0.0000,  0.0000,  0.0000)
  47 N      8.605378    9.702000   16.945939    ( 0.0000,  0.0000,  0.0000)

Unit cell:
           periodic     x           y           z      points  spacing
  1. axis:    yes    9.702222    0.000000    0.000000    60     0.1617
  2. axis:    yes    0.000000    9.702222    0.000000    60     0.1617
  3. axis:    no     0.000000    0.000000   26.351111   164     0.1607

  Lengths:   9.702222   9.702222  26.351111
  Angles:   90.000000  90.000000  90.000000

Effective grid spacing dv^(1/3) = 0.1614

     iter     time        total  log10-change:
                         energy  eigst   dens
iter:   1 12:23:06  -637.132735
iter:   2 12:23:13   -37.570118  +2.64  +0.02
iter:   3 12:23:21   -23.081815  +3.20  -0.17
iter:   4 12:23:28  -184.894383  +3.16  -0.27
Writing to output.gpw (mode='')

iter:   5 12:23:35  -276.895434  +2.82  -0.33
iter:   6 12:23:42  -336.575907  +2.45  -0.57
iter:   7 12:23:50  -345.946197  +2.12  -0.57
iter:   8 12:23:57  -354.613737  +1.88  -0.57
iter:   9 12:24:04  -365.580229  +1.72  -0.53
Writing to output.gpw (mode='')

iter:  10 12:24:11  -334.059288  +1.42  -0.57
iter:  11 12:24:19  -353.654648  +1.27  -0.66
iter:  12 12:24:26  -333.944777  +0.73  -0.62
iter:  13 12:24:39  -327.866985  +0.94  -0.79
iter:  14 12:24:48  -326.479385  +0.81  -0.87
Writing to output.gpw (mode='')

iter:  15 12:24:58  -326.344318  +0.48  -0.93
iter:  16 12:25:06  -325.781072  +0.39  -0.95
iter:  17 12:25:13  -325.722355  +0.22  -0.94
iter:  18 12:25:20  -325.110259  +0.43  -0.96
iter:  19 12:25:27  -324.834740  -0.01  -1.13
Writing to output.gpw (mode='')

iter:  20 12:25:35  -324.621116  -0.39  -1.25
iter:  21 12:25:42  -324.528929  -0.46  -1.37
iter:  22 12:25:49  -324.500065  -0.74  -1.49
iter:  23 12:25:56  -324.501713c -0.57  -1.54
iter:  24 12:26:04  -324.476885c -0.92  -1.79
Writing to output.gpw (mode='')

iter:  25 12:26:11  -324.474667c -1.00  -1.86
iter:  26 12:26:18  -324.483543c -1.38  -1.90
iter:  27 12:26:26  -324.491226c -1.36  -1.99
iter:  28 12:26:33  -324.486398c -1.34  -2.11
iter:  29 12:26:40  -324.487013c -1.92  -2.20
Writing to output.gpw (mode='')

iter:  30 12:26:47  -324.489840c -1.62  -2.29
iter:  31 12:26:55  -324.491082c -2.14  -2.48
iter:  32 12:27:02  -324.493450c -2.05  -2.58
iter:  33 12:27:09  -324.494280c -2.43  -2.60
iter:  34 12:27:16  -324.495273c -2.46  -2.61
Writing to output.gpw (mode='')

iter:  35 12:27:24  -324.495068c -2.53  -2.59
iter:  36 12:27:31  -324.496383c -2.47  -2.60
iter:  37 12:27:39  -324.496768c -2.56  -2.60
iter:  38 12:27:48  -324.497241c -2.65  -2.63
iter:  39 12:28:00  -324.497748c -2.74  -2.63
Writing to output.gpw (mode='')

iter:  40 12:28:09  -324.498133c -2.68  -2.76
iter:  41 12:28:16  -324.498326c -3.03  -3.04
iter:  42 12:28:24  -324.498521c -2.99  -3.11
iter:  43 12:28:31  -324.498777c -2.92  -3.13
iter:  44 12:28:38  -324.499027c -3.23  -3.21
Writing to output.gpw (mode='')

iter:  45 12:28:45  -324.499163c -3.25  -3.42
iter:  46 12:28:53  -324.499298c -3.32  -3.53
iter:  47 12:29:00  -324.499399c -3.48  -3.55
iter:  48 12:29:07  -324.499517c -3.34  -3.56
iter:  49 12:29:14  -324.499615c -3.48  -3.62
Writing to output.gpw (mode='')

iter:  50 12:29:22  -324.499692c -3.54  -3.67
iter:  51 12:29:29  -324.499763c -3.71  -3.74
iter:  52 12:29:41  -324.499816c -3.85  -3.79
iter:  53 12:29:48  -324.499868c -3.89  -3.98
iter:  54 12:29:56  -324.499916c -3.98  -4.03c
Writing to output.gpw (mode='')

iter:  55 12:30:03  -324.499945c -4.02  -4.09c
iter:  56 12:30:10  -324.499974c -3.94  -4.16c
iter:  57 12:30:17  -324.499998c -4.09  -4.34c
iter:  58 12:30:25  -324.500018c -4.14  -4.41c
iter:  59 12:30:32  -324.500037c -4.17  -4.37c
Writing to output.gpw (mode='')

iter:  60 12:30:39  -324.500053c -4.25  -4.32c
iter:  61 12:30:46  -324.500068c -4.36  -4.27c
iter:  62 12:30:54  -324.500082c -4.25  -4.26c
iter:  63 12:31:01  -324.500095c -4.26  -4.24c
iter:  64 12:31:08  -324.500106c -4.43  -4.21c
Writing to output.gpw (mode='')

iter:  65 12:31:15  -324.500113c -4.58  -4.12c
iter:  66 12:31:23  -324.500119c -4.72  -4.15c
iter:  67 12:31:30  -324.500127c -4.74  -4.08c
iter:  68 12:31:37  -324.500136c -4.49  -4.12c
iter:  69 12:31:44  -324.500143c -4.70  -4.11c
Writing to output.gpw (mode='')

iter:  70 12:31:51  -324.500148c -4.80  -4.07c
iter:  71 12:31:59  -324.500159c -4.75  -4.10c
iter:  72 12:32:06  -324.500165c -4.84  -4.14c
iter:  73 12:32:13  -324.500168c -4.70  -4.20c
iter:  74 12:32:20  -324.500174c -4.77  -4.31c
Writing to output.gpw (mode='')

iter:  75 12:32:28  -324.500174c -5.10  -4.48c
iter:  76 12:32:35  -324.500175c -5.17  -4.54c
iter:  77 12:32:42  -324.500179c -4.96  -4.53c
iter:  78 12:32:49  -324.500181c -5.07  -4.55c
iter:  79 12:32:57  -324.500181c -5.11  -4.58c
Writing to output.gpw (mode='')

iter:  80 12:33:04  -324.500183c -5.32  -4.57c
iter:  81 12:33:11  -324.500186c -5.22  -4.72c
iter:  82 12:33:18  -324.500187c -5.39  -4.77c
iter:  83 12:33:26  -324.500189c -5.35  -4.85c
iter:  84 12:33:33  -324.500190c -5.58  -5.06c
Writing to output.gpw (mode='')

iter:  85 12:33:40  -324.500191c -5.66  -5.12c
iter:  86 12:33:47  -324.500191c -5.62  -5.21c
iter:  87 12:33:54  -324.500192c -5.70  -5.28c
iter:  88 12:34:02  -324.500192c -5.70  -5.40c
iter:  89 12:34:09  -324.500193c -5.77  -5.57c
Writing to output.gpw (mode='')

iter:  90 12:34:16  -324.500193c -5.79  -5.56c
iter:  91 12:34:23  -324.500193c -5.84  -5.48c
iter:  92 12:34:31  -324.500194c -5.90  -5.47c
iter:  93 12:34:44  -324.500194c -5.98  -5.40c
iter:  94 12:34:51  -324.500194c -6.01  -5.31c
Writing to output.gpw (mode='')

iter:  95 12:34:58  -324.500194c -5.97  -5.30c
iter:  96 12:35:05  -324.500194c -6.08  -5.28c
iter:  97 12:35:13  -324.500195c -5.89  -5.23c
iter:  98 12:35:20  -324.500195c -6.15  -5.18c
iter:  99 12:35:27  -324.500195c -6.21  -5.15c
Writing to output.gpw (mode='')

iter: 100 12:35:34  -324.500195c -6.30  -5.09c
iter: 101 12:35:42  -324.500196c -6.27  -5.12c
iter: 102 12:35:49  -324.500196c -6.12  -5.22c
iter: 103 12:35:56  -324.500196c -6.12  -5.27c
iter: 104 12:36:03  -324.500196c -6.47  -5.27c
Writing to output.gpw (mode='')

iter: 105 12:36:11  -324.500197c -6.32  -5.24c
iter: 106 12:36:18  -324.500198c -6.32  -5.37c
iter: 107 12:36:25  -324.500198c -6.63  -5.40c
iter: 108 12:36:32  -324.500198c -6.67  -5.33c
iter: 109 12:36:39  -324.500198c -6.67  -5.30c
Writing to output.gpw (mode='')

iter: 110 12:36:47  -324.500198c -6.70  -5.34c
iter: 111 12:36:54  -324.500198c -6.87  -5.38c
iter: 112 12:37:01  -324.500197c -6.75  -5.36c
iter: 113 12:37:08  -324.500197c -6.94  -5.42c
iter: 114 12:37:16  -324.500197c -7.08  -5.34c
Writing to output.gpw (mode='')

iter: 115 12:37:23  -324.500197c -7.02  -5.34c
iter: 116 12:37:30  -324.500197c -7.00  -5.38c
iter: 117 12:37:37  -324.500197c -7.13  -5.35c
iter: 118 12:37:45  -324.500198c -7.03  -5.33c
iter: 119 12:37:52  -324.500198c -7.26  -5.37c
Writing to output.gpw (mode='')

iter: 120 12:37:59  -324.500198c -7.31  -5.34c
iter: 121 12:38:06  -324.500198c -7.31  -5.40c
iter: 122 12:38:14  -324.500198c -7.24  -5.40c
iter: 123 12:38:21  -324.500198c -7.18  -5.46c
iter: 124 12:38:28  -324.500198c -7.20  -5.50c
Writing to output.gpw (mode='')

iter: 125 12:38:35  -324.500198c -7.47c -5.55c

Converged after 125 iterations.

Dipole moment: (-20.553274, -17.670446, 0.316301) |e|*Ang

Energy contributions relative to reference atoms: (reference = -16475.706344)

Kinetic:       +183.155577
Potential:     -170.861737
External:        +0.000000
XC:            -337.877087
Entropy (-ST):   -0.148269
Local:           +1.157184
--------------------------
Free energy:   -324.574332
Extrapolated:  -324.500198

Dipole-layer corrected work functions: 3.403919, 2.795879 eV

Showing only first 2 kpts
 Kpt  Band  Eigenvalues  Occupancy
  0    34     -3.35166    1.98707
  0    35     -3.23520    1.87476
  0    36     -2.95300    0.10061
  0    37     -2.86558    0.01827

  1    34     -3.16363    1.56305
  1    35     -3.09838    0.98486
  1    36     -3.05340    0.56582
  1    37     -2.99872    0.23351


Fermi level: -3.09990

No gap

Forces in eV/Ang:
  0 Li    0.01895    0.00214   -0.27435
  1 Li   -0.00987   -0.00607   -0.26420
  2 Li   -0.00799    0.01454   -0.26910
  3 Li   -0.00865    0.00020   -0.26569
  4 Li    0.00452    0.00003   -0.28966
  5 Li   -0.00315    0.00191   -0.27110
  6 Li    0.01747   -0.00277   -0.27496
  7 Li   -0.00849    0.00481   -0.26696
  8 Li   -0.00760   -0.01612   -0.27035
  9 Li    0.00085   -0.00061    0.33249
 10 Li    0.00855   -0.00020    0.24448
 11 Li   -0.02194    0.00015    0.25687
 12 Li   -0.00330    0.01074    0.26143
 13 Li    0.00720    0.00963    0.24773
 14 Li    0.00127    0.00408    0.25733
 15 Li   -0.00401   -0.01188    0.25446
 16 Li    0.00254   -0.00809    0.25081
 17 Li    0.00587   -0.00340    0.25862
 18 Li    0.00698    0.01303   -0.00314
 19 Li    0.00546   -0.00741    0.06478
 20 Li   -0.00978   -0.01513   -0.03205
 21 Li   -0.00545    0.00295    0.06224
 22 Li   -0.00256   -0.00025    0.01277
 23 Li    0.01289    0.00080    0.06502
 24 Li    0.00495   -0.01504   -0.01774
 25 Li    0.00459    0.00799    0.06258
 26 Li   -0.00631    0.01436   -0.03200
 27 Li    0.63713   -0.02031   -7.81037
 28 Li    0.04879    0.00372   -0.05271
 29 Li    0.14806    0.00472    0.11276
 30 Li    0.02483    0.10195    0.01565
 31 Li    0.01163   -0.01105   -0.03598
 32 Li   -0.04765    0.04563   -0.04464
 33 Li    0.02294   -0.09848   -0.04991
 34 Li    0.01315    0.00214   -0.02830
 35 Li   -0.04498   -0.04878   -0.04121
 36 O     0.12449    0.08020    0.39200
 37 O    -0.10226    0.08152   -0.17291
 38 C     0.47023    0.39318    0.69926
 39 C     0.11462   -0.09281    0.18162
 40 H     0.05217   -0.06344    0.01884
 41 H     0.53867    0.31520    0.79480
 42 H     0.03784    0.01354    0.01228
 43 H    -0.00032    0.08399   -0.00268
 44 H     0.02767   -0.01666    0.00510
 45 H    -0.07333   -0.00828    0.03485
 46 N     3.75205   -0.78602    5.16174
 47 N    -5.73584    0.03814    0.73573

System changes: positions 

Initializing position-dependent things.

Density initialized from wave functions
       .-----------------------.  
      /|                       |  
     / |                       |  
    /  |                       |  
   /   |                       |  
  /    |                       |  
 *     |                       |  
 |     H                       |  
 |     |                       |  
 |     |                       |  
 |     |                       |  
 |     N                    N  |  
 |   H |                       |  
 | O C LH                H     |  
 O  C H|                       |  
 |   Li|     Li      Li        |  
 |  H  |                       |  
 | Li  |  LLi     LLi     Li   |  
 |     |                       |  
 |     |LLi     LLi     Li     |  
 |   Li|     Li      Li        |  
 |    Li  Li  Li  Li  Li  Li   |  
 | Li  |   Li      Li          |  
 |     |Li      Li      Li     |  
 Li    | Li      Li            |  
 |    Li      Li      Li       |  
 |     |                       |  
 |     |                       |  
 |     |                       |  
 |     |                       |  
 |     |                       |  
 |     |                       |  
 |     .-----------------------.  
 |    /                       /   
 |   /                       /    
 |  /                       /     
 | /                       /      
 |/                       /       
 *-----------------------*        

Positions:
   0 Li     1.617037    1.617037   10.000000    ( 0.0000,  0.0000,  0.0000)
   1 Li     4.851111    1.617037   10.000000    ( 0.0000,  0.0000,  0.0000)
   2 Li     8.085185    1.617037   10.000000    ( 0.0000,  0.0000,  0.0000)
   3 Li     1.617037    4.851111   10.000000    ( 0.0000,  0.0000,  0.0000)
   4 Li     4.851111    4.851111   10.000000    ( 0.0000,  0.0000,  0.0000)
   5 Li     8.085185    4.851111   10.000000    ( 0.0000,  0.0000,  0.0000)
   6 Li     1.617037    8.085185   10.000000    ( 0.0000,  0.0000,  0.0000)
   7 Li     4.851111    8.085185   10.000000    ( 0.0000,  0.0000,  0.0000)
   8 Li     8.085185    8.085185   10.000000    ( 0.0000,  0.0000,  0.0000)
   9 Li     0.000000    0.000000   11.617037    ( 0.0000,  0.0000,  0.0000)
  10 Li     3.234074    0.000000   11.617037    ( 0.0000,  0.0000,  0.0000)
  11 Li     6.468148    0.000000   11.617037    ( 0.0000,  0.0000,  0.0000)
  12 Li     0.000000    3.234074   11.617037    ( 0.0000,  0.0000,  0.0000)
  13 Li     3.234074    3.234074   11.617037    ( 0.0000,  0.0000,  0.0000)
  14 Li     6.468148    3.234074   11.617037    ( 0.0000,  0.0000,  0.0000)
  15 Li     0.000000    6.468148   11.617037    ( 0.0000,  0.0000,  0.0000)
  16 Li     3.234074    6.468148   11.617037    ( 0.0000,  0.0000,  0.0000)
  17 Li     6.468148    6.468148   11.617037    ( 0.0000,  0.0000,  0.0000)
  18 Li     1.617074    1.617105   13.469712    ( 0.0000,  0.0000,  0.0000)
  19 Li     4.851139    1.617001   13.470060    ( 0.0000,  0.0000,  0.0000)
  20 Li     8.085134    1.616961   13.469564    ( 0.0000,  0.0000,  0.0000)
  21 Li     1.617011    4.851126   13.470047    ( 0.0000,  0.0000,  0.0000)
  22 Li     4.851098    4.851110   13.469795    ( 0.0000,  0.0000,  0.0000)
  23 Li     8.085249    4.851115   13.470061    ( 0.0000,  0.0000,  0.0000)
  24 Li     1.617063    8.085107   13.469637    ( 0.0000,  0.0000,  0.0000)
  25 Li     4.851134    8.085224   13.470049    ( 0.0000,  0.0000,  0.0000)
  26 Li     8.085152    8.085257   13.469565    ( 0.0000,  0.0000,  0.0000)
  27 Li     0.003252   -0.000104   15.406072    ( 0.0000,  0.0000,  0.0000)
  28 Li     3.234323    0.000019   15.445670    ( 0.0000,  0.0000,  0.0000)
  29 Li     6.468904    0.000024   15.446514    ( 0.0000,  0.0000,  0.0000)
  30 Li     0.000127    3.234594   15.446019    ( 0.0000,  0.0000,  0.0000)
  31 Li     3.234136    3.234020   15.445754    ( 0.0000,  0.0000,  0.0000)
  32 Li     6.467902    3.234309   15.445710    ( 0.0000,  0.0000,  0.0000)
  33 Li     0.000117    6.467646   15.445684    ( 0.0000,  0.0000,  0.0000)
  34 Li     3.234144    6.468156   15.445794    ( 0.0000,  0.0000,  0.0000)
  35 Li     6.467916    6.467897   15.445728    ( 0.0000,  0.0000,  0.0000)
  36 O      9.702857    9.702631   19.447940    ( 0.0000,  0.0000,  0.0000)
  37 O      9.745694   12.600836   19.212368    ( 0.0000,  0.0000,  0.0000)
  38 C     10.875834   10.432790   19.037131    ( 0.0000,  0.0000,  0.0000)
  39 C     10.887709   11.839495   19.603640    ( 0.0000,  0.0000,  0.0000)
  40 H     11.788091    9.902333   19.326492    ( 0.0000,  0.0000,  0.0000)
  41 H     10.828885   10.465141   17.948053    ( 0.0000,  0.0000,  0.0000)
  42 H     11.761583   12.376756   19.226295    ( 0.0000,  0.0000,  0.0000)
  43 H     10.962624   11.790667   20.701760    ( 0.0000,  0.0000,  0.0000)
  44 H      9.776878    9.532713   20.393287    ( 0.0000,  0.0000,  0.0000)
  45 H      8.978721   12.020912   19.309867    ( 0.0000,  0.0000,  0.0000)
  46 N      9.721152    9.697988   16.972287    ( 0.0000,  0.0000,  0.0000)
  47 N      8.576100    9.702195   16.949695    ( 0.0000,  0.0000,  0.0000)

Unit cell:
           periodic     x           y           z      points  spacing
  1. axis:    yes    9.702222    0.000000    0.000000    60     0.1617
  2. axis:    yes    0.000000    9.702222    0.000000    60     0.1617
  3. axis:    no     0.000000    0.000000   26.351111   164     0.1607

  Lengths:   9.702222   9.702222  26.351111
  Angles:   90.000000  90.000000  90.000000

Effective grid spacing dv^(1/3) = 0.1614

     iter     time        total  log10-change:
                         energy  eigst   dens
iter:   1 12:38:44  -327.853179  +0.27
iter:   2 12:38:51  -326.179617  +0.13  -1.07
iter:   3 12:38:59  -325.082492  -0.63  -1.13
iter:   4 12:39:06  -325.010934  -1.20  -1.68
Writing to output.gpw (mode='')

iter:   5 12:39:13  -325.006306  -1.45  -2.04
iter:   6 12:39:21  -324.996380c -1.14  -2.15
iter:   7 12:39:28  -324.995957c -1.67  -2.23
iter:   8 12:39:40  -324.995883c -1.86  -2.33
iter:   9 12:39:49  -324.996308c -1.98  -2.51
Writing to output.gpw (mode='')

iter:  10 12:39:56  -324.995518c -2.42  -2.54
iter:  11 12:40:03  -324.995896c -2.65  -2.70
iter:  12 12:40:11  -324.996188c -2.64  -2.75
iter:  13 12:40:18  -324.996135c -2.88  -2.84
iter:  14 12:40:25  -324.996308c -2.95  -2.98
Writing to output.gpw (mode='')

iter:  15 12:40:33  -324.996409c -3.32  -3.18
iter:  16 12:40:40  -324.996494c -3.41  -3.23
iter:  17 12:40:47  -324.996551c -3.38  -3.28
iter:  18 12:40:58  -324.996606c -3.46  -3.37
iter:  19 12:41:05  -324.996647c -3.74  -3.48
Writing to output.gpw (mode='')

iter:  20 12:41:12  -324.996694c -3.65  -3.54
iter:  21 12:41:20  -324.996738c -3.69  -3.62
iter:  22 12:41:27  -324.996757c -3.96  -3.70
iter:  23 12:41:34  -324.996772c -3.98  -3.73
iter:  24 12:41:42  -324.996772c -3.95  -3.79
Writing to output.gpw (mode='')

iter:  25 12:41:49  -324.996799c -4.27  -3.93
iter:  26 12:41:56  -324.996806c -4.40  -3.95
iter:  27 12:42:04  -324.996807c -4.34  -3.97
iter:  28 12:42:11  -324.996805c -4.48  -4.03c
iter:  29 12:42:18  -324.996814c -4.63  -4.17c
Writing to output.gpw (mode='')

iter:  30 12:42:26  -324.996815c -4.77  -4.24c
iter:  31 12:42:33  -324.996816c -4.64  -4.32c
iter:  32 12:42:40  -324.996815c -4.62  -4.34c
iter:  33 12:42:48  -324.996820c -4.97  -4.40c
iter:  34 12:42:55  -324.996821c -5.15  -4.48c
Writing to output.gpw (mode='')

iter:  35 12:43:02  -324.996822c -5.11  -4.50c
iter:  36 12:43:10  -324.996822c -5.09  -4.57c
iter:  37 12:43:17  -324.996825c -5.28  -4.75c
iter:  38 12:43:24  -324.996825c -5.35  -4.81c
iter:  39 12:43:32  -324.996827c -5.35  -4.77c
Writing to output.gpw (mode='')

iter:  40 12:43:39  -324.996829c -5.50  -4.71c
iter:  41 12:43:46  -324.996829c -5.68  -4.58c
iter:  42 12:43:54  -324.996830c -5.63  -4.57c
iter:  43 12:44:01  -324.996829c -5.55  -4.55c
iter:  44 12:44:08  -324.996831c -5.72  -4.64c
Writing to output.gpw (mode='')

iter:  45 12:44:16  -324.996828c -5.67  -4.58c
iter:  46 12:44:23  -324.996830c -5.83  -4.59c
iter:  47 12:44:30  -324.996828c -5.90  -4.55c
iter:  48 12:44:44  -324.996828c -6.05  -4.66c
iter:  49 12:44:51  -324.996828c -6.01  -4.68c
Writing to output.gpw (mode='')

iter:  50 12:44:58  -324.996825c -5.99  -4.59c
iter:  51 12:45:06  -324.996824c -6.16  -4.73c
iter:  52 12:45:13  -324.996823c -6.07  -4.81c
iter:  53 12:45:20  -324.996822c -6.32  -4.85c
iter:  54 12:45:28  -324.996822c -6.52  -4.96c
Writing to output.gpw (mode='')

iter:  55 12:45:35  -324.996822c -6.50  -5.03c
iter:  56 12:45:43  -324.996822c -6.59  -5.08c
iter:  57 12:45:50  -324.996822c -6.51  -5.17c
iter:  58 12:45:57  -324.996822c -6.50  -5.22c
iter:  59 12:46:05  -324.996822c -6.68  -5.27c
Writing to output.gpw (mode='')

iter:  60 12:46:12  -324.996822c -6.88  -5.32c
iter:  61 12:46:19  -324.996822c -7.08  -5.37c
iter:  62 12:46:27  -324.996821c -6.94  -5.40c
iter:  63 12:46:34  -324.996822c -7.21  -5.59c
iter:  64 12:46:41  -324.996821c -7.15  -5.62c
Writing to output.gpw (mode='')

iter:  65 12:46:49  -324.996821c -7.39  -5.81c
iter:  66 12:46:56  -324.996821c -7.47c -5.93c

Converged after 66 iterations.

Dipole moment: (-22.540720, -17.336065, 0.266694) |e|*Ang

Energy contributions relative to reference atoms: (reference = -16475.706344)

Kinetic:       +174.694674
Potential:     -164.316796
External:        +0.000000
XC:            -336.443007
Entropy (-ST):   -0.149094
Local:           +1.142856
--------------------------
Free energy:   -325.071368
Extrapolated:  -324.996821

Dipole-layer corrected work functions: 3.407244, 2.894567 eV

Showing only first 2 kpts
 Kpt  Band  Eigenvalues  Occupancy
  0    34     -3.39754    1.98569
  0    35     -3.28054    1.86078
  0    36     -3.01263    0.11844
  0    37     -2.91710    0.01846

  1    34     -3.22067    1.60287
  1    35     -3.14507    0.94170
  1    36     -3.10713    0.58819
  1    37     -3.03649    0.18419


Fermi level: -3.15091

No gap
Writing to output.gpw (mode='')


Forces in eV/Ang:
  0 Li    0.01966    0.00194   -0.27664
  1 Li   -0.01012   -0.00631   -0.26415
  2 Li   -0.00862    0.01456   -0.27128
  3 Li   -0.00763    0.00021   -0.26550
  4 Li    0.00481    0.00029   -0.29147
  5 Li   -0.00321    0.00180   -0.27104
  6 Li    0.01846   -0.00257   -0.27734
  7 Li   -0.00886    0.00502   -0.26721
  8 Li   -0.00850   -0.01606   -0.27262
  9 Li    0.00112   -0.00068    0.34052
 10 Li    0.01009   -0.00024    0.24414
 11 Li   -0.02191    0.00011    0.25916
 12 Li   -0.00320    0.00902    0.26554
 13 Li    0.00671    0.01080    0.24736
 14 Li    0.00122    0.00658    0.25694
 15 Li   -0.00399   -0.00988    0.25842
 16 Li    0.00276   -0.00923    0.25040
 17 Li    0.00534   -0.00579    0.25833
 18 Li    0.01666    0.01784   -0.01811
 19 Li    0.00558   -0.00703    0.06256
 20 Li   -0.01842   -0.00822   -0.04833
 21 Li   -0.00694    0.00356    0.06258
 22 Li   -0.00328   -0.00109    0.01451
 23 Li    0.01371    0.00109    0.06654
 24 Li    0.01483   -0.02056   -0.03345
 25 Li    0.00481    0.00788    0.06120
 26 Li   -0.01481    0.00699   -0.05033
 27 Li    0.36608    0.00337   -5.67784
 28 Li    0.03079    0.00404   -0.04251
 29 Li    0.19604    0.00647    0.16010
 30 Li    0.02327    0.08578    0.03524
 31 Li    0.01300   -0.00884   -0.03553
 32 Li   -0.04776    0.04494   -0.04214
 33 Li    0.02190   -0.08449   -0.03256
 34 Li    0.01527   -0.00062   -0.02914
 35 Li   -0.04657   -0.04906   -0.03855
 36 O     0.16729    0.13059    0.33266
 37 O    -0.08136    0.06021   -0.16154
 38 C     0.39431    0.35520    0.72897
 39 C     0.10574   -0.02792    0.19315
 40 H     0.09988   -0.07496    0.05761
 41 H     0.51193    0.31935    0.76170
 42 H     0.03552    0.01515    0.02164
 43 H    -0.00328    0.10568    0.02913
 44 H     0.04566   -0.02899    0.11177
 45 H    -0.05835   -0.01267    0.02631
 46 N    -1.52185   -0.89217    3.21611
 47 N    -0.24834    0.05009    0.33912

System changes: positions 

Initializing position-dependent things.

Density initialized from wave functions
       .-----------------------.  
      /|                       |  
     / |                       |  
    /  |                       |  
   /   |                       |  
  /    |                       |  
 *     |                       |  
 |     H                       |  
 |     |                       |  
 |     |                       |  
 |     |                       |  
 |     N                       |  
 |   H |                       |  
 | O C LH                H     |  
 O  C H|                       |  
 |   Li|     Li      Li        |  
 |  H  |                       |  
 | Li  |  LLi     LLi N   Li   |  
 |     |                       |  
 |     |LLi     LLi     Li     |  
 |   Li|     Li      Li        |  
 |    Li  Li  Li  Li  Li  Li   |  
 | Li  |   Li      Li          |  
 |     |Li      Li      Li     |  
 Li    | Li      Li            |  
 |    Li      Li      Li       |  
 |     |                       |  
 |     |                       |  
 |     |                       |  
 |     |                       |  
 |     |                       |  
 |     |                       |  
 |     .-----------------------.  
 |    /                       /   
 |   /                       /    
 |  /                       /     
 | /                       /      
 |/                       /       
 *-----------------------*        

Positions:
   0 Li     1.617037    1.617037   10.000000    ( 0.0000,  0.0000,  0.0000)
   1 Li     4.851111    1.617037   10.000000    ( 0.0000,  0.0000,  0.0000)
   2 Li     8.085185    1.617037   10.000000    ( 0.0000,  0.0000,  0.0000)
   3 Li     1.617037    4.851111   10.000000    ( 0.0000,  0.0000,  0.0000)
   4 Li     4.851111    4.851111   10.000000    ( 0.0000,  0.0000,  0.0000)
   5 Li     8.085185    4.851111   10.000000    ( 0.0000,  0.0000,  0.0000)
   6 Li     1.617037    8.085185   10.000000    ( 0.0000,  0.0000,  0.0000)
   7 Li     4.851111    8.085185   10.000000    ( 0.0000,  0.0000,  0.0000)
   8 Li     8.085185    8.085185   10.000000    ( 0.0000,  0.0000,  0.0000)
   9 Li     0.000000    0.000000   11.617037    ( 0.0000,  0.0000,  0.0000)
  10 Li     3.234074    0.000000   11.617037    ( 0.0000,  0.0000,  0.0000)
  11 Li     6.468148    0.000000   11.617037    ( 0.0000,  0.0000,  0.0000)
  12 Li     0.000000    3.234074   11.617037    ( 0.0000,  0.0000,  0.0000)
  13 Li     3.234074    3.234074   11.617037    ( 0.0000,  0.0000,  0.0000)
  14 Li     6.468148    3.234074   11.617037    ( 0.0000,  0.0000,  0.0000)
  15 Li     0.000000    6.468148   11.617037    ( 0.0000,  0.0000,  0.0000)
  16 Li     3.234074    6.468148   11.617037    ( 0.0000,  0.0000,  0.0000)
  17 Li     6.468148    6.468148   11.617037    ( 0.0000,  0.0000,  0.0000)
  18 Li     1.617190    1.617230   13.469585    ( 0.0000,  0.0000,  0.0000)
  19 Li     4.851178    1.616951   13.470499    ( 0.0000,  0.0000,  0.0000)
  20 Li     8.085005    1.616903   13.469225    ( 0.0000,  0.0000,  0.0000)
  21 Li     1.616962    4.851151   13.470487    ( 0.0000,  0.0000,  0.0000)
  22 Li     4.851075    4.851102   13.469897    ( 0.0000,  0.0000,  0.0000)
  23 Li     8.085346    4.851123   13.470528    ( 0.0000,  0.0000,  0.0000)
  24 Li     1.617167    8.084963   13.469403    ( 0.0000,  0.0000,  0.0000)
  25 Li     4.851168    8.085280   13.470479    ( 0.0000,  0.0000,  0.0000)
  26 Li     8.085048    8.085306   13.469212    ( 0.0000,  0.0000,  0.0000)
  27 Li     0.005829   -0.000081   15.366155    ( 0.0000,  0.0000,  0.0000)
  28 Li     3.234539    0.000047   15.445371    ( 0.0000,  0.0000,  0.0000)
  29 Li     6.470279    0.000070   15.447637    ( 0.0000,  0.0000,  0.0000)
  30 Li     0.000290    3.235197   15.446266    ( 0.0000,  0.0000,  0.0000)
  31 Li     3.234227    3.233958   15.445505    ( 0.0000,  0.0000,  0.0000)
  32 Li     6.467567    3.234625   15.445414    ( 0.0000,  0.0000,  0.0000)
  33 Li     0.000271    6.467052   15.445455    ( 0.0000,  0.0000,  0.0000)
  34 Li     3.234251    6.468152   15.445589    ( 0.0000,  0.0000,  0.0000)
  35 Li     6.467589    6.467552   15.445457    ( 0.0000,  0.0000,  0.0000)
  36 O      9.704031    9.703547   19.450277    ( 0.0000,  0.0000,  0.0000)
  37 O      9.745122   12.601259   19.211233    ( 0.0000,  0.0000,  0.0000)
  38 C     10.878605   10.435285   19.042249    ( 0.0000,  0.0000,  0.0000)
  39 C     10.888452   11.839297   19.604996    ( 0.0000,  0.0000,  0.0000)
  40 H     11.788791    9.901807   19.326895    ( 0.0000,  0.0000,  0.0000)
  41 H     10.832480   10.467383   17.953401    ( 0.0000,  0.0000,  0.0000)
  42 H     11.761832   12.376862   19.226447    ( 0.0000,  0.0000,  0.0000)
  43 H     10.962601   11.791409   20.701964    ( 0.0000,  0.0000,  0.0000)
  44 H      9.777198    9.532509   20.394069    ( 0.0000,  0.0000,  0.0000)
  45 H      8.978311   12.020823   19.310052    ( 0.0000,  0.0000,  0.0000)
  46 N      9.710599    9.691727   16.994916    ( 0.0000,  0.0000,  0.0000)
  47 N      8.574219    9.702546   16.952086    ( 0.0000,  0.0000,  0.0000)

Unit cell:
           periodic     x           y           z      points  spacing
  1. axis:    yes    9.702222    0.000000    0.000000    60     0.1617
  2. axis:    yes    0.000000    9.702222    0.000000    60     0.1617
  3. axis:    no     0.000000    0.000000   26.351111   164     0.1607

  Lengths:   9.702222   9.702222  26.351111
  Angles:   90.000000  90.000000  90.000000

Effective grid spacing dv^(1/3) = 0.1614

     iter     time        total  log10-change:
                         energy  eigst   dens
iter:   1 12:47:05  -325.308542  -1.14
iter:   2 12:47:12  -325.298115  -1.60  -2.08
iter:   3 12:47:19  -325.294464c -2.12  -2.11
iter:   4 12:47:27  -325.289238c -2.26  -2.27
Writing to output.gpw (mode='')

iter:   5 12:47:34  -325.289078c -2.69  -2.49
iter:   6 12:47:41  -325.288249c -2.43  -2.61
iter:   7 12:47:49  -325.287543c -3.33  -2.67
iter:   8 12:47:56  -325.287585c -2.83  -2.90
iter:   9 12:48:03  -325.287499c -3.63  -2.95
Writing to output.gpw (mode='')

iter:  10 12:48:11  -325.287559c -4.01  -3.15
iter:  11 12:48:18  -325.287498c -4.11  -3.19
iter:  12 12:48:25  -325.287543c -4.00  -3.30
iter:  13 12:48:33  -325.287544c -4.35  -3.46
iter:  14 12:48:40  -325.287553c -4.55  -3.53
Writing to output.gpw (mode='')

iter:  15 12:48:47  -325.287553c -4.81  -3.57
iter:  16 12:48:55  -325.287544c -4.97  -3.80
iter:  17 12:49:02  -325.287541c -5.28  -3.89
iter:  18 12:49:09  -325.287541c -5.25  -3.98
iter:  19 12:49:16  -325.287542c -5.38  -4.19c
Writing to output.gpw (mode='')

iter:  20 12:49:24  -325.287543c -5.84  -4.27c
iter:  21 12:49:31  -325.287546c -5.79  -4.31c
iter:  22 12:49:45  -325.287547c -5.95  -4.41c
iter:  23 12:49:52  -325.287543c -6.03  -4.44c
iter:  24 12:49:59  -325.287544c -6.33  -4.54c
Writing to output.gpw (mode='')

iter:  25 12:50:06  -325.287545c -6.15  -4.59c
iter:  26 12:50:14  -325.287544c -6.44  -4.68c
iter:  27 12:50:21  -325.287545c -6.59  -4.83c
iter:  28 12:50:28  -325.287545c -6.73  -4.92c
iter:  29 12:50:36  -325.287545c -6.81  -5.06c
Writing to output.gpw (mode='')

iter:  30 12:50:43  -325.287545c -6.86  -5.08c
iter:  31 12:50:50  -325.287546c -7.18  -5.11c
iter:  32 12:50:58  -325.287545c -7.21  -5.35c
iter:  33 12:51:05  -325.287545c -6.98  -5.41c
iter:  34 12:51:12  -325.287545c -7.27  -5.49c
Writing to output.gpw (mode='')

iter:  35 12:51:19  -325.287545c -7.39  -5.48c
iter:  36 12:51:27  -325.287545c -7.69c -5.38c

Converged after 36 iterations.

Dipole moment: (-21.613695, -16.798819, 0.275266) |e|*Ang

Energy contributions relative to reference atoms: (reference = -16475.706344)

Kinetic:       +174.158432
Potential:     -164.175774
External:        +0.000000
XC:            -336.330723
Entropy (-ST):   -0.148210
Local:           +1.134624
--------------------------
Free energy:   -325.361650
Extrapolated:  -325.287545

Dipole-layer corrected work functions: 3.405923, 2.876768 eV

Showing only first 2 kpts
 Kpt  Band  Eigenvalues  Occupancy
  0    34     -3.38763    1.98559
  0    35     -3.27429    1.86911
  0    36     -2.99874    0.10914
  0    37     -2.90443    0.01736

  1    34     -3.20566    1.56707
  1    35     -3.13646    0.95119
  1    36     -3.09985    0.60733
  1    37     -3.02798    0.18775


Fermi level: -3.14135

No gap
Writing to output.gpw (mode='')


Forces in eV/Ang:
  0 Li    0.01957    0.00151   -0.27714
  1 Li   -0.01035   -0.00650   -0.26376
  2 Li   -0.00843    0.01479   -0.27209
  3 Li   -0.00732    0.00014   -0.26561
  4 Li    0.00499    0.00045   -0.29211
  5 Li   -0.00266    0.00171   -0.27015
  6 Li    0.01853   -0.00200   -0.27791
  7 Li   -0.00906    0.00525   -0.26684
  8 Li   -0.00856   -0.01620   -0.27350
  9 Li    0.00004   -0.00083    0.34498
 10 Li    0.01125   -0.00022    0.24278
 11 Li   -0.02046    0.00020    0.26225
 12 Li   -0.00236    0.00968    0.26626
 13 Li    0.00656    0.00946    0.24835
 14 Li   -0.00005    0.00946    0.25566
 15 Li   -0.00319   -0.01010    0.25949
 16 Li    0.00307   -0.00793    0.25115
 17 Li    0.00384   -0.00885    0.25701
 18 Li    0.02160    0.02047   -0.02109
 19 Li    0.00750   -0.00660    0.06194
 20 Li   -0.02471    0.00151   -0.05832
 21 Li   -0.00528    0.00365    0.06022
 22 Li   -0.00488   -0.00119    0.01480
 23 Li    0.01274    0.00113    0.06665
 24 Li    0.02044   -0.02348   -0.03727
 25 Li    0.00689    0.00739    0.06099
 26 Li   -0.02187   -0.00270   -0.06138
 27 Li    0.32614    0.01746   -4.24453
 28 Li    0.02750    0.00428   -0.04305
 29 Li    0.18405    0.00704    0.15179
 30 Li    0.02363    0.08706    0.03245
 31 Li    0.01218   -0.01016   -0.03487
 32 Li   -0.04629    0.04408   -0.04311
 33 Li    0.02244   -0.08654   -0.03544
 34 Li    0.01486    0.00028   -0.02870
 35 Li   -0.04583   -0.04817   -0.03968
 36 O     0.17873    0.15337    0.28628
 37 O    -0.05281    0.01737   -0.14639
 38 C     0.32305    0.29090    0.61310
 39 C     0.09289    0.06222    0.19841
 40 H     0.13713   -0.07934    0.09561
 41 H     0.52851    0.33511    0.76526
 42 H     0.03139    0.01435    0.03015
 43 H    -0.00470    0.12410    0.06475
 44 H     0.04885   -0.04566    0.18491
 45 H    -0.04787   -0.00127    0.02534
 46 N    -1.01605   -0.90712    1.89097
 47 N    -0.78813    0.06253    0.23601

System changes: positions 

Initializing position-dependent things.

Density initialized from wave functions
       .-----------------------.  
      /|                       |  
     / |                       |  
    /  |                       |  
   /   |                       |  
  /    |                       |  
 *     |                       |  
 |     H                       |  
 |     |                       |  
 |     |                       |  
 |     |                       |  
 |     |                       N  
 |   H |                       |  
 | O C |H                H     |  
 O  C H|                       |  
 |   Li|     Li      Li        |  
 |  H  |                       |  
 | Li  |  LLi     LLi N   Li   |  
 |     |                       |  
 Li    |LLi     LLi     Li     |  
 |   Li|     Li      Li        |  
 |    Li  Li  Li  Li  Li  Li   |  
 | Li  |   Li      Li          |  
 |     |Li      Li      Li     |  
 Li    | Li      Li            |  
 |    Li      Li      Li       |  
 |     |                       |  
 |     |                       |  
 |     |                       |  
 |     |                       |  
 |     |                       |  
 |     |                       |  
 |     .-----------------------.  
 |    /                       /   
 |   /                       /    
 |  /                       /     
 | /                       /      
 |/                       /       
 *-----------------------*        

Positions:
   0 Li     1.617037    1.617037   10.000000    ( 0.0000,  0.0000,  0.0000)
   1 Li     4.851111    1.617037   10.000000    ( 0.0000,  0.0000,  0.0000)
   2 Li     8.085185    1.617037   10.000000    ( 0.0000,  0.0000,  0.0000)
   3 Li     1.617037    4.851111   10.000000    ( 0.0000,  0.0000,  0.0000)
   4 Li     4.851111    4.851111   10.000000    ( 0.0000,  0.0000,  0.0000)
   5 Li     8.085185    4.851111   10.000000    ( 0.0000,  0.0000,  0.0000)
   6 Li     1.617037    8.085185   10.000000    ( 0.0000,  0.0000,  0.0000)
   7 Li     4.851111    8.085185   10.000000    ( 0.0000,  0.0000,  0.0000)
   8 Li     8.085185    8.085185   10.000000    ( 0.0000,  0.0000,  0.0000)
   9 Li     0.000000    0.000000   11.617037    ( 0.0000,  0.0000,  0.0000)
  10 Li     3.234074    0.000000   11.617037    ( 0.0000,  0.0000,  0.0000)
  11 Li     6.468148    0.000000   11.617037    ( 0.0000,  0.0000,  0.0000)
  12 Li     0.000000    3.234074   11.617037    ( 0.0000,  0.0000,  0.0000)
  13 Li     3.234074    3.234074   11.617037    ( 0.0000,  0.0000,  0.0000)
  14 Li     6.468148    3.234074   11.617037    ( 0.0000,  0.0000,  0.0000)
  15 Li     0.000000    6.468148   11.617037    ( 0.0000,  0.0000,  0.0000)
  16 Li     3.234074    6.468148   11.617037    ( 0.0000,  0.0000,  0.0000)
  17 Li     6.468148    6.468148   11.617037    ( 0.0000,  0.0000,  0.0000)
  18 Li     1.617465    1.617478   13.469323    ( 0.0000,  0.0000,  0.0000)
  19 Li     4.851273    1.616879   13.471198    ( 0.0000,  0.0000,  0.0000)
  20 Li     8.084688    1.616973   13.468505    ( 0.0000,  0.0000,  0.0000)
  21 Li     1.616910    4.851193   13.471158    ( 0.0000,  0.0000,  0.0000)
  22 Li     4.851011    4.851088   13.470067    ( 0.0000,  0.0000,  0.0000)
  23 Li     8.085486    4.851136   13.471286    ( 0.0000,  0.0000,  0.0000)
  24 Li     1.617432    8.084679   13.468953    ( 0.0000,  0.0000,  0.0000)
  25 Li     4.851257    8.085361   13.471169    ( 0.0000,  0.0000,  0.0000)
  26 Li     8.084760    8.085223   13.468450    ( 0.0000,  0.0000,  0.0000)
  27 Li     0.009192    0.000201   15.326298    ( 0.0000,  0.0000,  0.0000)
  28 Li     3.234826    0.000097   15.444885    ( 0.0000,  0.0000,  0.0000)
  29 Li     6.472331    0.000153   15.449341    ( 0.0000,  0.0000,  0.0000)
  30 Li     0.000559    3.236183   15.446629    ( 0.0000,  0.0000,  0.0000)
  31 Li     3.234362    3.233837   15.445113    ( 0.0000,  0.0000,  0.0000)
  32 Li     6.467049    3.235120   15.444921    ( 0.0000,  0.0000,  0.0000)
  33 Li     0.000528    6.466067   15.445047    ( 0.0000,  0.0000,  0.0000)
  34 Li     3.234418    6.468158   15.445265    ( 0.0000,  0.0000,  0.0000)
  35 Li     6.467072    6.467010   15.445002    ( 0.0000,  0.0000,  0.0000)
  36 O      9.706138    9.705428   19.453262    ( 0.0000,  0.0000,  0.0000)
  37 O      9.744677   12.601229   19.209654    ( 0.0000,  0.0000,  0.0000)
  38 C     10.881872   10.438242   19.048635    ( 0.0000,  0.0000,  0.0000)
  39 C     10.889437   11.840491   19.607280    ( 0.0000,  0.0000,  0.0000)
  40 H     11.790559    9.900879   19.328191    ( 0.0000,  0.0000,  0.0000)
  41 H     10.838548   10.471267   17.962086    ( 0.0000,  0.0000,  0.0000)
  42 H     11.762166   12.377022   19.226836    ( 0.0000,  0.0000,  0.0000)
  43 H     10.962539   11.792921   20.702894    ( 0.0000,  0.0000,  0.0000)
  44 H      9.777778    9.531901   20.396590    ( 0.0000,  0.0000,  0.0000)
  45 H      8.977828   12.020864   19.310330    ( 0.0000,  0.0000,  0.0000)
  46 N      9.698980    9.681305   17.008707    ( 0.0000,  0.0000,  0.0000)
  47 N      8.565301    9.703324   16.954044    ( 0.0000,  0.0000,  0.0000)

Unit cell:
           periodic     x           y           z      points  spacing
  1. axis:    yes    9.702222    0.000000    0.000000    60     0.1617
  2. axis:    yes    0.000000    9.702222    0.000000    60     0.1617
  3. axis:    no     0.000000    0.000000   26.351111   164     0.1607

  Lengths:   9.702222   9.702222  26.351111
  Angles:   90.000000  90.000000  90.000000

Effective grid spacing dv^(1/3) = 0.1614

     iter     time        total  log10-change:
                         energy  eigst   dens
iter:   1 12:51:36  -325.508702  -1.18
iter:   2 12:51:43  -325.509603  -2.02  -2.39
iter:   3 12:51:50  -325.508609c -2.40  -2.46
iter:   4 12:51:58  -325.507998c -2.51  -2.58
Writing to output.gpw (mode='')

iter:   5 12:52:05  -325.507689c -2.63  -2.66
iter:   6 12:52:12  -325.507592c -2.96  -2.77
iter:   7 12:52:20  -325.507335c -3.43  -2.91
iter:   8 12:52:27  -325.507320c -3.62  -3.10
iter:   9 12:52:34  -325.507352c -3.85  -3.13
Writing to output.gpw (mode='')

iter:  10 12:52:42  -325.507315c -4.12  -3.26
iter:  11 12:52:49  -325.507326c -4.46  -3.45
iter:  12 12:52:56  -325.507332c -4.50  -3.50
iter:  13 12:53:04  -325.507331c -4.99  -3.66
iter:  14 12:53:11  -325.507329c -5.22  -3.77
Writing to output.gpw (mode='')

iter:  15 12:53:18  -325.507332c -5.08  -3.83
iter:  16 12:53:26  -325.507331c -5.22  -4.02c
iter:  17 12:53:33  -325.507331c -5.57  -4.14c
iter:  18 12:53:41  -325.507331c -5.75  -4.17c
iter:  19 12:53:48  -325.507330c -5.78  -4.19c
Writing to output.gpw (mode='')

iter:  20 12:53:55  -325.507329c -6.08  -4.29c
iter:  21 12:54:03  -325.507328c -5.86  -4.38c
iter:  22 12:54:10  -325.507327c -6.12  -4.55c
iter:  23 12:54:17  -325.507327c -6.36  -4.62c
iter:  24 12:54:25  -325.507328c -6.64  -4.68c
Writing to output.gpw (mode='')

iter:  25 12:54:32  -325.507328c -6.77  -4.81c
iter:  26 12:54:45  -325.507328c -6.70  -4.85c
iter:  27 12:54:52  -325.507328c -6.84  -4.89c
iter:  28 12:55:00  -325.507328c -6.98  -5.05c
iter:  29 12:55:07  -325.507328c -7.17  -5.15c
Writing to output.gpw (mode='')

iter:  30 12:55:14  -325.507328c -7.17  -5.23c
iter:  31 12:55:22  -325.507328c -7.35  -5.49c
iter:  32 12:55:29  -325.507328c -7.39  -5.50c
iter:  33 12:55:36  -325.507328c -7.36  -5.55c
iter:  34 12:55:44  -325.507328c -7.50c -5.53c

Converged after 34 iterations.

Dipole moment: (-20.634845, -15.946888, 0.280362) |e|*Ang

Energy contributions relative to reference atoms: (reference = -16475.706344)

Kinetic:       +173.242673
Potential:     -163.663135
External:        +0.000000
XC:            -336.142571
Entropy (-ST):   -0.147623
Local:           +1.129516
--------------------------
Free energy:   -325.581139
Extrapolated:  -325.507328

Dipole-layer corrected work functions: 3.405064, 2.866112 eV

Showing only first 2 kpts
 Kpt  Band  Eigenvalues  Occupancy
  0    34     -3.38088    1.98530
  0    35     -3.27089    1.87476
  0    36     -2.99000    0.10314
  0    37     -2.89756    0.01697

  1    34     -3.19618    1.54124
  1    35     -3.13101    0.95430
  1    36     -3.09547    0.61902
  1    37     -3.02158    0.18555


Fermi level: -3.13559

No gap
Writing to output.gpw (mode='')


Forces in eV/Ang:
  0 Li    0.01950    0.00117   -0.27783
  1 Li   -0.01045   -0.00668   -0.26340
  2 Li   -0.00822    0.01504   -0.27317
  3 Li   -0.00719    0.00011   -0.26546
  4 Li    0.00515    0.00053   -0.29276
  5 Li   -0.00209    0.00145   -0.26941
  6 Li    0.01859   -0.00158   -0.27876
  7 Li   -0.00933    0.00559   -0.26634
  8 Li   -0.00854   -0.01624   -0.27456
  9 Li   -0.00055   -0.00098    0.34911
 10 Li    0.01199   -0.00025    0.24229
 11 Li   -0.01945    0.00028    0.26472
 12 Li   -0.00176    0.01020    0.26698
 13 Li    0.00655    0.00878    0.24886
 14 Li   -0.00124    0.01176    0.25487
 15 Li   -0.00267   -0.01009    0.26081
 16 Li    0.00379   -0.00731    0.25170
 17 Li    0.00249   -0.01129    0.25613
 18 Li    0.02727    0.02511   -0.02671
 19 Li    0.00869   -0.00668    0.06111
 20 Li   -0.03069    0.01064   -0.06737
 21 Li   -0.00413    0.00355    0.05795
 22 Li   -0.00607   -0.00127    0.01459
 23 Li    0.01191    0.00124    0.06603
 24 Li    0.02680   -0.02810   -0.04317
 25 Li    0.00878    0.00734    0.06065
 26 Li   -0.02902   -0.01178   -0.07227
 27 Li    0.27057    0.03205   -3.22957
 28 Li    0.02481    0.00418   -0.04293
 29 Li    0.17652    0.00842    0.14990
 30 Li    0.02337    0.08537    0.03188
 31 Li    0.01173   -0.01049   -0.03449
 32 Li   -0.04478    0.04331   -0.04319
 33 Li    0.02300   -0.08541   -0.03566
 34 Li    0.01440    0.00056   -0.02818
 35 Li   -0.04551   -0.04755   -0.04005
 36 O     0.17943    0.15731    0.29458
 37 O    -0.02345   -0.00399   -0.13080
 38 C     0.28159    0.20993    0.54184
 39 C     0.07267    0.10855    0.19443
 40 H     0.15662   -0.06715    0.13429
 41 H     0.50759    0.33315    0.67371
 42 H     0.03838    0.02910    0.03711
 43 H    -0.00546    0.14960    0.10599
 44 H     0.05135   -0.04796    0.19434
 45 H    -0.03763    0.00127    0.02513
 46 N    -0.93293   -0.98521    1.03336
 47 N    -0.83147    0.06750    0.11727

System changes: positions 

Initializing position-dependent things.

Density initialized from wave functions
       .-----------------------.  
      /|                       |  
     / |                       |  
    /  |                       |  
   /   |                       |  
  /    |                       |  
 *     |                       |  
 |     H                       |  
 |     |                       |  
 |     |                       |  
 |     |                       |  
 |     |                       N  
 |   H |                       |  
 | O C |H                H     |  
 O  C H|                       |  
 |   Li|     Li      Li        |  
 |  H  |                       |  
 | Li  |  LLi     LLi N   Li   |  
 |     |                       |  
 Li    |LLi     LLi     Li     |  
 |   Li|     Li      Li        |  
 |    Li  Li  Li  Li  Li  Li   |  
 | Li  |   Li      Li          |  
 |     |Li      Li      Li     |  
 Li    | Li      Li            |  
 |    Li      Li      Li       |  
 |     |                       |  
 |     |                       |  
 |     |                       |  
 |     |                       |  
 |     |                       |  
 |     |                       |  
 |     .-----------------------.  
 |    /                       /   
 |   /                       /    
 |  /                       /     
 | /                       /      
 |/                       /       
 *-----------------------*        

Positions:
   0 Li     1.617037    1.617037   10.000000    ( 0.0000,  0.0000,  0.0000)
   1 Li     4.851111    1.617037   10.000000    ( 0.0000,  0.0000,  0.0000)
   2 Li     8.085185    1.617037   10.000000    ( 0.0000,  0.0000,  0.0000)
   3 Li     1.617037    4.851111   10.000000    ( 0.0000,  0.0000,  0.0000)
   4 Li     4.851111    4.851111   10.000000    ( 0.0000,  0.0000,  0.0000)
   5 Li     8.085185    4.851111   10.000000    ( 0.0000,  0.0000,  0.0000)
   6 Li     1.617037    8.085185   10.000000    ( 0.0000,  0.0000,  0.0000)
   7 Li     4.851111    8.085185   10.000000    ( 0.0000,  0.0000,  0.0000)
   8 Li     8.085185    8.085185   10.000000    ( 0.0000,  0.0000,  0.0000)
   9 Li     0.000000    0.000000   11.617037    ( 0.0000,  0.0000,  0.0000)
  10 Li     3.234074    0.000000   11.617037    ( 0.0000,  0.0000,  0.0000)
  11 Li     6.468148    0.000000   11.617037    ( 0.0000,  0.0000,  0.0000)
  12 Li     0.000000    3.234074   11.617037    ( 0.0000,  0.0000,  0.0000)
  13 Li     3.234074    3.234074   11.617037    ( 0.0000,  0.0000,  0.0000)
  14 Li     6.468148    3.234074   11.617037    ( 0.0000,  0.0000,  0.0000)
  15 Li     0.000000    6.468148   11.617037    ( 0.0000,  0.0000,  0.0000)
  16 Li     3.234074    6.468148   11.617037    ( 0.0000,  0.0000,  0.0000)
  17 Li     6.468148    6.468148   11.617037    ( 0.0000,  0.0000,  0.0000)
  18 Li     1.617902    1.617870   13.468901    ( 0.0000,  0.0000,  0.0000)
  19 Li     4.851411    1.616781   13.472099    ( 0.0000,  0.0000,  0.0000)
  20 Li     8.084196    1.617186   13.467446    ( 0.0000,  0.0000,  0.0000)
  21 Li     1.616856    4.851246   13.472004    ( 0.0000,  0.0000,  0.0000)
  22 Li     4.850913    4.851068   13.470285    ( 0.0000,  0.0000,  0.0000)
  23 Li     8.085658    4.851155   13.472265    ( 0.0000,  0.0000,  0.0000)
  24 Li     1.617866    8.084241   13.468282    ( 0.0000,  0.0000,  0.0000)
  25 Li     4.851398    8.085468   13.472066    ( 0.0000,  0.0000,  0.0000)
  26 Li     8.084287    8.084993   13.467311    ( 0.0000,  0.0000,  0.0000)
  27 Li     0.012851    0.000763   15.286469    ( 0.0000,  0.0000,  0.0000)
  28 Li     3.235169    0.000160   15.444251    ( 0.0000,  0.0000,  0.0000)
  29 Li     6.474908    0.000283   15.451547    ( 0.0000,  0.0000,  0.0000)
  30 Li     0.000906    3.237444   15.447098    ( 0.0000,  0.0000,  0.0000)
  31 Li     3.234532    3.233677   15.444605    ( 0.0000,  0.0000,  0.0000)
  32 Li     6.466393    3.235758   15.444278    ( 0.0000,  0.0000,  0.0000)
  33 Li     0.000871    6.464800   15.444514    ( 0.0000,  0.0000,  0.0000)
  34 Li     3.234630    6.468170   15.444850    ( 0.0000,  0.0000,  0.0000)
  35 Li     6.466400    6.466309   15.444405    ( 0.0000,  0.0000,  0.0000)
  36 O      9.708861    9.707874   19.457440    ( 0.0000,  0.0000,  0.0000)
  37 O      9.744496   12.600961   19.207804    ( 0.0000,  0.0000,  0.0000)
  38 C     10.885673   10.440958   19.056115    ( 0.0000,  0.0000,  0.0000)
  39 C     10.890428   11.842551   19.610181    ( 0.0000,  0.0000,  0.0000)
  40 H     11.793076    9.899882   19.330408    ( 0.0000,  0.0000,  0.0000)
  41 H     10.846092   10.476266   17.971925    ( 0.0000,  0.0000,  0.0000)
  42 H     11.762730   12.377475   19.227435    ( 0.0000,  0.0000,  0.0000)
  43 H     10.962450   11.795260   20.704684    ( 0.0000,  0.0000,  0.0000)
  44 H      9.778563    9.531117   20.399811    ( 0.0000,  0.0000,  0.0000)
  45 H      8.977333   12.020929   19.310695    ( 0.0000,  0.0000,  0.0000)
  46 N      9.685154    9.666470   17.016725    ( 0.0000,  0.0000,  0.0000)
  47 N      8.552987    9.704386   16.955032    ( 0.0000,  0.0000,  0.0000)

Unit cell:
           periodic     x           y           z      points  spacing
  1. axis:    yes    9.702222    0.000000    0.000000    60     0.1617
  2. axis:    yes    0.000000    9.702222    0.000000    60     0.1617
  3. axis:    no     0.000000    0.000000   26.351111   164     0.1607

  Lengths:   9.702222   9.702222  26.351111
  Angles:   90.000000  90.000000  90.000000

Effective grid spacing dv^(1/3) = 0.1614

     iter     time        total  log10-change:
                         energy  eigst   dens
iter:   1 12:55:53  -325.688879  -1.18
iter:   2 12:56:00  -325.689959  -2.00  -2.39
iter:   3 12:56:07  -325.689902c -2.50  -2.43
iter:   4 12:56:15  -325.688204c -2.55  -2.50
Writing to output.gpw (mode='')

iter:   5 12:56:22  -325.688210c -2.35  -2.70
iter:   6 12:56:29  -325.687514c -3.07  -2.68
iter:   7 12:56:36  -325.687673c -3.08  -2.99
iter:   8 12:56:44  -325.687682c -3.50  -2.97
iter:   9 12:56:54  -325.687428c -3.44  -2.96
Writing to output.gpw (mode='')

iter:  10 12:57:02  -325.687436c -4.41  -3.29
iter:  11 12:57:09  -325.687445c -4.09  -3.37
iter:  12 12:57:16  -325.687459c -4.34  -3.46
iter:  13 12:57:24  -325.687452c -4.92  -3.68
iter:  14 12:57:31  -325.687448c -5.12  -3.75
Writing to output.gpw (mode='')

iter:  15 12:57:39  -325.687445c -5.03  -3.81
iter:  16 12:57:49  -325.687450c -5.23  -3.86
iter:  17 12:58:02  -325.687444c -5.16  -3.93
iter:  18 12:58:10  -325.687446c -5.63  -4.14c
iter:  19 12:58:17  -325.687445c -5.90  -4.28c
Writing to output.gpw (mode='')

iter:  20 12:58:25  -325.687444c -6.13  -4.31c
iter:  21 12:58:32  -325.687441c -6.05  -4.38c
iter:  22 12:58:39  -325.687442c -6.01  -4.59c
iter:  23 12:58:47  -325.687442c -6.61  -4.69c
iter:  24 12:58:54  -325.687442c -6.44  -4.73c
Writing to output.gpw (mode='')

iter:  25 12:59:01  -325.687442c -6.51  -4.79c
iter:  26 12:59:08  -325.687442c -6.89  -4.88c
iter:  27 12:59:16  -325.687442c -6.86  -5.03c
iter:  28 12:59:23  -325.687442c -7.19  -5.08c
iter:  29 12:59:30  -325.687442c -7.01  -5.09c
Writing to output.gpw (mode='')

iter:  30 12:59:44  -325.687442c -7.44c -4.99c

Converged after 30 iterations.

Dipole moment: (-19.448544, -14.691343, 0.285483) |e|*Ang

Energy contributions relative to reference atoms: (reference = -16475.706344)

Kinetic:       +172.353506
Potential:     -163.138595
External:        +0.000000
XC:            -335.955507
Entropy (-ST):   -0.147155
Local:           +1.126731
--------------------------
Free energy:   -325.761020
Extrapolated:  -325.687442

Dipole-layer corrected work functions: 3.404272, 2.855475 eV

Showing only first 2 kpts
 Kpt  Band  Eigenvalues  Occupancy
  0    34     -3.37386    1.98492
  0    35     -3.26727    1.87959
  0    36     -2.98173    0.09827
  0    37     -2.89160    0.01689

  1    34     -3.18727    1.51823
  1    35     -3.12542    0.95547
  1    36     -3.09047    0.62518
  1    37     -3.01472    0.18172


Fermi level: -3.12987

No gap

Forces in eV/Ang:
  0 Li    0.01941    0.00088   -0.27860
  1 Li   -0.01049   -0.00687   -0.26301
  2 Li   -0.00796    0.01532   -0.27437
  3 Li   -0.00720    0.00011   -0.26514
  4 Li    0.00528    0.00058   -0.29339
  5 Li   -0.00147    0.00107   -0.26868
  6 Li    0.01865   -0.00123   -0.27976
  7 Li   -0.00969    0.00602   -0.26570
  8 Li   -0.00843   -0.01621   -0.27569
  9 Li   -0.00092   -0.00114    0.35279
 10 Li    0.01252   -0.00034    0.24220
 11 Li   -0.01867    0.00035    0.26688
 12 Li   -0.00125    0.01078    0.26753
 13 Li    0.00670    0.00843    0.24908
 14 Li   -0.00254    0.01386    0.25430
 15 Li   -0.00227   -0.01004    0.26221
 16 Li    0.00486   -0.00704    0.25218
 17 Li    0.00111   -0.01348    0.25542
 18 Li    0.03345    0.03098   -0.03342
 19 Li    0.00949   -0.00702    0.06015
 20 Li   -0.03657    0.01964   -0.07541
 21 Li   -0.00312    0.00333    0.05561
 22 Li   -0.00706   -0.00135    0.01400
 23 Li    0.01107    0.00143    0.06491
 24 Li    0.03367   -0.03374   -0.04982
 25 Li    0.01071    0.00753    0.06031
 26 Li   -0.03632   -0.02070   -0.08278
 27 Li    0.21812    0.04525   -2.47165
 28 Li    0.02294    0.00389   -0.04288
 29 Li    0.16958    0.01063    0.14962
 30 Li    0.02274    0.08263    0.03166
 31 Li    0.01135   -0.01044   -0.03418
 32 Li   -0.04300    0.04250   -0.04285
 33 Li    0.02368   -0.08316   -0.03520
 34 Li    0.01387    0.00062   -0.02755
 35 Li   -0.04544   -0.04711   -0.04014
 36 O     0.18534    0.17095    0.28459
 37 O    -0.00440   -0.01990   -0.11491
 38 C     0.24698    0.14869    0.47276
 39 C     0.06466    0.12932    0.19083
 40 H     0.17401   -0.05233    0.17480
 41 H     0.45455    0.30590    0.54364
 42 H     0.04356    0.04634    0.04650
 43 H    -0.00685    0.17803    0.14079
 44 H     0.05772   -0.05195    0.22028
 45 H    -0.02178    0.00493    0.02453
 46 N    -0.95136   -0.88788    0.56003
 47 N    -0.64597    0.05122   -0.01345

System changes: positions 

Initializing position-dependent things.

Density initialized from wave functions
       .-----------------------.  
      /|                       |  
     / |                       |  
    /  |                       |  
   /   |                       |  
  /    |                       |  
 *     |                       |  
 |     H                       |  
 |     |                       |  
 |     |                       |  
 |     |                       |  
 |     |                       N  
 |   H |                       |  
 | O C |H                H     |  
 O  C H|                       |  
 |   Li|     Li      Li        |  
 |  H  |                       |  
 | Li  |  LLi     LLi N   Li   |  
 |     |                       |  
 Li    |LLi     LLi     Li     |  
 |   Li|     Li      Li        |  
 |    Li  Li  Li  Li  Li  Li   |  
 | Li  |   Li      Li          |  
 |     |Li      Li      Li     |  
 Li    | Li      Li            |  
 |    Li      Li      Li       |  
 |     |                       |  
 |     |                       |  
 |     |                       |  
 |     |                       |  
 |     |                       |  
 |     |                       |  
 |     .-----------------------.  
 |    /                       /   
 |   /                       /    
 |  /                       /     
 | /                       /      
 |/                       /       
 *-----------------------*        

Positions:
   0 Li     1.617037    1.617037   10.000000    ( 0.0000,  0.0000,  0.0000)
   1 Li     4.851111    1.617037   10.000000    ( 0.0000,  0.0000,  0.0000)
   2 Li     8.085185    1.617037   10.000000    ( 0.0000,  0.0000,  0.0000)
   3 Li     1.617037    4.851111   10.000000    ( 0.0000,  0.0000,  0.0000)
   4 Li     4.851111    4.851111   10.000000    ( 0.0000,  0.0000,  0.0000)
   5 Li     8.085185    4.851111   10.000000    ( 0.0000,  0.0000,  0.0000)
   6 Li     1.617037    8.085185   10.000000    ( 0.0000,  0.0000,  0.0000)
   7 Li     4.851111    8.085185   10.000000    ( 0.0000,  0.0000,  0.0000)
   8 Li     8.085185    8.085185   10.000000    ( 0.0000,  0.0000,  0.0000)
   9 Li     0.000000    0.000000   11.617037    ( 0.0000,  0.0000,  0.0000)
  10 Li     3.234074    0.000000   11.617037    ( 0.0000,  0.0000,  0.0000)
  11 Li     6.468148    0.000000   11.617037    ( 0.0000,  0.0000,  0.0000)
  12 Li     0.000000    3.234074   11.617037    ( 0.0000,  0.0000,  0.0000)
  13 Li     3.234074    3.234074   11.617037    ( 0.0000,  0.0000,  0.0000)
  14 Li     6.468148    3.234074   11.617037    ( 0.0000,  0.0000,  0.0000)
  15 Li     0.000000    6.468148   11.617037    ( 0.0000,  0.0000,  0.0000)
  16 Li     3.234074    6.468148   11.617037    ( 0.0000,  0.0000,  0.0000)
  17 Li     6.468148    6.468148   11.617037    ( 0.0000,  0.0000,  0.0000)
  18 Li     1.618530    1.618443   13.468280    ( 0.0000,  0.0000,  0.0000)
  19 Li     4.851591    1.616655   13.473195    ( 0.0000,  0.0000,  0.0000)
  20 Li     8.083506    1.617578   13.466033    ( 0.0000,  0.0000,  0.0000)
  21 Li     1.616805    4.851307   13.473012    ( 0.0000,  0.0000,  0.0000)
  22 Li     4.850778    4.851043   13.470542    ( 0.0000,  0.0000,  0.0000)
  23 Li     8.085856    4.851181   13.473451    ( 0.0000,  0.0000,  0.0000)
  24 Li     1.618500    8.083616   13.467359    ( 0.0000,  0.0000,  0.0000)
  25 Li     4.851601    8.085603   13.473166    ( 0.0000,  0.0000,  0.0000)
  26 Li     8.083599    8.084582   13.465760    ( 0.0000,  0.0000,  0.0000)
  27 Li     0.016673    0.001641   15.246662    ( 0.0000,  0.0000,  0.0000)
  28 Li     3.235575    0.000232   15.443467    ( 0.0000,  0.0000,  0.0000)
  29 Li     6.477967    0.000478   15.454253    ( 0.0000,  0.0000,  0.0000)
  30 Li     0.001323    3.238957   15.447668    ( 0.0000,  0.0000,  0.0000)
  31 Li     3.234737    3.233482   15.443983    ( 0.0000,  0.0000,  0.0000)
  32 Li     6.465613    3.236531   15.443492    ( 0.0000,  0.0000,  0.0000)
  33 Li     0.001305    6.463274   15.443862    ( 0.0000,  0.0000,  0.0000)
  34 Li     3.234883    6.468184   15.444348    ( 0.0000,  0.0000,  0.0000)
  35 Li     6.465573    6.465452   15.443668    ( 0.0000,  0.0000,  0.0000)
  36 O      9.712282    9.711068   19.462491    ( 0.0000,  0.0000,  0.0000)
  37 O      9.744526   12.600444   19.205758    ( 0.0000,  0.0000,  0.0000)
  38 C     10.889926   10.443430   19.064351    ( 0.0000,  0.0000,  0.0000)
  39 C     10.891551   11.845250   19.613684    ( 0.0000,  0.0000,  0.0000)
  40 H     11.796386    9.898908   19.333730    ( 0.0000,  0.0000,  0.0000)
  41 H     10.854478   10.481930   17.981898    ( 0.0000,  0.0000,  0.0000)
  42 H     11.763513   12.378316   19.228311    ( 0.0000,  0.0000,  0.0000)
  43 H     10.962320   11.798572   20.707385    ( 0.0000,  0.0000,  0.0000)
  44 H      9.779625    9.530112   20.404075    ( 0.0000,  0.0000,  0.0000)
  45 H      8.976967   12.021057   19.311140    ( 0.0000,  0.0000,  0.0000)
  46 N      9.669207    9.650026   17.021888    ( 0.0000,  0.0000,  0.0000)
  47 N      8.539544    9.705386   16.954415    ( 0.0000,  0.0000,  0.0000)

Unit cell:
           periodic     x           y           z      points  spacing
  1. axis:    yes    9.702222    0.000000    0.000000    60     0.1617
  2. axis:    yes    0.000000    9.702222    0.000000    60     0.1617
  3. axis:    no     0.000000    0.000000   26.351111   164     0.1607

  Lengths:   9.702222   9.702222  26.351111
  Angles:   90.000000  90.000000  90.000000

Effective grid spacing dv^(1/3) = 0.1614

     iter     time        total  log10-change:
                         energy  eigst   dens
iter:   1 12:59:53  -325.840267  -1.18
iter:   2 13:00:01  -325.841601  -1.98  -2.41
iter:   3 13:00:08  -325.841858c -2.45  -2.46
iter:   4 13:00:16  -325.840290c -2.65  -2.49
Writing to output.gpw (mode='')

iter:   5 13:00:23  -325.839949c -2.32  -2.65
iter:   6 13:00:30  -325.839427c -3.11  -2.68
iter:   7 13:00:38  -325.839420c -3.15  -2.98
iter:   8 13:00:45  -325.839346c -3.74  -3.04
iter:   9 13:00:52  -325.839329c -3.37  -3.13
Writing to output.gpw (mode='')

iter:  10 13:01:00  -325.839339c -4.02  -3.18
iter:  11 13:01:07  -325.839322c -4.54  -3.39
iter:  12 13:01:14  -325.839350c -4.48  -3.45
iter:  13 13:01:22  -325.839332c -4.56  -3.59
iter:  14 13:01:29  -325.839333c -4.78  -3.68
Writing to output.gpw (mode='')

iter:  15 13:01:36  -325.839334c -5.28  -3.77
iter:  16 13:01:44  -325.839330c -5.01  -3.87
iter:  17 13:01:51  -325.839328c -5.48  -3.90
iter:  18 13:01:58  -325.839323c -5.56  -3.96
iter:  19 13:02:06  -325.839325c -5.67  -4.16c
Writing to output.gpw (mode='')

iter:  20 13:02:13  -325.839325c -6.08  -4.21c
iter:  21 13:02:20  -325.839327c -5.71  -4.27c
iter:  22 13:02:28  -325.839326c -6.29  -4.38c
iter:  23 13:02:35  -325.839325c -6.32  -4.67c
iter:  24 13:02:42  -325.839326c -6.36  -4.76c
Writing to output.gpw (mode='')

iter:  25 13:02:50  -325.839325c -6.72  -4.82c
iter:  26 13:02:57  -325.839324c -6.62  -4.87c
iter:  27 13:03:04  -325.839324c -6.92  -4.92c
iter:  28 13:03:12  -325.839325c -6.74  -5.03c
iter:  29 13:03:19  -325.839325c -7.01  -5.22c
Writing to output.gpw (mode='')

iter:  30 13:03:26  -325.839325c -7.20  -5.37c
iter:  31 13:03:34  -325.839325c -7.15  -5.38c
iter:  32 13:03:41  -325.839325c -7.31  -5.44c
iter:  33 13:03:48  -325.839325c -7.62c -5.47c

Converged after 33 iterations.

Dipole moment: (-18.061956, -13.315563, 0.291714) |e|*Ang

Energy contributions relative to reference atoms: (reference = -16475.706344)

Kinetic:       +171.650829
Potential:     -162.744964
External:        +0.000000
XC:            -335.796803
Entropy (-ST):   -0.146707
Local:           +1.124966
--------------------------
Free energy:   -325.912679
Extrapolated:  -325.839325

Dipole-layer corrected work functions: 3.403447, 2.842673 eV

Showing only first 2 kpts
 Kpt  Band  Eigenvalues  Occupancy
  0    34     -3.36557    1.98447
  0    35     -3.26261    1.88438
  0    36     -2.97232    0.09352
  0    37     -2.88491    0.01693

  1    34     -3.17737    1.49530
  1    35     -3.11874    0.95683
  1    36     -3.08402    0.62828
  1    37     -3.00667    0.17769


Fermi level: -3.12306

No gap
Writing to output.gpw (mode='')


Forces in eV/Ang:
  0 Li    0.01927    0.00059   -0.27942
  1 Li   -0.01049   -0.00703   -0.26263
  2 Li   -0.00765    0.01558   -0.27562
  3 Li   -0.00726    0.00010   -0.26479
  4 Li    0.00538    0.00057   -0.29409
  5 Li   -0.00087    0.00063   -0.26794
  6 Li    0.01862   -0.00087   -0.28082
  7 Li   -0.01005    0.00647   -0.26502
  8 Li   -0.00823   -0.01613   -0.27684
  9 Li   -0.00125   -0.00129    0.35604
 10 Li    0.01290   -0.00045    0.24236
 11 Li   -0.01795    0.00043    0.26899
 12 Li   -0.00079    0.01142    0.26807
 13 Li    0.00705    0.00821    0.24925
 14 Li   -0.00398    0.01600    0.25385
 15 Li   -0.00192   -0.01005    0.26362
 16 Li    0.00619   -0.00689    0.25270
 17 Li   -0.00038   -0.01572    0.25483
 18 Li    0.03996    0.03759   -0.04060
 19 Li    0.01028   -0.00753    0.05908
 20 Li   -0.04238    0.02872   -0.08281
 21 Li   -0.00204    0.00298    0.05302
 22 Li   -0.00796   -0.00140    0.01311
 23 Li    0.01013    0.00157    0.06331
 24 Li    0.04068   -0.03984   -0.05653
 25 Li    0.01273    0.00789    0.05984
 26 Li   -0.04352   -0.02952   -0.09255
 27 Li    0.17357    0.05243   -1.87713
 28 Li    0.02166    0.00355   -0.04282
 29 Li    0.16230    0.01306    0.14898
 30 Li    0.02194    0.07953    0.03115
 31 Li    0.01106   -0.01014   -0.03374
 32 Li   -0.04121    0.04180   -0.04232
 33 Li    0.02432   -0.08019   -0.03484
 34 Li    0.01336    0.00049   -0.02671
 35 Li   -0.04542   -0.04675   -0.04003
 36 O     0.18749    0.17881    0.28981
 37 O     0.01475   -0.02816   -0.09723
 38 C     0.20418    0.09986    0.37770
 39 C     0.06324    0.13286    0.18645
 40 H     0.18524   -0.03330    0.21211
 41 H     0.38920    0.26805    0.42329
 42 H     0.04668    0.06435    0.05816
 43 H    -0.00850    0.20600    0.16605
 44 H     0.06530   -0.05139    0.22745
 45 H    -0.00783    0.00481    0.02511
 46 N    -0.85672   -0.87104    0.21932
 47 N    -0.67340    0.02576   -0.10416

System changes: positions 

Initializing position-dependent things.

Density initialized from wave functions
       .-----------------------.  
      /|                       |  
     / |                       |  
    /  |                       |  
   /   |                       |  
  /    |                       |  
 *     |                       |  
 |     H                       |  
 |     |                       |  
 |     |                       |  
 |     |                       |  
 |     |                       N  
 |   H |                       |  
 | O C |H                H     |  
 O  C H|                       |  
 |   Li|     Li      Li        |  
 |  H  |                       |  
 | Li  |  LLi     LLi N   Li   |  
 |     |                       |  
 |     |LLi     LLi     Li     |  
 Li  Li|     Li      Li        |  
 |    Li  Li  Li  Li  Li  Li   |  
 | Li  |   Li      Li          |  
 |     |Li      Li      Li     |  
 Li    | Li      Li            |  
 |    Li      Li      Li       |  
 |     |                       |  
 |     |                       |  
 |     |                       |  
 |     |                       |  
 |     |                       |  
 |     |                       |  
 |     .-----------------------.  
 |    /                       /   
 |   /                       /    
 |  /                       /     
 | /                       /      
 |/                       /       
 *-----------------------*        

Positions:
   0 Li     1.617037    1.617037   10.000000    ( 0.0000,  0.0000,  0.0000)
   1 Li     4.851111    1.617037   10.000000    ( 0.0000,  0.0000,  0.0000)
   2 Li     8.085185    1.617037   10.000000    ( 0.0000,  0.0000,  0.0000)
   3 Li     1.617037    4.851111   10.000000    ( 0.0000,  0.0000,  0.0000)
   4 Li     4.851111    4.851111   10.000000    ( 0.0000,  0.0000,  0.0000)
   5 Li     8.085185    4.851111   10.000000    ( 0.0000,  0.0000,  0.0000)
   6 Li     1.617037    8.085185   10.000000    ( 0.0000,  0.0000,  0.0000)
   7 Li     4.851111    8.085185   10.000000    ( 0.0000,  0.0000,  0.0000)
   8 Li     8.085185    8.085185   10.000000    ( 0.0000,  0.0000,  0.0000)
   9 Li     0.000000    0.000000   11.617037    ( 0.0000,  0.0000,  0.0000)
  10 Li     3.234074    0.000000   11.617037    ( 0.0000,  0.0000,  0.0000)
  11 Li     6.468148    0.000000   11.617037    ( 0.0000,  0.0000,  0.0000)
  12 Li     0.000000    3.234074   11.617037    ( 0.0000,  0.0000,  0.0000)
  13 Li     3.234074    3.234074   11.617037    ( 0.0000,  0.0000,  0.0000)
  14 Li     6.468148    3.234074   11.617037    ( 0.0000,  0.0000,  0.0000)
  15 Li     0.000000    6.468148   11.617037    ( 0.0000,  0.0000,  0.0000)
  16 Li     3.234074    6.468148   11.617037    ( 0.0000,  0.0000,  0.0000)
  17 Li     6.468148    6.468148   11.617037    ( 0.0000,  0.0000,  0.0000)
  18 Li     1.619367    1.619223   13.467438    ( 0.0000,  0.0000,  0.0000)
  19 Li     4.851814    1.616497   13.474471    ( 0.0000,  0.0000,  0.0000)
  20 Li     8.082609    1.618172   13.464264    ( 0.0000,  0.0000,  0.0000)
  21 Li     1.616759    4.851374   13.474161    ( 0.0000,  0.0000,  0.0000)
  22 Li     4.850608    4.851013   13.470830    ( 0.0000,  0.0000,  0.0000)
  23 Li     8.086077    4.851214   13.474824    ( 0.0000,  0.0000,  0.0000)
  24 Li     1.619351    8.082785   13.466169    ( 0.0000,  0.0000,  0.0000)
  25 Li     4.851870    8.085770   13.474457    ( 0.0000,  0.0000,  0.0000)
  26 Li     8.082684    8.083969   13.463792    ( 0.0000,  0.0000,  0.0000)
  27 Li     0.020549    0.002763   15.206866    ( 0.0000,  0.0000,  0.0000)
  28 Li     3.236039    0.000311   15.442543    ( 0.0000,  0.0000,  0.0000)
  29 Li     6.481471    0.000747   15.457442    ( 0.0000,  0.0000,  0.0000)
  30 Li     0.001801    3.240690   15.448334    ( 0.0000,  0.0000,  0.0000)
  31 Li     3.234974    3.233258   15.443256    ( 0.0000,  0.0000,  0.0000)
  32 Li     6.464720    3.237432   15.442576    ( 0.0000,  0.0000,  0.0000)
  33 Li     0.001827    6.461526   15.443102    ( 0.0000,  0.0000,  0.0000)
  34 Li     3.235172    6.468198   15.443769    ( 0.0000,  0.0000,  0.0000)
  35 Li     6.464597    6.464446   15.442802    ( 0.0000,  0.0000,  0.0000)
  36 O      9.716335    9.714930   19.468589    ( 0.0000,  0.0000,  0.0000)
  37 O      9.744817   12.599770   19.203608    ( 0.0000,  0.0000,  0.0000)
  38 C     10.894353   10.445687   19.072677    ( 0.0000,  0.0000,  0.0000)
  39 C     10.892888   11.848337   19.617738    ( 0.0000,  0.0000,  0.0000)
  40 H     11.800411    9.898072   19.338187    ( 0.0000,  0.0000,  0.0000)
  41 H     10.863278   10.487961   17.991740    ( 0.0000,  0.0000,  0.0000)
  42 H     11.764486   12.379595   19.229522    ( 0.0000,  0.0000,  0.0000)
  43 H     10.962143   11.802897   20.710908    ( 0.0000,  0.0000,  0.0000)
  44 H      9.780997    9.528960   20.409117    ( 0.0000,  0.0000,  0.0000)
[...]
iter:  31 00:04:10  -328.606426c -7.25  -5.33c
iter:  32 00:04:17  -328.606426c -7.35  -5.50c
iter:  33 00:04:24  -328.606426c -7.54c -5.59c

Converged after 33 iterations.

Dipole moment: (-28.392667, -11.134453, 0.552601) |e|*Ang

Energy contributions relative to reference atoms: (reference = -16475.706344)

Kinetic:       +160.239972
Potential:     -152.379744
External:        +0.000000
XC:            -337.539746
Entropy (-ST):   -0.162167
Local:           +1.154176
--------------------------
Free energy:   -328.687509
Extrapolated:  -328.606426

Dipole-layer corrected work functions: 3.395600, 2.333312 eV

Showing only first 2 kpts
 Kpt  Band  Eigenvalues  Occupancy
  0    34     -3.07136    1.96859
  0    35     -2.87985    1.15270
  0    36     -2.85740    0.92953
  0    37     -2.76462    0.23910

  1    34     -3.17045    1.99561
  1    35     -2.83122    0.67937
  1    36     -2.74961    0.18277
  1    37     -2.73630    0.14310


Fermi level: -2.86446

No gap
Writing to output.gpw (mode='')


Forces in eV/Ang:
  0 Li    0.01232    0.01813   -0.27984
  1 Li   -0.00908    0.00942   -0.29907
  2 Li   -0.01750   -0.00468   -0.28506
  3 Li    0.00427   -0.00073   -0.28439
  4 Li   -0.01698   -0.01611   -0.29371
  5 Li    0.00995    0.01079   -0.28803
  6 Li   -0.01082   -0.01063   -0.30350
  7 Li    0.00359    0.01334   -0.28089
  8 Li    0.00241    0.00147   -0.25468
  9 Li   -0.02856   -0.04319    0.27682
 10 Li   -0.01543   -0.01299    0.30033
 11 Li    0.07996   -0.02256    0.32325
 12 Li   -0.01664   -0.02094    0.22320
 13 Li    0.02534   -0.01212    0.29252
 14 Li    0.04732    0.00296    0.28660
 15 Li   -0.02532   -0.00873    0.31951
 16 Li   -0.00883   -0.02046    0.30178
 17 Li    0.07670    0.00629    0.24955
 18 Li   -0.01345    0.01787    0.01614
 19 Li   -0.00039   -0.00311    0.00341
 20 Li   -0.01864    0.00899   -0.00009
 21 Li   -0.00216    0.01544    0.00212
 22 Li    0.00001    0.00558   -0.00256
 23 Li    0.00363    0.00526    0.00352
 24 Li    0.00340   -0.00045   -0.00375
 25 Li    0.00141    0.00109    0.00361
 26 Li   -0.01458   -0.01144    0.00515
 27 Li    0.00304    0.00715    0.00478
 28 Li   -0.00155   -0.00594    0.00063
 29 Li   -0.00414    0.00423    0.00068
 30 Li    0.01177    0.00387   -0.00472
 31 Li   -0.00634   -0.00294   -0.00647
 32 Li   -0.01996    0.00305    0.00049
 33 Li    0.00278    0.02291   -0.00579
 34 Li    0.00444   -0.00461    0.00880
 35 Li   -0.00010    0.00533    0.00511
 36 O    -0.02699   -0.00373    0.01674
 37 O    -0.01826    0.00701   -0.00586
 38 C    -0.00050   -0.01951   -0.00824
 39 C    -0.00160    0.02453    0.00510
 40 H    -0.00130   -0.00262   -0.02067
 41 H     0.01119    0.00576    0.00596
 42 H     0.01475   -0.01151    0.00242
 43 H    -0.02391   -0.00322   -0.01842
 44 H    -0.00234   -0.00155   -0.01088
 45 H    -0.02973    0.00092    0.00736
 46 N     0.00688   -0.02847    0.01319
 47 N    -0.05696    0.01571   -0.00343

System changes: positions 

Initializing position-dependent things.

Density initialized from wave functions
       .-----------------------.  
      /|                       |  
     / |                       |  
    /  |                       |  
   /   |                       |  
  /    |                       |  
 *     |                       |  
 |     |                       |  
 |     |                       |  
 |     |                       |  
 |     |                       |  
 |     |                       |  
 |H  H |                       |  
 |     H                      Li  
 |O  C |H                N N   |  
 | O Hi|     Li       Li H     |  
 |     |                       |  
 | Li  |  LLi     LLi     Li   |  
 |     |                       |  
 |     |LLi     LLi     Li     |  
 |   Li|     Li      Li        |  
 |    Li  Li  Li  Li  Li  Li   |  
 | Li  |   Li      Li          |  
 |     |Li      Li      Li     |  
 Li    | Li      Li            |  
 |    Li      Li      Li       |  
 |     |                       |  
 |     |                       |  
 |     |                       |  
 |     |                       |  
 |     |                       |  
 |     |                       |  
 |     .-----------------------.  
 |    /                       /   
 |   /                       /    
 |  /                       /     
 | /                       /      
 |/                       /       
 *-----------------------*        

Positions:
   0 Li     1.617037    1.617037   10.000000    ( 0.0000,  0.0000,  0.0000)
   1 Li     4.851111    1.617037   10.000000    ( 0.0000,  0.0000,  0.0000)
   2 Li     8.085185    1.617037   10.000000    ( 0.0000,  0.0000,  0.0000)
   3 Li     1.617037    4.851111   10.000000    ( 0.0000,  0.0000,  0.0000)
   4 Li     4.851111    4.851111   10.000000    ( 0.0000,  0.0000,  0.0000)
   5 Li     8.085185    4.851111   10.000000    ( 0.0000,  0.0000,  0.0000)
   6 Li     1.617037    8.085185   10.000000    ( 0.0000,  0.0000,  0.0000)
   7 Li     4.851111    8.085185   10.000000    ( 0.0000,  0.0000,  0.0000)
   8 Li     8.085185    8.085185   10.000000    ( 0.0000,  0.0000,  0.0000)
   9 Li     0.000000    0.000000   11.617037    ( 0.0000,  0.0000,  0.0000)
  10 Li     3.234074    0.000000   11.617037    ( 0.0000,  0.0000,  0.0000)
  11 Li     6.468148    0.000000   11.617037    ( 0.0000,  0.0000,  0.0000)
  12 Li     0.000000    3.234074   11.617037    ( 0.0000,  0.0000,  0.0000)
  13 Li     3.234074    3.234074   11.617037    ( 0.0000,  0.0000,  0.0000)
  14 Li     6.468148    3.234074   11.617037    ( 0.0000,  0.0000,  0.0000)
  15 Li     0.000000    6.468148   11.617037    ( 0.0000,  0.0000,  0.0000)
  16 Li     3.234074    6.468148   11.617037    ( 0.0000,  0.0000,  0.0000)
  17 Li     6.468148    6.468148   11.617037    ( 0.0000,  0.0000,  0.0000)
  18 Li     1.548463    1.559859   13.498508    ( 0.0000,  0.0000,  0.0000)
  19 Li     4.874390    1.638663   13.443454    ( 0.0000,  0.0000,  0.0000)
  20 Li     8.126488    1.607621   13.538373    ( 0.0000,  0.0000,  0.0000)
  21 Li     1.635432    4.732528   13.513160    ( 0.0000,  0.0000,  0.0000)
  22 Li     4.945146    4.922981   13.463440    ( 0.0000,  0.0000,  0.0000)
  23 Li     8.163224    4.809093   13.527967    ( 0.0000,  0.0000,  0.0000)
  24 Li     1.609352    8.012273   13.480735    ( 0.0000,  0.0000,  0.0000)
  25 Li     4.885282    8.107989   13.462481    ( 0.0000,  0.0000,  0.0000)
  26 Li     8.090395    8.052244   13.555305    ( 0.0000,  0.0000,  0.0000)
  27 Li    -0.191636   -0.383363   15.515886    ( 0.0000,  0.0000,  0.0000)
  28 Li     3.181020    0.028259   15.319320    ( 0.0000,  0.0000,  0.0000)
  29 Li     6.396635    0.088952   15.471886    ( 0.0000,  0.0000,  0.0000)
  30 Li     0.151877    2.938392   15.865614    ( 0.0000,  0.0000,  0.0000)
  31 Li     3.380846    3.240198   15.328790    ( 0.0000,  0.0000,  0.0000)
  32 Li     6.451429    3.337643   15.401490    ( 0.0000,  0.0000,  0.0000)
  33 Li     0.132280    6.266316   15.477753    ( 0.0000,  0.0000,  0.0000)
  34 Li     3.361826    6.416209   15.390228    ( 0.0000,  0.0000,  0.0000)
  35 Li     6.689765    6.676162   15.553143    ( 0.0000,  0.0000,  0.0000)
  36 O      9.863051   10.157061   19.835260    ( 0.0000,  0.0000,  0.0000)
  37 O      9.860861   12.094033   17.733105    ( 0.0000,  0.0000,  0.0000)
  38 C     11.093293   10.664865   19.288772    ( 0.0000,  0.0000,  0.0000)
  39 C     10.914537   12.063076   18.721446    ( 0.0000,  0.0000,  0.0000)
  40 H     11.892862   10.670405   20.038952    ( 0.0000,  0.0000,  0.0000)
  41 H     11.370538    9.968859   18.493638    ( 0.0000,  0.0000,  0.0000)
  42 H     11.824066   12.390129   18.212083    ( 0.0000,  0.0000,  0.0000)
  43 H     10.685957   12.782296   19.518042    ( 0.0000,  0.0000,  0.0000)
  44 H      9.706024   10.586563   20.684568    ( 0.0000,  0.0000,  0.0000)
  45 H      9.109528   11.592321   18.087407    ( 0.0000,  0.0000,  0.0000)
  46 N      8.529114    7.550934   15.577786    ( 0.0000,  0.0000,  0.0000)
  47 N      7.661607    8.463216   15.587745    ( 0.0000,  0.0000,  0.0000)

Unit cell:
           periodic     x           y           z      points  spacing
  1. axis:    yes    9.702222    0.000000    0.000000    60     0.1617
  2. axis:    yes    0.000000    9.702222    0.000000    60     0.1617
  3. axis:    no     0.000000    0.000000   26.351111   164     0.1607

  Lengths:   9.702222   9.702222  26.351111
  Angles:   90.000000  90.000000  90.000000

Effective grid spacing dv^(1/3) = 0.1614

     iter     time        total  log10-change:
                         energy  eigst   dens
iter:   1 00:04:38  -328.608201  -2.67
iter:   2 00:04:47  -328.607211  -3.28  -2.56
iter:   3 00:04:54  -328.606969c -4.14  -2.73
iter:   4 00:05:02  -328.606908c -4.27  -3.02
Writing to output.gpw (mode='')

iter:   5 00:05:09  -328.606911c -4.24  -3.24
iter:   6 00:05:16  -328.606942c -3.96  -3.43
iter:   7 00:05:24  -328.606877c -4.62  -3.49
iter:   8 00:05:31  -328.606887c -4.59  -3.72
iter:   9 00:05:38  -328.606863c -5.33  -3.70
Writing to output.gpw (mode='')

iter:  10 00:05:46  -328.606862c -5.27  -3.96
iter:  11 00:05:53  -328.606856c -5.65  -4.05c
iter:  12 00:06:00  -328.606865c -6.10  -4.07c
iter:  13 00:06:08  -328.606879c -5.76  -4.19c
iter:  14 00:06:15  -328.606877c -6.49  -4.30c
Writing to output.gpw (mode='')

iter:  15 00:06:22  -328.606872c -6.10  -4.37c
iter:  16 00:06:30  -328.606876c -6.51  -4.68c
iter:  17 00:06:37  -328.606873c -6.97  -4.65c
iter:  18 00:06:44  -328.606871c -6.90  -4.82c
iter:  19 00:06:52  -328.606871c -7.07  -4.92c
Writing to output.gpw (mode='')

iter:  20 00:06:59  -328.606873c -7.40  -4.95c
iter:  21 00:07:06  -328.606871c -7.43c -5.05c

Converged after 21 iterations.

Dipole moment: (-28.374958, -11.102170, 0.552479) |e|*Ang

Energy contributions relative to reference atoms: (reference = -16475.706344)

Kinetic:       +160.216457
Potential:     -152.360675
External:        +0.000000
XC:            -337.535880
Entropy (-ST):   -0.162136
Local:           +1.154295
--------------------------
Free energy:   -328.687939
Extrapolated:  -328.606871

Dipole-layer corrected work functions: 3.395578, 2.333524 eV

Showing only first 2 kpts
 Kpt  Band  Eigenvalues  Occupancy
  0    34     -3.07157    1.96866
  0    35     -2.87996    1.15292
  0    36     -2.85740    0.92863
  0    37     -2.76489    0.23985

  1    34     -3.17032    1.99559
  1    35     -2.83119    0.67823
  1    36     -2.74972    0.18282
  1    37     -2.73597    0.14199


Fermi level: -2.86455

No gap
Writing to output.gpw (mode='')


Forces in eV/Ang:
  0 Li    0.01239    0.01821   -0.27984
  1 Li   -0.00904    0.00944   -0.29899
  2 Li   -0.01755   -0.00455   -0.28496
  3 Li    0.00430   -0.00075   -0.28419
  4 Li   -0.01702   -0.01614   -0.29392
  5 Li    0.00987    0.01075   -0.28795
  6 Li   -0.01070   -0.01075   -0.30348
  7 Li    0.00357    0.01333   -0.28079
  8 Li    0.00225    0.00135   -0.25459
  9 Li   -0.02886   -0.04359    0.27802
 10 Li   -0.01562   -0.01253    0.30040
 11 Li    0.07978   -0.02306    0.32273
 12 Li   -0.01641   -0.02077    0.22284
 13 Li    0.02567   -0.01204    0.29283
 14 Li    0.04660    0.00337    0.28625
 15 Li   -0.02563   -0.00849    0.31886
 16 Li   -0.00783   -0.02062    0.30091
 17 Li    0.07623    0.00618    0.24901
 18 Li   -0.01313    0.01610    0.01507
 19 Li   -0.00089   -0.00235    0.00239
 20 Li   -0.01691    0.00716    0.00094
 21 Li   -0.00217    0.01454    0.00201
 22 Li   -0.00014    0.00555   -0.00285
 23 Li    0.00345    0.00570    0.00460
 24 Li    0.00139    0.00184   -0.00175
 25 Li    0.00149    0.00023    0.00283
 26 Li   -0.01048   -0.00848    0.00651
 27 Li   -0.00307    0.00189    0.00181
 28 Li   -0.00240   -0.00592    0.00045
 29 Li   -0.00618    0.00448    0.00026
 30 Li    0.01015    0.00450   -0.00765
 31 Li   -0.00549   -0.00210   -0.00604
 32 Li   -0.01986    0.00383    0.00143
 33 Li   -0.00179    0.02616   -0.00571
 34 Li    0.00461   -0.00492    0.00902
 35 Li   -0.00030    0.00162    0.00620
 36 O     0.00715   -0.02328   -0.02910
 37 O    -0.01889    0.01356   -0.00498
 38 C    -0.00119   -0.00780   -0.00855
 39 C    -0.00928    0.00563   -0.00179
 40 H     0.00156   -0.00040   -0.00779
 41 H    -0.00635    0.00320    0.00620
 42 H     0.00907   -0.00941    0.00414
 43 H    -0.01746    0.00214   -0.01063
 44 H    -0.00763    0.01172    0.01961
 45 H    -0.02461    0.00362    0.00332
 46 N     0.00177   -0.02824    0.01097
 47 N    -0.04319    0.01799   -0.00309

Timing:                                      incl.     excl.
-------------------------------------------------------------------
Density initialized from wave functions:     5.244     5.240   0.0% |
 Symmetrize density:                         0.003     0.003   0.0% |
Forces:                                     65.149    65.149   0.2% |
Hamiltonian:                               910.325     0.022   0.0% |
 Atomic:                                     0.040     0.040   0.0% |
  XC Correction:                             0.000     0.000   0.0% |
 Calculate atomic Hamiltonians:              0.069     0.069   0.0% |
 Communicate:                               14.347    14.347   0.0% |
 Hartree integrate/restrict:                 3.188     3.188   0.0% |
 Initialize Hamiltonian:                     0.001     0.001   0.0% |
 Poisson:                                   43.214    15.914   0.0% |
  Communicate from 1D:                       4.281     4.281   0.0% |
  Communicate from 2D:                       4.477     4.477   0.0% |
  Communicate to 1D:                         2.372     2.372   0.0% |
  Communicate to 2D:                         5.113     5.113   0.0% |
  FFT 1D:                                    5.585     5.585   0.0% |
  FFT 2D:                                    5.472     5.472   0.0% |
 XC 3D grid:                               848.739   130.283   0.3% |
  VdW-DF integral:                         718.456     6.115   0.0% |
   Convolution:                             65.914    65.914   0.2% |
   FFT:                                     28.800    28.800   0.1% |
   gather:                                 249.269   249.269   0.6% |
   hmm1:                                    24.032    24.032   0.1% |
   hmm2:                                    31.150    31.150   0.1% |
   iFFT:                                    29.548    29.548   0.1% |
   potential:                              280.007     7.825   0.0% |
    collect:                                45.351    45.351   0.1% |
    p1:                                    127.430   127.430   0.3% |
    p2:                                     47.134    47.134   0.1% |
    sum:                                    52.267    52.267   0.1% |
   splines:                                  3.621     3.621   0.0% |
 vbar:                                       0.705     0.705   0.0% |
LCAO initialization:                         1.172     0.183   0.0% |
 LCAO eigensolver:                           0.245     0.000   0.0% |
  Calculate projections:                     0.000     0.000   0.0% |
  DenseAtomicCorrection:                     0.000     0.000   0.0% |
  Distribute overlap matrix:                 0.230     0.230   0.0% |
  Orbital Layouts:                           0.013     0.013   0.0% |
  Potential matrix:                          0.001     0.001   0.0% |
  Sum over cells:                            0.001     0.001   0.0% |
 LCAO to grid:                               0.620     0.620   0.0% |
 Set positions (LCAO WFS):                   0.124     0.073   0.0% |
  Basic WFS set positions:                   0.001     0.001   0.0% |
  Basis functions set positions:             0.000     0.000   0.0% |
  P tci:                                     0.000     0.000   0.0% |
  ST tci:                                    0.020     0.020   0.0% |
  mktci:                                     0.030     0.030   0.0% |
Redistribute:                                0.104     0.104   0.0% |
SCF-cycle:                               41101.033   544.621   1.3% ||
 Davidson:                               11146.425  3339.979   7.9% |--|
  Apply hamiltonian:                       697.417   697.417   1.7% ||
  Subspace diag:                          2082.007     0.683   0.0% |
   calc_h_matrix:                         1036.761   321.641   0.8% |
    Apply hamiltonian:                     715.120   715.120   1.7% ||
   diagonalize:                            113.014   113.014   0.3% |
   rotate_psi:                             931.549   931.549   2.2% ||
  calc. matrices:                         3513.176  1845.741   4.4% |-|
   Apply hamiltonian:                     1667.435  1667.435   3.9% |-|
  diagonalize:                              33.492    33.492   0.1% |
  rotate_psi:                             1480.354  1480.354   3.5% ||
 Density:                                  207.604     0.138   0.0% |
  Atomic density matrices:                  25.515    25.515   0.1% |
  Mix:                                      88.364    88.364   0.2% |
  Multipole moments:                        10.854    10.854   0.0% |
  Pseudo density:                           82.732    82.615   0.2% |
   Symmetrize density:                       0.117     0.117   0.0% |
 Hamiltonian:                            29171.404     0.698   0.0% |
  Atomic:                                    1.349     1.335   0.0% |
   XC Correction:                            0.014     0.014   0.0% |
  Calculate atomic Hamiltonians:             2.229     2.229   0.0% |
  Communicate:                             382.994   382.994   0.9% |
  Hartree integrate/restrict:              105.364   105.364   0.2% |
  Poisson:                                1404.378   521.456   1.2% |
   Communicate from 1D:                    137.102   137.102   0.3% |
   Communicate from 2D:                    144.495   144.495   0.3% |
   Communicate to 1D:                       78.097    78.097   0.2% |
   Communicate to 2D:                      164.599   164.599   0.4% |
   FFT 1D:                                 180.185   180.185   0.4% |
   FFT 2D:                                 178.443   178.443   0.4% |
  XC 3D grid:                            27251.085  4144.483   9.8% |---|
   VdW-DF integral:                      23106.602   197.441   0.5% |
    Convolution:                          2122.274  2122.274   5.0% |-|
    FFT:                                   925.949   925.949   2.2% ||
    gather:                               8043.665  8043.665  19.0% |-------|
    hmm1:                                  767.392   767.392   1.8% ||
    hmm2:                                  999.967   999.967   2.4% ||
    iFFT:                                  951.130   951.130   2.3% ||
    potential:                            9098.734   251.691   0.6% |
     collect:                             1412.434  1412.434   3.3% ||
     p1:                                  4105.699  4105.699   9.7% |---|
     p2:                                  1521.068  1521.068   3.6% ||
     sum:                                 1807.842  1807.842   4.3% |-|
    splines:                                 0.048     0.048   0.0% |
  vbar:                                     23.306    23.306   0.1% |
 Orthonormalize:                            30.980     0.022   0.0% |
  calc_s_matrix:                             4.503     4.503   0.0% |
  inverse-cholesky:                          9.253     9.253   0.0% |
  projections:                               0.003     0.003   0.0% |
  rotate_psi_s:                             17.198    17.198   0.0% |
Set symmetry:                                0.002     0.002   0.0% |
Other:                                     172.422   172.422   0.4% |
-------------------------------------------------------------------
Total:                                             42255.452 100.0%

Memory usage: 1.13 GiB
Date: Sat Mar 11 00:07:07 2023
