
  ___ ___ ___ _ _ _  
 |   |   |_  | | | | 
 | | | | | . | | | | 
 |__ |  _|___|_____|  22.8.0
 |___|_|             

User:   vazumah@f006
Date:   Wed Mar  8 10:08:27 2023
Arch:   x86_64
Pid:    50544
CWD:    /home/vazumah/Research_Projects/LiMEAS/LiNRR_proton_donors/on_pure_surface/Li_BCC100/adsorbates/CH3CH2OH_y/bridge/0.0_1.617
Python: 3.10.6
gpaw:   /home/vazumah/anaconda3/envs/NAME/lib/python3.10/site-packages/gpaw
_gpaw:  /home/vazumah/anaconda3/envs/NAME/lib/python3.10/site-packages/
        _gpaw.cpython-310-x86_64-linux-gnu.so
ase:    /home/vazumah/anaconda3/envs/NAME/lib/python3.10/site-packages/ase (version 3.22.1)
numpy:  /home/vazumah/anaconda3/envs/NAME/lib/python3.10/site-packages/numpy (version 1.23.3)
scipy:  /home/vazumah/anaconda3/envs/NAME/lib/python3.10/site-packages/scipy (version 1.9.1)
libxc:  5.2.3
units:  Angstrom and eV
cores: 32
OpenMP: True
OMP_NUM_THREADS: 1

Reading from output.gpw
Reading input parameters:
  h: 0.16
  kpts: {size: [4, 4, 1]}
  occupations: {name: fermi-dirac,
                width: 0.05}
  poissonsolver: {dipolelayer: xy}
  xc: BEEF-vdW

Initialize ...

species:
  Li:
    name: Lithium
    id: 830b4218f175192f93f959cfc0aad614
    Z: 3.0
    valence: 1
    core: 2
    charge: 0.0
    file: /home/vazumah/anaconda3/envs/NAME/share/gpaw/Li.PBE.gz
    compensation charges: {type: gauss,
                           rc: 0.33,
                           lmax: 2}
    cutoffs: {filter: 1.91,
              core: 2.55}
    valence states:
      #              energy  rcut
      - 2s(1.00)    -2.874   1.058
      - 2p(0.00)    -1.090   1.058
      -  s          24.337   1.058
  
    # Using partial waves for Li as LCAO basis

  O:
    name: Oxygen
    id: 32ecd46bf208036f09c70b0ec9a88b78
    Z: 8.0
    valence: 6
    core: 2
    charge: 0.0
    file: /home/vazumah/anaconda3/envs/NAME/share/gpaw/O.PBE.gz
    compensation charges: {type: gauss,
                           rc: 0.21,
                           lmax: 2}
    cutoffs: {filter: 1.17,
              core: 0.83}
    valence states:
      #              energy  rcut
      - 2s(2.00)   -23.961   0.688
      - 2p(4.00)    -9.029   0.598
      -  s           3.251   0.688
      -  p          18.182   0.598
      -  d           0.000   0.619
  
    # Using partial waves for O as LCAO basis

  C:
    name: Carbon
    id: 4aa54d4b901d75f77cc0ea3eec22967b
    Z: 6.0
    valence: 4
    core: 2
    charge: 0.0
    file: /home/vazumah/anaconda3/envs/NAME/share/gpaw/C.PBE.gz
    compensation charges: {type: gauss,
                           rc: 0.20,
                           lmax: 2}
    cutoffs: {filter: 1.14,
              core: 1.14}
    valence states:
      #              energy  rcut
      - 2s(2.00)   -13.751   0.635
      - 2p(2.00)    -5.284   0.635
      -  s          13.461   0.635
      -  p          21.927   0.635
      -  d           0.000   0.635
  
    # Using partial waves for C as LCAO basis

  H:
    name: Hydrogen
    id: d65de229564ff8ea4db303e23b6d1ecf
    Z: 1.0
    valence: 1
    core: 0
    charge: 0.0
    file: /home/vazumah/anaconda3/envs/NAME/share/gpaw/H.PBE.gz
    compensation charges: {type: gauss,
                           rc: 0.15,
                           lmax: 2}
    cutoffs: {filter: 0.85,
              core: 0.53}
    valence states:
      #              energy  rcut
      - 1s(1.00)    -6.494   0.476
      -  s          20.717   0.476
      -  p           0.000   0.476
  
    # Using partial waves for H as LCAO basis

Reference energy: -11471.411034  # eV

Spin-paired calculation

Convergence criteria:
 Maximum [total energy] change in last 3 cyles: 0.0005 eV / electron
 Maximum integral of absolute [dens]ity change: 0.0001 electrons / valence electron
 Maximum integral of absolute [eigenst]ate change: 4e-08 eV^2 / valence electron
 Maximum number of scf [iter]ations: 333
 (Square brackets indicate name in SCF output, whereas a 'c' in
 the SCF output indicates the quantity has converged.)

Symmetries present (total): 1

  ( 1  0  0)
  ( 0  1  0)
  ( 0  0  1)

16 k-points: 4 x 4 x 1 Monkhorst-Pack grid
8 k-points in the irreducible part of the Brillouin zone
       k-points in crystal coordinates                weights
   0:     0.12500000   -0.37500000    0.00000000          2/16
   1:     0.12500000   -0.12500000    0.00000000          2/16
   2:     0.12500000    0.12500000    0.00000000          2/16
   3:     0.12500000    0.37500000    0.00000000          2/16
   4:     0.37500000   -0.37500000    0.00000000          2/16
   5:     0.37500000   -0.12500000    0.00000000          2/16
   6:     0.37500000    0.12500000    0.00000000          2/16
   7:     0.37500000    0.37500000    0.00000000          2/16

Wave functions: Uniform real-space grid
  Kinetic energy operator: 6*3+1=19 point O(h^6) finite-difference Laplacian
  ScaLapack parameters: grid=1x1, blocksize=None
  Wavefunction extrapolation:
    Improved wavefunction reuse through dual PAW basis 

Occupation numbers: Fermi-Dirac:
  width: 0.0500  # eV
 

Eigensolver
   Davidson(niter=2) 

Densities:
  Coarse grid: 60*60*156 grid
  Fine grid: 120*120*312 grid
  Total Charge: 0.000000 

Density mixing:
  Method: separate
  Backend: pulay
  Linear mixing parameter: 0.05
  old densities: 5
  Damping of long wavelength oscillations: 50 

Hamiltonian:
  XC and Coulomb potentials evaluated on a 120*120*312 grid
  Using the BEEF-vdW Exchange-Correlation functional
  Interpolation: tri-quintic (5. degree polynomial)
  Poisson solver: FastPoissonSolver using
    Stencil: 6*3+1=19 point O(h^6) finite-difference Laplacian
    FFT axes: [0, 1]
    FST axes: [2]

Dipole correction along z-axis 

XC parameters: BEEF-vdW with 2 nearest neighbor stencil

Memory estimate:
  Process memory now: 212.25 MiB
  Calculator: 281.63 MiB
    Density: 87.85 MiB
      Arrays: 27.47 MiB
      Localized functions: 49.94 MiB
      Mixer: 10.44 MiB
    Hamiltonian: 21.91 MiB
      Arrays: 17.96 MiB
      XC: 0.00 MiB
      Poisson: 0.00 MiB
      vbar: 3.94 MiB
    Wavefunctions: 171.87 MiB
      Arrays psit_nG: 79.32 MiB
      Eigensolver: 89.98 MiB
      Projections: 0.04 MiB
      Projectors: 2.54 MiB

Total number of cores used: 32
Parallelization over k-points: 8
Domain decomposition: 1 x 1 x 4

Number of atoms: 45
Number of atomic orbitals: 162
Number of bands in calculation: 38
Number of valence electrons: 56
Bands to converge: occupied

... initialized

Initializing position-dependent things.

Creating initial wave functions:
  38 bands from LCAO basis set

       .-----------------------.  
      /|                       |  
     / |                       |  
    /  |                       |  
   /   |                       |  
  /    |                       |  
 *     |                       |  
 |     |                       |  
 |     |                       |  
 |     |                       |  
 |   H |                       |  
 | C   |                 H     |  
 |  CH |       Li      Li  H   |  
 |     H                       |  
 |O    |     Li      Li H    Li|  
 |     |  Li      Li      Li   |  
 |     |   Li      Li      Li  |  
 |Li   |Li      Li      Li     |  
 |     |                       |  
 |   LLi     LLi     LLi       |  
 |     |  Li      Li      Li   |  
 | Li  |   Li      Li          |  
 |     |Li      Li      Li     |  
 Li    | Li      Li            |  
 |    Li      Li      Li       |  
 |     |                       |  
 |     |                       |  
 |     |                       |  
 |     |                       |  
 |     |                       |  
 |     |                       |  
 |     .-----------------------.  
 |    /                       /   
 |   /                       /    
 |  /                       /     
 | /                       /      
 |/                       /       
 *-----------------------*        

Positions:
   0 Li     1.617037    1.617037   10.000000    ( 0.0000,  0.0000,  0.0000)
   1 Li     4.851111    1.617037   10.000000    ( 0.0000,  0.0000,  0.0000)
   2 Li     8.085185    1.617037   10.000000    ( 0.0000,  0.0000,  0.0000)
   3 Li     1.617037    4.851111   10.000000    ( 0.0000,  0.0000,  0.0000)
   4 Li     4.851111    4.851111   10.000000    ( 0.0000,  0.0000,  0.0000)
   5 Li     8.085185    4.851111   10.000000    ( 0.0000,  0.0000,  0.0000)
   6 Li     1.617037    8.085185   10.000000    ( 0.0000,  0.0000,  0.0000)
   7 Li     4.851111    8.085185   10.000000    ( 0.0000,  0.0000,  0.0000)
   8 Li     8.085185    8.085185   10.000000    ( 0.0000,  0.0000,  0.0000)
   9 Li     0.000000    0.000000   11.617037    ( 0.0000,  0.0000,  0.0000)
  10 Li     3.234074    0.000000   11.617037    ( 0.0000,  0.0000,  0.0000)
  11 Li     6.468148    0.000000   11.617037    ( 0.0000,  0.0000,  0.0000)
  12 Li     0.000000    3.234074   11.617037    ( 0.0000,  0.0000,  0.0000)
  13 Li     3.234074    3.234074   11.617037    ( 0.0000,  0.0000,  0.0000)
  14 Li     6.468148    3.234074   11.617037    ( 0.0000,  0.0000,  0.0000)
  15 Li     0.000000    6.468148   11.617037    ( 0.0000,  0.0000,  0.0000)
  16 Li     3.234074    6.468148   11.617037    ( 0.0000,  0.0000,  0.0000)
  17 Li     6.468148    6.468148   11.617037    ( 0.0000,  0.0000,  0.0000)
  18 Li     1.598859    1.615020   13.494937    ( 0.0000,  0.0000,  0.0000)
  19 Li     4.892833    1.580016   13.476505    ( 0.0000,  0.0000,  0.0000)
  20 Li     8.151174    1.616702   13.530013    ( 0.0000,  0.0000,  0.0000)
  21 Li     1.614758    4.972540   13.469400    ( 0.0000,  0.0000,  0.0000)
  22 Li     4.861223    4.882122   13.469262    ( 0.0000,  0.0000,  0.0000)
  23 Li     8.059135    4.958265   13.474910    ( 0.0000,  0.0000,  0.0000)
  24 Li     1.616920    8.231144   13.575113    ( 0.0000,  0.0000,  0.0000)
  25 Li     4.883691    8.030812   13.490520    ( 0.0000,  0.0000,  0.0000)
  26 Li     8.120215    8.199051   13.535276    ( 0.0000,  0.0000,  0.0000)
  27 Li     0.190876    0.490728   15.950171    ( 0.0000,  0.0000,  0.0000)
  28 Li     3.409997   -0.008426   15.435604    ( 0.0000,  0.0000,  0.0000)
  29 Li     6.523175   -0.037502   15.456663    ( 0.0000,  0.0000,  0.0000)
  30 Li    -0.013351    3.591763   15.314707    ( 0.0000,  0.0000,  0.0000)
  31 Li     3.240771    3.249617   15.318929    ( 0.0000,  0.0000,  0.0000)
  32 Li     6.445852    3.241733   15.389419    ( 0.0000,  0.0000,  0.0000)
  33 Li    -0.018341    6.767714   15.472321    ( 0.0000,  0.0000,  0.0000)
  34 Li     3.235336    6.470803   15.467165    ( 0.0000,  0.0000,  0.0000)
  35 Li     6.482110    6.475158   15.495556    ( 0.0000,  0.0000,  0.0000)
  36 O      0.049245    1.395321   17.699926    ( 0.0000,  0.0000,  0.0000)
  37 C      0.828779    2.324471   18.510922    ( 0.0000,  0.0000,  0.0000)
  38 C      0.011327    3.516071   18.977548    ( 0.0000,  0.0000,  0.0000)
  39 H      1.250302    1.778321   19.363889    ( 0.0000,  0.0000,  0.0000)
  40 H      1.646921    2.643665   17.860735    ( 0.0000,  0.0000,  0.0000)
  41 H      0.643282    4.167187   19.585986    ( 0.0000,  0.0000,  0.0000)
  42 H     -0.380834    4.106424   18.146036    ( 0.0000,  0.0000,  0.0000)
  43 H     -0.825373    3.188289   19.600364    ( 0.0000,  0.0000,  0.0000)
  44 H     -0.811979    1.259961   18.121516    ( 0.0000,  0.0000,  0.0000)

Unit cell:
           periodic     x           y           z      points  spacing
  1. axis:    yes    9.702222    0.000000    0.000000    60     0.1617
  2. axis:    yes    0.000000    9.702222    0.000000    60     0.1617
  3. axis:    no     0.000000    0.000000   24.851111   156     0.1593

  Lengths:   9.702222   9.702222  24.851111
  Angles:   90.000000  90.000000  90.000000

Effective grid spacing dv^(1/3) = 0.1609

     iter     time        total  log10-change:
                         energy  eigst   dens
iter:   1 10:09:12  -272.015892  +1.07
iter:   2 10:09:36  -272.566278  +0.41  -1.71
iter:   3 10:10:00  -272.707742  -0.06  -1.96
iter:   4 10:10:24  -272.764176  -0.43  -2.17
Writing to output.gpw (mode='')

iter:   5 10:10:48  -272.791811  -0.73  -2.36
iter:   6 10:11:12  -272.806783  -0.99  -2.50
iter:   7 10:11:37  -272.815122c -1.21  -2.64
iter:   8 10:12:01  -272.820806c -1.41  -3.03
iter:   9 10:12:25  -272.824538c -1.59  -2.95
Writing to output.gpw (mode='')

iter:  10 10:12:49  -272.826798c -1.79  -2.88
iter:  11 10:13:13  -272.828500c -1.95  -2.96
iter:  12 10:13:37  -272.829594c -2.15  -3.09
iter:  13 10:14:01  -272.831165c -2.08  -3.14
iter:  14 10:14:25  -272.831342c -2.37  -2.83
Writing to output.gpw (mode='')

iter:  15 10:14:50  -272.831770c -2.51  -3.01
iter:  16 10:15:14  -272.831997c -2.86  -3.09
iter:  17 10:15:38  -272.832134c -2.95  -3.10
iter:  18 10:16:02  -272.832343c -2.69  -3.17
iter:  19 10:16:26  -272.832464c -3.20  -3.23
Writing to output.gpw (mode='')

iter:  20 10:16:51  -272.832564c -3.26  -3.34
iter:  21 10:17:15  -272.832626c -3.47  -3.39
iter:  22 10:17:39  -272.832675c -3.46  -3.50
iter:  23 10:18:03  -272.832751c -3.69  -3.57
iter:  24 10:18:27  -272.832779c -3.94  -3.56
Writing to output.gpw (mode='')

iter:  25 10:18:51  -272.832794c -3.88  -3.58
iter:  26 10:19:15  -272.832809c -4.04  -3.79
iter:  27 10:19:39  -272.832825c -4.16  -3.90
iter:  28 10:20:04  -272.832831c -4.40  -4.01c
iter:  29 10:20:30  -272.832838c -4.51  -4.00
Writing to output.gpw (mode='')

iter:  30 10:20:54  -272.832842c -4.45  -3.98
iter:  31 10:21:20  -272.832846c -4.72  -3.90
iter:  32 10:21:46  -272.832851c -4.60  -3.92
iter:  33 10:22:10  -272.832854c -4.69  -3.81
iter:  34 10:22:35  -272.832858c -4.85  -3.90
Writing to output.gpw (mode='')

iter:  35 10:23:00  -272.832860c -5.14  -4.06c
iter:  36 10:23:25  -272.832865c -5.06  -4.05c
iter:  37 10:23:50  -272.832866c -5.34  -4.15c
iter:  38 10:24:16  -272.832867c -5.42  -4.16c
iter:  39 10:24:41  -272.832867c -5.37  -4.16c
Writing to output.gpw (mode='')

iter:  40 10:25:06  -272.832868c -5.64  -4.16c
iter:  41 10:25:31  -272.832869c -5.65  -4.19c
iter:  42 10:25:56  -272.832869c -5.83  -4.18c
iter:  43 10:26:22  -272.832870c -5.83  -4.17c
iter:  44 10:26:47  -272.832872c -5.70  -4.18c
Writing to output.gpw (mode='')

iter:  45 10:27:12  -272.832872c -5.76  -4.35c
iter:  46 10:27:37  -272.832872c -5.97  -4.42c
iter:  47 10:28:03  -272.832872c -6.10  -4.41c
iter:  48 10:28:27  -272.832873c -6.14  -4.41c
iter:  49 10:28:52  -272.832873c -6.35  -4.39c
Writing to output.gpw (mode='')

iter:  50 10:29:18  -272.832872c -6.38  -4.40c
iter:  51 10:29:43  -272.832873c -6.27  -4.38c
iter:  52 10:30:07  -272.832873c -6.48  -4.37c
iter:  53 10:30:32  -272.832873c -6.59  -4.38c
iter:  54 10:30:58  -272.832872c -6.57  -4.38c
Writing to output.gpw (mode='')

iter:  55 10:31:23  -272.832871c -6.59  -4.40c
iter:  56 10:31:48  -272.832871c -6.63  -4.68c
iter:  57 10:32:13  -272.832871c -6.68  -4.80c
iter:  58 10:32:38  -272.832872c -6.77  -4.88c
iter:  59 10:33:03  -272.832872c -6.69  -4.94c
Writing to output.gpw (mode='')

iter:  60 10:33:28  -272.832871c -6.96  -5.03c
iter:  61 10:33:53  -272.832872c -7.01  -5.12c
iter:  62 10:34:18  -272.832872c -6.81  -5.23c
iter:  63 10:34:44  -272.832872c -7.13  -5.34c
iter:  64 10:35:09  -272.832872c -7.18  -5.44c
Writing to output.gpw (mode='')

iter:  65 10:35:34  -272.832872c -7.28  -5.49c
iter:  66 10:35:59  -272.832872c -7.23  -5.56c
iter:  67 10:36:24  -272.832872c -7.46c -5.69c

Converged after 67 iterations.

Dipole moment: (-15.044209, -4.982183, 0.395046) |e|*Ang

Energy contributions relative to reference atoms: (reference = -11471.411034)

Kinetic:       +126.480017
Potential:     -119.026085
External:        +0.000000
XC:            -280.461876
Entropy (-ST):   -0.155170
Local:           +0.252657
--------------------------
Free energy:   -272.910457
Extrapolated:  -272.832872

Dipole-layer corrected work functions: 3.376137, 2.616723 eV

Showing only first 2 kpts
 Kpt  Band  Eigenvalues  Occupancy
  0    26     -3.23061    1.98168
  0    27     -3.14152    1.89587
  0    28     -2.85094    0.10334
  0    29     -2.72972    0.00960

  1    26     -3.04424    1.44475
  1    27     -2.99966    1.03226
  1    28     -2.95864    0.63909
  1    29     -2.93639    0.46270


Fermi level: -2.99643

No gap
Writing to output.gpw (mode='')


Forces in eV/Ang:
  0 Li    0.00321   -0.00548   -0.27142
  1 Li   -0.00157   -0.00391   -0.28412
  2 Li   -0.00690   -0.00679   -0.27009
  3 Li   -0.00248   -0.00102   -0.28247
  4 Li   -0.00312   -0.00341   -0.26138
  5 Li    0.00183   -0.00002   -0.27871
  6 Li   -0.00035   -0.00717   -0.26882
  7 Li   -0.00036    0.00008   -0.28296
  8 Li   -0.00185   -0.00537   -0.27180
  9 Li    0.00470    0.00674    0.20761
 10 Li    0.02568   -0.00593    0.28075
 11 Li    0.01203   -0.00464    0.27345
 12 Li   -0.00100    0.03455    0.33045
 13 Li   -0.00337    0.00924    0.32471
 14 Li    0.03020   -0.00121    0.31760
 15 Li    0.00413    0.08804    0.28463
 16 Li   -0.02743    0.06087    0.27862
 17 Li    0.03725    0.05717    0.25173
 18 Li    0.01872    0.02801    0.01012
 19 Li   -0.00278    0.00911   -0.01364
 20 Li   -0.01527    0.01623   -0.00499
 21 Li    0.01372   -0.00649    0.00285
 22 Li   -0.00130   -0.00981   -0.00468
 23 Li   -0.00875    0.00151   -0.00385
 24 Li   -0.00778   -0.02707   -0.01985
 25 Li   -0.00362    0.03395   -0.00116
 26 Li    0.00765   -0.02454   -0.01272
 27 Li    0.00767   -0.01143    0.02645
 28 Li   -0.01722    0.01009   -0.00231
 29 Li   -0.01024    0.01859   -0.00821
 30 Li   -0.00808   -0.04850    0.00405
 31 Li    0.01674    0.00103   -0.01572
 32 Li   -0.01101   -0.00614   -0.00236
 33 Li    0.01119   -0.04936    0.00836
 34 Li   -0.00974   -0.01425   -0.00679
 35 Li   -0.00482   -0.01988   -0.02061
 36 O    -0.00851    0.01932   -0.05583
 37 C    -0.00093   -0.04045    0.00339
 38 C     0.00354   -0.07994    0.09478
 39 H    -0.01568    0.03289   -0.08227
 40 H     0.01866   -0.06464    0.02753
 41 H     0.01264    0.03384    0.01471
 42 H     0.00604   -0.04806   -0.01835
 43 H    -0.04464    0.04218    0.00146
 44 H    -0.03046    0.00518    0.01074

System changes: positions 

Initializing position-dependent things.

Density initialized from wave functions
       .-----------------------.  
      /|                       |  
     / |                       |  
    /  |                       |  
   /   |                       |  
  /    |                       |  
 *     |                       |  
 |     |                       |  
 |     |                       |  
 |     |                       |  
 |   H |                       |  
 | C   |                 H     |  
 |  CH |       Li      Li  H   |  
 |     H                       |  
 |O    |     Li      Li H    Li|  
 |     |  Li      Li      Li   |  
 |     |   Li      Li      Li  |  
 |Li   |Li      Li      Li     |  
 |     |                       |  
 |   LLi     LLi     LLi       |  
 |     |  Li      Li      Li   |  
 | Li  |   Li      Li          |  
 |     |Li      Li      Li     |  
 Li    | Li      Li            |  
 |    Li      Li      Li       |  
 |     |                       |  
 |     |                       |  
 |     |                       |  
 |     |                       |  
 |     |                       |  
 |     |                       |  
 |     .-----------------------.  
 |    /                       /   
 |   /                       /    
 |  /                       /     
 | /                       /      
 |/                       /       
 *-----------------------*        

Positions:
   0 Li     1.617037    1.617037   10.000000    ( 0.0000,  0.0000,  0.0000)
   1 Li     4.851111    1.617037   10.000000    ( 0.0000,  0.0000,  0.0000)
   2 Li     8.085185    1.617037   10.000000    ( 0.0000,  0.0000,  0.0000)
   3 Li     1.617037    4.851111   10.000000    ( 0.0000,  0.0000,  0.0000)
   4 Li     4.851111    4.851111   10.000000    ( 0.0000,  0.0000,  0.0000)
   5 Li     8.085185    4.851111   10.000000    ( 0.0000,  0.0000,  0.0000)
   6 Li     1.617037    8.085185   10.000000    ( 0.0000,  0.0000,  0.0000)
   7 Li     4.851111    8.085185   10.000000    ( 0.0000,  0.0000,  0.0000)
   8 Li     8.085185    8.085185   10.000000    ( 0.0000,  0.0000,  0.0000)
   9 Li     0.000000    0.000000   11.617037    ( 0.0000,  0.0000,  0.0000)
  10 Li     3.234074    0.000000   11.617037    ( 0.0000,  0.0000,  0.0000)
  11 Li     6.468148    0.000000   11.617037    ( 0.0000,  0.0000,  0.0000)
  12 Li     0.000000    3.234074   11.617037    ( 0.0000,  0.0000,  0.0000)
  13 Li     3.234074    3.234074   11.617037    ( 0.0000,  0.0000,  0.0000)
  14 Li     6.468148    3.234074   11.617037    ( 0.0000,  0.0000,  0.0000)
  15 Li     0.000000    6.468148   11.617037    ( 0.0000,  0.0000,  0.0000)
  16 Li     3.234074    6.468148   11.617037    ( 0.0000,  0.0000,  0.0000)
  17 Li     6.468148    6.468148   11.617037    ( 0.0000,  0.0000,  0.0000)
  18 Li     1.602802    1.611372   13.486611    ( 0.0000,  0.0000,  0.0000)
  19 Li     4.892559    1.576125   13.474781    ( 0.0000,  0.0000,  0.0000)
  20 Li     8.149298    1.612896   13.523041    ( 0.0000,  0.0000,  0.0000)
  21 Li     1.607909    4.967785   13.471692    ( 0.0000,  0.0000,  0.0000)
  22 Li     4.863280    4.887640   13.466779    ( 0.0000,  0.0000,  0.0000)
  23 Li     8.065667    4.952060   13.479405    ( 0.0000,  0.0000,  0.0000)
  24 Li     1.616476    8.235675   13.574417    ( 0.0000,  0.0000,  0.0000)
  25 Li     4.882828    8.028934   13.490173    ( 0.0000,  0.0000,  0.0000)
  26 Li     8.124333    8.203099   13.533294    ( 0.0000,  0.0000,  0.0000)
  27 Li     0.191917    0.484063   15.934700    ( 0.0000,  0.0000,  0.0000)
  28 Li     3.409844   -0.007229   15.436105    ( 0.0000,  0.0000,  0.0000)
  29 Li     6.526365   -0.037988   15.451269    ( 0.0000,  0.0000,  0.0000)
  30 Li    -0.011439    3.580556   15.316696    ( 0.0000,  0.0000,  0.0000)
  31 Li     3.239830    3.252192   15.312936    ( 0.0000,  0.0000,  0.0000)
  32 Li     6.447377    3.240464   15.384668    ( 0.0000,  0.0000,  0.0000)
  33 Li    -0.019326    6.762849   15.465532    ( 0.0000,  0.0000,  0.0000)
  34 Li     3.232681    6.473688   15.468661    ( 0.0000,  0.0000,  0.0000)
  35 Li     6.484342    6.477796   15.497751    ( 0.0000,  0.0000,  0.0000)
  36 O      0.044160    1.393589   17.681843    ( 0.0000,  0.0000,  0.0000)
  37 C      0.824468    2.305089   18.510642    ( 0.0000,  0.0000,  0.0000)
  38 C      0.013250    3.497228   18.987915    ( 0.0000,  0.0000,  0.0000)
  39 H      1.229221    1.744410   19.362411    ( 0.0000,  0.0000,  0.0000)
  40 H      1.652031    2.621397   17.870471    ( 0.0000,  0.0000,  0.0000)
  41 H      0.648385    4.135500   19.609858    ( 0.0000,  0.0000,  0.0000)
  42 H     -0.377342    4.103250   18.165547    ( 0.0000,  0.0000,  0.0000)
  43 H     -0.828873    3.161275   19.599707    ( 0.0000,  0.0000,  0.0000)
  44 H     -0.817768    1.252917   18.099634    ( 0.0000,  0.0000,  0.0000)

Unit cell:
           periodic     x           y           z      points  spacing
  1. axis:    yes    9.702222    0.000000    0.000000    60     0.1617
  2. axis:    yes    0.000000    9.702222    0.000000    60     0.1617
  3. axis:    no     0.000000    0.000000   24.851111   156     0.1593

  Lengths:   9.702222   9.702222  24.851111
  Angles:   90.000000  90.000000  90.000000

Effective grid spacing dv^(1/3) = 0.1609

     iter     time        total  log10-change:
                         energy  eigst   dens
iter:   1 10:36:59  -272.868066  -0.79
iter:   2 10:37:24  -272.848232  -1.59  -1.75
iter:   3 10:37:50  -272.843568c -2.29  -1.98
iter:   4 10:38:16  -272.838933c -2.70  -2.13
Writing to output.gpw (mode='')

iter:   5 10:38:42  -272.837696c -2.76  -2.35
iter:   6 10:39:08  -272.836216c -2.05  -2.39
iter:   7 10:39:33  -272.836328c -2.38  -2.62
iter:   8 10:40:00  -272.835900c -2.82  -2.67
iter:   9 10:40:25  -272.835898c -3.21  -2.80
Writing to output.gpw (mode='')

iter:  10 10:40:53  -272.836056c -2.95  -2.89
iter:  11 10:41:20  -272.835954c -3.59  -3.03
iter:  12 10:41:46  -272.835944c -4.21  -3.18
iter:  13 10:42:11  -272.835933c -4.15  -3.36
iter:  14 10:42:36  -272.835898c -4.51  -3.48
Writing to output.gpw (mode='')

iter:  15 10:43:01  -272.835905c -4.44  -3.64
iter:  16 10:43:27  -272.835913c -4.73  -3.77
iter:  17 10:43:52  -272.835919c -4.99  -3.84
iter:  18 10:44:17  -272.835917c -5.32  -3.89
iter:  19 10:44:42  -272.835910c -5.40  -3.97
Writing to output.gpw (mode='')

iter:  20 10:45:07  -272.835910c -5.77  -4.16c
iter:  21 10:45:32  -272.835912c -5.80  -4.23c
iter:  22 10:45:58  -272.835913c -5.78  -4.29c
iter:  23 10:46:23  -272.835913c -5.99  -4.45c
iter:  24 10:46:51  -272.835912c -6.10  -4.59c
Writing to output.gpw (mode='')

iter:  25 10:47:19  -272.835911c -6.32  -4.72c
iter:  26 10:47:48  -272.835911c -6.39  -4.72c
iter:  27 10:48:15  -272.835912c -6.54  -4.78c
iter:  28 10:48:44  -272.835913c -6.58  -4.90c
iter:  29 10:49:12  -272.835913c -6.94  -5.03c
Writing to output.gpw (mode='')

iter:  30 10:49:41  -272.835912c -6.95  -5.05c
iter:  31 10:50:09  -272.835913c -7.04  -5.12c
iter:  32 10:50:37  -272.835913c -7.19  -5.25c
iter:  33 10:51:06  -272.835913c -7.30  -5.38c
iter:  34 10:51:35  -272.835913c -7.29  -5.46c
Writing to output.gpw (mode='')

iter:  35 10:52:05  -272.835913c -7.48c -5.58c

Converged after 35 iterations.

Dipole moment: (-14.860861, -5.023443, 0.394204) |e|*Ang

Energy contributions relative to reference atoms: (reference = -11471.411034)

Kinetic:       +126.465825
Potential:     -119.013935
External:        +0.000000
XC:            -280.462992
Entropy (-ST):   -0.154806
Local:           +0.252592
--------------------------
Free energy:   -272.913316
Extrapolated:  -272.835913

Dipole-layer corrected work functions: 3.376006, 2.618211 eV

Showing only first 2 kpts
 Kpt  Band  Eigenvalues  Occupancy
  0    26     -3.23270    1.98218
  0    27     -3.14272    1.89689
  0    28     -2.85091    0.10196
  0    29     -2.73176    0.00987

  1    26     -3.04448    1.44118
  1    27     -3.00017    1.03059
  1    28     -2.95971    0.64253
  1    29     -2.93590    0.45442


Fermi level: -2.99711

No gap

Forces in eV/Ang:
  0 Li    0.00349   -0.00554   -0.27120
  1 Li   -0.00166   -0.00393   -0.28390
  2 Li   -0.00719   -0.00697   -0.26994
  3 Li   -0.00296   -0.00120   -0.28254
  4 Li   -0.00311   -0.00279   -0.26207
  5 Li    0.00212   -0.00024   -0.27841
  6 Li   -0.00063   -0.00672   -0.26881
  7 Li   -0.00048   -0.00025   -0.28239
  8 Li   -0.00169   -0.00480   -0.27234
  9 Li    0.00571    0.00655    0.20283
 10 Li    0.02843   -0.00890    0.27568
 11 Li    0.01022   -0.00752    0.27049
 12 Li   -0.00100    0.03245    0.32804
 13 Li   -0.00115    0.01182    0.32507
 14 Li    0.02905   -0.00022    0.31838
 15 Li    0.00409    0.08803    0.28525
 16 Li   -0.03262    0.05902    0.28060
 17 Li    0.04401    0.05637    0.25434
 18 Li    0.01554    0.03367    0.01637
 19 Li   -0.00269    0.01384   -0.01326
 20 Li   -0.01268    0.02201   -0.00182
 21 Li    0.02285    0.00011   -0.00236
 22 Li   -0.00335   -0.01602   -0.00029
 23 Li   -0.01748    0.00914   -0.01104
 24 Li   -0.00628   -0.03430   -0.01964
 25 Li   -0.00264    0.03828    0.00026
 26 Li    0.00383   -0.03190   -0.01233
 27 Li    0.00824   -0.01413    0.02944
 28 Li   -0.01423    0.01059   -0.00321
 29 Li   -0.01376    0.01885   -0.00603
 30 Li   -0.00927   -0.05078    0.01130
 31 Li    0.01906   -0.00106   -0.01480
 32 Li   -0.01354   -0.00622   -0.00181
 33 Li    0.01264   -0.04992    0.01263
 34 Li   -0.00932   -0.01608   -0.01007
 35 Li   -0.00583   -0.02187   -0.02427
 36 O    -0.03551    0.02694   -0.08558
 37 C    -0.00510   -0.02998    0.01301
 38 C     0.01315   -0.05036    0.08932
 39 H     0.00412    0.04280   -0.09249
 40 H     0.01232   -0.05229    0.05182
 41 H    -0.03724   -0.00966   -0.01840
 42 H     0.04971   -0.06923   -0.01755
 43 H    -0.02926    0.06171    0.02060
 44 H    -0.04824   -0.00827    0.00486

System changes: positions 

Initializing position-dependent things.

Density initialized from wave functions
       .-----------------------.  
      /|                       |  
     / |                       |  
    /  |                       |  
   /   |                       |  
  /    |                       |  
 *     |                       |  
 |     |                       |  
 |     |                       |  
 |     |                       |  
 |   H |                       |  
 | C   |                 H     |  
 |  CH |       Li      Li  H   |  
 |     H                       |  
 |O    |     Li      Li H    Li|  
 |     |  Li      Li      Li   |  
 |     |   Li      Li      Li  |  
 |Li   |Li      Li      Li     |  
 |     |                       |  
 |   LLi     LLi     LLi       |  
 |     |  Li      Li      Li   |  
 | Li  |   Li      Li          |  
 |     |Li      Li      Li     |  
 Li    | Li      Li            |  
 |    Li      Li      Li       |  
 |     |                       |  
 |     |                       |  
 |     |                       |  
 |     |                       |  
 |     |                       |  
 |     |                       |  
 |     .-----------------------.  
 |    /                       /   
 |   /                       /    
 |  /                       /     
 | /                       /      
 |/                       /       
 *-----------------------*        

Positions:
   0 Li     1.617037    1.617037   10.000000    ( 0.0000,  0.0000,  0.0000)
   1 Li     4.851111    1.617037   10.000000    ( 0.0000,  0.0000,  0.0000)
   2 Li     8.085185    1.617037   10.000000    ( 0.0000,  0.0000,  0.0000)
   3 Li     1.617037    4.851111   10.000000    ( 0.0000,  0.0000,  0.0000)
   4 Li     4.851111    4.851111   10.000000    ( 0.0000,  0.0000,  0.0000)
   5 Li     8.085185    4.851111   10.000000    ( 0.0000,  0.0000,  0.0000)
   6 Li     1.617037    8.085185   10.000000    ( 0.0000,  0.0000,  0.0000)
   7 Li     4.851111    8.085185   10.000000    ( 0.0000,  0.0000,  0.0000)
   8 Li     8.085185    8.085185   10.000000    ( 0.0000,  0.0000,  0.0000)
   9 Li     0.000000    0.000000   11.617037    ( 0.0000,  0.0000,  0.0000)
  10 Li     3.234074    0.000000   11.617037    ( 0.0000,  0.0000,  0.0000)
  11 Li     6.468148    0.000000   11.617037    ( 0.0000,  0.0000,  0.0000)
  12 Li     0.000000    3.234074   11.617037    ( 0.0000,  0.0000,  0.0000)
  13 Li     3.234074    3.234074   11.617037    ( 0.0000,  0.0000,  0.0000)
  14 Li     6.468148    3.234074   11.617037    ( 0.0000,  0.0000,  0.0000)
  15 Li     0.000000    6.468148   11.617037    ( 0.0000,  0.0000,  0.0000)
  16 Li     3.234074    6.468148   11.617037    ( 0.0000,  0.0000,  0.0000)
  17 Li     6.468148    6.468148   11.617037    ( 0.0000,  0.0000,  0.0000)
  18 Li     1.605995    1.606594   13.477361    ( 0.0000,  0.0000,  0.0000)
  19 Li     4.891598    1.572204   13.473037    ( 0.0000,  0.0000,  0.0000)
  20 Li     8.147969    1.608228   13.515397    ( 0.0000,  0.0000,  0.0000)
  21 Li     1.600360    4.962606   13.473313    ( 0.0000,  0.0000,  0.0000)
  22 Li     4.865231    4.893185   13.464346    ( 0.0000,  0.0000,  0.0000)
  23 Li     8.073135    4.945106   13.483640    ( 0.0000,  0.0000,  0.0000)
  24 Li     1.615411    8.239983   13.574296    ( 0.0000,  0.0000,  0.0000)
  25 Li     4.881560    8.027159   13.489916    ( 0.0000,  0.0000,  0.0000)
  26 Li     8.129173    8.207170   13.531998    ( 0.0000,  0.0000,  0.0000)
  27 Li     0.191753    0.477651   15.918616    ( 0.0000,  0.0000,  0.0000)
  28 Li     3.409004   -0.005516   15.436791    ( 0.0000,  0.0000,  0.0000)
  29 Li     6.528654   -0.038563   15.445165    ( 0.0000,  0.0000,  0.0000)
  30 Li    -0.008694    3.566430   15.319805    ( 0.0000,  0.0000,  0.0000)
  31 Li     3.237403    3.254863   15.305426    ( 0.0000,  0.0000,  0.0000)
  32 Li     6.449940    3.238993   15.377607    ( 0.0000,  0.0000,  0.0000)
  33 Li    -0.020451    6.754434   15.457732    ( 0.0000,  0.0000,  0.0000)
  34 Li     3.229565    6.477042   15.468980    ( 0.0000,  0.0000,  0.0000)
  35 Li     6.487051    6.481001   15.499248    ( 0.0000,  0.0000,  0.0000)
  36 O      0.038643    1.394305   17.661450    ( 0.0000,  0.0000,  0.0000)
  37 C      0.819471    2.285855   18.511726    ( 0.0000,  0.0000,  0.0000)
  38 C      0.016215    3.478081   18.999731    ( 0.0000,  0.0000,  0.0000)
  39 H      1.207072    1.711127   19.361098    ( 0.0000,  0.0000,  0.0000)
  40 H      1.657283    2.598883   17.883000    ( 0.0000,  0.0000,  0.0000)
  41 H      0.654503    4.103681   19.632332    ( 0.0000,  0.0000,  0.0000)
  42 H     -0.373093    4.097563   18.186228    ( 0.0000,  0.0000,  0.0000)
  43 H     -0.831933    3.135299   19.600182    ( 0.0000,  0.0000,  0.0000)
  44 H     -0.822977    1.243934   18.076176    ( 0.0000,  0.0000,  0.0000)

Unit cell:
           periodic     x           y           z      points  spacing
  1. axis:    yes    9.702222    0.000000    0.000000    60     0.1617
  2. axis:    yes    0.000000    9.702222    0.000000    60     0.1617
  3. axis:    no     0.000000    0.000000   24.851111   156     0.1593

  Lengths:   9.702222   9.702222  24.851111
  Angles:   90.000000  90.000000  90.000000

Effective grid spacing dv^(1/3) = 0.1609

     iter     time        total  log10-change:
                         energy  eigst   dens
iter:   1 10:52:46  -272.875479  -0.77
iter:   2 10:53:17  -272.852316  -1.54  -1.72
iter:   3 10:53:49  -272.846808  -2.23  -1.95
iter:   4 10:54:21  -272.841145c -2.58  -2.09
Writing to output.gpw (mode='')

iter:   5 10:54:53  -272.840215c -2.75  -2.33
iter:   6 10:55:26  -272.838550c -2.08  -2.36
iter:   7 10:55:55  -272.838581c -2.28  -2.59
iter:   8 10:56:27  -272.838356c -2.77  -2.69
iter:   9 10:56:55  -272.838297c -3.16  -2.73
Writing to output.gpw (mode='')

iter:  10 10:57:24  -272.838347c -3.03  -2.87
iter:  11 10:57:54  -272.838344c -3.75  -3.14
iter:  12 10:58:39  -272.838345c -3.78  -3.17
iter:  13 10:59:36  -272.838326c -4.09  -3.33
iter:  14 11:00:08  -272.838305c -4.20  -3.48
Writing to output.gpw (mode='')

iter:  15 11:00:41  -272.838303c -4.58  -3.56
iter:  16 11:01:24  -272.838307c -4.84  -3.63
iter:  17 11:01:58  -272.838318c -4.69  -3.75
iter:  18 11:02:29  -272.838309c -5.22  -3.74
iter:  19 11:03:03  -272.838301c -5.18  -3.89
Writing to output.gpw (mode='')

iter:  20 11:03:35  -272.838302c -5.77  -4.00
iter:  21 11:04:07  -272.838304c -5.67  -4.10c
iter:  22 11:04:39  -272.838300c -5.55  -4.31c
iter:  23 11:05:16  -272.838304c -5.97  -4.15c
iter:  24 11:05:53  -272.838307c -5.83  -4.47c
Writing to output.gpw (mode='')

iter:  25 11:06:35  -272.838306c -6.25  -4.70c
iter:  26 11:07:07  -272.838307c -6.27  -4.78c
iter:  27 11:07:38  -272.838307c -6.36  -4.80c
iter:  28 11:08:11  -272.838305c -6.63  -4.81c
iter:  29 11:08:42  -272.838306c -6.71  -4.95c
Writing to output.gpw (mode='')

iter:  30 11:09:13  -272.838307c -6.66  -5.15c
iter:  31 11:09:45  -272.838307c -6.76  -5.14c
iter:  32 11:10:16  -272.838306c -6.96  -5.19c
iter:  33 11:11:02  -272.838306c -7.12  -5.41c
iter:  34 11:11:35  -272.838306c -7.21  -5.33c
Writing to output.gpw (mode='')

iter:  35 11:12:07  -272.838306c -7.23  -5.34c
iter:  36 11:12:39  -272.838306c -7.39  -5.30c
iter:  37 11:13:10  -272.838306c -7.44c -5.25c

Converged after 37 iterations.

Dipole moment: (-14.707470, -5.074053, 0.394181) |e|*Ang

Energy contributions relative to reference atoms: (reference = -11471.411034)

Kinetic:       +126.583558
Potential:     -119.098830
External:        +0.000000
XC:            -280.497822
Entropy (-ST):   -0.154390
Local:           +0.251982
--------------------------
Free energy:   -272.915501
Extrapolated:  -272.838306

Dipole-layer corrected work functions: 3.375851, 2.618100 eV

Showing only first 2 kpts
 Kpt  Band  Eigenvalues  Occupancy
  0    26     -3.23420    1.98275
  0    27     -3.14321    1.89811
  0    28     -2.84990    0.10028
  0    29     -2.73321    0.01018

  1    26     -3.04383    1.43705
  1    27     -2.99977    1.02792
  1    28     -2.95989    0.64522
  1    29     -2.93458    0.44611


Fermi level: -2.99698

No gap
Writing to output.gpw (mode='')


Forces in eV/Ang:
  0 Li    0.00378   -0.00553   -0.27099
  1 Li   -0.00177   -0.00397   -0.28373
  2 Li   -0.00742   -0.00715   -0.26983
  3 Li   -0.00348   -0.00138   -0.28264
  4 Li   -0.00312   -0.00206   -0.26284
  5 Li    0.00250   -0.00045   -0.27810
  6 Li   -0.00086   -0.00626   -0.26884
  7 Li   -0.00058   -0.00058   -0.28195
  8 Li   -0.00160   -0.00420   -0.27297
  9 Li    0.00668    0.00557    0.19712
 10 Li    0.03103   -0.01247    0.27045
 11 Li    0.00832   -0.01075    0.26787
 12 Li   -0.00101    0.02991    0.32494
 13 Li    0.00095    0.01437    0.32542
 14 Li    0.02776    0.00052    0.31955
 15 Li    0.00392    0.08842    0.28551
 16 Li   -0.03807    0.05711    0.28285
 17 Li    0.05109    0.05567    0.25771
 18 Li    0.01311    0.04039    0.02330
 19 Li   -0.00220    0.01853   -0.01346
 20 Li   -0.01103    0.02831    0.00143
 21 Li    0.03209    0.00619   -0.00696
 22 Li   -0.00514   -0.02195    0.00334
 23 Li   -0.02651    0.01649   -0.01791
 24 Li   -0.00458   -0.04144   -0.02031
 25 Li   -0.00156    0.04290    0.00121
 26 Li   -0.00025   -0.03919   -0.01259
 27 Li    0.01063   -0.01885    0.03055
 28 Li   -0.01136    0.01099   -0.00427
 29 Li   -0.01695    0.01948   -0.00361
 30 Li   -0.01123   -0.05241    0.01771
 31 Li    0.02259   -0.00322   -0.01319
 32 Li   -0.01694   -0.00631    0.00016
 33 Li    0.01448   -0.04899    0.01800
 34 Li   -0.00858   -0.01842   -0.01264
 35 Li   -0.00742   -0.02451   -0.02774
 36 O    -0.01625    0.02213   -0.07688
 37 C     0.01621   -0.02749   -0.04821
 38 C    -0.03475   -0.04362    0.09263
 39 H     0.03312    0.00938   -0.08368
 40 H     0.00457   -0.03305    0.06135
 41 H    -0.06714   -0.01320   -0.02015
 42 H     0.09173   -0.08798   -0.02176
 43 H    -0.00614    0.08851    0.04608
 44 H    -0.05955   -0.01155    0.01446

System changes: positions 

Initializing position-dependent things.

Density initialized from wave functions
       .-----------------------.  
      /|                       |  
     / |                       |  
    /  |                       |  
   /   |                       |  
  /    |                       |  
 *     |                       |  
 |     |                       |  
 |     |                       |  
 |     |                       |  
 |   H |                       |  
 | C   |                 H     |  
 |   H |       Li      Li  H   |  
 |  C  H                       |  
 |O    |     Li      Li H    Li|  
 |     |  Li      Li      Li   |  
 |     |   Li      Li      Li  |  
 |Li   |Li      Li      Li     |  
 |     |                       |  
 |   LLi     LLi     LLi       |  
 |     |  Li      Li      Li   |  
 | Li  |   Li      Li          |  
 |     |Li      Li      Li     |  
 Li    | Li      Li            |  
 |    Li      Li      Li       |  
 |     |                       |  
 |     |                       |  
 |     |                       |  
 |     |                       |  
 |     |                       |  
 |     |                       |  
 |     .-----------------------.  
 |    /                       /   
 |   /                       /    
 |  /                       /     
 | /                       /      
 |/                       /       
 *-----------------------*        

Positions:
   0 Li     1.617037    1.617037   10.000000    ( 0.0000,  0.0000,  0.0000)
   1 Li     4.851111    1.617037   10.000000    ( 0.0000,  0.0000,  0.0000)
   2 Li     8.085185    1.617037   10.000000    ( 0.0000,  0.0000,  0.0000)
   3 Li     1.617037    4.851111   10.000000    ( 0.0000,  0.0000,  0.0000)
   4 Li     4.851111    4.851111   10.000000    ( 0.0000,  0.0000,  0.0000)
   5 Li     8.085185    4.851111   10.000000    ( 0.0000,  0.0000,  0.0000)
   6 Li     1.617037    8.085185   10.000000    ( 0.0000,  0.0000,  0.0000)
   7 Li     4.851111    8.085185   10.000000    ( 0.0000,  0.0000,  0.0000)
   8 Li     8.085185    8.085185   10.000000    ( 0.0000,  0.0000,  0.0000)
   9 Li     0.000000    0.000000   11.617037    ( 0.0000,  0.0000,  0.0000)
  10 Li     3.234074    0.000000   11.617037    ( 0.0000,  0.0000,  0.0000)
  11 Li     6.468148    0.000000   11.617037    ( 0.0000,  0.0000,  0.0000)
  12 Li     0.000000    3.234074   11.617037    ( 0.0000,  0.0000,  0.0000)
  13 Li     3.234074    3.234074   11.617037    ( 0.0000,  0.0000,  0.0000)
  14 Li     6.468148    3.234074   11.617037    ( 0.0000,  0.0000,  0.0000)
  15 Li     0.000000    6.468148   11.617037    ( 0.0000,  0.0000,  0.0000)
  16 Li     3.234074    6.468148   11.617037    ( 0.0000,  0.0000,  0.0000)
  17 Li     6.468148    6.468148   11.617037    ( 0.0000,  0.0000,  0.0000)
  18 Li     1.606970    1.603104   13.471319    ( 0.0000,  0.0000,  0.0000)
  19 Li     4.890222    1.570295   13.471574    ( 0.0000,  0.0000,  0.0000)
  20 Li     8.147888    1.604945   13.510357    ( 0.0000,  0.0000,  0.0000)
  21 Li     1.595833    4.959568   13.472956    ( 0.0000,  0.0000,  0.0000)
  22 Li     4.866069    4.895895   13.462958    ( 0.0000,  0.0000,  0.0000)
  23 Li     8.077971    4.940815   13.485107    ( 0.0000,  0.0000,  0.0000)
  24 Li     1.613948    8.241687   13.574572    ( 0.0000,  0.0000,  0.0000)
  25 Li     4.880380    8.026911   13.489731    ( 0.0000,  0.0000,  0.0000)
  26 Li     8.132809    8.209048   13.531794    ( 0.0000,  0.0000,  0.0000)
  27 Li     0.190419    0.474761   15.909792    ( 0.0000,  0.0000,  0.0000)
  28 Li     3.407724   -0.003699   15.437571    ( 0.0000,  0.0000,  0.0000)
  29 Li     6.528585   -0.038746   15.441054    ( 0.0000,  0.0000,  0.0000)
  30 Li    -0.006187    3.554884   15.324007    ( 0.0000,  0.0000,  0.0000)
  31 Li     3.234008    3.256291   15.299546    ( 0.0000,  0.0000,  0.0000)
  32 Li     6.452732    3.237825   15.370932    ( 0.0000,  0.0000,  0.0000)
  33 Li    -0.021092    6.744699   15.452940    ( 0.0000,  0.0000,  0.0000)
  34 Li     3.227097    6.479220   15.467651    ( 0.0000,  0.0000,  0.0000)
  35 Li     6.489143    6.483134   15.499044    ( 0.0000,  0.0000,  0.0000)
  36 O      0.037064    1.396943   17.646879    ( 0.0000,  0.0000,  0.0000)
  37 C      0.816406    2.274044   18.512575    ( 0.0000,  0.0000,  0.0000)
  38 C      0.018303    3.465699   19.009810    ( 0.0000,  0.0000,  0.0000)
  39 H      1.192765    1.689374   19.358466    ( 0.0000,  0.0000,  0.0000)
  40 H      1.661260    2.584943   17.893055    ( 0.0000,  0.0000,  0.0000)
  41 H      0.658116    4.086942   19.645650    ( 0.0000,  0.0000,  0.0000)
  42 H     -0.369399    4.090227   18.199226    ( 0.0000,  0.0000,  0.0000)
  43 H     -0.834316    3.123856   19.602459    ( 0.0000,  0.0000,  0.0000)
  44 H     -0.824403    1.237369   18.060090    ( 0.0000,  0.0000,  0.0000)

Unit cell:
           periodic     x           y           z      points  spacing
  1. axis:    yes    9.702222    0.000000    0.000000    60     0.1617
  2. axis:    yes    0.000000    9.702222    0.000000    60     0.1617
  3. axis:    no     0.000000    0.000000   24.851111   156     0.1593

  Lengths:   9.702222   9.702222  24.851111
  Angles:   90.000000  90.000000  90.000000

Effective grid spacing dv^(1/3) = 0.1609

     iter     time        total  log10-change:
                         energy  eigst   dens
iter:   1 11:14:03  -272.860630  -1.13
iter:   2 11:14:34  -272.847393  -1.86  -1.85
iter:   3 11:15:06  -272.844288c -2.57  -2.11
iter:   4 11:15:37  -272.841799c -2.89  -2.27
Writing to output.gpw (mode='')

iter:   5 11:16:10  -272.841527c -3.10  -2.52
iter:   6 11:16:42  -272.840901c -2.48  -2.54
iter:   7 11:17:14  -272.840880c -2.61  -2.76
iter:   8 11:18:17  -272.840732c -3.20  -2.89
iter:   9 11:18:55  -272.840735c -3.53  -2.95
Writing to output.gpw (mode='')

iter:  10 11:19:27  -272.840777c -3.44  -3.08
iter:  11 11:19:58  -272.840774c -4.17  -3.34
iter:  12 11:20:34  -272.840780c -4.24  -3.40
iter:  13 11:21:12  -272.840771c -4.54  -3.53
iter:  14 11:21:45  -272.840761c -4.51  -3.67
Writing to output.gpw (mode='')

iter:  15 11:22:21  -272.840760c -5.05  -3.73
iter:  16 11:22:59  -272.840759c -5.31  -3.79
iter:  17 11:23:35  -272.840768c -4.87  -3.88
iter:  18 11:24:07  -272.840767c -5.43  -3.85
iter:  19 11:24:40  -272.840764c -5.57  -3.96
Writing to output.gpw (mode='')

iter:  20 11:25:11  -272.840758c -5.52  -4.09c
iter:  21 11:25:51  -272.840758c -5.88  -4.39c
iter:  22 11:26:22  -272.840758c -6.20  -4.42c
iter:  23 11:26:54  -272.840756c -5.86  -4.40c
iter:  24 11:27:27  -272.840757c -6.43  -4.35c
Writing to output.gpw (mode='')

iter:  25 11:28:00  -272.840758c -6.59  -4.39c
iter:  26 11:28:32  -272.840759c -6.54  -4.40c
iter:  27 11:29:03  -272.840762c -6.10  -4.46c
iter:  28 11:29:36  -272.840762c -6.85  -4.49c
iter:  29 11:30:08  -272.840762c -6.81  -4.51c
Writing to output.gpw (mode='')

iter:  30 11:30:51  -272.840760c -6.77  -4.51c
iter:  31 11:31:21  -272.840760c -6.97  -4.62c
iter:  32 11:31:54  -272.840761c -6.99  -4.66c
iter:  33 11:32:25  -272.840761c -7.04  -4.80c
iter:  34 11:32:56  -272.840760c -7.21  -5.00c
Writing to output.gpw (mode='')

iter:  35 11:33:28  -272.840761c -7.47c -5.18c

Converged after 35 iterations.

Dipole moment: (-14.752332, -5.118197, 0.394522) |e|*Ang

Energy contributions relative to reference atoms: (reference = -11471.411034)

Kinetic:       +126.771247
Potential:     -119.235855
External:        +0.000000
XC:            -280.550706
Entropy (-ST):   -0.154103
Local:           +0.251605
--------------------------
Free energy:   -272.917812
Extrapolated:  -272.840761

Dipole-layer corrected work functions: 3.375692, 2.617284 eV

Showing only first 2 kpts
 Kpt  Band  Eigenvalues  Occupancy
  0    26     -3.23486    1.98314
  0    27     -3.14322    1.89907
  0    28     -2.84882    0.09916
  0    29     -2.73386    0.01041

  1    26     -3.04309    1.43500
  1    27     -2.99898    1.02496
  1    28     -2.95938    0.64504
  1    29     -2.93340    0.44136


Fermi level: -2.99649

No gap

Forces in eV/Ang:
  0 Li    0.00389   -0.00548   -0.27078
  1 Li   -0.00185   -0.00409   -0.28364
  2 Li   -0.00741   -0.00728   -0.26972
  3 Li   -0.00383   -0.00150   -0.28263
  4 Li   -0.00316   -0.00158   -0.26330
  5 Li    0.00283   -0.00059   -0.27784
  6 Li   -0.00094   -0.00597   -0.26881
  7 Li   -0.00062   -0.00064   -0.28184
  8 Li   -0.00160   -0.00379   -0.27333
  9 Li    0.00724    0.00436    0.19288
 10 Li    0.03193   -0.01494    0.26736
 11 Li    0.00744   -0.01276    0.26677
 12 Li   -0.00100    0.02810    0.32223
 13 Li    0.00187    0.01571    0.32523
 14 Li    0.02696    0.00066    0.32032
 15 Li    0.00373    0.08916    0.28472
 16 Li   -0.04106    0.05614    0.28421
 17 Li    0.05497    0.05551    0.26040
 18 Li    0.01244    0.04437    0.02773
 19 Li   -0.00159    0.02087   -0.01359
 20 Li   -0.01113    0.03177    0.00360
 21 Li    0.03601    0.00795   -0.00751
 22 Li   -0.00586   -0.02442    0.00448
 23 Li   -0.03053    0.01910   -0.01997
 24 Li   -0.00342   -0.04469   -0.02090
 25 Li   -0.00093    0.04478    0.00141
 26 Li   -0.00292   -0.04273   -0.01259
 27 Li    0.01485   -0.02635    0.02336
 28 Li   -0.01005    0.01091   -0.00561
 29 Li   -0.01779    0.02022   -0.00230
 30 Li   -0.01337   -0.05128    0.01828
 31 Li    0.02636   -0.00417   -0.01153
 32 Li   -0.01996   -0.00628    0.00295
 33 Li    0.01586   -0.04619    0.02135
 34 Li   -0.00737   -0.02004   -0.01329
 35 Li   -0.00916   -0.02638   -0.02949
 36 O    -0.03389    0.02028   -0.06002
 37 C     0.02121   -0.03562   -0.03922
 38 C    -0.03922   -0.00955    0.02678
 39 H     0.05754   -0.01426   -0.05348
 40 H     0.01367   -0.02064    0.06997
 41 H    -0.07062   -0.03433   -0.01158
 42 H     0.11328   -0.08295   -0.02444
 43 H    -0.00873    0.06553    0.08634
 44 H    -0.04437   -0.00569    0.00436

System changes: positions 

Initializing position-dependent things.

Density initialized from wave functions
       .-----------------------.  
      /|                       |  
     / |                       |  
    /  |                       |  
   /   |                       |  
  /    |                       |  
 *     |                       |  
 |     |                       |  
 |     |                       |  
 |     |                       |  
 |   H |                       |  
 | C   |                 H     |  
 |   H |       Li      Li  H   |  
 |  C  H                       |  
 |O    |     Li      Li H    Li|  
 |     |  Li      Li      Li   |  
 |     |   Li      Li      Li  |  
 |Li   |Li      Li      Li     |  
 |     |                       |  
 |   LLi     LLi     LLi       |  
 |     |  Li      Li      Li   |  
 | Li  |   Li      Li          |  
 |     |Li      Li      Li     |  
 Li    | Li      Li            |  
 |    Li      Li      Li       |  
 |     |                       |  
 |     |                       |  
 |     |                       |  
 |     |                       |  
 |     |                       |  
 |     |                       |  
 |     .-----------------------.  
 |    /                       /   
 |   /                       /    
 |  /                       /     
 | /                       /      
 |/                       /       
 *-----------------------*        

Positions:
   0 Li     1.617037    1.617037   10.000000    ( 0.0000,  0.0000,  0.0000)
   1 Li     4.851111    1.617037   10.000000    ( 0.0000,  0.0000,  0.0000)
   2 Li     8.085185    1.617037   10.000000    ( 0.0000,  0.0000,  0.0000)
   3 Li     1.617037    4.851111   10.000000    ( 0.0000,  0.0000,  0.0000)
   4 Li     4.851111    4.851111   10.000000    ( 0.0000,  0.0000,  0.0000)
   5 Li     8.085185    4.851111   10.000000    ( 0.0000,  0.0000,  0.0000)
   6 Li     1.617037    8.085185   10.000000    ( 0.0000,  0.0000,  0.0000)
   7 Li     4.851111    8.085185   10.000000    ( 0.0000,  0.0000,  0.0000)
   8 Li     8.085185    8.085185   10.000000    ( 0.0000,  0.0000,  0.0000)
   9 Li     0.000000    0.000000   11.617037    ( 0.0000,  0.0000,  0.0000)
  10 Li     3.234074    0.000000   11.617037    ( 0.0000,  0.0000,  0.0000)
  11 Li     6.468148    0.000000   11.617037    ( 0.0000,  0.0000,  0.0000)
  12 Li     0.000000    3.234074   11.617037    ( 0.0000,  0.0000,  0.0000)
  13 Li     3.234074    3.234074   11.617037    ( 0.0000,  0.0000,  0.0000)
  14 Li     6.468148    3.234074   11.617037    ( 0.0000,  0.0000,  0.0000)
  15 Li     0.000000    6.468148   11.617037    ( 0.0000,  0.0000,  0.0000)
  16 Li     3.234074    6.468148   11.617037    ( 0.0000,  0.0000,  0.0000)
  17 Li     6.468148    6.468148   11.617037    ( 0.0000,  0.0000,  0.0000)
  18 Li     1.609781    1.599203   13.462678    ( 0.0000,  0.0000,  0.0000)
  19 Li     4.889037    1.567283   13.469721    ( 0.0000,  0.0000,  0.0000)
  20 Li     8.146886    1.601114   13.502809    ( 0.0000,  0.0000,  0.0000)
  21 Li     1.589684    4.955204   13.473566    ( 0.0000,  0.0000,  0.0000)
  22 Li     4.867605    4.900293   13.461228    ( 0.0000,  0.0000,  0.0000)
  23 Li     8.084263    4.934842   13.488046    ( 0.0000,  0.0000,  0.0000)
  24 Li     1.612852    8.244471   13.574283    ( 0.0000,  0.0000,  0.0000)
  25 Li     4.879117    8.026207   13.489641    ( 0.0000,  0.0000,  0.0000)
  26 Li     8.137324    8.211664   13.530429    ( 0.0000,  0.0000,  0.0000)
  27 Li     0.189595    0.467126   15.893515    ( 0.0000,  0.0000,  0.0000)
  28 Li     3.406902   -0.001668   15.438291    ( 0.0000,  0.0000,  0.0000)
  29 Li     6.529943   -0.039121   15.435055    ( 0.0000,  0.0000,  0.0000)
  30 Li    -0.003408    3.538936   15.329283    ( 0.0000,  0.0000,  0.0000)
  31 Li     3.231472    3.258592   15.291992    ( 0.0000,  0.0000,  0.0000)
  32 Li     6.455237    3.236227   15.363490    ( 0.0000,  0.0000,  0.0000)
  33 Li    -0.021935    6.734532   15.445747    ( 0.0000,  0.0000,  0.0000)
  34 Li     3.223761    6.482281   15.467176    ( 0.0000,  0.0000,  0.0000)
  35 Li     6.491870    6.486021   15.499702    ( 0.0000,  0.0000,  0.0000)
  36 O      0.032887    1.398482   17.625916    ( 0.0000,  0.0000,  0.0000)
  37 C      0.811411    2.254450   18.512822    ( 0.0000,  0.0000,  0.0000)
  38 C      0.020785    3.445781   19.023464    ( 0.0000,  0.0000,  0.0000)
  39 H      1.172006    1.655465   19.354083    ( 0.0000,  0.0000,  0.0000)
  40 H      1.666074    2.562764   17.905790    ( 0.0000,  0.0000,  0.0000)
  41 H      0.663141    4.057576   19.667856    ( 0.0000,  0.0000,  0.0000)
  42 H     -0.362446    4.080100   18.217590    ( 0.0000,  0.0000,  0.0000)
  43 H     -0.838850    3.103554   19.604805    ( 0.0000,  0.0000,  0.0000)
  44 H     -0.829240    1.228846   18.036597    ( 0.0000,  0.0000,  0.0000)

Unit cell:
           periodic     x           y           z      points  spacing
  1. axis:    yes    9.702222    0.000000    0.000000    60     0.1617
  2. axis:    yes    0.000000    9.702222    0.000000    60     0.1617
  3. axis:    no     0.000000    0.000000   24.851111   156     0.1593

  Lengths:   9.702222   9.702222  24.851111
  Angles:   90.000000  90.000000  90.000000

Effective grid spacing dv^(1/3) = 0.1609

     iter     time        total  log10-change:
                         energy  eigst   dens
iter:   1 11:34:18  -272.882809  -0.77
iter:   2 11:35:10  -272.856675  -1.53  -1.70
iter:   3 11:36:02  -272.850605  -2.24  -1.95
iter:   4 11:37:03  -272.846168c -2.67  -2.11
Writing to output.gpw (mode='')

iter:   5 11:37:41  -272.844501c -2.67  -2.30
iter:   6 11:38:19  -272.843020c -2.06  -2.38
iter:   7 11:38:51  -272.843062c -2.32  -2.60
iter:   8 11:39:22  -272.842808c -2.79  -2.69
iter:   9 11:39:53  -272.842805c -3.17  -2.77
Writing to output.gpw (mode='')

iter:  10 11:40:42  -272.842868c -3.03  -2.90
iter:  11 11:41:23  -272.842829c -3.69  -3.11
iter:  12 11:41:54  -272.842825c -4.12  -3.22
iter:  13 11:42:26  -272.842824c -4.05  -3.35
iter:  14 11:42:57  -272.842793c -4.60  -3.41
Writing to output.gpw (mode='')

iter:  15 11:43:40  -272.842795c -4.22  -3.50
iter:  16 11:44:50  -272.842806c -4.32  -3.57
iter:  17 11:45:56  -272.842811c -4.82  -3.69
iter:  18 11:46:28  -272.842804c -5.33  -3.78
iter:  19 11:47:01  -272.842794c -5.04  -3.90
Writing to output.gpw (mode='')

iter:  20 11:47:37  -272.842796c -5.70  -3.97
iter:  21 11:48:14  -272.842797c -5.88  -4.09c
iter:  22 11:48:47  -272.842799c -5.57  -4.13c
iter:  23 11:49:20  -272.842801c -5.87  -4.37c
iter:  24 11:49:55  -272.842801c -6.03  -4.45c
Writing to output.gpw (mode='')

iter:  25 11:50:30  -272.842802c -6.22  -4.53c
iter:  26 11:51:05  -272.842800c -6.28  -4.58c
iter:  27 11:51:40  -272.842801c -6.44  -4.79c
iter:  28 11:52:13  -272.842801c -6.48  -4.86c
iter:  29 11:52:46  -272.842801c -6.84  -4.86c
Writing to output.gpw (mode='')

iter:  30 11:53:18  -272.842800c -6.83  -4.95c
iter:  31 11:53:51  -272.842801c -7.07  -5.05c
iter:  32 11:54:23  -272.842801c -7.13  -5.21c
iter:  33 11:55:02  -272.842801c -7.14  -5.36c
iter:  34 11:55:40  -272.842801c -7.21  -5.36c
Writing to output.gpw (mode='')

iter:  35 11:56:26  -272.842801c -7.21  -5.34c
iter:  36 11:56:58  -272.842801c -7.35  -5.38c
iter:  37 11:57:33  -272.842801c -7.72c -5.52c

Converged after 37 iterations.

Dipole moment: (-14.631355, -5.177462, 0.394166) |e|*Ang

Energy contributions relative to reference atoms: (reference = -11471.411034)

Kinetic:       +126.830611
Potential:     -119.276245
External:        +0.000000
XC:            -280.571600
Entropy (-ST):   -0.153680
Local:           +0.251274
--------------------------
Free energy:   -272.919641
Extrapolated:  -272.842801

Dipole-layer corrected work functions: 3.375433, 2.617711 eV

Showing only first 2 kpts
 Kpt  Band  Eigenvalues  Occupancy
  0    26     -3.23656    1.98367
  0    27     -3.14399    1.90037
  0    28     -2.84800    0.09746
  0    29     -2.73554    0.01075

  1    26     -3.04275    1.43151
  1    27     -2.99872    1.02150
  1    28     -2.95970    0.64709
  1    29     -2.93224    0.43288


Fermi level: -2.99657

No gap
Writing to output.gpw (mode='')


Forces in eV/Ang:
  0 Li    0.00412   -0.00545   -0.27055
  1 Li   -0.00194   -0.00415   -0.28340
  2 Li   -0.00757   -0.00743   -0.26957
  3 Li   -0.00424   -0.00162   -0.28265
  4 Li   -0.00320   -0.00092   -0.26405
  5 Li    0.00316   -0.00079   -0.27748
  6 Li   -0.00111   -0.00560   -0.26875
  7 Li   -0.00073   -0.00085   -0.28146
  8 Li   -0.00154   -0.00326   -0.27379
  9 Li    0.00824    0.00333    0.18800
 10 Li    0.03405   -0.01827    0.26262
 11 Li    0.00578   -0.01565    0.26455
 12 Li   -0.00090    0.02594    0.31889
 13 Li    0.00390    0.01808    0.32495
 14 Li    0.02551    0.00134    0.32098
 15 Li    0.00366    0.08954    0.28415
 16 Li   -0.04530    0.05458    0.28600
 17 Li    0.06052    0.05512    0.26342
 18 Li    0.01035    0.04958    0.03396
 19 Li   -0.00103    0.02453   -0.01385
 20 Li   -0.01038    0.03645    0.00682
 21 Li    0.04179    0.01099   -0.00947
 22 Li   -0.00717   -0.02846    0.00650
 23 Li   -0.03624    0.02303   -0.02389
 24 Li   -0.00185   -0.04992   -0.02155
 25 Li   -0.00013    0.04745    0.00163
 26 Li   -0.00657   -0.04808   -0.01226
 27 Li    0.01765   -0.03099    0.02455
 28 Li   -0.00815    0.01115   -0.00698
 29 Li   -0.01967    0.02096   -0.00040
 30 Li   -0.01557   -0.05058    0.02052
 31 Li    0.02983   -0.00591   -0.00916
 32 Li   -0.02314   -0.00628    0.00572
 33 Li    0.01757   -0.04443    0.02628
 34 Li   -0.00590   -0.02195   -0.01493
 35 Li   -0.01122   -0.02862   -0.03215
 36 O    -0.07390    0.01986   -0.00252
 37 C     0.03326   -0.01667   -0.02960
 38 C    -0.04352    0.04348   -0.04068
 39 H     0.07260   -0.05548   -0.03440
 40 H     0.00735    0.00472    0.06308
 41 H    -0.10872   -0.06964   -0.04047
 42 H     0.12898   -0.06590   -0.02092
 43 H     0.00026    0.04666    0.11934
 44 H    -0.01117    0.00909   -0.02760

System changes: positions 

Initializing position-dependent things.

Density initialized from wave functions
       .-----------------------.  
      /|                       |  
     / |                       |  
    /  |                       |  
   /   |                       |  
  /    |                       |  
 *     |                       |  
 |     |                       |  
 |     |                       |  
 |     |                       |  
 |   H |                       |  
 | C   |                 H     |  
 |   H |       Li      Li  H   |  
 |  C  H                       |  
 |O    |     Li      Li H    Li|  
 |     |  Li      Li      Li   |  
 |     |   Li      Li      Li  |  
 |Li   |Li      Li      Li     |  
 |     |                       |  
 |   LLi     LLi     LLi       |  
 |     |  Li      Li      Li   |  
 | Li  |   Li      Li          |  
 |     |Li      Li      Li     |  
 Li    | Li      Li            |  
 |    Li      Li      Li       |  
 |     |                       |  
 |     |                       |  
 |     |                       |  
 |     |                       |  
 |     |                       |  
 |     |                       |  
 |     .-----------------------.  
 |    /                       /   
 |   /                       /    
 |  /                       /     
 | /                       /      
 |/                       /       
 *-----------------------*        

Positions:
   0 Li     1.617037    1.617037   10.000000    ( 0.0000,  0.0000,  0.0000)
   1 Li     4.851111    1.617037   10.000000    ( 0.0000,  0.0000,  0.0000)
   2 Li     8.085185    1.617037   10.000000    ( 0.0000,  0.0000,  0.0000)
   3 Li     1.617037    4.851111   10.000000    ( 0.0000,  0.0000,  0.0000)
   4 Li     4.851111    4.851111   10.000000    ( 0.0000,  0.0000,  0.0000)
   5 Li     8.085185    4.851111   10.000000    ( 0.0000,  0.0000,  0.0000)
   6 Li     1.617037    8.085185   10.000000    ( 0.0000,  0.0000,  0.0000)
   7 Li     4.851111    8.085185   10.000000    ( 0.0000,  0.0000,  0.0000)
   8 Li     8.085185    8.085185   10.000000    ( 0.0000,  0.0000,  0.0000)
   9 Li     0.000000    0.000000   11.617037    ( 0.0000,  0.0000,  0.0000)
  10 Li     3.234074    0.000000   11.617037    ( 0.0000,  0.0000,  0.0000)
  11 Li     6.468148    0.000000   11.617037    ( 0.0000,  0.0000,  0.0000)
  12 Li     0.000000    3.234074   11.617037    ( 0.0000,  0.0000,  0.0000)
  13 Li     3.234074    3.234074   11.617037    ( 0.0000,  0.0000,  0.0000)
  14 Li     6.468148    3.234074   11.617037    ( 0.0000,  0.0000,  0.0000)
  15 Li     0.000000    6.468148   11.617037    ( 0.0000,  0.0000,  0.0000)
  16 Li     3.234074    6.468148   11.617037    ( 0.0000,  0.0000,  0.0000)
  17 Li     6.468148    6.468148   11.617037    ( 0.0000,  0.0000,  0.0000)
  18 Li     1.610680    1.600969   13.462411    ( 0.0000,  0.0000,  0.0000)
  19 Li     4.888415    1.568236   13.468648    ( 0.0000,  0.0000,  0.0000)
  20 Li     8.146564    1.602391   13.501916    ( 0.0000,  0.0000,  0.0000)
  21 Li     1.590059    4.954810   13.473408    ( 0.0000,  0.0000,  0.0000)
  22 Li     4.867236    4.899172   13.461809    ( 0.0000,  0.0000,  0.0000)
  23 Li     8.084512    4.934468   13.487858    ( 0.0000,  0.0000,  0.0000)
  24 Li     1.612192    8.242405   13.573054    ( 0.0000,  0.0000,  0.0000)
  25 Li     4.878771    8.028524   13.489447    ( 0.0000,  0.0000,  0.0000)
  26 Li     8.138404    8.209769   13.529260    ( 0.0000,  0.0000,  0.0000)
  27 Li     0.188985    0.462694   15.889751    ( 0.0000,  0.0000,  0.0000)
  28 Li     3.406461   -0.000243   15.438889    ( 0.0000,  0.0000,  0.0000)
  29 Li     6.528873   -0.038310   15.433959    ( 0.0000,  0.0000,  0.0000)
  30 Li    -0.002702    3.533482   15.333095    ( 0.0000,  0.0000,  0.0000)
  31 Li     3.230161    3.258347   15.289829    ( 0.0000,  0.0000,  0.0000)
  32 Li     6.456094    3.235321   15.360973    ( 0.0000,  0.0000,  0.0000)
  33 Li    -0.021579    6.728081   15.445645    ( 0.0000,  0.0000,  0.0000)
  34 Li     3.222323    6.482131   15.465998    ( 0.0000,  0.0000,  0.0000)
  35 Li     6.492634    6.485705   15.498573    ( 0.0000,  0.0000,  0.0000)
  36 O      0.031506    1.401773   17.619302    ( 0.0000,  0.0000,  0.0000)
  37 C      0.810583    2.249466   18.512107    ( 0.0000,  0.0000,  0.0000)
  38 C      0.021413    3.440200   19.028380    ( 0.0000,  0.0000,  0.0000)
  39 H      1.167608    1.646291   19.348800    ( 0.0000,  0.0000,  0.0000)
  40 H      1.668817    2.554754   17.909701    ( 0.0000,  0.0000,  0.0000)
  41 H      0.661796    4.052933   19.672476    ( 0.0000,  0.0000,  0.0000)
  42 H     -0.357948    4.073266   18.219897    ( 0.0000,  0.0000,  0.0000)
  43 H     -0.841878    3.102069   19.607709    ( 0.0000,  0.0000,  0.0000)
  44 H     -0.829813    1.227748   18.030556    ( 0.0000,  0.0000,  0.0000)

Unit cell:
           periodic     x           y           z      points  spacing
  1. axis:    yes    9.702222    0.000000    0.000000    60     0.1617
  2. axis:    yes    0.000000    9.702222    0.000000    60     0.1617
  3. axis:    no     0.000000    0.000000   24.851111   156     0.1593

  Lengths:   9.702222   9.702222  24.851111
  Angles:   90.000000  90.000000  90.000000

Effective grid spacing dv^(1/3) = 0.1609

     iter     time        total  log10-change:
                         energy  eigst   dens
iter:   1 11:58:25  -272.847155  -1.88
iter:   2 11:59:18  -272.846577  -2.65  -2.38
iter:   3 11:59:59  -272.846323c -3.24  -2.59
iter:   4 12:00:33  -272.846184c -3.69  -2.70
Writing to output.gpw (mode='')

iter:   5 12:01:03  -272.845895c -3.42  -2.77
iter:   6 12:01:35  -272.845872c -3.21  -3.09
iter:   7 12:02:13  -272.845885c -3.46  -3.19
iter:   8 12:02:47  -272.845806c -4.03  -3.21
iter:   9 12:04:03  -272.845821c -4.49  -3.41
Writing to output.gpw (mode='')

iter:  10 12:05:15  -272.845844c -4.39  -3.63
iter:  11 12:06:26  -272.845831c -4.76  -3.65
iter:  12 12:07:08  -272.845830c -5.59  -3.87
iter:  13 12:07:50  -272.845829c -5.77  -3.91
iter:  14 12:08:28  -272.845827c -5.40  -3.95
Writing to output.gpw (mode='')

iter:  15 12:09:21  -272.845828c -5.69  -4.08c
iter:  16 12:09:55  -272.845827c -5.97  -4.19c
iter:  17 12:10:32  -272.845825c -5.96  -4.24c
iter:  18 12:11:08  -272.845825c -6.16  -4.41c
iter:  19 12:11:45  -272.845829c -6.08  -4.44c
Writing to output.gpw (mode='')

iter:  20 12:12:20  -272.845827c -6.72  -4.39c
iter:  21 12:12:58  -272.845827c -6.55  -4.56c
iter:  22 12:13:37  -272.845826c -7.00  -4.69c
iter:  23 12:14:13  -272.845827c -6.70  -4.75c
iter:  24 12:14:43  -272.845826c -6.98  -4.75c
Writing to output.gpw (mode='')

iter:  25 12:15:21  -272.845826c -6.92  -5.07c
iter:  26 12:16:23  -272.845827c -7.53c -5.27c

Converged after 26 iterations.

Dipole moment: (-14.566486, -5.218855, 0.394321) |e|*Ang

Energy contributions relative to reference atoms: (reference = -11471.411034)

Kinetic:       +126.964734
Potential:     -119.375355
External:        +0.000000
XC:            -280.609804
Entropy (-ST):   -0.153580
Local:           +0.251389
--------------------------
Free energy:   -272.922617
Extrapolated:  -272.845827

Dipole-layer corrected work functions: 3.375313, 2.617293 eV

Showing only first 2 kpts
 Kpt  Band  Eigenvalues  Occupancy
  0    26     -3.23663    1.98378
  0    27     -3.14397    1.90084
  0    28     -2.84747    0.09699
  0    29     -2.73561    0.01082

  1    26     -3.04261    1.43257
  1    27     -2.99813    1.01825
  1    28     -2.95933    0.64623
  1    29     -2.93181    0.43177


Fermi level: -2.99630

No gap
Writing to output.gpw (mode='')


Forces in eV/Ang:
  0 Li    0.00419   -0.00526   -0.27051
  1 Li   -0.00199   -0.00416   -0.28329
  2 Li   -0.00760   -0.00728   -0.26958
  3 Li   -0.00419   -0.00167   -0.28257
  4 Li   -0.00324   -0.00094   -0.26435
  5 Li    0.00314   -0.00084   -0.27738
  6 Li   -0.00106   -0.00574   -0.26866
  7 Li   -0.00077   -0.00075   -0.28151
  8 Li   -0.00155   -0.00336   -0.27369
  9 Li    0.00869    0.00439    0.18886
 10 Li    0.03328   -0.01802    0.26234
 11 Li    0.00620   -0.01540    0.26463
 12 Li   -0.00064    0.02609    0.31815
 13 Li    0.00415    0.01879    0.32365
 14 Li    0.02517    0.00186    0.32031
 15 Li    0.00394    0.08865    0.28276
 16 Li   -0.04473    0.05413    0.28637
 17 Li    0.05979    0.05478    0.26446
 18 Li    0.00920    0.04569    0.03208
 19 Li   -0.00088    0.02369   -0.01327
 20 Li   -0.01021    0.03353    0.00581
 21 Li    0.03877    0.00881   -0.00866
 22 Li   -0.00667   -0.02583    0.00453
 23 Li   -0.03395    0.02051   -0.02252
 24 Li   -0.00130   -0.04750   -0.01961
 25 Li   -0.00027    0.04382    0.00160
 26 Li   -0.00745   -0.04587   -0.00939
 27 Li    0.01839   -0.02999    0.02528
 28 Li   -0.00870    0.01021   -0.00860
 29 Li   -0.01831    0.02013   -0.00137
 30 Li   -0.01662   -0.04888    0.01808
 31 Li    0.03169   -0.00507   -0.00639
 32 Li   -0.02444   -0.00534    0.00797
 33 Li    0.01746   -0.04171    0.02573
 34 Li   -0.00406   -0.02104   -0.01426
 35 Li   -0.01253   -0.02788   -0.03187
 36 O    -0.11244    0.00243   -0.00760
 37 C     0.01189    0.00142   -0.01849
 38 C    -0.05966    0.03930   -0.09023
 39 H     0.09061   -0.10918    0.02442
 40 H     0.01242    0.03908    0.04769
 41 H    -0.08527   -0.06946   -0.02499
 42 H     0.11383   -0.04299   -0.01374
 43 H     0.02304    0.02897    0.10723
 44 H    -0.00307    0.01172   -0.03737

System changes: positions 

Initializing position-dependent things.

Density initialized from wave functions
       .-----------------------.  
      /|                       |  
     / |                       |  
    /  |                       |  
   /   |                       |  
  /    |                       |  
 *     |                       |  
 |     |                       |  
 |     |                       |  
 |     |                       |  
 |   H |                       |  
 | C   |                 H     |  
 |   H |               Li  H   |  
 |  C  H                       |  
 |O    |     Li      Li H    Li|  
 |     |  Li      Li      Li   |  
 |     |   Li      Li      Li  |  
 |Li   |Li      Li      Li     |  
 |     | Li                    |  
 |   LLi     LLi     LLi       |  
 |     |  Li      Li      Li   |  
 | Li  |   Li      Li          |  
 |     |Li      Li      Li     |  
 Li    | Li      Li            |  
 |    Li      Li      Li       |  
 |     |                       |  
 |     |                       |  
 |     |                       |  
 |     |                       |  
 |     |                       |  
 |     |                       |  
 |     .-----------------------.  
 |    /                       /   
 |   /                       /    
 |  /                       /     
 | /                       /      
 |/                       /       
 *-----------------------*        

Positions:
   0 Li     1.617037    1.617037   10.000000    ( 0.0000,  0.0000,  0.0000)
   1 Li     4.851111    1.617037   10.000000    ( 0.0000,  0.0000,  0.0000)
   2 Li     8.085185    1.617037   10.000000    ( 0.0000,  0.0000,  0.0000)
   3 Li     1.617037    4.851111   10.000000    ( 0.0000,  0.0000,  0.0000)
   4 Li     4.851111    4.851111   10.000000    ( 0.0000,  0.0000,  0.0000)
   5 Li     8.085185    4.851111   10.000000    ( 0.0000,  0.0000,  0.0000)
   6 Li     1.617037    8.085185   10.000000    ( 0.0000,  0.0000,  0.0000)
   7 Li     4.851111    8.085185   10.000000    ( 0.0000,  0.0000,  0.0000)
   8 Li     8.085185    8.085185   10.000000    ( 0.0000,  0.0000,  0.0000)
   9 Li     0.000000    0.000000   11.617037    ( 0.0000,  0.0000,  0.0000)
  10 Li     3.234074    0.000000   11.617037    ( 0.0000,  0.0000,  0.0000)
  11 Li     6.468148    0.000000   11.617037    ( 0.0000,  0.0000,  0.0000)
  12 Li     0.000000    3.234074   11.617037    ( 0.0000,  0.0000,  0.0000)
  13 Li     3.234074    3.234074   11.617037    ( 0.0000,  0.0000,  0.0000)
  14 Li     6.468148    3.234074   11.617037    ( 0.0000,  0.0000,  0.0000)
  15 Li     0.000000    6.468148   11.617037    ( 0.0000,  0.0000,  0.0000)
  16 Li     3.234074    6.468148   11.617037    ( 0.0000,  0.0000,  0.0000)
  17 Li     6.468148    6.468148   11.617037    ( 0.0000,  0.0000,  0.0000)
  18 Li     1.614661    1.603301   13.458304    ( 0.0000,  0.0000,  0.0000)
  19 Li     4.887445    1.568211   13.466776    ( 0.0000,  0.0000,  0.0000)
  20 Li     8.144826    1.603584   13.496721    ( 0.0000,  0.0000,  0.0000)
  21 Li     1.587997    4.951737   13.474880    ( 0.0000,  0.0000,  0.0000)
  22 Li     4.867706    4.899952   13.462115    ( 0.0000,  0.0000,  0.0000)
  23 Li     8.087400    4.931024   13.489971    ( 0.0000,  0.0000,  0.0000)
  24 Li     1.611379    8.240273   13.570529    ( 0.0000,  0.0000,  0.0000)
  25 Li     4.877882    8.031892   13.489744    ( 0.0000,  0.0000,  0.0000)
  26 Li     8.141766    8.207517   13.526300    ( 0.0000,  0.0000,  0.0000)
  27 Li     0.189712    0.451842   15.874919    ( 0.0000,  0.0000,  0.0000)
  28 Li     3.405520    0.002390   15.439339    ( 0.0000,  0.0000,  0.0000)
  29 Li     6.529187   -0.036933   15.429061    ( 0.0000,  0.0000,  0.0000)
  30 Li    -0.001424    3.516860   15.341113    ( 0.0000,  0.0000,  0.0000)
  31 Li     3.230076    3.259711   15.283859    ( 0.0000,  0.0000,  0.0000)
  32 Li     6.456557    3.233422   15.356031    ( 0.0000,  0.0000,  0.0000)
  33 Li    -0.020955    6.716445   15.442319    ( 0.0000,  0.0000,  0.0000)
  34 Li     3.218627    6.482865   15.465158    ( 0.0000,  0.0000,  0.0000)
  35 Li     6.494451    6.485782   15.497293    ( 0.0000,  0.0000,  0.0000)
  36 O      0.025111    1.404986   17.599247    ( 0.0000,  0.0000,  0.0000)
  37 C      0.806631    2.230209   18.509999    ( 0.0000,  0.0000,  0.0000)
  38 C      0.022501    3.419587   19.041620    ( 0.0000,  0.0000,  0.0000)
  39 H      1.151756    1.611404   19.337328    ( 0.0000,  0.0000,  0.0000)
  40 H      1.674686    2.531383   17.919881    ( 0.0000,  0.0000,  0.0000)
  41 H      0.661128    4.025871   19.693143    ( 0.0000,  0.0000,  0.0000)
  42 H     -0.346326    4.058257   18.231618    ( 0.0000,  0.0000,  0.0000)
  43 H     -0.849565    3.088882   19.612557    ( 0.0000,  0.0000,  0.0000)
  44 H     -0.836061    1.222972   18.009435    ( 0.0000,  0.0000,  0.0000)

Unit cell:
           periodic     x           y           z      points  spacing
  1. axis:    yes    9.702222    0.000000    0.000000    60     0.1617
  2. axis:    yes    0.000000    9.702222    0.000000    60     0.1617
  3. axis:    no     0.000000    0.000000   24.851111   156     0.1593

  Lengths:   9.702222   9.702222  24.851111
  Angles:   90.000000  90.000000  90.000000

Effective grid spacing dv^(1/3) = 0.1609

     iter     time        total  log10-change:
                         energy  eigst   dens
iter:   1 12:17:15  -272.867312  -0.85
iter:   2 12:17:51  -272.858163  -1.66  -1.86
iter:   3 12:18:31  -272.855806c -2.29  -2.09
iter:   4 12:19:08  -272.856911c -2.60  -2.22
Writing to output.gpw (mode='')

iter:   5 12:19:46  -272.852122c -2.51  -2.18
iter:   6 12:20:26  -272.851155c -2.54  -2.51
iter:   7 12:21:05  -272.850842c -2.49  -2.63
iter:   8 12:21:44  -272.850849c -3.16  -2.81
iter:   9 12:22:35  -272.850877c -3.13  -2.87
Writing to output.gpw (mode='')

iter:  10 12:23:15  -272.850812c -3.52  -2.83
iter:  11 12:24:20  -272.850809c -3.41  -3.01
iter:  12 12:25:00  -272.850821c -4.09  -3.24
iter:  13 12:25:46  -272.850858c -3.73  -3.22
iter:  14 12:26:58  -272.850865c -3.91  -3.41
Writing to output.gpw (mode='')

iter:  15 12:27:54  -272.850864c -4.15  -3.42
iter:  16 12:28:42  -272.850836c -4.85  -3.44
iter:  17 12:29:35  -272.850837c -5.10  -3.60
iter:  18 12:30:23  -272.850825c -4.74  -3.59
iter:  19 12:31:13  -272.850822c -4.64  -3.69
Writing to output.gpw (mode='')

iter:  20 12:32:01  -272.850815c -5.07  -3.77
iter:  21 12:32:55  -272.850820c -5.42  -3.88
iter:  22 12:33:47  -272.850820c -5.66  -3.96
iter:  23 12:34:33  -272.850821c -5.81  -4.15c
iter:  24 12:35:25  -272.850822c -6.04  -4.25c
Writing to output.gpw (mode='')

iter:  25 12:36:11  -272.850824c -6.02  -4.29c
iter:  26 12:36:59  -272.850824c -6.07  -4.45c
iter:  27 12:37:49  -272.850824c -6.35  -4.54c
iter:  28 12:38:46  -272.850823c -6.43  -4.67c
iter:  29 12:39:51  -272.850823c -6.60  -4.80c
Writing to output.gpw (mode='')

iter:  30 12:40:58  -272.850823c -6.91  -4.90c
iter:  31 12:42:05  -272.850823c -6.87  -4.91c
iter:  32 12:43:09  -272.850823c -6.98  -5.01c
iter:  33 12:44:13  -272.850823c -7.13  -5.19c
iter:  34 12:45:19  -272.850823c -7.00  -5.25c
Writing to output.gpw (mode='')

iter:  35 12:46:30  -272.850823c -7.39  -5.36c
iter:  36 12:47:22  -272.850823c -7.45c -5.41c

Converged after 36 iterations.

Dipole moment: (-14.155189, -5.305206, 0.394228) |e|*Ang

Energy contributions relative to reference atoms: (reference = -11471.411034)

Kinetic:       +126.989680
Potential:     -119.391584
External:        +0.000000
XC:            -280.623470
Entropy (-ST):   -0.153255
Local:           +0.251178
--------------------------
Free energy:   -272.927451
Extrapolated:  -272.850823

Dipole-layer corrected work functions: 3.375020, 2.617178 eV

Showing only first 2 kpts
 Kpt  Band  Eigenvalues  Occupancy
  0    26     -3.23754    1.98413
  0    27     -3.14440    1.90203
  0    28     -2.84644    0.09546
  0    29     -2.73651    0.01106

  1    26     -3.04237    1.43229
  1    27     -2.99728    1.01180
  1    28     -2.95953    0.64977
  1    29     -2.93052    0.42445


Fermi level: -2.99610

No gap
Writing to output.gpw (mode='')


Forces in eV/Ang:
  0 Li    0.00445   -0.00505   -0.27041
  1 Li   -0.00205   -0.00417   -0.28291
  2 Li   -0.00789   -0.00715   -0.26960
  3 Li   -0.00425   -0.00170   -0.28244
  4 Li   -0.00326   -0.00067   -0.26532
  5 Li    0.00311   -0.00094   -0.27704
  6 Li   -0.00116   -0.00581   -0.26858
  7 Li   -0.00092   -0.00079   -0.28127
  8 Li   -0.00143   -0.00332   -0.27378
  9 Li    0.01008    0.00620    0.18932
 10 Li    0.03362   -0.01889    0.25985
 11 Li    0.00577   -0.01642    0.26367
 12 Li   -0.00009    0.02579    0.31578
 13 Li    0.00621    0.02142    0.32161
 14 Li    0.02357    0.00342    0.31940
 15 Li    0.00457    0.08650    0.28102
 16 Li   -0.04582    0.05245    0.28811
 17 Li    0.06124    0.05401    0.26720
 18 Li    0.00551    0.04101    0.03187
 19 Li   -0.00043    0.02430   -0.01346
 20 Li   -0.00891    0.03061    0.00618
 21 Li    0.03672    0.00744   -0.00966
 22 Li   -0.00677   -0.02402    0.00220
 23 Li   -0.03299    0.01873   -0.02326
 24 Li    0.00020   -0.04599   -0.01707
 25 Li   -0.00009    0.03890    0.00066
 26 Li   -0.01057   -0.04467   -0.00522
 27 Li    0.01788   -0.03037    0.03045
 28 Li   -0.00805    0.00949   -0.01074
 29 Li   -0.01785    0.01883   -0.00158
 30 Li   -0.01825   -0.04500    0.01642
 31 Li    0.03308   -0.00547   -0.00058
 32 Li   -0.02604   -0.00410    0.01122
 33 Li    0.01737   -0.03888    0.02747
 34 Li   -0.00041   -0.01994   -0.01443
 35 Li   -0.01495   -0.02698   -0.03216
 36 O    -0.16464   -0.01670   -0.00494
 37 C    -0.01056    0.00548    0.02880
 38 C    -0.05182    0.08790   -0.19922
 39 H     0.10438   -0.15424    0.09035
 40 H    -0.00281    0.07096    0.04509
 41 H    -0.06479   -0.07204   -0.03524
 42 H     0.11012   -0.02761    0.02777
 43 H     0.04792   -0.01001    0.08350
 44 H     0.02236    0.01481   -0.06235

System changes: positions 

Initializing position-dependent things.

Density initialized from wave functions
       .-----------------------.  
      /|                       |  
     / |                       |  
    /  |                       |  
   /   |                       |  
  /    |                       |  
 *     |                       |  
 |     |                       |  
 |     |                       |  
 |     |                       |  
 |   H |                       |  
 | C   |                 H     |  
 |   H |               Li  H   |  
 |  C  H                       |  
 |O    |     Li      Li H    Li|  
 |     |  Li      Li      Li   |  
 |     |   Li      Li      Li  |  
 |Li   |Li      Li      Li     |  
 |     | Li                    |  
 |   LLi     LLi     LLi       |  
 |     |  Li      Li      Li   |  
 | Li  |   Li      Li          |  
 |     |Li      Li      Li     |  
 Li    | Li      Li            |  
 |    Li      Li      Li       |  
 |     |                       |  
 |     |                       |  
 |     |                       |  
 |     |                       |  
 |     |                       |  
 |     |                       |  
 |     .-----------------------.  
 |    /                       /   
 |   /                       /    
 |  /                       /     
 | /                       /      
 |/                       /       
 *-----------------------*        

Positions:
   0 Li     1.617037    1.617037   10.000000    ( 0.0000,  0.0000,  0.0000)
   1 Li     4.851111    1.617037   10.000000    ( 0.0000,  0.0000,  0.0000)
   2 Li     8.085185    1.617037   10.000000    ( 0.0000,  0.0000,  0.0000)
   3 Li     1.617037    4.851111   10.000000    ( 0.0000,  0.0000,  0.0000)
   4 Li     4.851111    4.851111   10.000000    ( 0.0000,  0.0000,  0.0000)
   5 Li     8.085185    4.851111   10.000000    ( 0.0000,  0.0000,  0.0000)
   6 Li     1.617037    8.085185   10.000000    ( 0.0000,  0.0000,  0.0000)
   7 Li     4.851111    8.085185   10.000000    ( 0.0000,  0.0000,  0.0000)
   8 Li     8.085185    8.085185   10.000000    ( 0.0000,  0.0000,  0.0000)
   9 Li     0.000000    0.000000   11.617037    ( 0.0000,  0.0000,  0.0000)
  10 Li     3.234074    0.000000   11.617037    ( 0.0000,  0.0000,  0.0000)
  11 Li     6.468148    0.000000   11.617037    ( 0.0000,  0.0000,  0.0000)
  12 Li     0.000000    3.234074   11.617037    ( 0.0000,  0.0000,  0.0000)
  13 Li     3.234074    3.234074   11.617037    ( 0.0000,  0.0000,  0.0000)
  14 Li     6.468148    3.234074   11.617037    ( 0.0000,  0.0000,  0.0000)
[...]
iter:  26 00:12:06  -273.103773c -6.55  -4.94c
iter:  27 00:16:14  -273.103773c -6.70  -5.03c
iter:  28 00:21:29  -273.103773c -7.09  -5.07c
iter:  29 00:25:08  -273.103773c -7.03  -5.11c
Writing to output.gpw (mode='')

iter:  30 00:29:07  -273.103773c -7.00  -5.12c
iter:  31 00:32:16  -273.103774c -7.39  -5.17c
iter:  32 00:37:14  -273.103774c -7.49c -5.40c

Converged after 32 iterations.

Dipole moment: (-6.951438, -3.624051, 0.367291) |e|*Ang

Energy contributions relative to reference atoms: (reference = -11471.411034)

Kinetic:       +128.454518
Potential:     -120.574486
External:        +0.000000
XC:            -281.146872
Entropy (-ST):   -0.146710
Local:           +0.236422
--------------------------
Free energy:   -273.177128
Extrapolated:  -273.103774

Dipole-layer corrected work functions: 3.364857, 2.658797 eV

Showing only first 2 kpts
 Kpt  Band  Eigenvalues  Occupancy
  0    26     -3.26327    1.98699
  0    27     -3.16206    1.90556
  0    28     -2.85216    0.07883
  0    29     -2.76153    0.01331

  1    26     -3.06043    1.45104
  1    27     -3.01404    1.02211
  1    28     -2.98338    0.72293
  1    29     -2.91221    0.24001


Fermi level: -3.01183

No gap
Writing to output.gpw (mode='')


Forces in eV/Ang:
  0 Li    0.00782    0.00313   -0.27090
  1 Li    0.00594    0.00194   -0.26745
  2 Li   -0.01287    0.00186   -0.27555
  3 Li    0.00092    0.00894   -0.27312
  4 Li   -0.00271    0.00816   -0.27884
  5 Li    0.00256    0.00121   -0.27291
  6 Li   -0.00042   -0.00616   -0.27463
  7 Li   -0.00194   -0.00403   -0.27641
  8 Li    0.00234    0.00307   -0.27627
  9 Li   -0.00128   -0.00771    0.28912
 10 Li    0.01247   -0.05119    0.26129
 11 Li   -0.01332   -0.05164    0.26770
 12 Li   -0.00291   -0.01664    0.26887
 13 Li    0.01756    0.03488    0.25702
 14 Li   -0.02167    0.02277    0.26311
 15 Li    0.00571   -0.02453    0.26340
 16 Li   -0.08106   -0.02049    0.28146
 17 Li    0.07695   -0.01604    0.29455
 18 Li   -0.00470   -0.00760    0.01126
 19 Li    0.00947    0.01840   -0.00456
 20 Li    0.00516   -0.01220    0.01803
 21 Li    0.01335   -0.00827   -0.00098
 22 Li    0.00180   -0.00159   -0.00249
 23 Li   -0.00734    0.00384   -0.00082
 24 Li   -0.00117    0.00318    0.00192
 25 Li   -0.00347   -0.00044   -0.01817
 26 Li   -0.00069    0.01135   -0.00081
 27 Li    0.00875    0.00317   -0.00705
 28 Li   -0.00065    0.01350   -0.00040
 29 Li   -0.00637    0.00214    0.00669
 30 Li   -0.00531    0.00624    0.00877
 31 Li   -0.00263   -0.00308   -0.00791
 32 Li    0.00297    0.01075    0.00267
 33 Li   -0.00204    0.01701    0.00537
 34 Li   -0.00526   -0.00043   -0.00973
 35 Li    0.00023    0.00357    0.00003
 36 O     0.03340    0.03149    0.01569
 37 C     0.03032   -0.05575   -0.01843
 38 C    -0.02331    0.00124    0.05822
 39 H    -0.00865    0.02516   -0.02338
 40 H    -0.00463   -0.00331    0.02009
 41 H    -0.01751   -0.00430   -0.00019
 42 H     0.00741    0.00375    0.00615
 43 H     0.01400    0.03181   -0.01783
 44 H    -0.04429   -0.02064    0.00539

System changes: positions 

Initializing position-dependent things.

Density initialized from wave functions
       .-----------------------.  
      /|                       |  
     / |                       |  
    /  |                       |  
   /   |                       |  
  /    |                       |  
 *     |                       |  
 |     |                       |  
 |     |                       |  
 |     |                       |  
 |  H  |                       |  
 |     |                H      |  
 | C   |       Li      Li      |  
 |HC   |                       |  
 |   LH|     Li      Li        |  
 |     |  Li      Li   H OLi   |  
 | Li  |   Li      Li          |  
 |     |Li      Li      Li     |  
 Li    |                       |  
 |   LLi     LLi     LLi       |  
 |     |  Li      Li      Li   |  
 | Li  |   Li      Li          |  
 |     |Li      Li      Li     |  
 Li    | Li      Li            |  
 |    Li      Li      Li       |  
 |     |                       |  
 |     |                       |  
 |     |                       |  
 |     |                       |  
 |     |                       |  
 |     |                       |  
 |     .-----------------------.  
 |    /                       /   
 |   /                       /    
 |  /                       /     
 | /                       /      
 |/                       /       
 *-----------------------*        

Positions:
   0 Li     1.617037    1.617037   10.000000    ( 0.0000,  0.0000,  0.0000)
   1 Li     4.851111    1.617037   10.000000    ( 0.0000,  0.0000,  0.0000)
   2 Li     8.085185    1.617037   10.000000    ( 0.0000,  0.0000,  0.0000)
   3 Li     1.617037    4.851111   10.000000    ( 0.0000,  0.0000,  0.0000)
   4 Li     4.851111    4.851111   10.000000    ( 0.0000,  0.0000,  0.0000)
   5 Li     8.085185    4.851111   10.000000    ( 0.0000,  0.0000,  0.0000)
   6 Li     1.617037    8.085185   10.000000    ( 0.0000,  0.0000,  0.0000)
   7 Li     4.851111    8.085185   10.000000    ( 0.0000,  0.0000,  0.0000)
   8 Li     8.085185    8.085185   10.000000    ( 0.0000,  0.0000,  0.0000)
   9 Li     0.000000    0.000000   11.617037    ( 0.0000,  0.0000,  0.0000)
  10 Li     3.234074    0.000000   11.617037    ( 0.0000,  0.0000,  0.0000)
  11 Li     6.468148    0.000000   11.617037    ( 0.0000,  0.0000,  0.0000)
  12 Li     0.000000    3.234074   11.617037    ( 0.0000,  0.0000,  0.0000)
  13 Li     3.234074    3.234074   11.617037    ( 0.0000,  0.0000,  0.0000)
  14 Li     6.468148    3.234074   11.617037    ( 0.0000,  0.0000,  0.0000)
  15 Li     0.000000    6.468148   11.617037    ( 0.0000,  0.0000,  0.0000)
  16 Li     3.234074    6.468148   11.617037    ( 0.0000,  0.0000,  0.0000)
  17 Li     6.468148    6.468148   11.617037    ( 0.0000,  0.0000,  0.0000)
  18 Li     1.640507    1.610093   13.413303    ( 0.0000,  0.0000,  0.0000)
  19 Li     4.834402    1.596317   13.438382    ( 0.0000,  0.0000,  0.0000)
  20 Li     8.057840    1.602831   13.420100    ( 0.0000,  0.0000,  0.0000)
  21 Li     1.572348    4.806501   13.530322    ( 0.0000,  0.0000,  0.0000)
  22 Li     4.849029    4.869279   13.449226    ( 0.0000,  0.0000,  0.0000)
  23 Li     8.124878    4.791295   13.532631    ( 0.0000,  0.0000,  0.0000)
  24 Li     1.588182    8.077005   13.514638    ( 0.0000,  0.0000,  0.0000)
  25 Li     4.850145    8.038036   13.449341    ( 0.0000,  0.0000,  0.0000)
  26 Li     8.127539    8.062220   13.516448    ( 0.0000,  0.0000,  0.0000)
  27 Li     0.021681    0.006556   15.543129    ( 0.0000,  0.0000,  0.0000)
  28 Li     3.300458   -0.041167   15.345063    ( 0.0000,  0.0000,  0.0000)
  29 Li     6.396869   -0.043170   15.334922    ( 0.0000,  0.0000,  0.0000)
  30 Li     0.016280    3.006912   15.578302    ( 0.0000,  0.0000,  0.0000)
  31 Li     3.289726    3.251385   15.362651    ( 0.0000,  0.0000,  0.0000)
  32 Li     6.380944    3.191474   15.360046    ( 0.0000,  0.0000,  0.0000)
  33 Li     0.020974    6.386672   15.474231    ( 0.0000,  0.0000,  0.0000)
  34 Li     3.241595    6.457719   15.447843    ( 0.0000,  0.0000,  0.0000)
  35 Li     6.460940    6.433652   15.433466    ( 0.0000,  0.0000,  0.0000)
  36 O     -0.240830    1.468229   16.942370    ( 0.0000,  0.0000,  0.0000)
  37 C      0.477371    1.440745   18.227836    ( 0.0000,  0.0000,  0.0000)
  38 C      0.028965    2.552458   19.153962    ( 0.0000,  0.0000,  0.0000)
  39 H      0.343418    0.453427   18.678895    ( 0.0000,  0.0000,  0.0000)
  40 H      1.525035    1.547810   17.941189    ( 0.0000,  0.0000,  0.0000)
  41 H      0.652996    2.552958   20.051390    ( 0.0000,  0.0000,  0.0000)
  42 H      0.121185    3.527648   18.671618    ( 0.0000,  0.0000,  0.0000)
  43 H     -1.009597    2.412921   19.463366    ( 0.0000,  0.0000,  0.0000)
  44 H     -1.209899    1.443295   17.093465    ( 0.0000,  0.0000,  0.0000)

Unit cell:
           periodic     x           y           z      points  spacing
  1. axis:    yes    9.702222    0.000000    0.000000    60     0.1617
  2. axis:    yes    0.000000    9.702222    0.000000    60     0.1617
  3. axis:    no     0.000000    0.000000   24.851111   156     0.1593

  Lengths:   9.702222   9.702222  24.851111
  Angles:   90.000000  90.000000  90.000000

Effective grid spacing dv^(1/3) = 0.1609

     iter     time        total  log10-change:
                         energy  eigst   dens
iter:   1 00:42:29  -273.107028  -2.12
iter:   2 00:47:35  -273.105051  -2.80  -2.26
iter:   3 00:52:32  -273.104480c -3.44  -2.56
iter:   4 00:57:14  -273.104272c -3.72  -2.80
Writing to output.gpw (mode='')

iter:   5 01:01:58  -273.104297c -4.10  -3.06
iter:   6 01:05:14  -273.104290c -3.70  -3.07
iter:   7 01:09:56  -273.104290c -3.65  -3.30
iter:   8 01:14:10  -273.104276c -4.38  -3.44
iter:   9 01:18:14  -273.104276c -4.62  -3.50
Writing to output.gpw (mode='')

iter:  10 01:21:56  -273.104283c -4.35  -3.71
iter:  11 01:25:42  -273.104279c -5.28  -3.75
iter:  12 01:31:23  -273.104278c -5.30  -3.93
iter:  13 01:37:03  -273.104279c -5.63  -4.02c
iter:  14 01:42:20  -273.104278c -5.36  -4.17c
Writing to output.gpw (mode='')

iter:  15 01:46:59  -273.104277c -5.81  -4.25c
iter:  16 01:50:44  -273.104277c -6.10  -4.37c
iter:  17 01:55:10  -273.104278c -6.09  -4.40c
iter:  18 01:57:41  -273.104278c -6.48  -4.55c
iter:  19 02:01:37  -273.104278c -6.57  -4.64c
Writing to output.gpw (mode='')

iter:  20 02:05:20  -273.104278c -6.45  -4.83c
iter:  21 02:09:37  -273.104278c -6.78  -4.91c
iter:  22 02:14:51  -273.104278c -6.85  -4.96c
iter:  23 02:19:16  -273.104278c -6.92  -4.97c
iter:  24 02:22:59  -273.104278c -7.18  -5.10c
Writing to output.gpw (mode='')

iter:  25 02:25:30  -273.104278c -7.21  -5.17c
iter:  26 02:28:29  -273.104278c -7.24  -5.25c
iter:  27 02:33:59  -273.104278c -7.32  -5.37c
iter:  28 02:37:44  -273.104278c -7.57c -5.48c

Converged after 28 iterations.

Dipole moment: (-7.109949, -3.672732, 0.366662) |e|*Ang

Energy contributions relative to reference atoms: (reference = -11471.411034)

Kinetic:       +128.519299
Potential:     -120.620507
External:        +0.000000
XC:            -281.166209
Entropy (-ST):   -0.146706
Local:           +0.236492
--------------------------
Free energy:   -273.177631
Extrapolated:  -273.104278

Dipole-layer corrected work functions: 3.364802, 2.659953 eV

Showing only first 2 kpts
 Kpt  Band  Eigenvalues  Occupancy
  0    26     -3.26429    1.98711
  0    27     -3.16263    1.90561
  0    28     -2.85260    0.07867
  0    29     -2.76254    0.01343

  1    26     -3.06096    1.45087
  1    27     -3.01448    1.02100
  1    28     -2.98399    0.72355
  1    29     -2.91239    0.23848


Fermi level: -3.01238

No gap
Writing to output.gpw (mode='')


Forces in eV/Ang:
  0 Li    0.00779    0.00308   -0.27102
  1 Li    0.00593    0.00195   -0.26726
  2 Li   -0.01267    0.00171   -0.27554
  3 Li    0.00111    0.00886   -0.27280
  4 Li   -0.00273    0.00788   -0.27934
  5 Li    0.00241    0.00120   -0.27273
  6 Li   -0.00041   -0.00624   -0.27452
  7 Li   -0.00197   -0.00388   -0.27619
  8 Li    0.00244    0.00298   -0.27620
  9 Li   -0.00132   -0.00747    0.28748
 10 Li    0.01222   -0.05022    0.25953
 11 Li   -0.01422   -0.05086    0.26641
 12 Li   -0.00343   -0.01430    0.26720
 13 Li    0.01800    0.03518    0.25600
 14 Li   -0.02231    0.02297    0.26292
 15 Li    0.00573   -0.02524    0.26242
 16 Li   -0.07912   -0.02099    0.28207
 17 Li    0.07469   -0.01598    0.29596
 18 Li   -0.00297   -0.00859    0.01589
 19 Li    0.01091    0.02045   -0.00563
 20 Li    0.00388   -0.01240    0.02280
 21 Li    0.01210   -0.00775   -0.00184
 22 Li    0.00178    0.00447   -0.00361
 23 Li   -0.00663    0.00374   -0.00139
 24 Li   -0.00120    0.00436    0.00496
 25 Li   -0.00241   -0.00715   -0.02054
 26 Li   -0.00129    0.01186    0.00348
 27 Li    0.00629    0.00650   -0.00581
 28 Li   -0.00124    0.01428    0.00028
 29 Li   -0.00510    0.00192    0.00562
 30 Li   -0.00788    0.00509    0.00683
 31 Li   -0.00448   -0.00561   -0.00676
 32 Li    0.00555    0.00809    0.00241
 33 Li   -0.00349    0.01471    0.00485
 34 Li   -0.00373    0.00039   -0.01104
 35 Li    0.00032    0.00469   -0.00087
 36 O     0.03336    0.02498    0.00695
 37 C     0.02953   -0.02905   -0.01289
 38 C    -0.03548   -0.00190    0.02945
 39 H    -0.01946    0.01136   -0.01591
 40 H     0.01259    0.00073    0.01393
 41 H    -0.00619   -0.00129    0.01065
 42 H     0.01850    0.00133    0.01195
 43 H     0.00410    0.02152   -0.01151
 44 H    -0.03636   -0.01617    0.00115

Timing:                                      incl.     excl.
-------------------------------------------------------------------
Density initialized from wave functions:   587.052   587.048   0.1% |
 Symmetrize density:                         0.004     0.004   0.0% |
Forces:                                    537.571   537.571   0.1% |
Hamiltonian:                             14292.100     0.055   0.0% |
 Atomic:                                     9.654     0.100   0.0% |
  XC Correction:                             9.555     9.555   0.0% |
 Calculate atomic Hamiltonians:             13.117    13.117   0.0% |
 Communicate:                              228.530   228.530   0.0% |
 Hartree integrate/restrict:                 4.766     4.766   0.0% |
 Poisson:                                  221.371   105.649   0.0% |
  Communicate from 1D:                      18.579    18.579   0.0% |
  Communicate from 2D:                      39.109    39.109   0.0% |
  Communicate to 1D:                         2.999     2.999   0.0% |
  Communicate to 2D:                        26.678    26.678   0.0% |
  FFT 1D:                                   14.628    14.628   0.0% |
  FFT 2D:                                   13.730    13.730   0.0% |
 XC 3D grid:                             13813.893   707.432   0.1% |
  VdW-DF integral:                       13106.461    10.321   0.0% |
   Convolution:                            131.916   131.916   0.0% |
   FFT:                                     52.143    52.143   0.0% |
   gather:                               11282.399 11282.399   2.0% ||
   hmm1:                                    41.029    41.029   0.0% |
   hmm2:                                    45.384    45.384   0.0% |
   iFFT:                                    53.672    53.672   0.0% |
   potential:                             1482.372     5.781   0.0% |
    collect:                               109.347   109.347   0.0% |
    p1:                                    165.630   165.630   0.0% |
    p2:                                     62.524    62.524   0.0% |
    sum:                                  1139.090  1139.090   0.2% |
   splines:                                  7.226     7.226   0.0% |
 vbar:                                       0.714     0.714   0.0% |
LCAO initialization:                         4.589     0.236   0.0% |
 LCAO eigensolver:                           1.478     0.001   0.0% |
  Calculate projections:                     0.000     0.000   0.0% |
  DenseAtomicCorrection:                     0.000     0.000   0.0% |
  Distribute overlap matrix:                 1.352     1.352   0.0% |
  Orbital Layouts:                           0.124     0.124   0.0% |
  Potential matrix:                          0.001     0.001   0.0% |
  Sum over cells:                            0.001     0.001   0.0% |
 LCAO to grid:                               2.333     2.333   0.0% |
 Set positions (LCAO WFS):                   0.541     0.380   0.0% |
  Basic WFS set positions:                   0.002     0.002   0.0% |
  Basis functions set positions:             0.000     0.000   0.0% |
  P tci:                                     0.001     0.001   0.0% |
  ST tci:                                    0.094     0.094   0.0% |
  mktci:                                     0.063     0.063   0.0% |
Redistribute:                                0.123     0.123   0.0% |
SCF-cycle:                               557816.811 57303.025  10.0% |---|
 Davidson:                               42661.744 17534.703   3.1% ||
  Apply hamiltonian:                      3419.520  3419.520   0.6% |
  Subspace diag:                          5336.789     0.865   0.0% |
   calc_h_matrix:                         3550.666   436.920   0.1% |
    Apply hamiltonian:                    3113.746  3113.746   0.5% |
   diagonalize:                            612.748   612.748   0.1% |
   rotate_psi:                            1172.510  1172.510   0.2% |
  calc. matrices:                        13820.116  5730.375   1.0% |
   Apply hamiltonian:                     8089.741  8089.741   1.4% ||
  diagonalize:                              18.171    18.171   0.0% |
  rotate_psi:                             2532.445  2532.445   0.4% |
 Density:                                 2548.879     0.157   0.0% |
  Atomic density matrices:                1510.482  1510.482   0.3% |
  Mix:                                     360.660   360.660   0.1% |
  Multipole moments:                         6.055     6.055   0.0% |
  Pseudo density:                          671.526   671.382   0.1% |
   Symmetrize density:                       0.144     0.144   0.0% |
 Hamiltonian:                            455238.335     0.888   0.0% |
  Atomic:                                  308.676     3.336   0.0% |
   XC Correction:                          305.339   305.339   0.1% |
  Calculate atomic Hamiltonians:           373.881   373.881   0.1% |
  Communicate:                            8542.172  8542.172   1.5% ||
  Hartree integrate/restrict:              154.789   154.789   0.0% |
  Poisson:                                6714.772  3277.043   0.6% |
   Communicate from 1D:                    593.782   593.782   0.1% |
   Communicate from 2D:                   1099.499  1099.499   0.2% |
   Communicate to 1D:                       92.040    92.040   0.0% |
   Communicate to 2D:                      748.502   748.502   0.1% |
   FFT 1D:                                 465.297   465.297   0.1% |
   FFT 2D:                                 438.609   438.609   0.1% |
  XC 3D grid:                            439123.152 23583.865   4.1% |-|
   VdW-DF integral:                      415539.286   314.126   0.1% |
    Convolution:                          4043.921  4043.921   0.7% |
    FFT:                                  1563.527  1563.527   0.3% |
    gather:                              361792.975 361792.975  63.0% |------------------------|
    hmm1:                                 1222.918  1222.918   0.2% |
    hmm2:                                 1338.938  1338.938   0.2% |
    iFFT:                                 1695.989  1695.989   0.3% |
    potential:                           43566.780   174.790   0.0% |
     collect:                             2855.200  2855.200   0.5% |
     p1:                                  5227.522  5227.522   0.9% |
     p2:                                  1970.554  1970.554   0.3% |
     sum:                                33338.713 33338.713   5.8% |-|
    splines:                                 0.112     0.112   0.0% |
  vbar:                                     20.006    20.006   0.0% |
 Orthonormalize:                            64.828     0.021   0.0% |
  calc_s_matrix:                             8.148     8.148   0.0% |
  inverse-cholesky:                         38.714    38.714   0.0% |
  projections:                               0.007     0.007   0.0% |
  rotate_psi_s:                             17.938    17.938   0.0% |
Set symmetry:                                0.012     0.012   0.0% |
Other:                                     929.023   929.023   0.2% |
-------------------------------------------------------------------
Total:                                             574167.280 100.0%

Memory usage: 1.39 GiB
Date: Wed Mar 15 02:37:54 2023
