
  ___ ___ ___ _ _ _  
 |   |   |_  | | | | 
 | | | | | . | | | | 
 |__ |  _|___|_____|  22.8.0
 |___|_|             

User:   vazumah@r464.ib.bridges2.psc.edu
Date:   Fri Mar 10 10:03:24 2023
Arch:   x86_64
Pid:    59597
CWD:    /jet/home/vazumah/Calcs/LiMEAS/proton_donors/butanol_y/ontop/9.702_9.702/N2_x
Python: 3.11.0
gpaw:   /jet/home/vazumah/.conda/envs/GPAW_mpich/lib/python3.11/site-packages/gpaw
_gpaw:  /jet/home/vazumah/.conda/envs/GPAW_mpich/lib/python3.11/site-packages/
        _gpaw.cpython-311-x86_64-linux-gnu.so
ase:    /jet/home/vazumah/.conda/envs/GPAW_mpich/lib/python3.11/site-packages/ase (version 3.22.1)
numpy:  /jet/home/vazumah/.conda/envs/GPAW_mpich/lib/python3.11/site-packages/numpy (version 1.24.2)
scipy:  /jet/home/vazumah/.conda/envs/GPAW_mpich/lib/python3.11/site-packages/scipy (version 1.10.1)
libxc:  5.2.3
units:  Angstrom and eV
cores: 128
OpenMP: True
OMP_NUM_THREADS: 1

Input parameters:
  h: 0.16
  kpts: {size: [4, 4, 1]}
  occupations: {name: fermi-dirac,
                width: 0.05}
  poissonsolver: {dipolelayer: xy}
  xc: BEEF-vdW

System changes: positions, numbers, cell, pbc, initial_charges, initial_magmoms 

Initialize ...

species:
  Li:
    name: Lithium
    id: 830b4218f175192f93f959cfc0aad614
    Z: 3.0
    valence: 1
    core: 2
    charge: 0.0
    file: /jet/home/vazumah/datasets/gpaw-setups-0.9.20000/Li.PBE.gz
    compensation charges: {type: gauss,
                           rc: 0.33,
                           lmax: 2}
    cutoffs: {filter: 1.91,
              core: 2.55}
    valence states:
      #              energy  rcut
      - 2s(1.00)    -2.874   1.058
      - 2p(0.00)    -1.090   1.058
      -  s          24.337   1.058
  
    # Using partial waves for Li as LCAO basis

  O:
    name: Oxygen
    id: 32ecd46bf208036f09c70b0ec9a88b78
    Z: 8.0
    valence: 6
    core: 2
    charge: 0.0
    file: /jet/home/vazumah/datasets/gpaw-setups-0.9.20000/O.PBE.gz
    compensation charges: {type: gauss,
                           rc: 0.21,
                           lmax: 2}
    cutoffs: {filter: 1.17,
              core: 0.83}
    valence states:
      #              energy  rcut
      - 2s(2.00)   -23.961   0.688
      - 2p(4.00)    -9.029   0.598
      -  s           3.251   0.688
      -  p          18.182   0.598
      -  d           0.000   0.619
  
    # Using partial waves for O as LCAO basis

  C:
    name: Carbon
    id: 4aa54d4b901d75f77cc0ea3eec22967b
    Z: 6.0
    valence: 4
    core: 2
    charge: 0.0
    file: /jet/home/vazumah/datasets/gpaw-setups-0.9.20000/C.PBE.gz
    compensation charges: {type: gauss,
                           rc: 0.20,
                           lmax: 2}
    cutoffs: {filter: 1.14,
              core: 1.14}
    valence states:
      #              energy  rcut
      - 2s(2.00)   -13.751   0.635
      - 2p(2.00)    -5.284   0.635
      -  s          13.461   0.635
      -  p          21.927   0.635
      -  d           0.000   0.635
  
    # Using partial waves for C as LCAO basis

  H:
    name: Hydrogen
    id: d65de229564ff8ea4db303e23b6d1ecf
    Z: 1.0
    valence: 1
    core: 0
    charge: 0.0
    file: /jet/home/vazumah/datasets/gpaw-setups-0.9.20000/H.PBE.gz
    compensation charges: {type: gauss,
                           rc: 0.15,
                           lmax: 2}
    cutoffs: {filter: 0.85,
              core: 0.53}
    valence states:
      #              energy  rcut
      - 1s(1.00)    -6.494   0.476
      -  s          20.717   0.476
      -  p           0.000   0.476
  
    # Using partial waves for H as LCAO basis

  N:
    name: Nitrogen
    id: f7500608b86eaa90eef8b1d9a670dc53
    Z: 7.0
    valence: 5
    core: 2
    charge: 0.0
    file: /jet/home/vazumah/datasets/gpaw-setups-0.9.20000/N.PBE.gz
    compensation charges: {type: gauss,
                           rc: 0.18,
                           lmax: 2}
    cutoffs: {filter: 1.11,
              core: 0.96}
    valence states:
      #              energy  rcut
      - 2s(2.00)   -18.583   0.603
      - 2p(3.00)    -7.089   0.529
      -  s           8.629   0.603
      -  p          20.123   0.529
      -  d           0.000   0.577
  
    # Using partial waves for N as LCAO basis

Reference energy: -16540.070923  # eV

Spin-paired calculation

Convergence criteria:
 Maximum [total energy] change in last 3 cyles: 0.0005 eV / electron
 Maximum integral of absolute [dens]ity change: 0.0001 electrons / valence electron
 Maximum integral of absolute [eigenst]ate change: 4e-08 eV^2 / valence electron
 Maximum number of scf [iter]ations: 333
 (Square brackets indicate name in SCF output, whereas a 'c' in
 the SCF output indicates the quantity has converged.)

Symmetries present (total): 1

  ( 1  0  0)
  ( 0  1  0)
  ( 0  0  1)

16 k-points: 4 x 4 x 1 Monkhorst-Pack grid
8 k-points in the irreducible part of the Brillouin zone
       k-points in crystal coordinates                weights
   0:     0.12500000   -0.37500000    0.00000000          2/16
   1:     0.12500000   -0.12500000    0.00000000          2/16
   2:     0.12500000    0.12500000    0.00000000          2/16
   3:     0.12500000    0.37500000    0.00000000          2/16
   4:     0.37500000   -0.37500000    0.00000000          2/16
   5:     0.37500000   -0.12500000    0.00000000          2/16
   6:     0.37500000    0.12500000    0.00000000          2/16
   7:     0.37500000    0.37500000    0.00000000          2/16

Wave functions: Uniform real-space grid
  Kinetic energy operator: 6*3+1=19 point O(h^6) finite-difference Laplacian
  ScaLapack parameters: grid=1x1, blocksize=None
  Wavefunction extrapolation:
    Improved wavefunction reuse through dual PAW basis 

Occupation numbers: Fermi-Dirac:
  width: 0.0500  # eV
 

Eigensolver
   Davidson(niter=2) 

Densities:
  Coarse grid: 60*60*164 grid
  Fine grid: 120*120*328 grid
  Total Charge: 0.000000 

Density mixing:
  Method: separate
  Backend: pulay
  Linear mixing parameter: 0.05
  old densities: 5
  Damping of long wavelength oscillations: 50 

Hamiltonian:
  XC and Coulomb potentials evaluated on a 120*120*328 grid
  Using the BEEF-vdW Exchange-Correlation functional
  Interpolation: tri-quintic (5. degree polynomial)
  Poisson solver: FastPoissonSolver using
    Stencil: 6*3+1=19 point O(h^6) finite-difference Laplacian
    FFT axes: [0, 1]
    FST axes: [2]

Dipole correction along z-axis 

XC parameters: BEEF-vdW with 2 nearest neighbor stencil

Memory estimate:
  Process memory now: 129.30 MiB
  Calculator: 88.32 MiB
    Density: 22.73 MiB
      Arrays: 7.22 MiB
      Localized functions: 12.76 MiB
      Mixer: 2.75 MiB
    Hamiltonian: 5.73 MiB
      Arrays: 4.72 MiB
      XC: 0.00 MiB
      Poisson: 0.00 MiB
      vbar: 1.01 MiB
    Wavefunctions: 59.86 MiB
      Arrays psit_nG: 28.02 MiB
      Eigensolver: 31.16 MiB
      Projections: 0.02 MiB
      Projectors: 0.67 MiB

Total number of cores used: 128
Parallelization over k-points: 8
Domain decomposition: 2 x 2 x 4

Number of atoms: 53
Number of atomic orbitals: 182
Number of bands in calculation: 51
Number of valence electrons: 78
Bands to converge: occupied

... initialized

Initializing position-dependent things.

Density initialized from atomic densities
Creating initial wave functions:
  51 bands from LCAO basis set

       .-----------------------.  
      /|                       |  
     / |                       |  
    /  |                       |  
   /   |                       |  
  /    |                       |  
 *     |                       |  
 |     |                       |  
 |     |                       |  
 |     |                       |  
 |     |                       |  
 |     |                  H N  N  
 |    HH                    C  |  
 |   C |                 H     |  
 |   H H                  CH   |  
 |  CLi|     Li      Li  H     |  
 |   H |                HO     |  
 | Li  |  LLi     LLi     Li   |  
 |     |                       |  
 Li    |LLi     LLi     Li     |  
 |   Li|     Li      Li        |  
 |    Li  Li  Li  Li  Li  Li   |  
 | Li  |   Li      Li          |  
 |     |Li      Li      Li     |  
 Li    | Li      Li            |  
 |    Li      Li      Li       |  
 |     |                       |  
 |     |                       |  
 |     |                       |  
 |     |                       |  
 |     |                       |  
 |     |                       |  
 |     .-----------------------.  
 |    /                       /   
 |   /                       /    
 |  /                       /     
 | /                       /      
 |/                       /       
 *-----------------------*        

Positions:
   0 Li     1.617037    1.617037   10.000000    ( 0.0000,  0.0000,  0.0000)
   1 Li     4.851111    1.617037   10.000000    ( 0.0000,  0.0000,  0.0000)
   2 Li     8.085185    1.617037   10.000000    ( 0.0000,  0.0000,  0.0000)
   3 Li     1.617037    4.851111   10.000000    ( 0.0000,  0.0000,  0.0000)
   4 Li     4.851111    4.851111   10.000000    ( 0.0000,  0.0000,  0.0000)
   5 Li     8.085185    4.851111   10.000000    ( 0.0000,  0.0000,  0.0000)
   6 Li     1.617037    8.085185   10.000000    ( 0.0000,  0.0000,  0.0000)
   7 Li     4.851111    8.085185   10.000000    ( 0.0000,  0.0000,  0.0000)
   8 Li     8.085185    8.085185   10.000000    ( 0.0000,  0.0000,  0.0000)
   9 Li     0.000000    0.000000   11.617037    ( 0.0000,  0.0000,  0.0000)
  10 Li     3.234074    0.000000   11.617037    ( 0.0000,  0.0000,  0.0000)
  11 Li     6.468148    0.000000   11.617037    ( 0.0000,  0.0000,  0.0000)
  12 Li     0.000000    3.234074   11.617037    ( 0.0000,  0.0000,  0.0000)
  13 Li     3.234074    3.234074   11.617037    ( 0.0000,  0.0000,  0.0000)
  14 Li     6.468148    3.234074   11.617037    ( 0.0000,  0.0000,  0.0000)
  15 Li     0.000000    6.468148   11.617037    ( 0.0000,  0.0000,  0.0000)
  16 Li     3.234074    6.468148   11.617037    ( 0.0000,  0.0000,  0.0000)
  17 Li     6.468148    6.468148   11.617037    ( 0.0000,  0.0000,  0.0000)
  18 Li     1.617038    1.617038   13.469728    ( 0.0000,  0.0000,  0.0000)
  19 Li     4.851111    1.617038   13.469729    ( 0.0000,  0.0000,  0.0000)
  20 Li     8.085184    1.617038   13.469728    ( 0.0000,  0.0000,  0.0000)
  21 Li     1.617038    4.851111   13.469729    ( 0.0000,  0.0000,  0.0000)
  22 Li     4.851111    4.851111   13.469730    ( 0.0000,  0.0000,  0.0000)
  23 Li     8.085184    4.851111   13.469729    ( 0.0000,  0.0000,  0.0000)
  24 Li     1.617038    8.085184   13.469728    ( 0.0000,  0.0000,  0.0000)
  25 Li     4.851111    8.085184   13.469729    ( 0.0000,  0.0000,  0.0000)
  26 Li     8.085184    8.085184   13.469728    ( 0.0000,  0.0000,  0.0000)
  27 Li    -0.000000   -0.000000   15.445939    ( 0.0000,  0.0000,  0.0000)
  28 Li     3.234074    0.000000   15.445939    ( 0.0000,  0.0000,  0.0000)
  29 Li     6.468148    0.000000   15.445939    ( 0.0000,  0.0000,  0.0000)
  30 Li     0.000000    3.234074   15.445939    ( 0.0000,  0.0000,  0.0000)
  31 Li     3.234076    3.234076   15.445938    ( 0.0000,  0.0000,  0.0000)
  32 Li     6.468146    3.234076   15.445938    ( 0.0000,  0.0000,  0.0000)
  33 Li     0.000000    6.468148   15.445939    ( 0.0000,  0.0000,  0.0000)
  34 Li     3.234076    6.468146   15.445938    ( 0.0000,  0.0000,  0.0000)
  35 Li     6.468146    6.468146   15.445938    ( 0.0000,  0.0000,  0.0000)
  36 O      9.702222    9.702222   18.445939    ( 0.0000,  0.0000,  0.0000)
  37 C      9.689881   12.169281   18.481765    ( 0.0000,  0.0000,  0.0000)
  38 C     10.544933   13.438843   18.468355    ( 0.0000,  0.0000,  0.0000)
  39 C     10.512701   10.886705   18.446147    ( 0.0000,  0.0000,  0.0000)
  40 C      9.693947   14.711553   18.452726    ( 0.0000,  0.0000,  0.0000)
  41 H      9.056712   12.154483   19.375259    ( 0.0000,  0.0000,  0.0000)
  42 H      9.019693   12.182598   17.610409    ( 0.0000,  0.0000,  0.0000)
  43 H     11.204008   13.425881   17.592145    ( 0.0000,  0.0000,  0.0000)
  44 H     11.201097   13.443746   19.346325    ( 0.0000,  0.0000,  0.0000)
  45 H     11.178268   10.893259   17.572008    ( 0.0000,  0.0000,  0.0000)
  46 H     11.136016   10.802189   19.340765    ( 0.0000,  0.0000,  0.0000)
  47 H      9.051467   14.739139   17.568683    ( 0.0000,  0.0000,  0.0000)
  48 H      9.043934   14.756870   19.330177    ( 0.0000,  0.0000,  0.0000)
  49 H     10.307673   15.614727   18.446581    ( 0.0000,  0.0000,  0.0000)
  50 H      9.113123    9.751532   17.683760    ( 0.0000,  0.0000,  0.0000)
  51 N      9.702000    9.702000   16.945939    ( 0.0000,  0.0000,  0.0000)
  52 N      8.605378    9.702000   16.945939    ( 0.0000,  0.0000,  0.0000)

Unit cell:
           periodic     x           y           z      points  spacing
  1. axis:    yes    9.702222    0.000000    0.000000    60     0.1617
  2. axis:    yes    0.000000    9.702222    0.000000    60     0.1617
  3. axis:    no     0.000000    0.000000   26.351111   164     0.1607

  Lengths:   9.702222   9.702222  26.351111
  Angles:   90.000000  90.000000  90.000000

Effective grid spacing dv^(1/3) = 0.1614

     iter     time        total  log10-change:
                         energy  eigst   dens
iter:   1 10:03:39  -643.768649
iter:   2 10:03:47  -103.560302  +2.74  +0.01
iter:   3 10:03:54  -157.041920  +3.12  -0.23
iter:   4 10:04:01  -258.928474  +2.92  -0.36
Writing to output.gpw (mode='')

iter:   5 10:04:09  -300.669617  +2.55  -0.45
iter:   6 10:04:16  -341.134690  +2.30  -0.66
iter:   7 10:04:24  -363.189537  +2.07  -0.64
iter:   8 10:04:31  -368.093974  +1.71  -0.59
iter:   9 10:04:45  -401.836373  +1.98  -0.59
Writing to output.gpw (mode='')

iter:  10 10:04:54  -392.252435  +1.42  -0.54
iter:  11 10:05:01  -408.485495  +1.59  -0.54
iter:  12 10:05:09  -418.782265  +1.72  -0.49
iter:  13 10:05:16  -352.720860  +1.47  -0.44
iter:  14 10:05:24  -352.989972  +1.10  -0.69
Writing to output.gpw (mode='')

iter:  15 10:05:31  -348.284332  +0.62  -0.70
iter:  16 10:05:39  -346.717053  +0.75  -0.85
iter:  17 10:05:46  -346.312152  +0.57  -1.00
iter:  18 10:05:54  -345.495368  +0.43  -1.06
iter:  19 10:06:01  -345.249562  -0.23  -1.15
Writing to output.gpw (mode='')

iter:  20 10:06:09  -344.995244  -0.31  -1.22
iter:  21 10:06:17  -345.024310  -0.11  -1.41
iter:  22 10:06:24  -345.031875c -0.43  -1.47
iter:  23 10:06:31  -345.016384c -0.44  -1.60
iter:  24 10:06:39  -344.938150  -0.73  -1.56
Writing to output.gpw (mode='')

iter:  25 10:06:47  -344.948077  -1.05  -1.99
iter:  26 10:06:55  -344.951833c -1.07  -2.02
iter:  27 10:07:02  -344.963323c -1.22  -2.10
iter:  28 10:07:10  -344.967240c -1.41  -2.09
iter:  29 10:07:17  -344.973686c -1.67  -2.20
Writing to output.gpw (mode='')

iter:  30 10:07:25  -344.981187c -1.59  -2.14
iter:  31 10:07:32  -344.984516c -1.91  -2.25
iter:  32 10:07:40  -344.983998c -1.77  -2.26
iter:  33 10:07:48  -344.989833c -1.61  -2.29
iter:  34 10:07:55  -344.995177c -1.75  -2.22
Writing to output.gpw (mode='')

iter:  35 10:08:03  -344.997589c -1.80  -2.19
iter:  36 10:08:10  -344.998579c -1.89  -2.19
iter:  37 10:08:18  -344.998334c -2.05  -2.21
iter:  38 10:08:26  -344.997065c -2.06  -2.13
iter:  39 10:08:33  -345.001278c -1.95  -2.17
Writing to output.gpw (mode='')

iter:  40 10:08:41  -344.998677c -2.54  -2.35
iter:  41 10:08:48  -344.999556c -2.66  -2.42
iter:  42 10:08:56  -344.999440c -2.55  -2.40
iter:  43 10:09:03  -345.000577c -2.50  -2.41
iter:  44 10:09:11  -345.000326c -2.93  -2.37
Writing to output.gpw (mode='')

iter:  45 10:09:19  -345.001995c -2.78  -2.37
iter:  46 10:09:26  -345.002482c -2.88  -2.35
iter:  47 10:09:34  -345.003563c -2.81  -2.33
iter:  48 10:09:47  -345.002508c -2.99  -2.29
iter:  49 10:09:55  -345.001445c -2.71  -2.35
Writing to output.gpw (mode='')

iter:  50 10:10:03  -345.000656c -3.15  -2.48
iter:  51 10:10:11  -345.000765c -2.81  -2.52
iter:  52 10:10:18  -345.001002c -3.01  -2.57
iter:  53 10:10:26  -345.001266c -2.73  -2.86
iter:  54 10:10:33  -345.001102c -3.20  -2.93
Writing to output.gpw (mode='')

iter:  55 10:10:41  -345.001302c -3.67  -2.97
iter:  56 10:10:49  -345.001293c -3.47  -3.04
iter:  57 10:10:56  -345.001303c -4.01  -3.19
iter:  58 10:11:04  -345.001283c -4.10  -3.30
iter:  59 10:11:11  -345.001328c -3.87  -3.33
Writing to output.gpw (mode='')

iter:  60 10:11:19  -345.001302c -4.19  -3.35
iter:  61 10:11:28  -345.001294c -3.91  -3.42
iter:  62 10:11:38  -345.001330c -4.09  -3.45
iter:  63 10:11:51  -345.001292c -4.42  -3.71
iter:  64 10:11:59  -345.001320c -4.62  -3.76
Writing to output.gpw (mode='')

iter:  65 10:12:06  -345.001310c -4.34  -3.86
iter:  66 10:12:14  -345.001326c -4.48  -3.99
iter:  67 10:12:21  -345.001328c -4.85  -4.05c
iter:  68 10:12:29  -345.001332c -4.85  -4.08c
iter:  69 10:12:37  -345.001337c -5.04  -4.15c
Writing to output.gpw (mode='')

iter:  70 10:12:44  -345.001340c -5.15  -4.23c
iter:  71 10:12:51  -345.001353c -5.01  -4.28c
iter:  72 10:12:59  -345.001350c -5.28  -4.40c
iter:  73 10:13:07  -345.001351c -5.08  -4.53c
iter:  74 10:13:15  -345.001351c -5.05  -4.55c
Writing to output.gpw (mode='')

iter:  75 10:13:22  -345.001357c -5.38  -4.58c
iter:  76 10:13:30  -345.001358c -5.42  -4.79c
iter:  77 10:13:37  -345.001359c -5.55  -4.98c
iter:  78 10:13:45  -345.001358c -5.68  -4.96c
iter:  79 10:13:52  -345.001359c -5.67  -4.93c
Writing to output.gpw (mode='')

iter:  80 10:14:00  -345.001360c -5.74  -4.86c
iter:  81 10:14:08  -345.001360c -5.80  -4.97c
iter:  82 10:14:15  -345.001361c -5.71  -5.08c
iter:  83 10:14:23  -345.001361c -5.85  -5.08c
iter:  84 10:14:31  -345.001361c -5.80  -5.06c
Writing to output.gpw (mode='')

iter:  85 10:14:45  -345.001362c -5.96  -5.09c
iter:  86 10:14:54  -345.001361c -6.14  -4.99c
iter:  87 10:15:01  -345.001362c -6.36  -4.90c
iter:  88 10:15:09  -345.001362c -6.34  -5.07c
iter:  89 10:15:17  -345.001362c -6.20  -5.08c
Writing to output.gpw (mode='')

iter:  90 10:15:24  -345.001363c -6.25  -5.06c
iter:  91 10:15:32  -345.001366c -6.49  -5.11c
iter:  92 10:15:40  -345.001365c -6.59  -5.20c
iter:  93 10:15:47  -345.001365c -6.51  -5.27c
iter:  94 10:15:55  -345.001366c -6.63  -5.32c
Writing to output.gpw (mode='')

iter:  95 10:16:02  -345.001365c -6.69  -5.49c
iter:  96 10:16:10  -345.001366c -6.73  -5.52c
iter:  97 10:16:18  -345.001366c -6.81  -5.68c
iter:  98 10:16:25  -345.001366c -6.82  -5.70c
iter:  99 10:16:33  -345.001366c -6.77  -5.74c
Writing to output.gpw (mode='')

iter: 100 10:16:41  -345.001366c -6.88  -5.79c
iter: 101 10:16:48  -345.001366c -7.01  -5.85c
iter: 102 10:16:56  -345.001366c -7.04  -6.02c
iter: 103 10:17:03  -345.001366c -7.04  -6.04c
iter: 104 10:17:11  -345.001366c -7.14  -6.08c
Writing to output.gpw (mode='')

iter: 105 10:17:18  -345.001367c -7.20  -6.15c
iter: 106 10:17:26  -345.001367c -7.23  -6.19c
iter: 107 10:17:36  -345.001367c -7.25  -6.30c
iter: 108 10:17:43  -345.001367c -7.42c -6.44c

Converged after 108 iterations.

Dipole moment: (-15.035390, -18.296480, 0.269959) |e|*Ang

Energy contributions relative to reference atoms: (reference = -16540.070923)

Kinetic:       +255.410146
Potential:     -223.875798
External:        +0.000000
XC:            -377.327249
Entropy (-ST):   -0.158347
Local:           +0.870708
--------------------------
Free energy:   -345.080540
Extrapolated:  -345.001367

Dipole-layer corrected work functions: 3.413447, 2.894493 eV

Showing only first 2 kpts
 Kpt  Band  Eigenvalues  Occupancy
  0    37     -3.39944    1.98536
  0    38     -3.30246    1.90237
  0    39     -3.06899    0.30903
  0    40     -2.91729    0.01744

  1    37     -3.23312    1.65927
  1    38     -3.14321    0.89286
  1    39     -3.09208    0.44963
  1    40     -3.02905    0.15193


Fermi level: -3.15397

No gap
Writing to output.gpw (mode='')


Forces in eV/Ang:
  0 Li    0.01714    0.00245   -0.27719
  1 Li   -0.00666   -0.00031   -0.27132
  2 Li   -0.00648    0.01555   -0.27679
  3 Li   -0.00379    0.00279   -0.26234
  4 Li    0.00061   -0.00182   -0.28521
  5 Li   -0.00102    0.00054   -0.26585
  6 Li    0.01287   -0.00598   -0.27843
  7 Li   -0.00899    0.00239   -0.27078
  8 Li   -0.00250   -0.01653   -0.27701
  9 Li   -0.00533   -0.00381    0.33525
 10 Li   -0.00292   -0.00068    0.24592
 11 Li    0.00114    0.00467    0.28167
 12 Li    0.00146    0.01921    0.25203
 13 Li    0.00252   -0.00741    0.25163
 14 Li   -0.00023    0.00501    0.25742
 15 Li   -0.00051   -0.01381    0.25453
 16 Li    0.01109    0.00845    0.25307
 17 Li   -0.00414   -0.01019    0.25636
 18 Li   -0.00824    0.02009   -0.00460
 19 Li    0.00514   -0.02532    0.07678
 20 Li    0.00369    0.04212   -0.07312
 21 Li   -0.00271   -0.00152    0.06167
 22 Li   -0.01382    0.00239    0.01476
 23 Li    0.01244   -0.00051    0.07728
 24 Li   -0.00334   -0.01528    0.00113
 25 Li    0.01648    0.02331    0.05663
 26 Li   -0.01308   -0.04116   -0.07672
 27 Li    0.59609   -0.04060   -6.94742
 28 Li    0.06155   -0.02411   -0.07879
 29 Li    0.24324   -0.00380    0.21362
 30 Li    0.01127    0.11225   -0.25677
 31 Li    0.07239    0.00859   -0.10863
 32 Li   -0.07664    0.04788   -0.06087
 33 Li    0.02655   -0.04218   -0.11336
 34 Li    0.02088    0.00678   -0.04486
 35 Li   -0.05428   -0.03827   -0.04426
 36 O    11.56102   -0.04377   14.82843
 37 C    -0.06749   -0.04809    0.02613
 38 C     0.00722    0.01173    0.28251
 39 C     1.45399    1.47770    2.68543
 40 C     0.06045   -0.06165    0.15199
 41 H    -0.10681    0.04085   -0.10052
 42 H    -0.18532    0.04497    0.07260
 43 H     0.07848    0.03474   -0.07145
 44 H     0.03780    0.00299   -0.03873
 45 H     0.05687   -0.03895    0.36004
 46 H     0.12897    0.29269    0.04318
 47 H    -0.10447   -0.00542   -0.04441
 48 H    -0.03983    0.00996    0.01135
 49 H     0.08441    0.01051    0.01527
 50 H    -7.45727    1.97693   16.28884
 51 N    17.48181   -2.91976   -8.69545
 52 N   -23.83886   -0.83051  -18.41401

System changes: positions 

Initializing position-dependent things.

Density initialized from wave functions
       .-----------------------.  
      /|                       |  
     / |                       |  
    /  |                       |  
   /   |                       |  
  /    |                       |  
 *     |                       |  
 |     |                       |  
 |     |                       |  
 |     |                       |  
 |     O                       |  
 |     N                  H N  |  
 |    HH                    C  |  
 |   C Li      Li      LiH     |  
 |   H H                  CH   |  
 |  CLi|     Li      Li  H     |  
 |   H |                H      |  
 | Li  |  LLi     LLi     Li   |  
 |     |                       |  
 |     |Li      Li      Li     |  
 |   Li|     Li      Li        |  
 |    Li  Li  Li  Li  Li  Li   |  
 | Li  |   Li      Li          |  
 |     |Li      Li      Li     |  
 Li    | Li      Li            |  
 |    Li      Li      Li       |  
 |     |                       |  
 |     |                       |  
 |     |                       |  
 |     |                       |  
 |     |                       |  
 |     |                       |  
 |     .-----------------------.  
 |    /                       /   
 |   /                       /    
 |  /                       /     
 | /                       /      
 |/                       /       
 *-----------------------*        

Positions:
   0 Li     1.617037    1.617037   10.000000    ( 0.0000,  0.0000,  0.0000)
   1 Li     4.851111    1.617037   10.000000    ( 0.0000,  0.0000,  0.0000)
   2 Li     8.085185    1.617037   10.000000    ( 0.0000,  0.0000,  0.0000)
   3 Li     1.617037    4.851111   10.000000    ( 0.0000,  0.0000,  0.0000)
   4 Li     4.851111    4.851111   10.000000    ( 0.0000,  0.0000,  0.0000)
   5 Li     8.085185    4.851111   10.000000    ( 0.0000,  0.0000,  0.0000)
   6 Li     1.617037    8.085185   10.000000    ( 0.0000,  0.0000,  0.0000)
   7 Li     4.851111    8.085185   10.000000    ( 0.0000,  0.0000,  0.0000)
   8 Li     8.085185    8.085185   10.000000    ( 0.0000,  0.0000,  0.0000)
   9 Li     0.000000    0.000000   11.617037    ( 0.0000,  0.0000,  0.0000)
  10 Li     3.234074    0.000000   11.617037    ( 0.0000,  0.0000,  0.0000)
  11 Li     6.468148    0.000000   11.617037    ( 0.0000,  0.0000,  0.0000)
  12 Li     0.000000    3.234074   11.617037    ( 0.0000,  0.0000,  0.0000)
  13 Li     3.234074    3.234074   11.617037    ( 0.0000,  0.0000,  0.0000)
  14 Li     6.468148    3.234074   11.617037    ( 0.0000,  0.0000,  0.0000)
  15 Li     0.000000    6.468148   11.617037    ( 0.0000,  0.0000,  0.0000)
  16 Li     3.234074    6.468148   11.617037    ( 0.0000,  0.0000,  0.0000)
  17 Li     6.468148    6.468148   11.617037    ( 0.0000,  0.0000,  0.0000)
  18 Li     1.617027    1.617065   13.469722    ( 0.0000,  0.0000,  0.0000)
  19 Li     4.851118    1.617005   13.469831    ( 0.0000,  0.0000,  0.0000)
  20 Li     8.085189    1.617094   13.469631    ( 0.0000,  0.0000,  0.0000)
  21 Li     1.617035    4.851109   13.469811    ( 0.0000,  0.0000,  0.0000)
  22 Li     4.851093    4.851114   13.469750    ( 0.0000,  0.0000,  0.0000)
  23 Li     8.085200    4.851110   13.469832    ( 0.0000,  0.0000,  0.0000)
  24 Li     1.617034    8.085164   13.469729    ( 0.0000,  0.0000,  0.0000)
  25 Li     4.851133    8.085215   13.469805    ( 0.0000,  0.0000,  0.0000)
  26 Li     8.085167    8.085129   13.469626    ( 0.0000,  0.0000,  0.0000)
  27 Li     0.000791   -0.000054   15.436717    ( 0.0000,  0.0000,  0.0000)
  28 Li     3.234155   -0.000032   15.445834    ( 0.0000,  0.0000,  0.0000)
  29 Li     6.468471   -0.000005   15.446222    ( 0.0000,  0.0000,  0.0000)
  30 Li     0.000015    3.234223   15.445598    ( 0.0000,  0.0000,  0.0000)
  31 Li     3.234173    3.234088   15.445794    ( 0.0000,  0.0000,  0.0000)
  32 Li     6.468044    3.234140   15.445857    ( 0.0000,  0.0000,  0.0000)
  33 Li     0.000035    6.468092   15.445788    ( 0.0000,  0.0000,  0.0000)
  34 Li     3.234104    6.468155   15.445878    ( 0.0000,  0.0000,  0.0000)
  35 Li     6.468073    6.468095   15.445879    ( 0.0000,  0.0000,  0.0000)
  36 O      9.717568    9.702164   18.465623    ( 0.0000,  0.0000,  0.0000)
  37 C      9.689792   12.169217   18.481800    ( 0.0000,  0.0000,  0.0000)
  38 C     10.544943   13.438858   18.468730    ( 0.0000,  0.0000,  0.0000)
  39 C     10.514631   10.888667   18.449711    ( 0.0000,  0.0000,  0.0000)
  40 C      9.694028   14.711471   18.452927    ( 0.0000,  0.0000,  0.0000)
  41 H      9.056570   12.154537   19.375125    ( 0.0000,  0.0000,  0.0000)
  42 H      9.019447   12.182658   17.610505    ( 0.0000,  0.0000,  0.0000)
  43 H     11.204113   13.425928   17.592050    ( 0.0000,  0.0000,  0.0000)
  44 H     11.201147   13.443750   19.346274    ( 0.0000,  0.0000,  0.0000)
  45 H     11.178343   10.893207   17.572486    ( 0.0000,  0.0000,  0.0000)
  46 H     11.136187   10.802578   19.340822    ( 0.0000,  0.0000,  0.0000)
  47 H      9.051328   14.739132   17.568624    ( 0.0000,  0.0000,  0.0000)
  48 H      9.043881   14.756883   19.330192    ( 0.0000,  0.0000,  0.0000)
  49 H     10.307785   15.614741   18.446601    ( 0.0000,  0.0000,  0.0000)
  50 H      9.103224    9.754157   17.705382    ( 0.0000,  0.0000,  0.0000)
  51 N      9.725205    9.698124   16.934397    ( 0.0000,  0.0000,  0.0000)
  52 N      8.573734    9.700898   16.921497    ( 0.0000,  0.0000,  0.0000)

Unit cell:
           periodic     x           y           z      points  spacing
  1. axis:    yes    9.702222    0.000000    0.000000    60     0.1617
  2. axis:    yes    0.000000    9.702222    0.000000    60     0.1617
  3. axis:    no     0.000000    0.000000   26.351111   164     0.1607

  Lengths:   9.702222   9.702222  26.351111
  Angles:   90.000000  90.000000  90.000000

Effective grid spacing dv^(1/3) = 0.1614

     iter     time        total  log10-change:
                         energy  eigst   dens
iter:   1 10:17:53  -349.601833  -0.16
iter:   2 10:18:00  -347.966539  -0.42  -1.29
iter:   3 10:18:08  -347.481025  -0.37  -1.27
iter:   4 10:18:16  -347.367628  -1.49  -1.56
Writing to output.gpw (mode='')

iter:   5 10:18:23  -348.382335  -0.48  -1.91
iter:   6 10:18:31  -347.397066  -0.67  -1.44
iter:   7 10:18:39  -347.408563  -1.32  -1.90
iter:   8 10:18:47  -347.313596  -1.87  -1.91
iter:   9 10:18:54  -347.311583  -2.14  -2.48
Writing to output.gpw (mode='')

iter:  10 10:19:02  -347.318882c -2.19  -2.39
iter:  11 10:19:10  -347.310683c -2.58  -2.39
iter:  12 10:19:17  -347.312347c -2.83  -2.57
iter:  13 10:19:25  -347.310266c -2.77  -2.66
iter:  14 10:19:32  -347.310737c -3.07  -2.76
Writing to output.gpw (mode='')

iter:  15 10:19:46  -347.310601c -3.20  -2.98
iter:  16 10:19:55  -347.310714c -3.34  -3.22
iter:  17 10:20:02  -347.310879c -3.58  -3.23
iter:  18 10:20:10  -347.310792c -3.78  -3.41
iter:  19 10:20:18  -347.310831c -3.84  -3.46
Writing to output.gpw (mode='')

iter:  20 10:20:25  -347.310843c -3.89  -3.53
iter:  21 10:20:33  -347.310842c -4.03  -3.68
iter:  22 10:20:41  -347.310900c -4.33  -3.70
iter:  23 10:20:48  -347.310906c -4.24  -3.74
iter:  24 10:20:56  -347.310898c -4.42  -3.93
Writing to output.gpw (mode='')

iter:  25 10:21:03  -347.310886c -4.70  -4.03c
iter:  26 10:21:11  -347.310901c -4.55  -4.08c
iter:  27 10:21:19  -347.310911c -4.72  -4.15c
iter:  28 10:21:27  -347.310902c -4.85  -4.18c
iter:  29 10:21:34  -347.310913c -4.97  -4.28c
Writing to output.gpw (mode='')

iter:  30 10:21:42  -347.310916c -4.96  -4.39c
iter:  31 10:21:50  -347.310916c -5.15  -4.39c
iter:  32 10:21:57  -347.310907c -5.37  -4.43c
iter:  33 10:22:05  -347.310917c -5.26  -4.58c
iter:  34 10:22:12  -347.310920c -5.43  -4.66c
Writing to output.gpw (mode='')

iter:  35 10:22:20  -347.310915c -5.32  -4.68c
iter:  36 10:22:28  -347.310914c -5.62  -4.70c
iter:  37 10:22:36  -347.310917c -5.92  -4.66c
iter:  38 10:22:43  -347.310918c -5.90  -4.64c
iter:  39 10:22:51  -347.310916c -5.87  -4.68c
Writing to output.gpw (mode='')

iter:  40 10:22:58  -347.310916c -6.02  -4.64c
iter:  41 10:23:06  -347.310918c -6.09  -4.65c
iter:  42 10:23:13  -347.310918c -5.89  -4.61c
iter:  43 10:23:21  -347.310923c -6.27  -4.61c
iter:  44 10:23:29  -347.310919c -6.14  -4.51c
Writing to output.gpw (mode='')

iter:  45 10:23:37  -347.310920c -6.32  -4.52c
iter:  46 10:23:44  -347.310922c -6.37  -4.59c
iter:  47 10:23:52  -347.310917c -6.42  -4.73c
iter:  48 10:24:00  -347.310916c -6.42  -4.77c
iter:  49 10:24:07  -347.310914c -6.57  -4.97c
Writing to output.gpw (mode='')

iter:  50 10:24:15  -347.310913c -6.53  -5.03c
iter:  51 10:24:23  -347.310914c -6.76  -5.18c
iter:  52 10:24:30  -347.310914c -6.92  -5.22c
iter:  53 10:24:42  -347.310914c -6.97  -5.24c
iter:  54 10:24:53  -347.310912c -6.99  -5.25c
Writing to output.gpw (mode='')

iter:  55 10:25:01  -347.310913c -7.09  -5.18c
iter:  56 10:25:09  -347.310913c -7.27  -5.37c
iter:  57 10:25:17  -347.310913c -7.27  -5.37c
iter:  58 10:25:24  -347.310912c -7.29  -5.40c
iter:  59 10:25:32  -347.310913c -7.29  -5.46c
Writing to output.gpw (mode='')

iter:  60 10:25:40  -347.310913c -7.45c -5.77c

Converged after 60 iterations.

Dipole moment: (-18.670482, -17.919684, 0.232888) |e|*Ang

Energy contributions relative to reference atoms: (reference = -16540.070923)

Kinetic:       +241.808636
Potential:     -214.754285
External:        +0.000000
XC:            -375.155259
Entropy (-ST):   -0.160310
Local:           +0.870150
--------------------------
Free energy:   -347.391068
Extrapolated:  -347.310913

Dipole-layer corrected work functions: 3.416603, 2.968913 eV

Showing only first 2 kpts
 Kpt  Band  Eigenvalues  Occupancy
  0    37     -3.43158    1.98329
  0    38     -3.33200    1.88370
  0    39     -3.12960    0.44088
  0    40     -2.94924    0.01523

  1    37     -3.28194    1.71228
  1    38     -3.17687    0.84240
  1    39     -3.12040    0.38085
  1    40     -3.05609    0.12207


Fermi level: -3.19276

No gap

Forces in eV/Ang:
  0 Li    0.01845    0.00304   -0.27962
  1 Li   -0.00726   -0.00008   -0.27141
  2 Li   -0.00717    0.01528   -0.27881
  3 Li   -0.00268    0.00252   -0.26253
  4 Li    0.00025   -0.00194   -0.28637
  5 Li   -0.00143    0.00056   -0.26543
  6 Li    0.01404   -0.00634   -0.28050
  7 Li   -0.00923    0.00209   -0.27086
  8 Li   -0.00351   -0.01625   -0.27900
  9 Li   -0.00516   -0.00381    0.34182
 10 Li   -0.00262   -0.00096    0.24587
 11 Li    0.00080    0.00438    0.28426
 12 Li    0.00080    0.01718    0.25582
 13 Li    0.00293   -0.00617    0.25090
 14 Li   -0.00036    0.00573    0.25885
 15 Li   -0.00099   -0.01193    0.25858
 16 Li    0.01109    0.00771    0.25282
 17 Li   -0.00354   -0.01067    0.25766
 18 Li   -0.00159    0.02288   -0.02012
 19 Li    0.00326   -0.02639    0.07589
 20 Li    0.00038    0.04327   -0.08541
 21 Li   -0.00648   -0.00144    0.06320
 22 Li   -0.01188    0.00299    0.01642
 23 Li    0.01322   -0.00033    0.07793
 24 Li    0.00314   -0.01779   -0.01389
 25 Li    0.01459    0.02416    0.05562
 26 Li   -0.01693   -0.04250   -0.08896
 27 Li    0.49767   -0.02933   -6.87033
 28 Li    0.05637   -0.02384   -0.07235
 29 Li    0.31789   -0.00475    0.27789
 30 Li    0.00940    0.10006   -0.23104
 31 Li    0.07397    0.01198   -0.10750
 32 Li   -0.07748    0.04794   -0.05677
 33 Li    0.02356   -0.02763   -0.09108
 34 Li    0.02486    0.00278   -0.04716
 35 Li   -0.05572   -0.03696   -0.04025
 36 O     9.77041   -0.16392   11.94401
 37 C    -0.05495   -0.02229    0.02497
 38 C    -0.00500    0.00827    0.26798
 39 C     1.47030    1.49524    2.48650
 40 C     0.06565   -0.05226    0.14250
 41 H    -0.11123    0.04715   -0.09668
 42 H    -0.17200    0.01515    0.08200
 43 H     0.07496    0.03511   -0.06308
 44 H     0.04296    0.00644   -0.03246
 45 H     0.05858   -0.00175    0.43605
 46 H     0.22939    0.36632    0.16455
 47 H    -0.10088   -0.00694   -0.03924
 48 H    -0.03847    0.01124    0.01051
 49 H     0.07897    0.01363    0.01764
 50 H    -7.21076    1.64875   12.27501
 51 N    10.17090   -2.81288   -6.10966
 52 N   -15.16083   -0.65747  -14.35199

System changes: positions 

Initializing position-dependent things.

Density initialized from wave functions
       .-----------------------.  
      /|                       |  
     / |                       |  
    /  |                       |  
   /   |                       |  
  /    |                       |  
 *     |                       |  
 |     |                       |  
 |     |                       |  
 |     |                       |  
 |     O                       |  
 |     N                  H N  |  
 |    HH                    C  |  
 |   C Li      Li      LiH     |  
 |   H H                  CH   |  
 |  CLi|     Li      Li  H     |  
 |   H |               H       |  
 | Li  |  LLi     LLi     Li   |  
 |     |                       |  
 |     |Li      Li      Li     |  
 |   Li|     Li      Li        |  
 |    Li  Li  Li  Li  Li  Li   |  
 | Li  |   Li      Li          |  
 |     |Li      Li      Li     |  
 Li    | Li      Li            |  
 |    Li      Li      Li       |  
 |     |                       |  
 |     |                       |  
 |     |                       |  
 |     |                       |  
 |     |                       |  
 |     |                       |  
 |     .-----------------------.  
 |    /                       /   
 |   /                       /    
 |  /                       /     
 | /                       /      
 |/                       /       
 *-----------------------*        

Positions:
   0 Li     1.617037    1.617037   10.000000    ( 0.0000,  0.0000,  0.0000)
   1 Li     4.851111    1.617037   10.000000    ( 0.0000,  0.0000,  0.0000)
   2 Li     8.085185    1.617037   10.000000    ( 0.0000,  0.0000,  0.0000)
   3 Li     1.617037    4.851111   10.000000    ( 0.0000,  0.0000,  0.0000)
   4 Li     4.851111    4.851111   10.000000    ( 0.0000,  0.0000,  0.0000)
   5 Li     8.085185    4.851111   10.000000    ( 0.0000,  0.0000,  0.0000)
   6 Li     1.617037    8.085185   10.000000    ( 0.0000,  0.0000,  0.0000)
   7 Li     4.851111    8.085185   10.000000    ( 0.0000,  0.0000,  0.0000)
   8 Li     8.085185    8.085185   10.000000    ( 0.0000,  0.0000,  0.0000)
   9 Li     0.000000    0.000000   11.617037    ( 0.0000,  0.0000,  0.0000)
  10 Li     3.234074    0.000000   11.617037    ( 0.0000,  0.0000,  0.0000)
  11 Li     6.468148    0.000000   11.617037    ( 0.0000,  0.0000,  0.0000)
  12 Li     0.000000    3.234074   11.617037    ( 0.0000,  0.0000,  0.0000)
  13 Li     3.234074    3.234074   11.617037    ( 0.0000,  0.0000,  0.0000)
  14 Li     6.468148    3.234074   11.617037    ( 0.0000,  0.0000,  0.0000)
  15 Li     0.000000    6.468148   11.617037    ( 0.0000,  0.0000,  0.0000)
  16 Li     3.234074    6.468148   11.617037    ( 0.0000,  0.0000,  0.0000)
  17 Li     6.468148    6.468148   11.617037    ( 0.0000,  0.0000,  0.0000)
  18 Li     1.617063    1.617173   13.469544    ( 0.0000,  0.0000,  0.0000)
  19 Li     4.851119    1.616894   13.470126    ( 0.0000,  0.0000,  0.0000)
  20 Li     8.085169    1.617273   13.469215    ( 0.0000,  0.0000,  0.0000)
  21 Li     1.616985    4.851104   13.470071    ( 0.0000,  0.0000,  0.0000)
  22 Li     4.851058    4.851130   13.469825    ( 0.0000,  0.0000,  0.0000)
  23 Li     8.085257    4.851110   13.470145    ( 0.0000,  0.0000,  0.0000)
  24 Li     1.617087    8.085077   13.469580    ( 0.0000,  0.0000,  0.0000)
  25 Li     4.851179    8.085315   13.470018    ( 0.0000,  0.0000,  0.0000)
  26 Li     8.085075    8.084953   13.469197    ( 0.0000,  0.0000,  0.0000)
  27 Li     0.002141   -0.000099   15.409996    ( 0.0000,  0.0000,  0.0000)
  28 Li     3.234346   -0.000125   15.445588    ( 0.0000,  0.0000,  0.0000)
  29 Li     6.470201   -0.000030   15.447728    ( 0.0000,  0.0000,  0.0000)
  30 Li     0.000040    3.234542   15.444845    ( 0.0000,  0.0000,  0.0000)
  31 Li     3.234475    3.234157   15.445375    ( 0.0000,  0.0000,  0.0000)
  32 Li     6.467732    3.234330   15.445658    ( 0.0000,  0.0000,  0.0000)
  33 Li     0.000110    6.468075   15.445568    ( 0.0000,  0.0000,  0.0000)
  34 Li     3.234228    6.468140   15.445677    ( 0.0000,  0.0000,  0.0000)
  35 Li     6.467844    6.467957   15.445745    ( 0.0000,  0.0000,  0.0000)
  36 O      9.744967    9.700757   18.494731    ( 0.0000,  0.0000,  0.0000)
  37 C      9.689653   12.169292   18.481891    ( 0.0000,  0.0000,  0.0000)
  38 C     10.544846   13.438869   18.469699    ( 0.0000,  0.0000,  0.0000)
  39 C     10.520557   10.894699   18.458303    ( 0.0000,  0.0000,  0.0000)
  40 C      9.694320   14.711323   18.453432    ( 0.0000,  0.0000,  0.0000)
  41 H      9.056102   12.154763   19.374767    ( 0.0000,  0.0000,  0.0000)
  42 H      9.018850   12.182530   17.610889    ( 0.0000,  0.0000,  0.0000)
  43 H     11.204387   13.426069   17.591853    ( 0.0000,  0.0000,  0.0000)
  44 H     11.201350   13.443797   19.346184    ( 0.0000,  0.0000,  0.0000)
  45 H     11.178586   10.893435   17.574692    ( 0.0000,  0.0000,  0.0000)
  46 H     11.137728   10.804493   19.342239    ( 0.0000,  0.0000,  0.0000)
  47 H      9.050951   14.739095   17.568501    ( 0.0000,  0.0000,  0.0000)
  48 H      9.043737   14.756936   19.330229    ( 0.0000,  0.0000,  0.0000)
  49 H     10.308063   15.614815   18.446686    ( 0.0000,  0.0000,  0.0000)
  50 H      9.076223    9.758616   17.728679    ( 0.0000,  0.0000,  0.0000)
  51 N      9.719376    9.687659   16.926510    ( 0.0000,  0.0000,  0.0000)
  52 N      8.568424    9.699385   16.890279    ( 0.0000,  0.0000,  0.0000)

Unit cell:
           periodic     x           y           z      points  spacing
  1. axis:    yes    9.702222    0.000000    0.000000    60     0.1617
  2. axis:    yes    0.000000    9.702222    0.000000    60     0.1617
  3. axis:    no     0.000000    0.000000   26.351111   164     0.1607

  Lengths:   9.702222   9.702222  26.351111
  Angles:   90.000000  90.000000  90.000000

Effective grid spacing dv^(1/3) = 0.1614

     iter     time        total  log10-change:
                         energy  eigst   dens
iter:   1 10:25:49  -349.103312  -0.75
iter:   2 10:25:57  -349.121033  -1.06  -1.76
iter:   3 10:26:05  -349.033792  -1.68  -1.67
iter:   4 10:26:12  -349.028530  -1.94  -2.23
Writing to output.gpw (mode='')

iter:   5 10:26:20  -349.011708c -1.45  -2.30
iter:   6 10:26:27  -349.010854c -2.29  -2.37
iter:   7 10:26:35  -349.013317c -2.26  -2.57
iter:   8 10:26:42  -349.009785c -2.41  -2.47
iter:   9 10:26:50  -349.009813c -2.83  -2.63
Writing to output.gpw (mode='')

iter:  10 10:26:58  -349.009349c -2.85  -2.71
iter:  11 10:27:05  -349.009483c -3.26  -2.89
iter:  12 10:27:13  -349.009305c -3.29  -3.05
iter:  13 10:27:20  -349.009350c -3.79  -3.26
iter:  14 10:27:28  -349.009380c -3.92  -3.33
Writing to output.gpw (mode='')

iter:  15 10:27:36  -349.009397c -3.76  -3.46
iter:  16 10:27:43  -349.009390c -4.08  -3.33
iter:  17 10:27:51  -349.009363c -3.86  -3.35
iter:  18 10:27:58  -349.009398c -4.28  -3.51
iter:  19 10:28:06  -349.009387c -4.21  -3.61
Writing to output.gpw (mode='')

iter:  20 10:28:13  -349.009394c -4.63  -3.88
iter:  21 10:28:21  -349.009402c -4.56  -3.87
iter:  22 10:28:29  -349.009404c -4.85  -3.90
iter:  23 10:28:36  -349.009407c -4.73  -3.94
iter:  24 10:28:44  -349.009383c -5.03  -4.07c
Writing to output.gpw (mode='')

iter:  25 10:28:51  -349.009394c -5.25  -4.01c
iter:  26 10:28:59  -349.009400c -5.34  -4.12c
iter:  27 10:29:07  -349.009404c -5.09  -4.29c
iter:  28 10:29:14  -349.009409c -5.56  -4.50c
iter:  29 10:29:22  -349.009406c -5.46  -4.57c
Writing to output.gpw (mode='')

iter:  30 10:29:29  -349.009412c -5.58  -4.51c
iter:  31 10:29:37  -349.009415c -5.39  -4.75c
iter:  32 10:29:51  -349.009415c -5.71  -4.55c
iter:  33 10:29:58  -349.009413c -5.55  -4.52c
iter:  34 10:30:06  -349.009413c -5.78  -4.57c
Writing to output.gpw (mode='')

iter:  35 10:30:13  -349.009413c -6.16  -4.62c
iter:  36 10:30:21  -349.009412c -6.14  -4.56c
iter:  37 10:30:29  -349.009414c -6.07  -4.62c
iter:  38 10:30:36  -349.009413c -6.25  -4.60c
iter:  39 10:30:43  -349.009412c -6.24  -4.70c
Writing to output.gpw (mode='')

iter:  40 10:30:51  -349.009412c -6.54  -4.93c
iter:  41 10:30:58  -349.009414c -6.35  -5.05c
iter:  42 10:31:06  -349.009413c -6.49  -5.17c
iter:  43 10:31:13  -349.009413c -6.46  -5.18c
iter:  44 10:31:21  -349.009414c -6.55  -5.29c
Writing to output.gpw (mode='')

iter:  45 10:31:28  -349.009414c -6.94  -5.23c
iter:  46 10:31:36  -349.009413c -6.92  -5.24c
iter:  47 10:31:43  -349.009414c -6.94  -5.53c
iter:  48 10:31:51  -349.009414c -7.07  -5.62c
iter:  49 10:31:58  -349.009414c -6.91  -5.67c
Writing to output.gpw (mode='')

iter:  50 10:32:06  -349.009414c -7.05  -5.81c
iter:  51 10:32:13  -349.009414c -7.07  -5.90c
iter:  52 10:32:21  -349.009414c -7.33  -5.94c
iter:  53 10:32:28  -349.009414c -7.56c -5.96c

Converged after 53 iterations.

Dipole moment: (-20.250178, -16.666373, 0.219379) |e|*Ang

Energy contributions relative to reference atoms: (reference = -16540.070923)

Kinetic:       +234.988837
Potential:     -210.791363
External:        +0.000000
XC:            -373.994570
Entropy (-ST):   -0.159305
Local:           +0.867335
--------------------------
Free energy:   -349.089066
Extrapolated:  -349.009414

Dipole-layer corrected work functions: 3.416976, 2.995254 eV

Showing only first 2 kpts
 Kpt  Band  Eigenvalues  Occupancy
  0    37     -3.44510    1.98334
  0    38     -3.34605    1.88522
  0    39     -3.14125    0.42921
  0    40     -2.96221    0.01511

  1    37     -3.29590    1.71526
  1    38     -3.18983    0.83856
  1    39     -3.13317    0.37728
  1    40     -3.07071    0.12499


Fermi level: -3.20611

No gap
Writing to output.gpw (mode='')


Forces in eV/Ang:
  0 Li    0.01833    0.00328   -0.28041
  1 Li   -0.00694   -0.00010   -0.27089
  2 Li   -0.00727    0.01552   -0.27949
  3 Li   -0.00292    0.00237   -0.26212
  4 Li    0.00044   -0.00201   -0.28728
  5 Li   -0.00132    0.00032   -0.26521
  6 Li    0.01408   -0.00659   -0.28115
  7 Li   -0.00893    0.00220   -0.26974
  8 Li   -0.00382   -0.01630   -0.27964
  9 Li   -0.00542   -0.00406    0.34652
 10 Li   -0.00231   -0.00087    0.24661
 11 Li    0.00049    0.00439    0.28338
 12 Li    0.00077    0.01752    0.25564
 13 Li    0.00290   -0.00560    0.25105
 14 Li   -0.00068    0.00626    0.25804
 15 Li   -0.00076   -0.01167    0.25939
 16 Li    0.01200    0.00737    0.25212
 17 Li   -0.00449   -0.01157    0.25687
 18 Li    0.00230    0.02700   -0.02879
 19 Li    0.00364   -0.02659    0.07647
 20 Li   -0.00337    0.04655   -0.08914
 21 Li   -0.00670   -0.00125    0.06317
 22 Li   -0.01177    0.00304    0.01571
 23 Li    0.01332   -0.00015    0.07686
 24 Li    0.00812   -0.02221   -0.02190
 25 Li    0.01461    0.02462    0.05705
 26 Li   -0.02204   -0.04534   -0.09276
 27 Li    0.55160    0.00575   -6.32477
 28 Li    0.05598   -0.02325   -0.06857
 29 Li    0.31038   -0.00518    0.26762
 30 Li    0.00841    0.09964   -0.22613
 31 Li    0.07349    0.01248   -0.10571
 32 Li   -0.07636    0.04713   -0.05732
 33 Li    0.02314   -0.02747   -0.08872
 34 Li    0.02496    0.00193   -0.04715
 35 Li   -0.05572   -0.03496   -0.04117
 36 O     7.21848   -0.19593    8.85155
 37 C    -0.03232    0.01798    0.07984
 38 C    -0.01284    0.02789    0.21234
 39 C     1.33336    1.26719    2.06752
 40 C     0.05414   -0.03591    0.11950
 41 H    -0.11922    0.05374   -0.08670
 42 H    -0.15175   -0.00412    0.07600
 43 H     0.05676    0.03442   -0.03713
 44 H     0.04923    0.00338   -0.01621
 45 H     0.05811    0.02734    0.44842
 46 H     0.44291    0.49031    0.35671
 47 H    -0.08433   -0.00958   -0.02036
 48 H    -0.03833    0.01272    0.01430
 49 H     0.07418    0.01171    0.01970
 50 H    -6.02088    1.44560   10.95354
 51 N     9.11316   -2.69032   -4.83375
 52 N   -12.81093   -0.55020  -11.40217

System changes: positions 

Initializing position-dependent things.

Density initialized from wave functions
       .-----------------------.  
      /|                       |  
     / |                       |  
    /  |                       |  
   /   |                       |  
  /    |                       |  
 *     |                       |  
 |     |                       |  
 |     |                       |  
 |     |                       |  
 |     O                       |  
 |     N                  H    |  
 |    HH                    C  |  
 |   C |       Li      LiH     |  
 |   H H                  CH   |  
 |  CLi|     Li      Li  H     |  
 |   H |               H       |  
 | Li  |  LLi     LLi     Li   |  
 |     |                       |  
 Li    |Li      Li      Li     |  
 |   Li|     Li      Li        |  
 |    Li  Li  Li  Li  Li  Li   |  
 | Li  |   Li      Li          |  
 |     |Li      Li      Li     |  
 Li    | Li      Li            |  
 |    Li      Li      Li       |  
 |     |                       |  
 |     |                       |  
 |     |                       |  
 |     |                       |  
 |     |                       |  
 |     |                       |  
 |     .-----------------------.  
 |    /                       /   
 |   /                       /    
 |  /                       /     
 | /                       /      
 |/                       /       
 *-----------------------*        

Positions:
   0 Li     1.617037    1.617037   10.000000    ( 0.0000,  0.0000,  0.0000)
   1 Li     4.851111    1.617037   10.000000    ( 0.0000,  0.0000,  0.0000)
   2 Li     8.085185    1.617037   10.000000    ( 0.0000,  0.0000,  0.0000)
   3 Li     1.617037    4.851111   10.000000    ( 0.0000,  0.0000,  0.0000)
   4 Li     4.851111    4.851111   10.000000    ( 0.0000,  0.0000,  0.0000)
   5 Li     8.085185    4.851111   10.000000    ( 0.0000,  0.0000,  0.0000)
   6 Li     1.617037    8.085185   10.000000    ( 0.0000,  0.0000,  0.0000)
   7 Li     4.851111    8.085185   10.000000    ( 0.0000,  0.0000,  0.0000)
   8 Li     8.085185    8.085185   10.000000    ( 0.0000,  0.0000,  0.0000)
   9 Li     0.000000    0.000000   11.617037    ( 0.0000,  0.0000,  0.0000)
  10 Li     3.234074    0.000000   11.617037    ( 0.0000,  0.0000,  0.0000)
  11 Li     6.468148    0.000000   11.617037    ( 0.0000,  0.0000,  0.0000)
  12 Li     0.000000    3.234074   11.617037    ( 0.0000,  0.0000,  0.0000)
  13 Li     3.234074    3.234074   11.617037    ( 0.0000,  0.0000,  0.0000)
  14 Li     6.468148    3.234074   11.617037    ( 0.0000,  0.0000,  0.0000)
  15 Li     0.000000    6.468148   11.617037    ( 0.0000,  0.0000,  0.0000)
  16 Li     3.234074    6.468148   11.617037    ( 0.0000,  0.0000,  0.0000)
  17 Li     6.468148    6.468148   11.617037    ( 0.0000,  0.0000,  0.0000)
  18 Li     1.617143    1.617375   13.469225    ( 0.0000,  0.0000,  0.0000)
  19 Li     4.851131    1.616731   13.470569    ( 0.0000,  0.0000,  0.0000)
  20 Li     8.085104    1.617572   13.468598    ( 0.0000,  0.0000,  0.0000)
  21 Li     1.616922    4.851098   13.470447    ( 0.0000,  0.0000,  0.0000)
  22 Li     4.851002    4.851151   13.469922    ( 0.0000,  0.0000,  0.0000)
  23 Li     8.085340    4.851112   13.470588    ( 0.0000,  0.0000,  0.0000)
  24 Li     1.617207    8.084903   13.469308    ( 0.0000,  0.0000,  0.0000)
  25 Li     4.851252    8.085467   13.470354    ( 0.0000,  0.0000,  0.0000)
  26 Li     8.084889    8.084662   13.468558    ( 0.0000,  0.0000,  0.0000)
  27 Li     0.005130    0.000243   15.377472    ( 0.0000,  0.0000,  0.0000)
  28 Li     3.234638   -0.000254   15.445255    ( 0.0000,  0.0000,  0.0000)
  29 Li     6.472398   -0.000069   15.449596    ( 0.0000,  0.0000,  0.0000)
  30 Li     0.000071    3.235045   15.443719    ( 0.0000,  0.0000,  0.0000)
  31 Li     3.234908    3.234253   15.444780    ( 0.0000,  0.0000,  0.0000)
  32 Li     6.467291    3.234599   15.445346    ( 0.0000,  0.0000,  0.0000)
  33 Li     0.000223    6.468003   15.445202    ( 0.0000,  0.0000,  0.0000)
  34 Li     3.234397    6.468122   15.445390    ( 0.0000,  0.0000,  0.0000)
  35 Li     6.467512    6.467775   15.445524    ( 0.0000,  0.0000,  0.0000)
  36 O      9.758629    9.698681   18.507625    ( 0.0000,  0.0000,  0.0000)
  37 C      9.689696   12.169828   18.482726    ( 0.0000,  0.0000,  0.0000)
  38 C     10.544644   13.439146   18.470463    ( 0.0000,  0.0000,  0.0000)
  39 C     10.527457   10.900594   18.466240    ( 0.0000,  0.0000,  0.0000)
  40 C      9.694587   14.711283   18.453911    ( 0.0000,  0.0000,  0.0000)
  41 H      9.055328   12.155159   19.374355    ( 0.0000,  0.0000,  0.0000)
  42 H      9.018188   12.182195   17.611346    ( 0.0000,  0.0000,  0.0000)
  43 H     11.204571   13.426266   17.591866    ( 0.0000,  0.0000,  0.0000)
  44 H     11.201710   13.443816   19.346240    ( 0.0000,  0.0000,  0.0000)
  45 H     11.178930   10.894016   17.577836    ( 0.0000,  0.0000,  0.0000)
  46 H     11.142372   10.808635   19.346360    ( 0.0000,  0.0000,  0.0000)
  47 H      9.050597   14.739012   17.568543    ( 0.0000,  0.0000,  0.0000)
  48 H      9.043524   14.757028   19.330333    ( 0.0000,  0.0000,  0.0000)
  49 H     10.308429   15.614888   18.446829    ( 0.0000,  0.0000,  0.0000)
  50 H      9.050915    9.763655   17.759242    ( 0.0000,  0.0000,  0.0000)
  51 N      9.721379    9.673512   16.922658    ( 0.0000,  0.0000,  0.0000)
  52 N      8.562005    9.697961   16.868616    ( 0.0000,  0.0000,  0.0000)

Unit cell:
           periodic     x           y           z      points  spacing
  1. axis:    yes    9.702222    0.000000    0.000000    60     0.1617
  2. axis:    yes    0.000000    9.702222    0.000000    60     0.1617
  3. axis:    no     0.000000    0.000000   26.351111   164     0.1607

  Lengths:   9.702222   9.702222  26.351111
  Angles:   90.000000  90.000000  90.000000

Effective grid spacing dv^(1/3) = 0.1614

     iter     time        total  log10-change:
                         energy  eigst   dens
iter:   1 10:32:37  -350.609165  -0.79
iter:   2 10:32:45  -350.492455  -0.78  -1.54
iter:   3 10:32:52  -350.295354  -1.56  -1.50
iter:   4 10:33:00  -350.280590  -2.03  -2.00
Writing to output.gpw (mode='')

iter:   5 10:33:08  -350.277578c -1.97  -2.34
iter:   6 10:33:15  -350.272527c -1.82  -2.26
iter:   7 10:33:23  -350.273549c -2.48  -2.54
iter:   8 10:33:33  -350.271418c -2.56  -2.59
iter:   9 10:33:40  -350.270378c -2.88  -2.65
Writing to output.gpw (mode='')

iter:  10 10:33:48  -350.270648c -3.43  -2.71
iter:  11 10:33:55  -350.270493c -3.56  -2.88
iter:  12 10:34:03  -350.270483c -3.43  -3.01
iter:  13 10:34:10  -350.270373c -3.80  -3.25
iter:  14 10:34:18  -350.270517c -4.00  -3.31
Writing to output.gpw (mode='')

iter:  15 10:34:25  -350.270401c -4.31  -3.42
iter:  16 10:34:33  -350.270414c -4.59  -3.65
iter:  17 10:34:45  -350.270419c -4.51  -3.70
iter:  18 10:34:53  -350.270405c -4.60  -3.78
iter:  19 10:35:00  -350.270420c -4.86  -3.98
Writing to output.gpw (mode='')

iter:  20 10:35:08  -350.270435c -4.94  -4.02c
iter:  21 10:35:16  -350.270404c -5.09  -4.04c
iter:  22 10:35:23  -350.270434c -5.18  -4.12c
iter:  23 10:35:31  -350.270415c -5.37  -4.15c
iter:  24 10:35:38  -350.270426c -5.45  -4.32c
Writing to output.gpw (mode='')

iter:  25 10:35:46  -350.270429c -5.58  -4.40c
iter:  26 10:35:53  -350.270426c -5.33  -4.36c
iter:  27 10:36:01  -350.270429c -5.66  -4.22c
iter:  28 10:36:08  -350.270426c -5.78  -4.24c
iter:  29 10:36:16  -350.270429c -5.83  -4.35c
Writing to output.gpw (mode='')

iter:  30 10:36:23  -350.270424c -5.92  -4.19c
iter:  31 10:36:31  -350.270428c -5.95  -4.35c
iter:  32 10:36:38  -350.270427c -6.00  -4.51c
iter:  33 10:36:46  -350.270424c -6.14  -4.57c
iter:  34 10:36:53  -350.270421c -6.22  -4.66c
Writing to output.gpw (mode='')

iter:  35 10:37:01  -350.270423c -6.36  -4.78c
iter:  36 10:37:08  -350.270425c -6.75  -4.95c
iter:  37 10:37:16  -350.270423c -6.58  -4.94c
iter:  38 10:37:23  -350.270422c -6.82  -5.06c
iter:  39 10:37:31  -350.270422c -6.61  -5.07c
Writing to output.gpw (mode='')

iter:  40 10:37:38  -350.270422c -7.19  -5.22c
iter:  41 10:37:46  -350.270423c -6.93  -5.22c
iter:  42 10:37:53  -350.270423c -7.11  -5.33c
iter:  43 10:38:01  -350.270422c -7.23  -5.39c
iter:  44 10:38:09  -350.270422c -7.23  -5.41c
Writing to output.gpw (mode='')

iter:  45 10:38:16  -350.270422c -7.31  -5.61c
iter:  46 10:38:24  -350.270422c -7.09  -5.82c
iter:  47 10:38:31  -350.270422c -7.53c -5.85c

Converged after 47 iterations.

Dipole moment: (-21.440774, -14.948984, 0.221747) |e|*Ang

Energy contributions relative to reference atoms: (reference = -16540.070923)

Kinetic:       +228.676116
Potential:     -206.884384
External:        +0.000000
XC:            -372.843526
Entropy (-ST):   -0.159034
Local:           +0.860889
--------------------------
Free energy:   -350.349939
Extrapolated:  -350.270422

Dipole-layer corrected work functions: 3.416495, 2.990221 eV

Showing only first 2 kpts
 Kpt  Band  Eigenvalues  Occupancy
  0    37     -3.44013    1.98260
  0    38     -3.34301    1.88459
  0    39     -3.13809    0.42652
  0    40     -2.95803    0.01469

  1    37     -3.29563    1.72719
  1    38     -3.18758    0.84354
  1    39     -3.12967    0.37277
  1    40     -3.06733    0.12354


Fermi level: -3.20336

No gap
Writing to output.gpw (mode='')


Forces in eV/Ang:
  0 Li    0.01814    0.00352   -0.28169
  1 Li   -0.00689   -0.00026   -0.27020
  2 Li   -0.00708    0.01574   -0.28070
  3 Li   -0.00310    0.00217   -0.26164
  4 Li    0.00049   -0.00203   -0.28819
  5 Li   -0.00105   -0.00016   -0.26456
  6 Li    0.01439   -0.00662   -0.28234
  7 Li   -0.00897    0.00229   -0.26893
  8 Li   -0.00398   -0.01613   -0.28094
  9 Li   -0.00566   -0.00409    0.35232
 10 Li   -0.00217   -0.00097    0.24711
 11 Li    0.00052    0.00432    0.28402
 12 Li    0.00065    0.01750    0.25611
 13 Li    0.00354   -0.00491    0.25078
 14 Li   -0.00143    0.00723    0.25783
 15 Li   -0.00063   -0.01153    0.26077
 16 Li    0.01268    0.00702    0.25199
 17 Li   -0.00525   -0.01243    0.25685
 18 Li    0.00881    0.03229   -0.03817
 19 Li    0.00405   -0.02708    0.07656
 20 Li   -0.00872    0.05176   -0.09544
 21 Li   -0.00702   -0.00080    0.06333
 22 Li   -0.01147    0.00286    0.01463
 23 Li    0.01317    0.00039    0.07674
 24 Li    0.01462   -0.02788   -0.03284
 25 Li    0.01476    0.02539    0.05825
 26 Li   -0.02780   -0.05025   -0.10131
 27 Li    0.52699    0.04627   -5.50486
 28 Li    0.05580   -0.02228   -0.06715
 29 Li    0.32183   -0.00426    0.27204
 30 Li    0.00731    0.09660   -0.22368
 31 Li    0.07272    0.01243   -0.10544
 32 Li   -0.07506    0.04682   -0.05729
 33 Li    0.02325   -0.02523   -0.08557
 34 Li    0.02572    0.00056   -0.04743
 35 Li   -0.05703   -0.03517   -0.04127
 36 O     6.03842   -0.14991    7.34529
 37 C    -0.01460    0.02425    0.09394
 38 C    -0.00397    0.04526    0.18508
 39 C     1.09123    1.06483    1.73307
 40 C     0.03885   -0.02026    0.10410
 41 H    -0.12755    0.06116   -0.06576
 42 H    -0.11473   -0.02891    0.08856
 43 H     0.04081    0.03295   -0.01889
 44 H     0.05056    0.00527   -0.00848
 45 H     0.06752    0.04368    0.44760
 46 H     0.53239    0.52335    0.46047
 47 H    -0.06986   -0.01068   -0.00531
 48 H    -0.03664    0.01413    0.01658
 49 H     0.06978    0.00900    0.02038
 50 H    -5.43980    1.35925    9.17338
 51 N     7.32150   -2.63950   -4.20191
 52 N   -10.42569   -0.47541   -9.45746

System changes: positions 

Initializing position-dependent things.

Density initialized from wave functions
       .-----------------------.  
      /|                       |  
     / |                       |  
    /  |                       |  
   /   |                       |  
  /    |                       |  
 *     |                       |  
 |     |                       |  
 |     |                       |  
 |     |                       |  
 |     O                       |  
 |     N                  H    |  
 |    HH                    C  |  
 |   C |       Li      LiH     |  
 |   H H                  CH   |  
 |  CLi|     Li      Li  H     |  
 |   H |               H       |  
 | Li  |  LLi     LLi     Li   |  
 |     |                       |  
 Li    |Li      Li      Li     |  
 |   Li|     Li      Li        |  
 |    Li  Li  Li  Li  Li  Li   |  
 | Li  |   Li      Li          |  
 |     |Li      Li      Li     |  
 Li    | Li      Li            |  
 |    Li      Li      Li       |  
 |     |                       |  
 |     |                       |  
 |     |                       |  
 |     |                       |  
 |     |                       |  
 |     |                       |  
 |     .-----------------------.  
 |    /                       /   
 |   /                       /    
 |  /                       /     
 | /                       /      
 |/                       /       
 *-----------------------*        

Positions:
   0 Li     1.617037    1.617037   10.000000    ( 0.0000,  0.0000,  0.0000)
   1 Li     4.851111    1.617037   10.000000    ( 0.0000,  0.0000,  0.0000)
   2 Li     8.085185    1.617037   10.000000    ( 0.0000,  0.0000,  0.0000)
   3 Li     1.617037    4.851111   10.000000    ( 0.0000,  0.0000,  0.0000)
   4 Li     4.851111    4.851111   10.000000    ( 0.0000,  0.0000,  0.0000)
   5 Li     8.085185    4.851111   10.000000    ( 0.0000,  0.0000,  0.0000)
   6 Li     1.617037    8.085185   10.000000    ( 0.0000,  0.0000,  0.0000)
   7 Li     4.851111    8.085185   10.000000    ( 0.0000,  0.0000,  0.0000)
   8 Li     8.085185    8.085185   10.000000    ( 0.0000,  0.0000,  0.0000)
   9 Li     0.000000    0.000000   11.617037    ( 0.0000,  0.0000,  0.0000)
  10 Li     3.234074    0.000000   11.617037    ( 0.0000,  0.0000,  0.0000)
  11 Li     6.468148    0.000000   11.617037    ( 0.0000,  0.0000,  0.0000)
  12 Li     0.000000    3.234074   11.617037    ( 0.0000,  0.0000,  0.0000)
  13 Li     3.234074    3.234074   11.617037    ( 0.0000,  0.0000,  0.0000)
  14 Li     6.468148    3.234074   11.617037    ( 0.0000,  0.0000,  0.0000)
  15 Li     0.000000    6.468148   11.617037    ( 0.0000,  0.0000,  0.0000)
  16 Li     3.234074    6.468148   11.617037    ( 0.0000,  0.0000,  0.0000)
  17 Li     6.468148    6.468148   11.617037    ( 0.0000,  0.0000,  0.0000)
  18 Li     1.617312    1.617693   13.468743    ( 0.0000,  0.0000,  0.0000)
  19 Li     4.851158    1.616519   13.471140    ( 0.0000,  0.0000,  0.0000)
  20 Li     8.084961    1.618022   13.467758    ( 0.0000,  0.0000,  0.0000)
  21 Li     1.616848    4.851097   13.470928    ( 0.0000,  0.0000,  0.0000)
  22 Li     4.850928    4.851175   13.470027    ( 0.0000,  0.0000,  0.0000)
  23 Li     8.085442    4.851120   13.471156    ( 0.0000,  0.0000,  0.0000)
  24 Li     1.617425    8.084614   13.468861    ( 0.0000,  0.0000,  0.0000)
  25 Li     4.851354    8.085669   13.470801    ( 0.0000,  0.0000,  0.0000)
  26 Li     8.084590    8.084227   13.467658    ( 0.0000,  0.0000,  0.0000)
  27 Li     0.008735    0.001152   15.346075    ( 0.0000,  0.0000,  0.0000)
  28 Li     3.235025   -0.000408   15.444818    ( 0.0000,  0.0000,  0.0000)
  29 Li     6.475198   -0.000101   15.451906    ( 0.0000,  0.0000,  0.0000)
  30 Li     0.000103    3.235682   15.442224    ( 0.0000,  0.0000,  0.0000)
  31 Li     3.235450    3.234365   15.444012    ( 0.0000,  0.0000,  0.0000)
  32 Li     6.466743    3.234941   15.444935    ( 0.0000,  0.0000,  0.0000)
  33 Li     0.000380    6.467903   15.444709    ( 0.0000,  0.0000,  0.0000)
  34 Li     3.234614    6.468091   15.445023    ( 0.0000,  0.0000,  0.0000)
  35 Li     6.467070    6.467530   15.445229    ( 0.0000,  0.0000,  0.0000)
  36 O      9.770756    9.697116   18.518504    ( 0.0000,  0.0000,  0.0000)
  37 C      9.689915   12.170427   18.483860    ( 0.0000,  0.0000,  0.0000)
  38 C     10.544571   13.439713   18.471234    ( 0.0000,  0.0000,  0.0000)
  39 C     10.533081   10.905756   18.473206    ( 0.0000,  0.0000,  0.0000)
  40 C      9.694720   14.711392   18.454389    ( 0.0000,  0.0000,  0.0000)
  41 H      9.054246   12.155740   19.374096    ( 0.0000,  0.0000,  0.0000)
  42 H      9.017789   12.181536   17.612106    ( 0.0000,  0.0000,  0.0000)
  43 H     11.204631   13.426499   17.592057    ( 0.0000,  0.0000,  0.0000)
  44 H     11.202160   13.443867   19.346363    ( 0.0000,  0.0000,  0.0000)
  45 H     11.179507   10.894820   17.581614    ( 0.0000,  0.0000,  0.0000)
  46 H     11.148790   10.813897   19.352315    ( 0.0000,  0.0000,  0.0000)
  47 H      9.050300   14.738901   17.568754    ( 0.0000,  0.0000,  0.0000)
  48 H      9.043270   14.757159   19.330492    ( 0.0000,  0.0000,  0.0000)
  49 H     10.308861   15.614939   18.447010    ( 0.0000,  0.0000,  0.0000)
  50 H      9.023052    9.770326   17.787155    ( 0.0000,  0.0000,  0.0000)
  51 N      9.720994    9.655465   16.916290    ( 0.0000,  0.0000,  0.0000)
  52 N      8.558111    9.696456   16.850005    ( 0.0000,  0.0000,  0.0000)

Unit cell:
           periodic     x           y           z      points  spacing
  1. axis:    yes    9.702222    0.000000    0.000000    60     0.1617
  2. axis:    yes    0.000000    9.702222    0.000000    60     0.1617
  3. axis:    no     0.000000    0.000000   26.351111   164     0.1607

  Lengths:   9.702222   9.702222  26.351111
  Angles:   90.000000  90.000000  90.000000

Effective grid spacing dv^(1/3) = 0.1614

     iter     time        total  log10-change:
                         energy  eigst   dens
iter:   1 10:38:41  -351.479152  -0.89
iter:   2 10:38:48  -351.452586  -0.90  -1.60
iter:   3 10:38:56  -351.283245  -1.70  -1.55
iter:   4 10:39:03  -351.277477  -2.29  -2.15
Writing to output.gpw (mode='')

iter:   5 10:39:11  -351.271624c -1.83  -2.41
iter:   6 10:39:19  -351.271090c -2.08  -2.38
iter:   7 10:39:26  -351.273995c -2.45  -2.61
iter:   8 10:39:34  -351.269753c -2.77  -2.49
iter:   9 10:39:45  -351.269235c -3.13  -2.73
Writing to output.gpw (mode='')

iter:  10 10:39:54  -351.268916c -3.38  -2.90
iter:  11 10:40:01  -351.269266c -3.61  -3.07
iter:  12 10:40:09  -351.269089c -3.75  -3.14
iter:  13 10:40:17  -351.268996c -4.17  -3.32
iter:  14 10:40:25  -351.269072c -4.31  -3.43
Writing to output.gpw (mode='')

iter:  15 10:40:32  -351.269064c -4.08  -3.51
iter:  16 10:40:40  -351.269082c -4.71  -3.63
iter:  17 10:40:47  -351.269058c -4.68  -3.74
iter:  18 10:40:55  -351.269067c -4.83  -3.90
iter:  19 10:41:02  -351.269106c -5.01  -3.92
Writing to output.gpw (mode='')

iter:  20 10:41:10  -351.269077c -5.12  -3.91
iter:  21 10:41:18  -351.269091c -5.36  -4.09c
iter:  22 10:41:25  -351.269077c -5.12  -4.10c
iter:  23 10:41:35  -351.269080c -5.60  -4.30c
iter:  24 10:41:45  -351.269081c -5.65  -4.34c
Writing to output.gpw (mode='')

iter:  25 10:41:55  -351.269082c -5.66  -4.34c
iter:  26 10:42:02  -351.269079c -5.74  -4.33c
iter:  27 10:42:10  -351.269083c -5.95  -4.33c
iter:  28 10:42:17  -351.269083c -5.91  -4.32c
iter:  29 10:42:25  -351.269080c -5.83  -4.35c
Writing to output.gpw (mode='')

iter:  30 10:42:32  -351.269085c -6.10  -4.32c
iter:  31 10:42:40  -351.269089c -6.26  -4.32c
iter:  32 10:42:48  -351.269087c -6.29  -4.28c
iter:  33 10:42:55  -351.269082c -6.35  -4.28c
iter:  34 10:43:02  -351.269082c -6.51  -4.32c
Writing to output.gpw (mode='')

iter:  35 10:43:10  -351.269076c -6.48  -4.33c
iter:  36 10:43:18  -351.269078c -6.59  -4.34c
iter:  37 10:43:25  -351.269079c -6.42  -4.44c
iter:  38 10:43:33  -351.269077c -6.92  -4.48c
iter:  39 10:43:40  -351.269086c -6.65  -4.53c
Writing to output.gpw (mode='')

iter:  40 10:43:48  -351.269085c -7.07  -4.49c
iter:  41 10:43:55  -351.269082c -6.81  -4.55c
iter:  42 10:44:03  -351.269080c -7.26  -4.78c
iter:  43 10:44:11  -351.269078c -6.83  -4.87c
iter:  44 10:44:18  -351.269078c -7.61c -5.05c

Converged after 44 iterations.

Dipole moment: (-22.228371, -12.839621, 0.223049) |e|*Ang

Energy contributions relative to reference atoms: (reference = -16540.070923)

Kinetic:       +223.552864
Potential:     -203.737931
External:        +0.000000
XC:            -371.858570
Entropy (-ST):   -0.158822
Local:           +0.853970
--------------------------
Free energy:   -351.348489
Extrapolated:  -351.269078

Dipole-layer corrected work functions: 3.415918, 2.987141 eV

Showing only first 2 kpts
 Kpt  Band  Eigenvalues  Occupancy
  0    37     -3.43645    1.98194
  0    38     -3.34131    1.88487
  0    39     -3.13499    0.41805
  0    40     -2.95520    0.01440

  1    37     -3.29599    1.73735
  1    38     -3.18637    0.84959
  1    39     -3.12689    0.36702
  1    40     -3.06610    0.12494


Fermi level: -3.20153

No gap
Writing to output.gpw (mode='')


Forces in eV/Ang:
  0 Li    0.01773    0.00367   -0.28278
  1 Li   -0.00672   -0.00049   -0.26943
  2 Li   -0.00677    0.01607   -0.28180
  3 Li   -0.00344    0.00197   -0.26107
  4 Li    0.00062   -0.00207   -0.28903
  5 Li   -0.00072   -0.00086   -0.26408
  6 Li    0.01463   -0.00655   -0.28330
  7 Li   -0.00905    0.00250   -0.26810
  8 Li   -0.00403   -0.01589   -0.28210
  9 Li   -0.00581   -0.00416    0.35724
 10 Li   -0.00209   -0.00112    0.24795
 11 Li    0.00044    0.00422    0.28415
 12 Li    0.00051    0.01778    0.25628
 13 Li    0.00425   -0.00406    0.25044
 14 Li   -0.00225    0.00814    0.25747
 15 Li   -0.00045   -0.01155    0.26195
 16 Li    0.01346    0.00659    0.25194
 17 Li   -0.00607   -0.01313    0.25692
 18 Li    0.01499    0.03770   -0.04647
 19 Li    0.00474   -0.02750    0.07653
 20 Li   -0.01384    0.05640   -0.10011
 21 Li   -0.00690   -0.00021    0.06275
 22 Li   -0.01148    0.00249    0.01344
 23 Li    0.01289    0.00114    0.07624
 24 Li    0.02060   -0.03373   -0.04266
 25 Li    0.01518    0.02616    0.05959
 26 Li   -0.03312   -0.05438   -0.10887
 27 Li    0.50688    0.09291   -4.85474
 28 Li    0.05556   -0.02104   -0.06551
 29 Li    0.32568   -0.00280    0.27013
 30 Li    0.00639    0.09329   -0.22149
 31 Li    0.07145    0.01196   -0.10486
 32 Li   -0.07345    0.04656   -0.05763
 33 Li    0.02430   -0.02330   -0.08323
 34 Li    0.02616   -0.00062   -0.04744
 35 Li   -0.05902   -0.03595   -0.04172
 36 O     4.98912   -0.07144    6.06320
 37 C    -0.00782    0.03084    0.10199
 38 C    -0.00276    0.05297    0.16558
 39 C     0.94742    0.86600    1.53747
 40 C     0.03074   -0.00700    0.09443
 41 H    -0.13056    0.06720   -0.04760
 42 H    -0.08268   -0.04596    0.09710
 43 H     0.02983    0.03232   -0.00699
 44 H     0.05156    0.00873   -0.00164
 45 H     0.07481    0.05343    0.42507
 46 H     0.53944    0.54754    0.45537
 47 H    -0.05970   -0.01087    0.00399
 48 H    -0.03506    0.01597    0.01895
 49 H     0.06430    0.00813    0.02094
 50 H    -4.72080    1.28251    7.90428
 51 N     6.22292   -2.59309   -3.64846
 52 N    -8.81868   -0.39520   -7.95350

System changes: positions 

Initializing position-dependent things.

Density initialized from wave functions
       .-----------------------.  
      /|                       |  
     / |                       |  
    /  |                       |  
   /   |                       |  
  /    |                       |  
 *     |                       |  
 |     |                       |  
 |     |                       |  
 |     |                       |  
 |     O                       |  
 |     |                  H    |  
 |    HH                    C  |  
 |   C |       Li      LiH     |  
 |   H H                  CH   |  
 |  CLi|     Li      Li  H     |  
 |   H |               H       |  
 | Li  |  LLi     LLi     Li   |  
 |     |                       |  
 Li    |Li      Li      Li     |  
 |   Li|     Li      Li        |  
 |    Li  Li  Li  Li  Li  Li   |  
 | Li  |   Li      Li          |  
 |     |Li      Li      Li     |  
 Li    | Li      Li            |  
 |    Li      Li      Li       |  
 |     |                       |  
 |     |                       |  
 |     |                       |  
 |     |                       |  
 |     |                       |  
 |     |                       |  
 |     .-----------------------.  
 |    /                       /   
 |   /                       /    
 |  /                       /     
 | /                       /      
 |/                       /       
 *-----------------------*        

Positions:
   0 Li     1.617037    1.617037   10.000000    ( 0.0000,  0.0000,  0.0000)
   1 Li     4.851111    1.617037   10.000000    ( 0.0000,  0.0000,  0.0000)
   2 Li     8.085185    1.617037   10.000000    ( 0.0000,  0.0000,  0.0000)
   3 Li     1.617037    4.851111   10.000000    ( 0.0000,  0.0000,  0.0000)
   4 Li     4.851111    4.851111   10.000000    ( 0.0000,  0.0000,  0.0000)
   5 Li     8.085185    4.851111   10.000000    ( 0.0000,  0.0000,  0.0000)
   6 Li     1.617037    8.085185   10.000000    ( 0.0000,  0.0000,  0.0000)
   7 Li     4.851111    8.085185   10.000000    ( 0.0000,  0.0000,  0.0000)
   8 Li     8.085185    8.085185   10.000000    ( 0.0000,  0.0000,  0.0000)
   9 Li     0.000000    0.000000   11.617037    ( 0.0000,  0.0000,  0.0000)
  10 Li     3.234074    0.000000   11.617037    ( 0.0000,  0.0000,  0.0000)
  11 Li     6.468148    0.000000   11.617037    ( 0.0000,  0.0000,  0.0000)
  12 Li     0.000000    3.234074   11.617037    ( 0.0000,  0.0000,  0.0000)
  13 Li     3.234074    3.234074   11.617037    ( 0.0000,  0.0000,  0.0000)
  14 Li     6.468148    3.234074   11.617037    ( 0.0000,  0.0000,  0.0000)
  15 Li     0.000000    6.468148   11.617037    ( 0.0000,  0.0000,  0.0000)
  16 Li     3.234074    6.468148   11.617037    ( 0.0000,  0.0000,  0.0000)
  17 Li     6.468148    6.468148   11.617037    ( 0.0000,  0.0000,  0.0000)
  18 Li     1.617583    1.618145   13.468083    ( 0.0000,  0.0000,  0.0000)
  19 Li     4.851202    1.616254   13.471845    ( 0.0000,  0.0000,  0.0000)
  20 Li     8.084731    1.618629   13.466688    ( 0.0000,  0.0000,  0.0000)
  21 Li     1.616765    4.851103   13.471511    ( 0.0000,  0.0000,  0.0000)
  22 Li     4.850834    4.851197   13.470139    ( 0.0000,  0.0000,  0.0000)
  23 Li     8.085562    4.851141   13.471852    ( 0.0000,  0.0000,  0.0000)
  24 Li     1.617753    8.084194   13.468222    ( 0.0000,  0.0000,  0.0000)
  25 Li     4.851490    8.085926   13.471370    ( 0.0000,  0.0000,  0.0000)
  26 Li     8.084168    8.083646   13.466474    ( 0.0000,  0.0000,  0.0000)
  27 Li     0.012970    0.002812   15.314150    ( 0.0000,  0.0000,  0.0000)
  28 Li     3.235509   -0.000584   15.444284    ( 0.0000,  0.0000,  0.0000)
  29 Li     6.478598   -0.000118   15.454649    ( 0.0000,  0.0000,  0.0000)
  30 Li     0.000135    3.236444   15.440354    ( 0.0000,  0.0000,  0.0000)
  31 Li     3.236101    3.234490   15.443066    ( 0.0000,  0.0000,  0.0000)
  32 Li     6.466087    3.235363   15.444418    ( 0.0000,  0.0000,  0.0000)
  33 Li     0.000596    6.467781   15.444091    ( 0.0000,  0.0000,  0.0000)
  34 Li     3.234882    6.468046   15.444573    ( 0.0000,  0.0000,  0.0000)
  35 Li     6.466498    6.467209   15.444854    ( 0.0000,  0.0000,  0.0000)
  36 O      9.780362    9.696537   18.526506    ( 0.0000,  0.0000,  0.0000)
  37 C      9.690184   12.171130   18.485239    ( 0.0000,  0.0000,  0.0000)
  38 C     10.544515   13.440457   18.472088    ( 0.0000,  0.0000,  0.0000)
  39 C     10.538632   10.909988   18.480751    ( 0.0000,  0.0000,  0.0000)
  40 C      9.694812   14.711646   18.454928    ( 0.0000,  0.0000,  0.0000)
  41 H      9.052903   12.156511   19.373981    ( 0.0000,  0.0000,  0.0000)
  42 H      9.017644   12.180601   17.613148    ( 0.0000,  0.0000,  0.0000)
  43 H     11.204616   13.426781   17.592368    ( 0.0000,  0.0000,  0.0000)
  44 H     11.202708   13.443981   19.346558    ( 0.0000,  0.0000,  0.0000)
  45 H     11.180311   10.895809   17.585799    ( 0.0000,  0.0000,  0.0000)
  46 H     11.156023   10.820326   19.358771    ( 0.0000,  0.0000,  0.0000)
  47 H      9.050015   14.738771   17.569075    ( 0.0000,  0.0000,  0.0000)
  48 H      9.042975   14.757341   19.330714    ( 0.0000,  0.0000,  0.0000)
  49 H     10.309340   15.614994   18.447233    ( 0.0000,  0.0000,  0.0000)
  50 H      8.995471    9.778512   17.814945    ( 0.0000,  0.0000,  0.0000)
  51 N      9.720825    9.633328   16.908929    ( 0.0000,  0.0000,  0.0000)
  52 N      8.554682    9.695176   16.833415    ( 0.0000,  0.0000,  0.0000)

Unit cell:
           periodic     x           y           z      points  spacing
  1. axis:    yes    9.702222    0.000000    0.000000    60     0.1617
  2. axis:    yes    0.000000    9.702222    0.000000    60     0.1617
  3. axis:    no     0.000000    0.000000   26.351111   164     0.1607

  Lengths:   9.702222   9.702222  26.351111
  Angles:   90.000000  90.000000  90.000000

Effective grid spacing dv^(1/3) = 0.1614

     iter     time        total  log10-change:
                         energy  eigst   dens
iter:   1 10:44:28  -352.311635  -0.90
iter:   2 10:44:35  -352.286873  -0.90  -1.60
iter:   3 10:44:48  -352.118740  -1.72  -1.56
iter:   4 10:44:56  -352.113829  -2.32  -2.16
Writing to output.gpw (mode='')

iter:   5 10:45:04  -352.108920c -1.90  -2.42
iter:   6 10:45:11  -352.108608c -2.14  -2.40
iter:   7 10:45:19  -352.111714c -2.46  -2.62
iter:   8 10:45:27  -352.107336c -2.86  -2.50
iter:   9 10:45:35  -352.106948c -3.25  -2.79
Writing to output.gpw (mode='')

iter:  10 10:45:42  -352.106674c -3.40  -2.93
iter:  11 10:45:50  -352.107002c -3.66  -3.15
iter:  12 10:45:57  -352.106822c -3.85  -3.19
iter:  13 10:46:05  -352.106804c -4.11  -3.35
iter:  14 10:46:13  -352.106920c -4.27  -3.43
Writing to output.gpw (mode='')

iter:  15 10:46:20  -352.106799c -4.49  -3.49
iter:  16 10:46:28  -352.106830c -4.84  -3.71
iter:  17 10:46:36  -352.106844c -4.54  -3.78
iter:  18 10:46:43  -352.106813c -4.83  -3.91
iter:  19 10:46:51  -352.106830c -5.19  -4.08c
Writing to output.gpw (mode='')

iter:  20 10:46:58  -352.106834c -4.98  -4.17c
iter:  21 10:47:06  -352.106838c -5.24  -4.23c
iter:  22 10:47:13  -352.106840c -5.37  -4.21c
iter:  23 10:47:21  -352.106835c -5.60  -4.20c
iter:  24 10:47:29  -352.106839c -5.69  -4.41c
Writing to output.gpw (mode='')

iter:  25 10:47:37  -352.106847c -5.71  -4.61c
iter:  26 10:47:44  -352.106846c -5.84  -4.61c
iter:  27 10:47:52  -352.106842c -5.85  -4.61c
iter:  28 10:48:00  -352.106842c -6.06  -4.62c
iter:  29 10:48:07  -352.106843c -6.11  -4.63c
Writing to output.gpw (mode='')

iter:  30 10:48:15  -352.106836c -6.44  -4.47c
iter:  31 10:48:22  -352.106839c -6.30  -4.63c
iter:  32 10:48:30  -352.106839c -6.64  -4.85c
iter:  33 10:48:38  -352.106839c -6.48  -4.88c
iter:  34 10:48:46  -352.106838c -6.67  -5.15c
Writing to output.gpw (mode='')

iter:  35 10:48:53  -352.106839c -6.74  -5.06c
iter:  36 10:49:01  -352.106839c -6.66  -5.16c
iter:  37 10:49:09  -352.106839c -6.79  -5.15c
iter:  38 10:49:16  -352.106839c -6.96  -5.09c
iter:  39 10:49:24  -352.106840c -7.30  -5.19c
Writing to output.gpw (mode='')

iter:  40 10:49:33  -352.106840c -7.45c -5.39c

Converged after 40 iterations.

Dipole moment: (-22.832152, -10.443919, 0.225404) |e|*Ang

Energy contributions relative to reference atoms: (reference = -16540.070923)

Kinetic:       +218.930753
Potential:     -200.869451
External:        +0.000000
XC:            -370.939494
Entropy (-ST):   -0.158793
Local:           +0.850748
--------------------------
Free energy:   -352.186236
Extrapolated:  -352.106840

Dipole-layer corrected work functions: 3.415336, 2.982033 eV

Showing only first 2 kpts
 Kpt  Band  Eigenvalues  Occupancy
  0    37     -3.43127    1.98109
  0    38     -3.33856    1.88508
  0    39     -3.13078    0.40907
  0    40     -2.95141    0.01413

  1    37     -3.29577    1.74910
  1    38     -3.18420    0.85611
  1    39     -3.12263    0.35857
  1    40     -3.06407    0.12687


Fermi level: -3.19868

No gap

Forces in eV/Ang:
  0 Li    0.01720    0.00384   -0.28396
  1 Li   -0.00653   -0.00079   -0.26856
  2 Li   -0.00638    0.01650   -0.28305
  3 Li   -0.00386    0.00172   -0.26043
  4 Li    0.00078   -0.00209   -0.28975
  5 Li   -0.00035   -0.00179   -0.26365
  6 Li    0.01496   -0.00638   -0.28439
  7 Li   -0.00922    0.00278   -0.26732
  8 Li   -0.00407   -0.01555   -0.28345
  9 Li   -0.00586   -0.00418    0.36177
 10 Li   -0.00207   -0.00132    0.24886
 11 Li    0.00030    0.00409    0.28413
 12 Li    0.00037    0.01818    0.25635
 13 Li    0.00524   -0.00298    0.24995
 14 Li   -0.00330    0.00921    0.25697
 15 Li   -0.00024   -0.01171    0.26311
 16 Li    0.01436    0.00599    0.25195
 17 Li   -0.00704   -0.01382    0.25710
 18 Li    0.02180    0.04356   -0.05469
 19 Li    0.00560   -0.02785    0.07624
 20 Li   -0.01926    0.06103   -0.10418
 21 Li   -0.00651    0.00056    0.06169
 22 Li   -0.01155    0.00187    0.01205
 23 Li    0.01242    0.00212    0.07550
 24 Li    0.02675   -0.04006   -0.05272
 25 Li    0.01574    0.02695    0.06103
 26 Li   -0.03824   -0.05821   -0.11637
 27 Li    0.48139    0.14227   -4.26530
 28 Li    0.05519   -0.01932   -0.06361
 29 Li    0.32942   -0.00061    0.26808
 30 Li    0.00547    0.08894   -0.21885
 31 Li    0.06966    0.01113   -0.10400
 32 Li   -0.07143    0.04622   -0.05787
 33 Li    0.02583   -0.02067   -0.08048
 34 Li    0.02670   -0.00201   -0.04728
 35 Li   -0.06164   -0.03729   -0.04198
 36 O     4.06609   -0.00554    5.08416
 37 C     0.00634    0.02843    0.11506
 38 C    -0.00260    0.05584    0.14920
 39 C     0.82647    0.71388    1.32941
 40 C     0.02378    0.00312    0.08669
 41 H    -0.13107    0.07336   -0.03119
 42 H    -0.05202   -0.06313    0.10215
 43 H     0.01999    0.03195    0.00312
 44 H     0.05196    0.01346    0.00460
 45 H     0.07720    0.05665    0.40752
 46 H     0.53076    0.55038    0.44546
 47 H    -0.05065   -0.01036    0.01162
 48 H    -0.03337    0.01839    0.02141
 49 H     0.05900    0.00949    0.02139
 50 H    -4.04719    1.23233    6.83484
 51 N     5.23715   -2.60488   -3.24943
 52 N    -7.41333   -0.31639   -6.62354

[...]
  0    40     -3.32146    0.22778

  1    37     -3.74231    1.99657
  1    38     -3.36632    0.47936
  1    39     -3.30833    0.17990
  1    40     -3.29464    0.13984


Fermi level: -3.42404

No gap

Forces in eV/Ang:
  0 Li    0.01514    0.01516   -0.28619
  1 Li   -0.00731    0.00918   -0.29387
  2 Li   -0.01318   -0.00725   -0.29379
  3 Li    0.00868   -0.00674   -0.29413
  4 Li   -0.01758   -0.01559   -0.28475
  5 Li    0.00891    0.00720   -0.29808
  6 Li   -0.00806   -0.01088   -0.29523
  7 Li    0.00488    0.01199   -0.29595
  8 Li    0.00061    0.00098   -0.25177
  9 Li   -0.03424   -0.03942    0.25068
 10 Li    0.00015   -0.02379    0.26148
 11 Li    0.02678   -0.04148    0.29441
 12 Li   -0.01646   -0.01487    0.29320
 13 Li    0.01594   -0.00818    0.26711
 14 Li    0.01420    0.00500    0.26933
 15 Li   -0.02036    0.03385    0.31264
 16 Li    0.02533    0.02555    0.26697
 17 Li    0.03037    0.03870    0.24698
 18 Li    0.01215   -0.00917   -0.00388
 19 Li   -0.00609   -0.00249    0.00423
 20 Li    0.00380   -0.00633    0.00574
 21 Li   -0.00669   -0.00752    0.00128
 22 Li   -0.00011    0.00750    0.00427
 23 Li   -0.00434   -0.00166    0.00623
 24 Li    0.00853   -0.01420   -0.01178
 25 Li   -0.00559   -0.00526   -0.00655
 26 Li   -0.00612    0.00344    0.03775
 27 Li    0.00723    0.00276   -0.00246
 28 Li   -0.00539   -0.00152    0.00445
 29 Li    0.01436    0.01930    0.00802
 30 Li    0.00163    0.00757    0.00084
 31 Li    0.00121    0.00161   -0.01169
 32 Li   -0.00405    0.01705    0.00591
 33 Li    0.01553   -0.01410    0.02393
 34 Li    0.00163    0.00537   -0.00258
 35 Li   -0.02077   -0.01769    0.00815
 36 O    -0.00024   -0.02365    0.03045
 37 C     0.00930   -0.04995    0.02092
 38 C     0.01483   -0.01770   -0.03337
 39 C    -0.02723   -0.01718   -0.00715
 40 C    -0.00437    0.01218    0.03726
 41 H    -0.01460    0.00208    0.02234
 42 H     0.00668    0.02111   -0.01917
 43 H     0.02058    0.02879   -0.00925
 44 H    -0.01427    0.00043    0.01863
 45 H    -0.02543    0.00324   -0.01732
 46 H     0.00027    0.01137    0.02380
 47 H     0.02178   -0.01019   -0.00473
 48 H    -0.00944   -0.00001    0.02546
 49 H    -0.00057    0.00505    0.00736
 50 H    -0.02908    0.01451   -0.00673
 51 N    -0.00785   -0.01944   -0.00974
 52 N    -0.00846    0.02064    0.03638

System changes: positions 

Initializing position-dependent things.

Density initialized from wave functions
       .-----------------------.  
      /|                       |  
     / |                       |  
    /  |                       |  
   /   |                       |  
  /    |                       |  
 *     |                       |  
 |     |                       |  
 |     |                       |  
 |     |                       |  
 |     |                       |  
 |     |                   H   |  
 |  C HH                 H     |  
 |   H |                  C   Li  
 |  C  H                 H N   |  
 |   Hi|     Li       Li O     |  
 |     |               H       |  
 |     |  LLi     LLi     Li   |  
 | Li  |                       |  
 |     |LLi     LLi     Li     |  
 |   Li|     Li      Li        |  
 |    Li  Li  Li  Li  Li  Li   |  
 | Li  |   Li      Li          |  
 |     |Li      Li      Li     |  
 Li    | Li      Li            |  
 |    Li      Li      Li       |  
 |     |                       |  
 |     |                       |  
 |     |                       |  
 |     |                       |  
 |     |                       |  
 |     |                       |  
 |     .-----------------------.  
 |    /                       /   
 |   /                       /    
 |  /                       /     
 | /                       /      
 |/                       /       
 *-----------------------*        

Positions:
   0 Li     1.617037    1.617037   10.000000    ( 0.0000,  0.0000,  0.0000)
   1 Li     4.851111    1.617037   10.000000    ( 0.0000,  0.0000,  0.0000)
   2 Li     8.085185    1.617037   10.000000    ( 0.0000,  0.0000,  0.0000)
   3 Li     1.617037    4.851111   10.000000    ( 0.0000,  0.0000,  0.0000)
   4 Li     4.851111    4.851111   10.000000    ( 0.0000,  0.0000,  0.0000)
   5 Li     8.085185    4.851111   10.000000    ( 0.0000,  0.0000,  0.0000)
   6 Li     1.617037    8.085185   10.000000    ( 0.0000,  0.0000,  0.0000)
   7 Li     4.851111    8.085185   10.000000    ( 0.0000,  0.0000,  0.0000)
   8 Li     8.085185    8.085185   10.000000    ( 0.0000,  0.0000,  0.0000)
   9 Li     0.000000    0.000000   11.617037    ( 0.0000,  0.0000,  0.0000)
  10 Li     3.234074    0.000000   11.617037    ( 0.0000,  0.0000,  0.0000)
  11 Li     6.468148    0.000000   11.617037    ( 0.0000,  0.0000,  0.0000)
  12 Li     0.000000    3.234074   11.617037    ( 0.0000,  0.0000,  0.0000)
  13 Li     3.234074    3.234074   11.617037    ( 0.0000,  0.0000,  0.0000)
  14 Li     6.468148    3.234074   11.617037    ( 0.0000,  0.0000,  0.0000)
  15 Li     0.000000    6.468148   11.617037    ( 0.0000,  0.0000,  0.0000)
  16 Li     3.234074    6.468148   11.617037    ( 0.0000,  0.0000,  0.0000)
  17 Li     6.468148    6.468148   11.617037    ( 0.0000,  0.0000,  0.0000)
  18 Li     1.563302    1.538721   13.459354    ( 0.0000,  0.0000,  0.0000)
  19 Li     4.822507    1.640117   13.457482    ( 0.0000,  0.0000,  0.0000)
  20 Li     8.029631    1.578897   13.475764    ( 0.0000,  0.0000,  0.0000)
  21 Li     1.680939    4.820663   13.449483    ( 0.0000,  0.0000,  0.0000)
  22 Li     4.927408    4.911324   13.474857    ( 0.0000,  0.0000,  0.0000)
  23 Li     8.121068    4.866910   13.467670    ( 0.0000,  0.0000,  0.0000)
  24 Li     1.616355    8.053727   13.483992    ( 0.0000,  0.0000,  0.0000)
  25 Li     4.873757    8.125162   13.483740    ( 0.0000,  0.0000,  0.0000)
  26 Li     8.087472    8.081793   13.545864    ( 0.0000,  0.0000,  0.0000)
  27 Li    -0.216771   -0.278976   15.535571    ( 0.0000,  0.0000,  0.0000)
  28 Li     3.125331    0.048320   15.395124    ( 0.0000,  0.0000,  0.0000)
  29 Li     6.345272    0.089599   15.467076    ( 0.0000,  0.0000,  0.0000)
  30 Li     0.042054    3.073039   15.286727    ( 0.0000,  0.0000,  0.0000)
  31 Li     3.254669    3.225950   15.383567    ( 0.0000,  0.0000,  0.0000)
  32 Li     6.424090    3.327226   15.382959    ( 0.0000,  0.0000,  0.0000)
  33 Li     0.140427    6.342228   15.413860    ( 0.0000,  0.0000,  0.0000)
  34 Li     3.402842    6.421166   15.405081    ( 0.0000,  0.0000,  0.0000)
  35 Li     6.731367    6.704980   15.552828    ( 0.0000,  0.0000,  0.0000)
  36 O      9.602238    9.758543   19.001858    ( 0.0000,  0.0000,  0.0000)
  37 C      9.635739   12.238894   18.993759    ( 0.0000,  0.0000,  0.0000)
  38 C     10.525480   13.479080   18.854505    ( 0.0000,  0.0000,  0.0000)
  39 C     10.428140   10.934652   18.944028    ( 0.0000,  0.0000,  0.0000)
  40 C      9.736005   14.787021   18.787382    ( 0.0000,  0.0000,  0.0000)
  41 H      9.062211   12.282482   19.924870    ( 0.0000,  0.0000,  0.0000)
  42 H      8.897935   12.227580   18.176809    ( 0.0000,  0.0000,  0.0000)
  43 H     11.128276   13.377329   17.942795    ( 0.0000,  0.0000,  0.0000)
  44 H     11.240296   13.515278   19.684211    ( 0.0000,  0.0000,  0.0000)
  45 H     11.052308   10.913838   18.036580    ( 0.0000,  0.0000,  0.0000)
  46 H     11.101866   10.854495   19.800520    ( 0.0000,  0.0000,  0.0000)
  47 H      9.015186   14.768536   17.962361    ( 0.0000,  0.0000,  0.0000)
  48 H      9.170200   14.958345   19.705522    ( 0.0000,  0.0000,  0.0000)
  49 H     10.394962   15.646021   18.637088    ( 0.0000,  0.0000,  0.0000)
  50 H      8.851066    9.885131   18.406069    ( 0.0000,  0.0000,  0.0000)
  51 N      8.544519    7.624853   15.574781    ( 0.0000,  0.0000,  0.0000)
  52 N      7.656768    8.515127   15.589662    ( 0.0000,  0.0000,  0.0000)

Unit cell:
           periodic     x           y           z      points  spacing
  1. axis:    yes    9.702222    0.000000    0.000000    60     0.1617
  2. axis:    yes    0.000000    9.702222    0.000000    60     0.1617
  3. axis:    no     0.000000    0.000000   26.351111   164     0.1607

  Lengths:   9.702222   9.702222  26.351111
  Angles:   90.000000  90.000000  90.000000

Effective grid spacing dv^(1/3) = 0.1614

     iter     time        total  log10-change:
                         energy  eigst   dens
iter:   1 19:44:19  -360.864230  -2.44
iter:   2 19:44:27  -360.864214  -3.32  -2.88
iter:   3 19:44:35  -360.864120c -3.91  -2.98
iter:   4 19:44:48  -360.864062c -3.87  -3.12
Writing to output.gpw (mode='')

iter:   5 19:44:56  -360.863975c -3.80  -3.21
iter:   6 19:45:03  -360.863983c -4.13  -3.38
iter:   7 19:45:11  -360.863971c -4.95  -3.41
iter:   8 19:45:19  -360.863977c -4.59  -3.63
iter:   9 19:45:26  -360.863967c -5.29  -3.67
Writing to output.gpw (mode='')

iter:  10 19:45:34  -360.863964c -4.85  -3.81
iter:  11 19:45:41  -360.863962c -5.73  -3.94
iter:  12 19:45:49  -360.863966c -5.81  -4.04c
iter:  13 19:45:56  -360.863963c -5.82  -4.21c
iter:  14 19:46:04  -360.863964c -6.59  -4.39c
Writing to output.gpw (mode='')

iter:  15 19:46:11  -360.863965c -6.76  -4.43c
iter:  16 19:46:19  -360.863966c -6.26  -4.52c
iter:  17 19:46:26  -360.863964c -6.59  -4.58c
iter:  18 19:46:34  -360.863964c -6.90  -4.78c
iter:  19 19:46:41  -360.863964c -7.31  -4.88c
Writing to output.gpw (mode='')

iter:  20 19:46:49  -360.863964c -7.11  -5.01c
iter:  21 19:46:56  -360.863964c -7.32  -5.04c
iter:  22 19:47:04  -360.863964c -7.50c -5.16c

Converged after 22 iterations.

Dipole moment: (-2.066863, -13.823417, -0.006807) |e|*Ang

Energy contributions relative to reference atoms: (reference = -16540.070923)

Kinetic:       +183.718730
Potential:     -177.865700
External:        +0.000000
XC:            -367.500409
Entropy (-ST):   -0.162110
Local:           +0.864469
--------------------------
Free energy:   -360.945019
Extrapolated:  -360.863964

Dipole-layer corrected work functions: 3.417798, 3.430883 eV

Showing only first 2 kpts
 Kpt  Band  Eigenvalues  Occupancy
  0    37     -3.63687    1.97189
  0    38     -3.44299    1.18437
  0    39     -3.41201    0.87735
  0    40     -3.32159    0.22708

  1    37     -3.74225    1.99654
  1    38     -3.36655    0.47884
  1    39     -3.30884    0.18058
  1    40     -3.29459    0.13892


Fermi level: -3.42434

No gap
Writing to output.gpw (mode='')


Forces in eV/Ang:
  0 Li    0.01516    0.01532   -0.28606
  1 Li   -0.00724    0.00916   -0.29377
  2 Li   -0.01313   -0.00730   -0.29402
  3 Li    0.00865   -0.00667   -0.29412
  4 Li   -0.01750   -0.01555   -0.28488
  5 Li    0.00906    0.00719   -0.29822
  6 Li   -0.00803   -0.01091   -0.29535
  7 Li    0.00483    0.01208   -0.29599
  8 Li    0.00073    0.00087   -0.25156
  9 Li   -0.03466   -0.03887    0.25028
 10 Li   -0.00062   -0.02462    0.26105
 11 Li    0.02694   -0.04136    0.29373
 12 Li   -0.01850   -0.01507    0.29449
 13 Li    0.01587   -0.00862    0.26668
 14 Li    0.01513    0.00507    0.27057
 15 Li   -0.02085    0.03412    0.31200
 16 Li    0.02511    0.02586    0.26742
 17 Li    0.03010    0.03950    0.24676
 18 Li    0.01057   -0.00952   -0.00229
 19 Li   -0.00381   -0.00350    0.00599
 20 Li    0.00616   -0.00503    0.00415
 21 Li   -0.00622   -0.00660    0.00238
 22 Li   -0.00007    0.00809    0.00416
 23 Li   -0.00369   -0.00468    0.00451
 24 Li    0.00912   -0.01293   -0.01075
 25 Li   -0.00530   -0.00499   -0.00651
 26 Li   -0.00616    0.00158    0.03995
 27 Li    0.00581    0.00051   -0.00433
 28 Li   -0.00527   -0.00216    0.00334
 29 Li   -0.00018    0.03246    0.00567
 30 Li    0.00279    0.00489   -0.00016
 31 Li    0.00004    0.00353   -0.01104
 32 Li   -0.00512    0.01689    0.00763
 33 Li    0.02060   -0.01695    0.02345
 34 Li    0.00118    0.00351   -0.00118
 35 Li   -0.01970   -0.01862    0.00715
 36 O    -0.01965   -0.00464    0.00964
 37 C    -0.00065   -0.04264    0.01700
 38 C     0.01013   -0.03030   -0.01796
 39 C    -0.01508   -0.02343   -0.00311
 40 C    -0.00338    0.00152    0.02767
 41 H    -0.01691    0.00365    0.02068
 42 H     0.01513    0.01829   -0.01079
 43 H     0.02878    0.03110   -0.02175
 44 H    -0.01690   -0.00005    0.00924
 45 H    -0.02698    0.00421   -0.01309
 46 H    -0.00407    0.01448    0.01727
 47 H     0.02365   -0.00714   -0.00756
 48 H    -0.00914    0.00698    0.03159
 49 H     0.00026    0.01075    0.01426
 50 H    -0.01423    0.00462    0.01026
 51 N    -0.00802   -0.00040   -0.01418
 52 N     0.00736    0.02146    0.03455

Timing:                                      incl.     excl.
-------------------------------------------------------------------
Density initialized from wave functions:    13.048    13.045   0.0% |
 Symmetrize density:                         0.003     0.003   0.0% |
Forces:                                     58.324    58.324   0.2% |
Hamiltonian:                               782.330     0.018   0.0% |
 Atomic:                                     0.031     0.031   0.0% |
  XC Correction:                             0.000     0.000   0.0% |
 Calculate atomic Hamiltonians:              0.056     0.056   0.0% |
 Communicate:                               11.460    11.460   0.0% |
 Hartree integrate/restrict:                 2.474     2.474   0.0% |
 Initialize Hamiltonian:                     0.001     0.001   0.0% |
 Poisson:                                   36.732    13.448   0.0% |
  Communicate from 1D:                       3.605     3.605   0.0% |
  Communicate from 2D:                       3.951     3.951   0.0% |
  Communicate to 1D:                         2.031     2.031   0.0% |
  Communicate to 2D:                         4.196     4.196   0.0% |
  FFT 1D:                                    4.790     4.790   0.0% |
  FFT 2D:                                    4.710     4.710   0.0% |
 XC 3D grid:                               730.961   111.600   0.3% |
  VdW-DF integral:                         619.361     5.107   0.0% |
   Convolution:                             55.696    55.696   0.2% |
   FFT:                                     24.267    24.267   0.1% |
   gather:                                 220.007   220.007   0.6% |
   hmm1:                                    19.429    19.429   0.1% |
   hmm2:                                    26.031    26.031   0.1% |
   iFFT:                                    24.782    24.782   0.1% |
   potential:                              240.451     6.293   0.0% |
    collect:                                38.709    38.709   0.1% |
    p1:                                    106.705   106.705   0.3% |
    p2:                                     39.839    39.839   0.1% |
    sum:                                    48.905    48.905   0.1% |
   splines:                                  3.590     3.590   0.0% |
 vbar:                                       0.596     0.596   0.0% |
LCAO initialization:                         1.256     0.183   0.0% |
 LCAO eigensolver:                           0.261     0.000   0.0% |
  Calculate projections:                     0.000     0.000   0.0% |
  DenseAtomicCorrection:                     0.000     0.000   0.0% |
  Distribute overlap matrix:                 0.224     0.224   0.0% |
  Orbital Layouts:                           0.035     0.035   0.0% |
  Potential matrix:                          0.001     0.001   0.0% |
  Sum over cells:                            0.001     0.001   0.0% |
 LCAO to grid:                               0.682     0.682   0.0% |
 Set positions (LCAO WFS):                   0.130     0.079   0.0% |
  Basic WFS set positions:                   0.001     0.001   0.0% |
  Basis functions set positions:             0.000     0.000   0.0% |
  P tci:                                     0.000     0.000   0.0% |
  ST tci:                                    0.015     0.015   0.0% |
  mktci:                                     0.035     0.035   0.0% |
Redistribute:                                0.081     0.081   0.0% |
SCF-cycle:                               33996.761   586.924   1.7% ||
 Davidson:                                9579.755  2801.347   8.0% |--|
  Apply hamiltonian:                       591.893   591.893   1.7% ||
  Subspace diag:                          1798.923     0.592   0.0% |
   calc_h_matrix:                          887.676   286.446   0.8% |
    Apply hamiltonian:                     601.230   601.230   1.7% ||
   diagonalize:                             97.695    97.695   0.3% |
   rotate_psi:                             812.960   812.960   2.3% ||
  calc. matrices:                         3076.154  1632.140   4.7% |-|
   Apply hamiltonian:                     1444.015  1444.015   4.1% |-|
  diagonalize:                              31.144    31.144   0.1% |
  rotate_psi:                             1280.293  1280.293   3.7% ||
 Density:                                  169.649     0.244   0.0% |
  Atomic density matrices:                  19.041    19.041   0.1% |
  Mix:                                      67.846    67.846   0.2% |
  Multipole moments:                        11.106    11.106   0.0% |
  Pseudo density:                           71.412    71.322   0.2% |
   Symmetrize density:                       0.090     0.090   0.0% |
 Hamiltonian:                            23632.396     0.563   0.0% |
  Atomic:                                    1.099     1.087   0.0% |
   XC Correction:                            0.012     0.012   0.0% |
  Calculate atomic Hamiltonians:             1.702     1.702   0.0% |
  Communicate:                             338.298   338.298   1.0% |
  Hartree integrate/restrict:               78.991    78.991   0.2% |
  Poisson:                                1127.946   416.029   1.2% |
   Communicate from 1D:                    111.343   111.343   0.3% |
   Communicate from 2D:                    110.670   110.670   0.3% |
   Communicate to 1D:                       63.577    63.577   0.2% |
   Communicate to 2D:                      131.726   131.726   0.4% |
   FFT 1D:                                 148.214   148.214   0.4% |
   FFT 2D:                                 146.387   146.387   0.4% |
  XC 3D grid:                            22065.873  3405.225   9.7% |---|
   VdW-DF integral:                      18660.648   156.920   0.4% |
    Convolution:                          1699.385  1699.385   4.9% |-|
    FFT:                                   734.276   734.276   2.1% ||
    gather:                               6620.339  6620.339  18.9% |-------|
    hmm1:                                  596.196   596.196   1.7% ||
    hmm2:                                  795.350   795.350   2.3% ||
    iFFT:                                  763.108   763.108   2.2% ||
    potential:                            7295.036   195.415   0.6% |
     collect:                             1128.731  1128.731   3.2% ||
     p1:                                  3279.142  3279.142   9.4% |---|
     p2:                                  1225.086  1225.086   3.5% ||
     sum:                                 1466.663  1466.663   4.2% |-|
    splines:                                 0.038     0.038   0.0% |
  vbar:                                     17.924    17.924   0.1% |
 Orthonormalize:                            28.037     0.018   0.0% |
  calc_s_matrix:                             4.164     4.164   0.0% |
  inverse-cholesky:                          8.189     8.189   0.0% |
  projections:                               0.003     0.003   0.0% |
  rotate_psi_s:                             15.663    15.663   0.0% |
Set symmetry:                                0.015     0.015   0.0% |
Other:                                     168.286   168.286   0.5% |
-------------------------------------------------------------------
Total:                                             35020.100 100.0%

Memory usage: 1.13 GiB
Date: Fri Mar 10 19:47:04 2023
