
  ___ ___ ___ _ _ _  
 |   |   |_  | | | | 
 | | | | | . | | | | 
 |__ |  _|___|_____|  22.8.0
 |___|_|             

User:   vazumah@r478.ib.bridges2.psc.edu
Date:   Fri Mar 10 12:22:51 2023
Arch:   x86_64
Pid:    36280
CWD:    /jet/home/vazumah/Calcs/LiMEAS/proton_donors/ethanediol_y/bridge/0.0_1.617/N2_y
Python: 3.11.0
gpaw:   /jet/home/vazumah/.conda/envs/GPAW_mpich/lib/python3.11/site-packages/gpaw
_gpaw:  /jet/home/vazumah/.conda/envs/GPAW_mpich/lib/python3.11/site-packages/
        _gpaw.cpython-311-x86_64-linux-gnu.so
ase:    /jet/home/vazumah/.conda/envs/GPAW_mpich/lib/python3.11/site-packages/ase (version 3.22.1)
numpy:  /jet/home/vazumah/.conda/envs/GPAW_mpich/lib/python3.11/site-packages/numpy (version 1.24.2)
scipy:  /jet/home/vazumah/.conda/envs/GPAW_mpich/lib/python3.11/site-packages/scipy (version 1.10.1)
libxc:  5.2.3
units:  Angstrom and eV
cores: 128
OpenMP: True
OMP_NUM_THREADS: 1

Input parameters:
  h: 0.16
  kpts: {size: [4, 4, 1]}
  occupations: {name: fermi-dirac,
                width: 0.05}
  poissonsolver: {dipolelayer: xy}
  xc: BEEF-vdW

System changes: positions, numbers, cell, pbc, initial_charges, initial_magmoms 

Initialize ...

species:
  Li:
    name: Lithium
    id: 830b4218f175192f93f959cfc0aad614
    Z: 3.0
    valence: 1
    core: 2
    charge: 0.0
    file: /jet/home/vazumah/datasets/gpaw-setups-0.9.20000/Li.PBE.gz
    compensation charges: {type: gauss,
                           rc: 0.33,
                           lmax: 2}
    cutoffs: {filter: 1.91,
              core: 2.55}
    valence states:
      #              energy  rcut
      - 2s(1.00)    -2.874   1.058
      - 2p(0.00)    -1.090   1.058
      -  s          24.337   1.058
  
    # Using partial waves for Li as LCAO basis

  O:
    name: Oxygen
    id: 32ecd46bf208036f09c70b0ec9a88b78
    Z: 8.0
    valence: 6
    core: 2
    charge: 0.0
    file: /jet/home/vazumah/datasets/gpaw-setups-0.9.20000/O.PBE.gz
    compensation charges: {type: gauss,
                           rc: 0.21,
                           lmax: 2}
    cutoffs: {filter: 1.17,
              core: 0.83}
    valence states:
      #              energy  rcut
      - 2s(2.00)   -23.961   0.688
      - 2p(4.00)    -9.029   0.598
      -  s           3.251   0.688
      -  p          18.182   0.598
      -  d           0.000   0.619
  
    # Using partial waves for O as LCAO basis

  C:
    name: Carbon
    id: 4aa54d4b901d75f77cc0ea3eec22967b
    Z: 6.0
    valence: 4
    core: 2
    charge: 0.0
    file: /jet/home/vazumah/datasets/gpaw-setups-0.9.20000/C.PBE.gz
    compensation charges: {type: gauss,
                           rc: 0.20,
                           lmax: 2}
    cutoffs: {filter: 1.14,
              core: 1.14}
    valence states:
      #              energy  rcut
      - 2s(2.00)   -13.751   0.635
      - 2p(2.00)    -5.284   0.635
      -  s          13.461   0.635
      -  p          21.927   0.635
      -  d           0.000   0.635
  
    # Using partial waves for C as LCAO basis

  H:
    name: Hydrogen
    id: d65de229564ff8ea4db303e23b6d1ecf
    Z: 1.0
    valence: 1
    core: 0
    charge: 0.0
    file: /jet/home/vazumah/datasets/gpaw-setups-0.9.20000/H.PBE.gz
    compensation charges: {type: gauss,
                           rc: 0.15,
                           lmax: 2}
    cutoffs: {filter: 0.85,
              core: 0.53}
    valence states:
      #              energy  rcut
      - 1s(1.00)    -6.494   0.476
      -  s          20.717   0.476
      -  p           0.000   0.476
  
    # Using partial waves for H as LCAO basis

  N:
    name: Nitrogen
    id: f7500608b86eaa90eef8b1d9a670dc53
    Z: 7.0
    valence: 5
    core: 2
    charge: 0.0
    file: /jet/home/vazumah/datasets/gpaw-setups-0.9.20000/N.PBE.gz
    compensation charges: {type: gauss,
                           rc: 0.18,
                           lmax: 2}
    cutoffs: {filter: 1.11,
              core: 0.96}
    valence states:
      #              energy  rcut
      - 2s(2.00)   -18.583   0.603
      - 2p(3.00)    -7.089   0.529
      -  s           8.629   0.603
      -  p          20.123   0.529
      -  d           0.000   0.577
  
    # Using partial waves for N as LCAO basis

Reference energy: -16475.706344  # eV

Spin-paired calculation

Convergence criteria:
 Maximum [total energy] change in last 3 cyles: 0.0005 eV / electron
 Maximum integral of absolute [dens]ity change: 0.0001 electrons / valence electron
 Maximum integral of absolute [eigenst]ate change: 4e-08 eV^2 / valence electron
 Maximum number of scf [iter]ations: 333
 (Square brackets indicate name in SCF output, whereas a 'c' in
 the SCF output indicates the quantity has converged.)

Symmetries present (total): 1

  ( 1  0  0)
  ( 0  1  0)
  ( 0  0  1)

16 k-points: 4 x 4 x 1 Monkhorst-Pack grid
8 k-points in the irreducible part of the Brillouin zone
       k-points in crystal coordinates                weights
   0:     0.12500000   -0.37500000    0.00000000          2/16
   1:     0.12500000   -0.12500000    0.00000000          2/16
   2:     0.12500000    0.12500000    0.00000000          2/16
   3:     0.12500000    0.37500000    0.00000000          2/16
   4:     0.37500000   -0.37500000    0.00000000          2/16
   5:     0.37500000   -0.12500000    0.00000000          2/16
   6:     0.37500000    0.12500000    0.00000000          2/16
   7:     0.37500000    0.37500000    0.00000000          2/16

Wave functions: Uniform real-space grid
  Kinetic energy operator: 6*3+1=19 point O(h^6) finite-difference Laplacian
  ScaLapack parameters: grid=1x1, blocksize=None
  Wavefunction extrapolation:
    Improved wavefunction reuse through dual PAW basis 

Occupation numbers: Fermi-Dirac:
  width: 0.0500  # eV
 

Eigensolver
   Davidson(niter=2) 

Densities:
  Coarse grid: 60*60*164 grid
  Fine grid: 120*120*328 grid
  Total Charge: 0.000000 

Density mixing:
  Method: separate
  Backend: pulay
  Linear mixing parameter: 0.05
  old densities: 5
  Damping of long wavelength oscillations: 50 

Hamiltonian:
  XC and Coulomb potentials evaluated on a 120*120*328 grid
  Using the BEEF-vdW Exchange-Correlation functional
  Interpolation: tri-quintic (5. degree polynomial)
  Poisson solver: FastPoissonSolver using
    Stencil: 6*3+1=19 point O(h^6) finite-difference Laplacian
    FFT axes: [0, 1]
    FST axes: [2]

Dipole correction along z-axis 

XC parameters: BEEF-vdW with 2 nearest neighbor stencil

Memory estimate:
  Process memory now: 126.77 MiB
  Calculator: 84.78 MiB
    Density: 22.56 MiB
      Arrays: 7.22 MiB
      Localized functions: 12.59 MiB
      Mixer: 2.75 MiB
    Hamiltonian: 5.72 MiB
      Arrays: 4.72 MiB
      XC: 0.00 MiB
      Poisson: 0.00 MiB
      vbar: 0.99 MiB
    Wavefunctions: 56.50 MiB
      Arrays psit_nG: 26.37 MiB
      Eigensolver: 29.47 MiB
      Projections: 0.01 MiB
      Projectors: 0.66 MiB

Total number of cores used: 128
Parallelization over k-points: 8
Domain decomposition: 2 x 2 x 4

Number of atoms: 48
Number of atomic orbitals: 174
Number of bands in calculation: 48
Number of valence electrons: 72
Bands to converge: occupied

... initialized

Initializing position-dependent things.

Density initialized from atomic densities
Creating initial wave functions:
  48 bands from LCAO basis set

       .-----------------------.  
      /|                       |  
     / |                       |  
    /  |                       |  
   /   |                       |  
  /    |                       |  
 *     |                       |  
 |     |                       |  
 |     |                       |  
 |     |                       |  
 |     |                       |  
 |    H|                       |  
 |H O C| H                H    |  
 |O  C H                       |  
 |     |                       |  
 |   Hi|     Li      Li        |  
 |NN   |                       |  
 | Li  |  LLi     LLi     Li   |  
 |     |                       |  
 Li    |LLi     LLi     Li     |  
 |   Li|     Li      Li        |  
 |    Li  Li  Li  Li  Li  Li   |  
 | Li  |   Li      Li          |  
 |     |Li      Li      Li     |  
 Li    | Li      Li            |  
 |    Li      Li      Li       |  
 |     |                       |  
 |     |                       |  
 |     |                       |  
 |     |                       |  
 |     |                       |  
 |     |                       |  
 |     .-----------------------.  
 |    /                       /   
 |   /                       /    
 |  /                       /     
 | /                       /      
 |/                       /       
 *-----------------------*        

Positions:
   0 Li     1.617037    1.617037   10.000000    ( 0.0000,  0.0000,  0.0000)
   1 Li     4.851111    1.617037   10.000000    ( 0.0000,  0.0000,  0.0000)
   2 Li     8.085185    1.617037   10.000000    ( 0.0000,  0.0000,  0.0000)
   3 Li     1.617037    4.851111   10.000000    ( 0.0000,  0.0000,  0.0000)
   4 Li     4.851111    4.851111   10.000000    ( 0.0000,  0.0000,  0.0000)
   5 Li     8.085185    4.851111   10.000000    ( 0.0000,  0.0000,  0.0000)
   6 Li     1.617037    8.085185   10.000000    ( 0.0000,  0.0000,  0.0000)
   7 Li     4.851111    8.085185   10.000000    ( 0.0000,  0.0000,  0.0000)
   8 Li     8.085185    8.085185   10.000000    ( 0.0000,  0.0000,  0.0000)
   9 Li     0.000000    0.000000   11.617037    ( 0.0000,  0.0000,  0.0000)
  10 Li     3.234074    0.000000   11.617037    ( 0.0000,  0.0000,  0.0000)
  11 Li     6.468148    0.000000   11.617037    ( 0.0000,  0.0000,  0.0000)
  12 Li     0.000000    3.234074   11.617037    ( 0.0000,  0.0000,  0.0000)
  13 Li     3.234074    3.234074   11.617037    ( 0.0000,  0.0000,  0.0000)
  14 Li     6.468148    3.234074   11.617037    ( 0.0000,  0.0000,  0.0000)
  15 Li     0.000000    6.468148   11.617037    ( 0.0000,  0.0000,  0.0000)
  16 Li     3.234074    6.468148   11.617037    ( 0.0000,  0.0000,  0.0000)
  17 Li     6.468148    6.468148   11.617037    ( 0.0000,  0.0000,  0.0000)
  18 Li     1.617038    1.617038   13.469728    ( 0.0000,  0.0000,  0.0000)
  19 Li     4.851111    1.617038   13.469729    ( 0.0000,  0.0000,  0.0000)
  20 Li     8.085184    1.617038   13.469728    ( 0.0000,  0.0000,  0.0000)
  21 Li     1.617038    4.851111   13.469729    ( 0.0000,  0.0000,  0.0000)
  22 Li     4.851111    4.851111   13.469730    ( 0.0000,  0.0000,  0.0000)
  23 Li     8.085184    4.851111   13.469729    ( 0.0000,  0.0000,  0.0000)
  24 Li     1.617038    8.085184   13.469728    ( 0.0000,  0.0000,  0.0000)
  25 Li     4.851111    8.085184   13.469729    ( 0.0000,  0.0000,  0.0000)
  26 Li     8.085184    8.085184   13.469728    ( 0.0000,  0.0000,  0.0000)
  27 Li    -0.000000   -0.000000   15.445939    ( 0.0000,  0.0000,  0.0000)
  28 Li     3.234074    0.000000   15.445939    ( 0.0000,  0.0000,  0.0000)
  29 Li     6.468148    0.000000   15.445939    ( 0.0000,  0.0000,  0.0000)
  30 Li     0.000000    3.234074   15.445939    ( 0.0000,  0.0000,  0.0000)
  31 Li     3.234076    3.234076   15.445938    ( 0.0000,  0.0000,  0.0000)
  32 Li     6.468146    3.234076   15.445938    ( 0.0000,  0.0000,  0.0000)
  33 Li     0.000000    6.468148   15.445939    ( 0.0000,  0.0000,  0.0000)
  34 Li     3.234076    6.468146   15.445938    ( 0.0000,  0.0000,  0.0000)
  35 Li     6.468146    6.468146   15.445938    ( 0.0000,  0.0000,  0.0000)
  36 O      0.000000    1.617037   19.445939    ( 0.0000,  0.0000,  0.0000)
  37 O      0.043994    4.515235   19.213250    ( 0.0000,  0.0000,  0.0000)
  38 C      1.171212    2.345598   19.033562    ( 0.0000,  0.0000,  0.0000)
  39 C      1.184902    3.754783   19.602713    ( 0.0000,  0.0000,  0.0000)
  40 H      2.085602    1.817472   19.326395    ( 0.0000,  0.0000,  0.0000)
  41 H      1.123914    2.378347   17.943996    ( 0.0000,  0.0000,  0.0000)
  42 H      2.059168    4.291502   19.226232    ( 0.0000,  0.0000,  0.0000)
  43 H      1.260403    3.705053   20.701774    ( 0.0000,  0.0000,  0.0000)
  44 H      0.074515    1.447612   20.393261    ( 0.0000,  0.0000,  0.0000)
  45 H     -0.723127    3.935769   19.309689    ( 0.0000,  0.0000,  0.0000)
  46 N      0.000000    1.617000   16.945939    ( 0.0000,  0.0000,  0.0000)
  47 N      0.000000    2.713622   16.945939    ( 0.0000,  0.0000,  0.0000)

Unit cell:
           periodic     x           y           z      points  spacing
  1. axis:    yes    9.702222    0.000000    0.000000    60     0.1617
  2. axis:    yes    0.000000    9.702222    0.000000    60     0.1617
  3. axis:    no     0.000000    0.000000   26.351111   164     0.1607

  Lengths:   9.702222   9.702222  26.351111
  Angles:   90.000000  90.000000  90.000000

Effective grid spacing dv^(1/3) = 0.1614

     iter     time        total  log10-change:
                         energy  eigst   dens
iter:   1 12:23:06  -643.966377
iter:   2 12:23:14   -44.214612  +2.63  +0.02
iter:   3 12:23:21   -13.794649  +3.18  -0.18
iter:   4 12:23:28  -190.253403  +3.26  -0.27
Writing to output.gpw (mode='')

iter:   5 12:23:36  -278.552459  +2.90  -0.32
iter:   6 12:23:43  -343.118801  +2.54  -0.52
iter:   7 12:23:50  -344.946833  +2.16  -0.55
iter:   8 12:23:58  -351.122801  +1.89  -0.58
iter:   9 12:24:05  -354.909107  +1.60  -0.56
Writing to output.gpw (mode='')

iter:  10 12:24:12  -333.936685  +1.34  -0.63
iter:  11 12:24:20  -369.160995  +1.49  -0.68
iter:  12 12:24:27  -346.969392  +0.82  -0.58
iter:  13 12:24:34  -340.152515  +1.54  -0.64
iter:  14 12:24:42  -330.908279  +0.66  -0.66
Writing to output.gpw (mode='')

iter:  15 12:24:49  -330.419522  +0.27  -0.80
iter:  16 12:24:56  -327.697918  +0.36  -0.82
iter:  17 12:25:04  -325.819725  +0.91  -0.90
iter:  18 12:25:12  -325.787937  +0.48  -0.93
iter:  19 12:25:21  -325.061571  +0.64  -0.95
Writing to output.gpw (mode='')

iter:  20 12:25:28  -324.036425  +0.28  -1.03
iter:  21 12:25:35  -324.046229  +0.34  -1.23
iter:  22 12:25:43  -323.946287  -0.15  -1.31
iter:  23 12:25:50  -323.880459  -0.26  -1.38
iter:  24 12:25:57  -323.884044  -0.44  -1.59
Writing to output.gpw (mode='')

iter:  25 12:26:05  -323.925712  -0.61  -1.70
iter:  26 12:26:12  -323.951922  -0.79  -1.76
iter:  27 12:26:19  -323.958539c -0.78  -1.77
iter:  28 12:26:27  -323.963857c -0.96  -1.91
iter:  29 12:26:34  -323.976867c -1.17  -2.06
Writing to output.gpw (mode='')

iter:  30 12:26:41  -323.986053c -1.28  -2.12
iter:  31 12:26:48  -323.994756c -1.29  -2.15
iter:  32 12:26:56  -324.005260c -1.25  -2.17
iter:  33 12:27:03  -324.012235c -1.49  -2.22
iter:  34 12:27:10  -324.016670c -1.71  -2.35
Writing to output.gpw (mode='')

iter:  35 12:27:24  -324.021132c -1.71  -2.39
iter:  36 12:27:32  -324.024665c -1.68  -2.43
iter:  37 12:27:39  -324.028893c -1.80  -2.44
iter:  38 12:27:47  -324.030660c -1.88  -2.36
iter:  39 12:27:54  -324.032560c -2.28  -2.62
Writing to output.gpw (mode='')

iter:  40 12:28:01  -324.034450c -2.20  -2.62
iter:  41 12:28:09  -324.035950c -2.32  -2.62
iter:  42 12:28:16  -324.037904c -2.04  -2.57
iter:  43 12:28:23  -324.040080c -1.91  -2.55
iter:  44 12:28:31  -324.041322c -2.20  -2.51
Writing to output.gpw (mode='')

iter:  45 12:28:38  -324.042325c -2.30  -2.59
iter:  46 12:28:45  -324.044405c -2.17  -2.59
iter:  47 12:28:53  -324.045137c -2.36  -2.50
iter:  48 12:29:00  -324.046824c -2.36  -2.51
iter:  49 12:29:07  -324.047713c -2.15  -2.45
Writing to output.gpw (mode='')

iter:  50 12:29:15  -324.048783c -2.52  -2.44
iter:  51 12:29:22  -324.050081c -2.44  -2.43
iter:  52 12:29:29  -324.051065c -2.34  -2.36
iter:  53 12:29:37  -324.054758c -2.23  -2.34
iter:  54 12:29:44  -324.050374c -2.41  -2.27
Writing to output.gpw (mode='')

iter:  55 12:29:51  -324.051442c -2.47  -2.36
iter:  56 12:29:58  -324.052238c -2.24  -2.38
iter:  57 12:30:06  -324.056957c -1.97  -2.18
iter:  58 12:30:13  -324.051332c -2.66  -2.11
iter:  59 12:30:20  -324.049654c -1.97  -2.25
Writing to output.gpw (mode='')

iter:  60 12:30:28  -324.049171c -2.35  -2.46
iter:  61 12:30:35  -324.049589c -2.69  -2.50
iter:  62 12:30:42  -324.050694c -2.59  -2.52
iter:  63 12:30:49  -324.049923c -2.96  -2.45
iter:  64 12:30:57  -324.048822c -2.71  -2.57
Writing to output.gpw (mode='')

iter:  65 12:31:04  -324.048830c -3.26  -2.83
iter:  66 12:31:11  -324.048777c -3.08  -2.94
iter:  67 12:31:19  -324.048868c -3.59  -3.13
iter:  68 12:31:26  -324.048819c -3.90  -3.16
iter:  69 12:31:33  -324.048840c -3.96  -3.20
Writing to output.gpw (mode='')

iter:  70 12:31:41  -324.048836c -3.70  -3.18
iter:  71 12:31:48  -324.048826c -4.07  -3.17
iter:  72 12:31:55  -324.048830c -4.16  -3.21
iter:  73 12:32:03  -324.048862c -4.06  -3.22
iter:  74 12:32:10  -324.048909c -3.88  -3.26
Writing to output.gpw (mode='')

iter:  75 12:32:23  -324.048839c -4.20  -3.44
iter:  76 12:32:31  -324.048884c -4.35  -3.64
iter:  77 12:32:39  -324.048874c -4.35  -3.74
iter:  78 12:32:46  -324.048869c -4.63  -3.81
iter:  79 12:32:53  -324.048861c -4.42  -3.83
Writing to output.gpw (mode='')

iter:  80 12:33:01  -324.048873c -4.81  -3.86
iter:  81 12:33:08  -324.048877c -4.85  -3.94
iter:  82 12:33:15  -324.048877c -4.66  -4.08c
iter:  83 12:33:23  -324.048880c -4.73  -4.13c
iter:  84 12:33:30  -324.048890c -4.85  -4.25c
Writing to output.gpw (mode='')

iter:  85 12:33:37  -324.048888c -5.27  -4.40c
iter:  86 12:33:45  -324.048889c -5.13  -4.42c
iter:  87 12:33:52  -324.048892c -5.16  -4.45c
iter:  88 12:33:59  -324.048894c -5.14  -4.57c
iter:  89 12:34:07  -324.048894c -5.55  -4.60c
Writing to output.gpw (mode='')

iter:  90 12:34:14  -324.048894c -5.40  -4.61c
iter:  91 12:34:21  -324.048894c -5.48  -4.62c
iter:  92 12:34:28  -324.048893c -5.71  -4.63c
iter:  93 12:34:36  -324.048894c -5.67  -4.59c
iter:  94 12:34:43  -324.048895c -5.53  -4.73c
Writing to output.gpw (mode='')

iter:  95 12:34:50  -324.048897c -5.80  -4.80c
iter:  96 12:34:58  -324.048897c -5.67  -4.79c
iter:  97 12:35:05  -324.048896c -5.54  -4.97c
iter:  98 12:35:12  -324.048897c -5.99  -5.16c
iter:  99 12:35:19  -324.048897c -6.03  -5.23c
Writing to output.gpw (mode='')

iter: 100 12:35:27  -324.048897c -6.12  -5.33c
iter: 101 12:35:34  -324.048897c -6.19  -5.38c
iter: 102 12:35:41  -324.048897c -6.06  -5.33c
iter: 103 12:35:49  -324.048897c -6.34  -5.35c
iter: 104 12:35:56  -324.048897c -6.53  -5.44c
Writing to output.gpw (mode='')

iter: 105 12:36:03  -324.048897c -6.52  -5.37c
iter: 106 12:36:11  -324.048897c -6.33  -5.36c
iter: 107 12:36:18  -324.048897c -6.35  -5.34c
iter: 108 12:36:25  -324.048897c -6.72  -5.32c
iter: 109 12:36:33  -324.048897c -6.36  -5.29c
Writing to output.gpw (mode='')

iter: 110 12:36:40  -324.048897c -6.36  -5.28c
iter: 111 12:36:47  -324.048897c -6.64  -5.27c
iter: 112 12:36:55  -324.048897c -6.79  -5.25c
iter: 113 12:37:02  -324.048897c -7.00  -5.24c
iter: 114 12:37:09  -324.048897c -6.96  -5.05c
Writing to output.gpw (mode='')

iter: 115 12:37:24  -324.048897c -7.10  -5.20c
iter: 116 12:37:32  -324.048897c -7.00  -5.25c
iter: 117 12:37:39  -324.048898c -6.94  -5.23c
iter: 118 12:37:47  -324.048898c -7.14  -5.20c
iter: 119 12:37:54  -324.048898c -6.93  -5.23c
Writing to output.gpw (mode='')

iter: 120 12:38:01  -324.048898c -7.12  -5.33c
iter: 121 12:38:09  -324.048898c -7.06  -5.38c
iter: 122 12:38:16  -324.048898c -7.25  -5.53c
iter: 123 12:38:23  -324.048898c -7.29  -5.62c
iter: 124 12:38:31  -324.048898c -7.59c -5.67c

Converged after 124 iterations.

Dipole moment: (-25.664676, -3.114868, 0.247617) |e|*Ang

Energy contributions relative to reference atoms: (reference = -16475.706344)

Kinetic:       +184.523700
Potential:     -171.267495
External:        +0.000000
XC:            -338.368123
Entropy (-ST):   -0.157426
Local:           +1.141734
--------------------------
Free energy:   -324.127611
Extrapolated:  -324.048898

Dipole-layer corrected work functions: 3.404185, 2.928181 eV

Showing only first 2 kpts
 Kpt  Band  Eigenvalues  Occupancy
  0    34     -3.41991    1.98757
  0    35     -3.32051    1.91266
  0    36     -3.06325    0.22635
  0    37     -2.93345    0.01885

  1    34     -3.22969    1.56151
  1    35     -3.15670    0.90545
  1    36     -3.09249    0.37273
  1    37     -3.07344    0.27060


Fermi level: -3.16618

No gap
Writing to output.gpw (mode='')


Forces in eV/Ang:
  0 Li    0.02094   -0.00338   -0.27504
  1 Li   -0.00040    0.00127   -0.27263
  2 Li   -0.02027   -0.00384   -0.27455
  3 Li    0.00001    0.01891   -0.27346
  4 Li   -0.00054   -0.00744   -0.26724
  5 Li    0.00002    0.01769   -0.27399
  6 Li   -0.00541   -0.01267   -0.26811
  7 Li   -0.00060    0.00732   -0.28187
  8 Li    0.00628   -0.01281   -0.26547
  9 Li    0.00063   -0.00685    0.27922
 10 Li    0.00693    0.00115    0.25809
 11 Li   -0.00968    0.00155    0.25907
 12 Li   -0.00110    0.00032    0.32906
 13 Li    0.01483   -0.00228    0.25191
 14 Li   -0.01218   -0.00231    0.26006
 15 Li    0.00022    0.00624    0.24493
 16 Li   -0.00018    0.00109    0.25067
 17 Li    0.00053    0.00525    0.25012
 18 Li    0.02153   -0.00554   -0.08080
 19 Li   -0.00048    0.00475    0.07346
 20 Li   -0.01759   -0.01357   -0.08312
 21 Li    0.00347   -0.01855    0.01874
 22 Li   -0.00073    0.00333    0.04930
 23 Li   -0.00427   -0.01096    0.01225
 24 Li   -0.01356    0.01432    0.05843
 25 Li    0.00366   -0.01539    0.01890
 26 Li    0.01180    0.01565    0.05475
 27 Li   -0.00436   -0.06802    0.21741
 28 Li    0.06576   -0.04931   -0.04574
 29 Li   -0.05355   -0.04677   -0.03352
 30 Li   -0.01197    1.74063   -4.24522
 31 Li    0.11125    0.04796   -0.07962
 32 Li   -0.08355    0.04157   -0.04074
 33 Li    0.00180    0.00559    0.02210
 34 Li   -0.00448   -0.00143   -0.02003
 35 Li    0.00316   -0.00245   -0.02014
 36 O     0.00093    0.07890    0.11608
 37 O    -0.11610    0.16752    0.00789
 38 C     1.35399    0.19768    1.03993
 39 C     0.10004   -0.12537    0.23994
 40 H     0.07017   -0.05930    0.23013
 41 H     2.12530    0.36017    2.91257
 42 H     0.04913    0.02006    0.00227
 43 H     0.01233    0.11139    0.01314
 44 H     0.01381   -0.06605   -0.02572
 45 H    -0.05110    0.02365    0.02202
 46 N    -1.76192   -6.01102   -2.34552
 47 N    -1.84803    3.62218    2.00410

System changes: positions 

Initializing position-dependent things.

Density initialized from wave functions
       .-----------------------.  
      /|                       |  
     / |                       |  
    /  |                       |  
   /   |                       |  
  /    |                       |  
 *     |                       |  
 |     |                       |  
 |     |                       |  
 |     |                       |  
 |     |                       |  
 |    H|                       |  
 |H O C| H                H    |  
 |O  C H       Li      Li      Li 
 |     |                       |  
 |   Hi|     Li      Li        |  
 |     |                  NN   |  
 |     |  LLi     LLi     LLi  |  
 |     |                       |  
 |     |Li      Li      Li     |  
 |   Li|     Li      Li        |  
 |    Li  Li  Li  Li  Li  Li   |  
 | Li  |   Li      Li          |  
 |     |Li      Li      Li     |  
 Li    | Li      Li            |  
 |    Li      Li      Li       |  
 |     |                       |  
 |     |                       |  
 |     |                       |  
 |     |                       |  
 |     |                       |  
 |     |                       |  
 |     .-----------------------.  
 |    /                       /   
 |   /                       /    
 |  /                       /     
 | /                       /      
 |/                       /       
 *-----------------------*        

Positions:
   0 Li     1.617037    1.617037   10.000000    ( 0.0000,  0.0000,  0.0000)
   1 Li     4.851111    1.617037   10.000000    ( 0.0000,  0.0000,  0.0000)
   2 Li     8.085185    1.617037   10.000000    ( 0.0000,  0.0000,  0.0000)
   3 Li     1.617037    4.851111   10.000000    ( 0.0000,  0.0000,  0.0000)
   4 Li     4.851111    4.851111   10.000000    ( 0.0000,  0.0000,  0.0000)
   5 Li     8.085185    4.851111   10.000000    ( 0.0000,  0.0000,  0.0000)
   6 Li     1.617037    8.085185   10.000000    ( 0.0000,  0.0000,  0.0000)
   7 Li     4.851111    8.085185   10.000000    ( 0.0000,  0.0000,  0.0000)
   8 Li     8.085185    8.085185   10.000000    ( 0.0000,  0.0000,  0.0000)
   9 Li     0.000000    0.000000   11.617037    ( 0.0000,  0.0000,  0.0000)
  10 Li     3.234074    0.000000   11.617037    ( 0.0000,  0.0000,  0.0000)
  11 Li     6.468148    0.000000   11.617037    ( 0.0000,  0.0000,  0.0000)
  12 Li     0.000000    3.234074   11.617037    ( 0.0000,  0.0000,  0.0000)
  13 Li     3.234074    3.234074   11.617037    ( 0.0000,  0.0000,  0.0000)
  14 Li     6.468148    3.234074   11.617037    ( 0.0000,  0.0000,  0.0000)
  15 Li     0.000000    6.468148   11.617037    ( 0.0000,  0.0000,  0.0000)
  16 Li     3.234074    6.468148   11.617037    ( 0.0000,  0.0000,  0.0000)
  17 Li     6.468148    6.468148   11.617037    ( 0.0000,  0.0000,  0.0000)
  18 Li     1.617167    1.617005   13.469245    ( 0.0000,  0.0000,  0.0000)
  19 Li     4.851108    1.617067   13.470169    ( 0.0000,  0.0000,  0.0000)
  20 Li     8.085079    1.616957   13.469231    ( 0.0000,  0.0000,  0.0000)
  21 Li     1.617059    4.851000   13.469842    ( 0.0000,  0.0000,  0.0000)
  22 Li     4.851107    4.851131   13.470025    ( 0.0000,  0.0000,  0.0000)
  23 Li     8.085158    4.851045   13.469803    ( 0.0000,  0.0000,  0.0000)
  24 Li     1.616957    8.085270   13.470077    ( 0.0000,  0.0000,  0.0000)
  25 Li     4.851133    8.085092   13.469842    ( 0.0000,  0.0000,  0.0000)
  26 Li     8.085254    8.085278   13.470055    ( 0.0000,  0.0000,  0.0000)
  27 Li    -0.000026   -0.000407   15.447240    ( 0.0000,  0.0000,  0.0000)
  28 Li     3.234467   -0.000295   15.445665    ( 0.0000,  0.0000,  0.0000)
  29 Li     6.467828   -0.000280   15.445738    ( 0.0000,  0.0000,  0.0000)
  30 Li    -0.000072    3.244483   15.420551    ( 0.0000,  0.0000,  0.0000)
  31 Li     3.234742    3.234363   15.445462    ( 0.0000,  0.0000,  0.0000)
  32 Li     6.467646    3.234325   15.445694    ( 0.0000,  0.0000,  0.0000)
  33 Li     0.000011    6.468182   15.446071    ( 0.0000,  0.0000,  0.0000)
  34 Li     3.234050    6.468137   15.445818    ( 0.0000,  0.0000,  0.0000)
  35 Li     6.468164    6.468131   15.445818    ( 0.0000,  0.0000,  0.0000)
  36 O      0.000006    1.617509   19.446634    ( 0.0000,  0.0000,  0.0000)
  37 O      0.043299    4.516237   19.213297    ( 0.0000,  0.0000,  0.0000)
  38 C      1.179309    2.346780   19.039781    ( 0.0000,  0.0000,  0.0000)
  39 C      1.185500    3.754034   19.604148    ( 0.0000,  0.0000,  0.0000)
  40 H      2.086022    1.817117   19.327772    ( 0.0000,  0.0000,  0.0000)
  41 H      1.136624    2.380501   17.961414    ( 0.0000,  0.0000,  0.0000)
  42 H      2.059461    4.291622   19.226246    ( 0.0000,  0.0000,  0.0000)
  43 H      1.260477    3.705719   20.701852    ( 0.0000,  0.0000,  0.0000)
  44 H      0.074598    1.447217   20.393107    ( 0.0000,  0.0000,  0.0000)
  45 H     -0.723432    3.935911   19.309821    ( 0.0000,  0.0000,  0.0000)
  46 N     -0.010537    1.581052   16.931913    ( 0.0000,  0.0000,  0.0000)
  47 N     -0.011052    2.735283   16.957924    ( 0.0000,  0.0000,  0.0000)

Unit cell:
           periodic     x           y           z      points  spacing
  1. axis:    yes    9.702222    0.000000    0.000000    60     0.1617
  2. axis:    yes    0.000000    9.702222    0.000000    60     0.1617
  3. axis:    no     0.000000    0.000000   26.351111   164     0.1607

  Lengths:   9.702222   9.702222  26.351111
  Angles:   90.000000  90.000000  90.000000

Effective grid spacing dv^(1/3) = 0.1614

     iter     time        total  log10-change:
                         energy  eigst   dens
iter:   1 12:38:40  -328.464098  +0.25
iter:   2 12:38:47  -325.832391  +0.12  -1.05
iter:   3 12:38:54  -324.607520  -0.56  -1.10
iter:   4 12:39:02  -324.485919  -0.99  -1.52
Writing to output.gpw (mode='')

iter:   5 12:39:09  -324.473752  -1.44  -1.88
iter:   6 12:39:17  -324.506776c -0.97  -2.00
iter:   7 12:39:24  -324.462747  -1.30  -1.74
iter:   8 12:39:31  -324.460900  -1.73  -2.10
iter:   9 12:39:39  -324.452680c -1.75  -2.10
Writing to output.gpw (mode='')

iter:  10 12:39:46  -324.449079c -2.32  -2.33
iter:  11 12:39:54  -324.448321c -2.67  -2.54
iter:  12 12:40:01  -324.448575c -3.01  -2.57
iter:  13 12:40:08  -324.448296c -2.71  -2.66
iter:  14 12:40:16  -324.448595c -2.91  -2.91
Writing to output.gpw (mode='')

iter:  15 12:40:23  -324.448545c -3.36  -2.85
iter:  16 12:40:31  -324.448587c -3.19  -3.06
iter:  17 12:40:38  -324.448726c -3.12  -3.15
iter:  18 12:40:46  -324.448782c -3.60  -3.19
iter:  19 12:40:53  -324.448768c -3.78  -3.24
Writing to output.gpw (mode='')

iter:  20 12:41:00  -324.448790c -3.98  -3.30
iter:  21 12:41:08  -324.448918c -3.94  -3.34
iter:  22 12:41:17  -324.448980c -3.86  -3.33
iter:  23 12:41:25  -324.448991c -4.10  -3.34
iter:  24 12:41:32  -324.448942c -4.15  -3.39
Writing to output.gpw (mode='')

iter:  25 12:41:39  -324.448927c -4.56  -3.62
iter:  26 12:41:47  -324.448886c -4.43  -3.64
iter:  27 12:41:54  -324.448907c -4.63  -3.73
iter:  28 12:42:01  -324.448934c -4.63  -3.87
iter:  29 12:42:09  -324.448914c -4.79  -3.87
Writing to output.gpw (mode='')

iter:  30 12:42:23  -324.448934c -4.71  -3.99
iter:  31 12:42:31  -324.448925c -4.87  -4.13c
iter:  32 12:42:39  -324.448924c -5.16  -4.26c
iter:  33 12:42:46  -324.448917c -5.07  -4.28c
iter:  34 12:42:53  -324.448915c -5.31  -4.55c
Writing to output.gpw (mode='')

iter:  35 12:43:01  -324.448927c -5.31  -4.52c
iter:  36 12:43:08  -324.448924c -5.34  -4.44c
iter:  37 12:43:16  -324.448923c -5.33  -4.56c
iter:  38 12:43:23  -324.448923c -5.31  -4.53c
iter:  39 12:43:30  -324.448927c -5.64  -4.53c
Writing to output.gpw (mode='')

iter:  40 12:43:38  -324.448926c -5.88  -4.42c
iter:  41 12:43:45  -324.448927c -5.66  -4.44c
iter:  42 12:43:52  -324.448926c -5.92  -4.45c
iter:  43 12:44:00  -324.448921c -5.71  -4.44c
iter:  44 12:44:07  -324.448925c -5.91  -4.47c
Writing to output.gpw (mode='')

iter:  45 12:44:14  -324.448926c -6.04  -4.42c
iter:  46 12:44:23  -324.448924c -6.15  -4.40c
iter:  47 12:44:32  -324.448915c -6.14  -4.41c
iter:  48 12:44:43  -324.448913c -6.31  -4.66c
iter:  49 12:44:52  -324.448915c -6.53  -4.75c
Writing to output.gpw (mode='')

iter:  50 12:45:00  -324.448915c -6.61  -4.87c
iter:  51 12:45:07  -324.448916c -6.71  -5.18c
iter:  52 12:45:14  -324.448915c -6.63  -5.19c
iter:  53 12:45:22  -324.448916c -6.58  -5.30c
iter:  54 12:45:29  -324.448916c -6.81  -5.42c
Writing to output.gpw (mode='')

iter:  55 12:45:37  -324.448915c -7.05  -5.46c
iter:  56 12:45:44  -324.448915c -6.84  -5.51c
iter:  57 12:45:51  -324.448915c -6.90  -5.59c
iter:  58 12:45:59  -324.448915c -7.08  -5.70c
iter:  59 12:46:06  -324.448915c -7.22  -5.81c
Writing to output.gpw (mode='')

iter:  60 12:46:13  -324.448915c -7.07  -5.87c
iter:  61 12:46:21  -324.448915c -7.06  -6.04c
iter:  62 12:46:28  -324.448915c -7.34  -6.06c
iter:  63 12:46:35  -324.448915c -7.42c -6.06c

Converged after 63 iterations.

Dipole moment: (-23.459950, -2.984117, 0.192867) |e|*Ang

Energy contributions relative to reference atoms: (reference = -16475.706344)

Kinetic:       +176.074305
Potential:     -164.608946
External:        +0.000000
XC:            -336.971632
Entropy (-ST):   -0.160742
Local:           +1.137730
--------------------------
Free energy:   -324.529286
Extrapolated:  -324.448915

Dipole-layer corrected work functions: 3.407889, 3.037133 eV

Showing only first 2 kpts
 Kpt  Band  Eigenvalues  Occupancy
  0    34     -3.47576    1.98745
  0    35     -3.37661    1.91228
  0    36     -3.13486    0.29531
  0    37     -2.99809    0.02223

  1    34     -3.29374    1.61212
  1    35     -3.20830    0.85887
  1    36     -3.14685    0.36094
  1    37     -3.11591    0.21203


Fermi level: -3.22251

No gap
Writing to output.gpw (mode='')


Forces in eV/Ang:
  0 Li    0.02099   -0.00394   -0.27716
  1 Li   -0.00081    0.00112   -0.27260
  2 Li   -0.02006   -0.00419   -0.27665
  3 Li    0.00014    0.02013   -0.27583
  4 Li   -0.00067   -0.00674   -0.26684
  5 Li    0.00032    0.01926   -0.27605
  6 Li   -0.00560   -0.01349   -0.26817
  7 Li   -0.00080    0.00797   -0.28328
  8 Li    0.00628   -0.01361   -0.26566
  9 Li    0.00041   -0.00816    0.28155
 10 Li    0.00841    0.00100    0.25911
 11 Li   -0.01016    0.00228    0.26116
 12 Li   -0.00096    0.00156    0.33655
 13 Li    0.01219   -0.00315    0.25548
 14 Li   -0.01004   -0.00284    0.26414
 15 Li    0.00002    0.00743    0.24507
 16 Li    0.00164    0.00175    0.24930
 17 Li   -0.00119    0.00434    0.24921
 18 Li    0.02247   -0.01099   -0.09177
 19 Li   -0.00010    0.00527    0.07500
 20 Li   -0.01758   -0.01805   -0.09493
 21 Li    0.00950   -0.00820    0.00208
 22 Li   -0.00084   -0.00047    0.05166
 23 Li   -0.01043   -0.00109   -0.00506
 24 Li   -0.01300    0.01220    0.05402
 25 Li    0.00423   -0.01374    0.02029
 26 Li    0.01112    0.01223    0.04969
 27 Li   -0.00762   -0.00721    0.29294
 28 Li    0.06160   -0.04905   -0.03856
 29 Li   -0.05102   -0.04806   -0.02554
 30 Li    0.01164    1.35282   -3.50330
 31 Li    0.09988    0.04593   -0.06442
 32 Li   -0.06925    0.04038   -0.02238
 33 Li    0.00210    0.00128    0.02793
 34 Li   -0.00204   -0.00108   -0.02117
 35 Li    0.00038   -0.00034   -0.02132
 36 O     0.12642    0.12683    0.09843
 37 O    -0.06206    0.12230    0.05433
 38 C     0.92449    0.15042    1.18552
 39 C     0.10998   -0.02484    0.24063
 40 H     0.24499   -0.14789    0.34718
 41 H     1.75558    0.31082    2.16106
 42 H     0.03952    0.02378    0.01913
 43 H     0.01319    0.13301    0.05507
 44 H     0.01579   -0.07940    0.02179
 45 H    -0.03249    0.01423   -0.00214
 46 N    -1.51554    0.18403   -2.26608
 47 N    -1.70353   -2.08961    1.43417

System changes: positions 

Initializing position-dependent things.

Density initialized from wave functions
       .-----------------------.  
      /|                       |  
     / |                       |  
    /  |                       |  
   /   |                       |  
  /    |                       |  
 *     |                       |  
 |     |                       |  
 |     |                       |  
 |     |                       |  
 |     |                       |  
 |    H|                       |  
 |H O C| H                H    |  
 |O  C H       Li      Li      Li 
 |     |                       |  
 |   Hi|     Li      Li        |  
 |     |                  NN   |  
 | Li  |  LLi     LLi     Li   |  
 |     |                       |  
 |     |Li      Li      Li     |  
 |   Li|     Li      Li        |  
 |    Li  Li  Li  Li  Li  Li   |  
 | Li  |   Li      Li          |  
 |     |Li      Li      Li     |  
 Li    | Li      Li            |  
 |    Li      Li      Li       |  
 |     |                       |  
 |     |                       |  
 |     |                       |  
 |     |                       |  
 |     |                       |  
 |     |                       |  
 |     .-----------------------.  
 |    /                       /   
 |   /                       /    
 |  /                       /     
 | /                       /      
 |/                       /       
 *-----------------------*        

Positions:
   0 Li     1.617037    1.617037   10.000000    ( 0.0000,  0.0000,  0.0000)
   1 Li     4.851111    1.617037   10.000000    ( 0.0000,  0.0000,  0.0000)
   2 Li     8.085185    1.617037   10.000000    ( 0.0000,  0.0000,  0.0000)
   3 Li     1.617037    4.851111   10.000000    ( 0.0000,  0.0000,  0.0000)
   4 Li     4.851111    4.851111   10.000000    ( 0.0000,  0.0000,  0.0000)
   5 Li     8.085185    4.851111   10.000000    ( 0.0000,  0.0000,  0.0000)
   6 Li     1.617037    8.085185   10.000000    ( 0.0000,  0.0000,  0.0000)
   7 Li     4.851111    8.085185   10.000000    ( 0.0000,  0.0000,  0.0000)
   8 Li     8.085185    8.085185   10.000000    ( 0.0000,  0.0000,  0.0000)
   9 Li     0.000000    0.000000   11.617037    ( 0.0000,  0.0000,  0.0000)
  10 Li     3.234074    0.000000   11.617037    ( 0.0000,  0.0000,  0.0000)
  11 Li     6.468148    0.000000   11.617037    ( 0.0000,  0.0000,  0.0000)
  12 Li     0.000000    3.234074   11.617037    ( 0.0000,  0.0000,  0.0000)
  13 Li     3.234074    3.234074   11.617037    ( 0.0000,  0.0000,  0.0000)
  14 Li     6.468148    3.234074   11.617037    ( 0.0000,  0.0000,  0.0000)
  15 Li     0.000000    6.468148   11.617037    ( 0.0000,  0.0000,  0.0000)
  16 Li     3.234074    6.468148   11.617037    ( 0.0000,  0.0000,  0.0000)
  17 Li     6.468148    6.468148   11.617037    ( 0.0000,  0.0000,  0.0000)
  18 Li     1.617395    1.616903   13.468328    ( 0.0000,  0.0000,  0.0000)
  19 Li     4.851106    1.617120   13.470932    ( 0.0000,  0.0000,  0.0000)
  20 Li     8.084899    1.616781   13.468283    ( 0.0000,  0.0000,  0.0000)
  21 Li     1.617145    4.850896   13.469895    ( 0.0000,  0.0000,  0.0000)
  22 Li     4.851098    4.851133   13.470549    ( 0.0000,  0.0000,  0.0000)
  23 Li     8.085063    4.851015   13.469784    ( 0.0000,  0.0000,  0.0000)
  24 Li     1.616823    8.085398   13.470638    ( 0.0000,  0.0000,  0.0000)
  25 Li     4.851175    8.084948   13.470047    ( 0.0000,  0.0000,  0.0000)
  26 Li     8.085369    8.085409   13.470573    ( 0.0000,  0.0000,  0.0000)
  27 Li    -0.000098   -0.000598   15.450088    ( 0.0000,  0.0000,  0.0000)
  28 Li     3.235105   -0.000797   15.445257    ( 0.0000,  0.0000,  0.0000)
  29 Li     6.467302   -0.000768   15.445462    ( 0.0000,  0.0000,  0.0000)
  30 Li     0.000002    3.259063   15.383303    ( 0.0000,  0.0000,  0.0000)
  31 Li     3.235785    3.234837   15.444774    ( 0.0000,  0.0000,  0.0000)
  32 Li     6.466910    3.234740   15.445430    ( 0.0000,  0.0000,  0.0000)
  33 Li     0.000032    6.468203   15.446345    ( 0.0000,  0.0000,  0.0000)
  34 Li     3.234024    6.468125   15.445604    ( 0.0000,  0.0000,  0.0000)
  35 Li     6.468174    6.468123   15.445602    ( 0.0000,  0.0000,  0.0000)
  36 O      0.001055    1.618712   19.447674    ( 0.0000,  0.0000,  0.0000)
  37 O      0.042560    4.517574   19.213763    ( 0.0000,  0.0000,  0.0000)
  38 C      1.189591    2.348409   19.051618    ( 0.0000,  0.0000,  0.0000)
  39 C      1.186605    3.753585   19.606607    ( 0.0000,  0.0000,  0.0000)
  40 H      2.088188    1.815777   19.331094    ( 0.0000,  0.0000,  0.0000)
  41 H      1.155285    2.383774   17.984959    ( 0.0000,  0.0000,  0.0000)
  42 H      2.059884    4.291857   19.226409    ( 0.0000,  0.0000,  0.0000)
  43 H      1.260610    3.707037   20.702334    ( 0.0000,  0.0000,  0.0000)
  44 H      0.074755    1.446432   20.393237    ( 0.0000,  0.0000,  0.0000)
  45 H     -0.723800    3.936074   19.309846    ( 0.0000,  0.0000,  0.0000)
  46 N     -0.026506    1.570943   16.908594    ( 0.0000,  0.0000,  0.0000)
  47 N     -0.028746    2.724978   16.973688    ( 0.0000,  0.0000,  0.0000)

Unit cell:
           periodic     x           y           z      points  spacing
  1. axis:    yes    9.702222    0.000000    0.000000    60     0.1617
  2. axis:    yes    0.000000    9.702222    0.000000    60     0.1617
  3. axis:    no     0.000000    0.000000   26.351111   164     0.1607

  Lengths:   9.702222   9.702222  26.351111
  Angles:   90.000000  90.000000  90.000000

Effective grid spacing dv^(1/3) = 0.1614

     iter     time        total  log10-change:
                         energy  eigst   dens
iter:   1 12:46:44  -324.828401  -0.96
iter:   2 12:46:52  -324.827216  -1.64  -2.09
iter:   3 12:46:59  -324.823597c -2.21  -2.10
iter:   4 12:47:06  -324.819623c -2.23  -2.39
Writing to output.gpw (mode='')

iter:   5 12:47:14  -324.816946c -1.98  -2.50
iter:   6 12:47:28  -324.815879c -2.86  -2.56
iter:   7 12:47:35  -324.815857c -2.62  -2.81
iter:   8 12:47:42  -324.816137c -3.23  -2.85
iter:   9 12:47:50  -324.816080c -3.62  -2.94
Writing to output.gpw (mode='')

iter:  10 12:47:57  -324.815790c -3.88  -2.95
iter:  11 12:48:04  -324.815720c -3.47  -3.10
iter:  12 12:48:11  -324.815781c -4.24  -3.15
iter:  13 12:48:19  -324.815649c -4.30  -3.26
iter:  14 12:48:26  -324.815728c -4.51  -3.44
Writing to output.gpw (mode='')

iter:  15 12:48:34  -324.815686c -4.49  -3.54
iter:  16 12:48:41  -324.815698c -5.02  -3.66
iter:  17 12:48:48  -324.815709c -4.94  -3.76
iter:  18 12:48:55  -324.815711c -5.06  -3.74
iter:  19 12:49:03  -324.815731c -4.97  -3.80
Writing to output.gpw (mode='')

iter:  20 12:49:10  -324.815696c -5.24  -3.82
iter:  21 12:49:17  -324.815722c -5.47  -3.88
iter:  22 12:49:25  -324.815728c -5.38  -4.09c
iter:  23 12:49:32  -324.815723c -5.97  -4.12c
iter:  24 12:49:39  -324.815716c -6.03  -4.21c
Writing to output.gpw (mode='')

iter:  25 12:49:47  -324.815719c -6.27  -4.41c
iter:  26 12:49:54  -324.815724c -6.35  -4.50c
iter:  27 12:50:01  -324.815716c -6.44  -4.72c
iter:  28 12:50:09  -324.815720c -6.44  -4.81c
iter:  29 12:50:16  -324.815718c -6.61  -4.84c
Writing to output.gpw (mode='')

iter:  30 12:50:23  -324.815718c -6.76  -4.89c
iter:  31 12:50:30  -324.815718c -6.87  -5.21c
iter:  32 12:50:38  -324.815720c -6.90  -5.30c
iter:  33 12:50:45  -324.815719c -7.08  -5.28c
iter:  34 12:50:52  -324.815719c -7.11  -5.51c
Writing to output.gpw (mode='')

iter:  35 12:51:00  -324.815719c -7.22  -5.54c
iter:  36 12:51:07  -324.815719c -7.39  -5.53c
iter:  37 12:51:14  -324.815719c -7.36  -5.62c
iter:  38 12:51:22  -324.815719c -7.57c -5.65c

Converged after 38 iterations.

Dipole moment: (-19.971349, -2.990316, 0.205310) |e|*Ang

Energy contributions relative to reference atoms: (reference = -16475.706344)

Kinetic:       +174.644724
Potential:     -163.788874
External:        +0.000000
XC:            -336.725197
Entropy (-ST):   -0.159646
Local:           +1.133452
--------------------------
Free energy:   -324.895542
Extrapolated:  -324.815719

Dipole-layer corrected work functions: 3.406487, 3.011810 eV

Showing only first 2 kpts
 Kpt  Band  Eigenvalues  Occupancy
  0    34     -3.46401    1.98785
  0    35     -3.36885    1.92121
  0    36     -3.11170    0.24933
  0    37     -2.99413    0.02676

  1    34     -3.28067    1.61395
  1    35     -3.19727    0.88181
  1    36     -3.13978    0.39965
  1    37     -3.10088    0.20580


Fermi level: -3.20915

No gap
Writing to output.gpw (mode='')


Forces in eV/Ang:
  0 Li    0.02131   -0.00403   -0.27774
  1 Li   -0.00119    0.00124   -0.27166
  2 Li   -0.02001   -0.00420   -0.27726
  3 Li   -0.00073    0.02086   -0.27696
  4 Li   -0.00072   -0.00667   -0.26668
  5 Li    0.00120    0.02036   -0.27692
  6 Li   -0.00635   -0.01418   -0.26734
  7 Li   -0.00085    0.00851   -0.28444
  8 Li    0.00677   -0.01456   -0.26489
  9 Li    0.00008   -0.00823    0.28337
 10 Li    0.01140    0.00015    0.25802
 11 Li   -0.01236    0.00142    0.26089
 12 Li   -0.00081    0.00150    0.34244
 13 Li    0.01207   -0.00297    0.25657
 14 Li   -0.01051   -0.00243    0.26548
 15 Li   -0.00012    0.00824    0.24324
 16 Li    0.00187    0.00229    0.24925
 17 Li   -0.00106    0.00414    0.24886
 18 Li    0.02536   -0.01691   -0.09259
 19 Li    0.00047    0.00496    0.07421
 20 Li   -0.02081   -0.02276   -0.10003
 21 Li    0.01553    0.00040   -0.00630
 22 Li   -0.00001    0.00026    0.05085
 23 Li   -0.01647    0.00708   -0.01477
 24 Li   -0.01289    0.01323    0.05362
 25 Li    0.00406   -0.01438    0.01941
 26 Li    0.01097    0.01273    0.04975
 27 Li   -0.00676   -0.00888    0.28247
 28 Li    0.05985   -0.04711   -0.03922
 29 Li   -0.05309   -0.04901   -0.02675
 30 Li    0.03138    1.00911   -2.56623
 31 Li    0.10099    0.04460   -0.06634
 32 Li   -0.07222    0.04078   -0.02355
 33 Li    0.00261    0.00068    0.02857
 34 Li   -0.00482   -0.00239   -0.02048
 35 Li    0.00223   -0.00027   -0.02112
 36 O     0.24875    0.15569    0.08638
 37 O     0.00705    0.02763    0.07906
 38 C     0.51500    0.10076    1.20709
 39 C     0.12418    0.13625    0.27007
 40 H     0.42871   -0.23593    0.47582
 41 H     1.47697    0.26724    1.45384
 42 H     0.02794    0.02529    0.03922
 43 H     0.01692    0.15971    0.11464
 44 H    -0.00070   -0.09509    0.05869
 45 H    -0.02049    0.02180   -0.01156
 46 N    -1.27343    0.59469   -1.99188
 47 N    -1.59190   -2.08543    0.65143

System changes: positions 

Initializing position-dependent things.

Density initialized from wave functions
       .-----------------------.  
      /|                       |  
     / |                       |  
    /  |                       |  
   /   |                       |  
  /    |                       |  
 *     |                       |  
 |     |                       |  
 |     |                       |  
 |     |                       |  
 |     |                       |  
 |    H|                       |  
 |H O C| H                H    |  
 |O  C H       Li      Li      Li 
 |     |                       |  
 |   Hi|     Li      Li        |  
 |     |                   N   |  
 | Li  |  LLi     LLi     Ni   |  
 |     |                       |  
 |     |Li      Li      Li     |  
 |   Li|     Li      Li        |  
 |    Li  Li  Li  Li  Li  Li   |  
 | Li  |   Li      Li          |  
 |     |Li      Li      Li     |  
 Li    | Li      Li            |  
 |    Li      Li      Li       |  
 |     |                       |  
 |     |                       |  
 |     |                       |  
 |     |                       |  
 |     |                       |  
 |     |                       |  
 |     .-----------------------.  
 |    /                       /   
 |   /                       /    
 |  /                       /     
 | /                       /      
 |/                       /       
 *-----------------------*        

Positions:
   0 Li     1.617037    1.617037   10.000000    ( 0.0000,  0.0000,  0.0000)
   1 Li     4.851111    1.617037   10.000000    ( 0.0000,  0.0000,  0.0000)
   2 Li     8.085185    1.617037   10.000000    ( 0.0000,  0.0000,  0.0000)
   3 Li     1.617037    4.851111   10.000000    ( 0.0000,  0.0000,  0.0000)
   4 Li     4.851111    4.851111   10.000000    ( 0.0000,  0.0000,  0.0000)
   5 Li     8.085185    4.851111   10.000000    ( 0.0000,  0.0000,  0.0000)
   6 Li     1.617037    8.085185   10.000000    ( 0.0000,  0.0000,  0.0000)
   7 Li     4.851111    8.085185   10.000000    ( 0.0000,  0.0000,  0.0000)
   8 Li     8.085185    8.085185   10.000000    ( 0.0000,  0.0000,  0.0000)
   9 Li     0.000000    0.000000   11.617037    ( 0.0000,  0.0000,  0.0000)
  10 Li     3.234074    0.000000   11.617037    ( 0.0000,  0.0000,  0.0000)
  11 Li     6.468148    0.000000   11.617037    ( 0.0000,  0.0000,  0.0000)
  12 Li     0.000000    3.234074   11.617037    ( 0.0000,  0.0000,  0.0000)
  13 Li     3.234074    3.234074   11.617037    ( 0.0000,  0.0000,  0.0000)
  14 Li     6.468148    3.234074   11.617037    ( 0.0000,  0.0000,  0.0000)
  15 Li     0.000000    6.468148   11.617037    ( 0.0000,  0.0000,  0.0000)
  16 Li     3.234074    6.468148   11.617037    ( 0.0000,  0.0000,  0.0000)
  17 Li     6.468148    6.468148   11.617037    ( 0.0000,  0.0000,  0.0000)
  18 Li     1.617767    1.616659   13.467014    ( 0.0000,  0.0000,  0.0000)
  19 Li     4.851114    1.617189   13.472003    ( 0.0000,  0.0000,  0.0000)
  20 Li     8.084589    1.616452   13.466853    ( 0.0000,  0.0000,  0.0000)
  21 Li     1.617367    4.850893   13.469832    ( 0.0000,  0.0000,  0.0000)
  22 Li     4.851101    4.851150   13.471278    ( 0.0000,  0.0000,  0.0000)
  23 Li     8.084827    4.851109   13.469597    ( 0.0000,  0.0000,  0.0000)
  24 Li     1.616634    8.085599   13.471429    ( 0.0000,  0.0000,  0.0000)
  25 Li     4.851232    8.084733   13.470323    ( 0.0000,  0.0000,  0.0000)
  26 Li     8.085530    8.085606   13.471311    ( 0.0000,  0.0000,  0.0000)
  27 Li    -0.000184   -0.000914   15.453936    ( 0.0000,  0.0000,  0.0000)
  28 Li     3.235982   -0.001477   15.444664    ( 0.0000,  0.0000,  0.0000)
  29 Li     6.466518   -0.001479   15.445046    ( 0.0000,  0.0000,  0.0000)
  30 Li     0.000437    3.274004   15.346201    ( 0.0000,  0.0000,  0.0000)
  31 Li     3.237288    3.235487   15.443760    ( 0.0000,  0.0000,  0.0000)
  32 Li     6.465811    3.235337   15.445030    ( 0.0000,  0.0000,  0.0000)
  33 Li     0.000070    6.468224   15.446744    ( 0.0000,  0.0000,  0.0000)
  34 Li     3.233940    6.468086   15.445312    ( 0.0000,  0.0000,  0.0000)
  35 Li     6.468219    6.468113   15.445299    ( 0.0000,  0.0000,  0.0000)
  36 O      0.004602    1.620903   19.448950    ( 0.0000,  0.0000,  0.0000)
  37 O      0.042676    4.517870   19.214834    ( 0.0000,  0.0000,  0.0000)
  38 C      1.197315    2.349888   19.068763    ( 0.0000,  0.0000,  0.0000)
  39 C      1.188415    3.755672   19.610601    ( 0.0000,  0.0000,  0.0000)
  40 H      2.094357    1.812393   19.337980    ( 0.0000,  0.0000,  0.0000)
  41 H      1.177132    2.387691   18.006524    ( 0.0000,  0.0000,  0.0000)
  42 H      2.060289    4.292217   19.226979    ( 0.0000,  0.0000,  0.0000)
  43 H      1.260863    3.709359   20.704025    ( 0.0000,  0.0000,  0.0000)
  44 H      0.074697    1.445051   20.394041    ( 0.0000,  0.0000,  0.0000)
  45 H     -0.724123    3.936438   19.309726    ( 0.0000,  0.0000,  0.0000)
  46 N     -0.045120    1.562014   16.880132    ( 0.0000,  0.0000,  0.0000)
  47 N     -0.052010    2.711867   16.982863    ( 0.0000,  0.0000,  0.0000)

Unit cell:
           periodic     x           y           z      points  spacing
  1. axis:    yes    9.702222    0.000000    0.000000    60     0.1617
  2. axis:    yes    0.000000    9.702222    0.000000    60     0.1617
  3. axis:    no     0.000000    0.000000   26.351111   164     0.1607

  Lengths:   9.702222   9.702222  26.351111
  Angles:   90.000000  90.000000  90.000000

Effective grid spacing dv^(1/3) = 0.1614

     iter     time        total  log10-change:
                         energy  eigst   dens
iter:   1 12:51:31  -325.160110  -0.94
iter:   2 12:51:38  -325.154800  -1.49  -1.99
iter:   3 12:51:46  -325.145831c -2.18  -1.98
iter:   4 12:51:53  -325.141366c -2.18  -2.38
Writing to output.gpw (mode='')

iter:   5 12:52:00  -325.140634c -2.22  -2.52
iter:   6 12:52:08  -325.140861c -2.63  -2.50
iter:   7 12:52:15  -325.140041c -2.83  -2.77
iter:   8 12:52:28  -325.139962c -3.39  -2.89
iter:   9 12:52:35  -325.140210c -3.45  -2.92
Writing to output.gpw (mode='')

iter:  10 12:52:43  -325.140157c -3.82  -3.17
iter:  11 12:52:50  -325.139944c -4.10  -3.23
iter:  12 12:52:57  -325.140125c -4.24  -3.27
iter:  13 12:53:05  -325.140044c -4.24  -3.30
iter:  14 12:53:12  -325.140026c -4.57  -3.61
Writing to output.gpw (mode='')

iter:  15 12:53:19  -325.140029c -4.87  -3.68
iter:  16 12:53:27  -325.140036c -4.83  -3.75
iter:  17 12:53:34  -325.140041c -4.92  -3.76
iter:  18 12:53:41  -325.140040c -5.39  -3.83
iter:  19 12:53:49  -325.140060c -4.89  -3.92
Writing to output.gpw (mode='')

iter:  20 12:53:56  -325.140039c -5.32  -3.93
iter:  21 12:54:04  -325.140044c -4.88  -4.07c
iter:  22 12:54:11  -325.140043c -5.64  -4.00
iter:  23 12:54:18  -325.140045c -5.37  -4.23c
iter:  24 12:54:26  -325.140043c -6.22  -4.55c
Writing to output.gpw (mode='')

iter:  25 12:54:33  -325.140042c -6.25  -4.63c
iter:  26 12:54:40  -325.140040c -6.17  -4.68c
iter:  27 12:54:48  -325.140043c -6.44  -4.85c
iter:  28 12:54:55  -325.140041c -6.47  -4.89c
iter:  29 12:55:02  -325.140042c -6.68  -5.02c
Writing to output.gpw (mode='')

iter:  30 12:55:10  -325.140042c -6.75  -5.08c
iter:  31 12:55:17  -325.140041c -6.98  -5.15c
iter:  32 12:55:24  -325.140041c -7.08  -5.26c
iter:  33 12:55:32  -325.140042c -7.12  -5.42c
iter:  34 12:55:39  -325.140041c -7.28  -5.44c
Writing to output.gpw (mode='')

iter:  35 12:55:47  -325.140041c -7.39  -5.44c
iter:  36 12:55:54  -325.140041c -7.35  -5.44c
iter:  37 12:56:01  -325.140041c -7.53c -5.43c

Converged after 37 iterations.

Dipole moment: (-15.823105, -2.995538, 0.218900) |e|*Ang

Energy contributions relative to reference atoms: (reference = -16475.706344)

Kinetic:       +173.590054
Potential:     -163.239423
External:        +0.000000
XC:            -336.541344
Entropy (-ST):   -0.157984
Local:           +1.129664
--------------------------
Free energy:   -325.219034
Extrapolated:  -325.140041

Dipole-layer corrected work functions: 3.404611, 2.983810 eV

Showing only first 2 kpts
 Kpt  Band  Eigenvalues  Occupancy
  0    34     -3.45047    1.98818
  0    35     -3.35851    1.92789
  0    36     -3.08657    0.20814
  0    37     -2.98770    0.03165

  1    34     -3.26656    1.61907
  1    35     -3.18493    0.90742
  1    36     -3.12884    0.42587
  1    37     -3.08403    0.19885


Fermi level: -3.19421

No gap
Writing to output.gpw (mode='')


Forces in eV/Ang:
  0 Li    0.02169   -0.00395   -0.27837
  1 Li   -0.00171    0.00137   -0.27075
  2 Li   -0.01990   -0.00410   -0.27797
  3 Li   -0.00158    0.02135   -0.27808
  4 Li   -0.00073   -0.00672   -0.26654
  5 Li    0.00207    0.02134   -0.27785
  6 Li   -0.00699   -0.01472   -0.26654
  7 Li   -0.00085    0.00885   -0.28535
  8 Li    0.00725   -0.01555   -0.26417
  9 Li   -0.00027   -0.00825    0.28551
 10 Li    0.01447   -0.00078    0.25701
 11 Li   -0.01464    0.00021    0.26085
 12 Li   -0.00079    0.00142    0.34766
 13 Li    0.01235   -0.00266    0.25760
 14 Li   -0.01108   -0.00183    0.26695
 15 Li   -0.00027    0.00859    0.24165
 16 Li    0.00203    0.00281    0.24953
 17 Li   -0.00093    0.00423    0.24856
 18 Li    0.02842   -0.02276   -0.09263
 19 Li    0.00122    0.00466    0.07280
 20 Li   -0.02416   -0.02735   -0.10493
 21 Li    0.02202    0.00914   -0.01503
 22 Li    0.00109    0.00139    0.04936
 23 Li   -0.02332    0.01575   -0.02515
 24 Li   -0.01309    0.01442    0.05321
 25 Li    0.00368   -0.01515    0.01818
 26 Li    0.01113    0.01333    0.04988
 27 Li   -0.00594   -0.01854    0.26256
 28 Li    0.05811   -0.04486   -0.03955
 29 Li   -0.05544   -0.05029   -0.02792
 30 Li    0.04839    0.75899   -1.88803
 31 Li    0.10054    0.04294   -0.06717
 32 Li   -0.07482    0.04148   -0.02516
 33 Li    0.00314    0.00077    0.02901
 34 Li   -0.00728   -0.00342   -0.01954
 35 Li    0.00381   -0.00015   -0.02078
 36 O     0.27708    0.13735    0.13943
 37 O     0.04790   -0.01439    0.08819
 38 C     0.32690    0.02308    0.94212
 39 C     0.10061    0.19171    0.32380
 40 H     0.46199   -0.23050    0.56883
 41 H     1.21225    0.21300    0.98007
 42 H     0.04511    0.04364    0.04815
 43 H     0.02573    0.20958    0.19388
 44 H    -0.02842   -0.10817    0.07031
 45 H    -0.00450    0.01904   -0.01590
 46 N    -1.15680    0.74442   -1.74826
 47 N    -1.49884   -1.94345    0.23061

System changes: positions 

Initializing position-dependent things.

Density initialized from wave functions
       .-----------------------.  
      /|                       |  
     / |                       |  
    /  |                       |  
   /   |                       |  
  /    |                       |  
 *     |                       |  
 |     |                       |  
 |     |                       |  
 |     |                       |  
 |     |                       |  
 |    H|                       |  
 |H O C| H                H    |  
 |O  C H       Li      Li      Li 
 |     |                       |  
 |   Hi|     Li      Li        |  
 |     |                  N    |  
 | Li  |  LLi     LLi     Ni   |  
 |     |                       |  
 |     |Li      Li      Li     |  
 |   Li|     Li      Li        |  
 |    Li  Li  Li  Li  Li  Li   |  
 | Li  |   Li      Li          |  
 |     |Li      Li      Li     |  
 Li    | Li      Li            |  
 |    Li      Li      Li       |  
 |     |                       |  
 |     |                       |  
 |     |                       |  
 |     |                       |  
 |     |                       |  
 |     |                       |  
 |     .-----------------------.  
 |    /                       /   
 |   /                       /    
 |  /                       /     
 | /                       /      
 |/                       /       
 *-----------------------*        

Positions:
   0 Li     1.617037    1.617037   10.000000    ( 0.0000,  0.0000,  0.0000)
   1 Li     4.851111    1.617037   10.000000    ( 0.0000,  0.0000,  0.0000)
   2 Li     8.085185    1.617037   10.000000    ( 0.0000,  0.0000,  0.0000)
   3 Li     1.617037    4.851111   10.000000    ( 0.0000,  0.0000,  0.0000)
   4 Li     4.851111    4.851111   10.000000    ( 0.0000,  0.0000,  0.0000)
   5 Li     8.085185    4.851111   10.000000    ( 0.0000,  0.0000,  0.0000)
   6 Li     1.617037    8.085185   10.000000    ( 0.0000,  0.0000,  0.0000)
   7 Li     4.851111    8.085185   10.000000    ( 0.0000,  0.0000,  0.0000)
   8 Li     8.085185    8.085185   10.000000    ( 0.0000,  0.0000,  0.0000)
   9 Li     0.000000    0.000000   11.617037    ( 0.0000,  0.0000,  0.0000)
  10 Li     3.234074    0.000000   11.617037    ( 0.0000,  0.0000,  0.0000)
  11 Li     6.468148    0.000000   11.617037    ( 0.0000,  0.0000,  0.0000)
  12 Li     0.000000    3.234074   11.617037    ( 0.0000,  0.0000,  0.0000)
  13 Li     3.234074    3.234074   11.617037    ( 0.0000,  0.0000,  0.0000)
  14 Li     6.468148    3.234074   11.617037    ( 0.0000,  0.0000,  0.0000)
  15 Li     0.000000    6.468148   11.617037    ( 0.0000,  0.0000,  0.0000)
  16 Li     3.234074    6.468148   11.617037    ( 0.0000,  0.0000,  0.0000)
  17 Li     6.468148    6.468148   11.617037    ( 0.0000,  0.0000,  0.0000)
  18 Li     1.618290    1.616255   13.465344    ( 0.0000,  0.0000,  0.0000)
  19 Li     4.851135    1.617273   13.473341    ( 0.0000,  0.0000,  0.0000)
  20 Li     8.084141    1.615961   13.464957    ( 0.0000,  0.0000,  0.0000)
  21 Li     1.617755    4.851028   13.469611    ( 0.0000,  0.0000,  0.0000)
  22 Li     4.851121    4.851190   13.472180    ( 0.0000,  0.0000,  0.0000)
  23 Li     8.084417    4.851368   13.469191    ( 0.0000,  0.0000,  0.0000)
  24 Li     1.616391    8.085874   13.472427    ( 0.0000,  0.0000,  0.0000)
  25 Li     4.851298    8.084447   13.470653    ( 0.0000,  0.0000,  0.0000)
  26 Li     8.085738    8.085864   13.472250    ( 0.0000,  0.0000,  0.0000)
  27 Li    -0.000281   -0.001471   15.458508    ( 0.0000,  0.0000,  0.0000)
  28 Li     3.237068   -0.002304   15.443908    ( 0.0000,  0.0000,  0.0000)
  29 Li     6.465485   -0.002402   15.444501    ( 0.0000,  0.0000,  0.0000)
  30 Li     0.001258    3.289122   15.309486    ( 0.0000,  0.0000,  0.0000)
  31 Li     3.239187    3.236286   15.442463    ( 0.0000,  0.0000,  0.0000)
  32 Li     6.464376    3.236106   15.444498    ( 0.0000,  0.0000,  0.0000)
  33 Li     0.000127    6.468253   15.447259    ( 0.0000,  0.0000,  0.0000)
  34 Li     3.233795    6.468021   15.444956    ( 0.0000,  0.0000,  0.0000)
  35 Li     6.468301    6.468103   15.444920    ( 0.0000,  0.0000,  0.0000)
  36 O      0.009430    1.623330   19.451509    ( 0.0000,  0.0000,  0.0000)
  37 O      0.043434    4.517657   19.216323    ( 0.0000,  0.0000,  0.0000)
  38 C      1.204435    2.350488   19.085940    ( 0.0000,  0.0000,  0.0000)
  39 C      1.190285    3.759052   19.616564    ( 0.0000,  0.0000,  0.0000)
  40 H      2.102514    1.808310   19.348161    ( 0.0000,  0.0000,  0.0000)
  41 H      1.200673    2.391788   18.026685    ( 0.0000,  0.0000,  0.0000)
  42 H      2.061118    4.292991   19.227829    ( 0.0000,  0.0000,  0.0000)
  43 H      1.261331    3.713137   20.707462    ( 0.0000,  0.0000,  0.0000)
  44 H      0.074168    1.443092   20.395214    ( 0.0000,  0.0000,  0.0000)
  45 H     -0.724272    3.936840   19.309511    ( 0.0000,  0.0000,  0.0000)
  46 N     -0.067084    1.553590   16.847780    ( 0.0000,  0.0000,  0.0000)
  47 N     -0.080107    2.696779   16.988346    ( 0.0000,  0.0000,  0.0000)

Unit cell:
           periodic     x           y           z      points  spacing
  1. axis:    yes    9.702222    0.000000    0.000000    60     0.1617
  2. axis:    yes    0.000000    9.702222    0.000000    60     0.1617
  3. axis:    no     0.000000    0.000000   26.351111   164     0.1607

  Lengths:   9.702222   9.702222  26.351111
  Angles:   90.000000  90.000000  90.000000

Effective grid spacing dv^(1/3) = 0.1614

     iter     time        total  log10-change:
                         energy  eigst   dens
iter:   1 12:56:10  -325.447025  -0.90
iter:   2 12:56:18  -325.439410  -1.44  -1.96
iter:   3 12:56:25  -325.429499c -2.13  -1.97
iter:   4 12:56:32  -325.424898c -2.13  -2.35
Writing to output.gpw (mode='')

iter:   5 12:56:39  -325.424553c -2.40  -2.50
iter:   6 12:56:47  -325.424824c -2.58  -2.52
iter:   7 12:56:54  -325.423693c -2.86  -2.72
iter:   8 12:57:01  -325.423729c -3.20  -2.92
iter:   9 12:57:11  -325.423808c -3.67  -2.95
Writing to output.gpw (mode='')

iter:  10 12:57:24  -325.423753c -3.62  -3.01
iter:  11 12:57:32  -325.423894c -3.85  -3.19
iter:  12 12:57:40  -325.423775c -4.39  -3.29
iter:  13 12:57:47  -325.423788c -4.58  -3.44
iter:  14 12:57:54  -325.423749c -4.54  -3.50
Writing to output.gpw (mode='')

iter:  15 12:58:02  -325.423819c -4.87  -3.72
iter:  16 12:58:09  -325.423778c -4.79  -3.73
iter:  17 12:58:16  -325.423770c -5.28  -3.81
iter:  18 12:58:24  -325.423775c -5.23  -3.88
iter:  19 12:58:31  -325.423781c -5.73  -4.19c
Writing to output.gpw (mode='')

iter:  20 12:58:38  -325.423776c -5.78  -4.33c
iter:  21 12:58:45  -325.423781c -5.81  -4.42c
iter:  22 12:58:53  -325.423778c -5.93  -4.47c
iter:  23 12:59:00  -325.423773c -6.20  -4.68c
iter:  24 12:59:07  -325.423775c -6.27  -4.81c
Writing to output.gpw (mode='')

iter:  25 12:59:15  -325.423775c -6.38  -4.88c
iter:  26 12:59:22  -325.423776c -6.39  -4.94c
iter:  27 12:59:29  -325.423776c -6.73  -5.02c
iter:  28 12:59:37  -325.423776c -6.90  -5.10c
iter:  29 12:59:44  -325.423776c -6.91  -5.13c
Writing to output.gpw (mode='')

iter:  30 12:59:51  -325.423776c -6.99  -5.24c
iter:  31 12:59:58  -325.423776c -7.29  -5.48c
iter:  32 13:00:06  -325.423776c -7.20  -5.50c
iter:  33 13:00:13  -325.423776c -7.15  -5.56c
iter:  34 13:00:20  -325.423776c -7.38  -5.67c
Writing to output.gpw (mode='')

iter:  35 13:00:28  -325.423776c -7.51c -5.76c

Converged after 35 iterations.

Dipole moment: (-11.069478, -2.993495, 0.230889) |e|*Ang

Energy contributions relative to reference atoms: (reference = -16475.706344)

Kinetic:       +172.735931
Potential:     -162.818411
External:        +0.000000
XC:            -336.391581
Entropy (-ST):   -0.156090
Local:           +1.128331
--------------------------
Free energy:   -325.501821
Extrapolated:  -325.423776

Dipole-layer corrected work functions: 3.402528, 2.958681 eV

Showing only first 2 kpts
 Kpt  Band  Eigenvalues  Occupancy
  0    34     -3.43778    1.98839
  0    35     -3.34880    1.93311
  0    36     -3.06301    0.17384
  0    37     -2.98149    0.03661

  1    34     -3.25374    1.62388
  1    35     -3.17386    0.93263
  1    36     -3.11788    0.44387
  1    37     -3.06785    0.18982


Fermi level: -3.18060

No gap

Forces in eV/Ang:
  0 Li    0.02207   -0.00375   -0.27912
  1 Li   -0.00235    0.00151   -0.26984
  2 Li   -0.01969   -0.00392   -0.27877
  3 Li   -0.00238    0.02163   -0.27927
  4 Li   -0.00076   -0.00685   -0.26645
  5 Li    0.00297    0.02215   -0.27885
  6 Li   -0.00749   -0.01515   -0.26583
  7 Li   -0.00086    0.00901   -0.28606
  8 Li    0.00771   -0.01652   -0.26346
  9 Li   -0.00061   -0.00831    0.28783
 10 Li    0.01759   -0.00178    0.25610
 11 Li   -0.01696   -0.00122    0.26112
 12 Li   -0.00091    0.00137    0.35228
 13 Li    0.01292   -0.00228    0.25854
 14 Li   -0.01166   -0.00113    0.26872
 15 Li   -0.00042    0.00860    0.24028
 16 Li    0.00226    0.00335    0.25002
 17 Li   -0.00091    0.00463    0.24831
 18 Li    0.03142   -0.02830   -0.09181
 19 Li    0.00213    0.00434    0.07084
 20 Li   -0.02724   -0.03181   -0.10932
 21 Li    0.02906    0.01815   -0.02435
 22 Li    0.00231    0.00275    0.04741
 23 Li   -0.03089    0.02505   -0.03614
 24 Li   -0.01345    0.01556    0.05267
 25 Li    0.00329   -0.01588    0.01672
 26 Li    0.01139    0.01381    0.04968
 27 Li   -0.00550   -0.03555    0.23367
 28 Li    0.05628   -0.04229   -0.03936
 29 Li   -0.05768   -0.05175   -0.02874
 30 Li    0.06005    0.56510   -1.37158
 31 Li    0.09889    0.04092   -0.06708
 32 Li   -0.07660    0.04240   -0.02665
 33 Li    0.00360    0.00123    0.02953
 34 Li   -0.00933   -0.00419   -0.01840
 35 Li    0.00507   -0.00002   -0.02030
 36 O     0.27595    0.12199    0.14650
 37 O     0.06914   -0.03396    0.09552
 38 C     0.27874   -0.02902    0.71496
 39 C     0.09687    0.18434    0.32052
 40 H     0.41371   -0.18220    0.62133
 41 H     0.93824    0.15187    0.54624
 42 H     0.05135    0.05751    0.06818
 43 H     0.03454    0.25678    0.27760
 44 H    -0.04346   -0.12213    0.11820
 45 H     0.01540    0.01354   -0.01782
 46 N    -0.92361    0.78155   -1.47057
 47 N    -1.31645   -1.70898   -0.09289

System changes: positions 

Initializing position-dependent things.

Density initialized from wave functions
       .-----------------------.  
      /|                       |  
     / |                       |  
    /  |                       |  
   /   |                       |  
  /    |                       |  
 *     |                       |  
 |     |                       |  
 |     |                       |  
 |     |                       |  
 |     |                       |  
 |    H|                       |  
 |H O C| H                H    |  
 |O  C H       Li      Li      Li 
 |     |                       |  
 |   LH|     Li      Li        |  
 |     |                  N    |  
 | Li  |  LLi     LLi     Ni   |  
 |     |                       |  
 |     |Li      Li      Li     |  
 |   Li|     Li      Li        |  
 |    Li  Li  Li  Li  Li  Li   |  
 | Li  |   Li      Li          |  
 |     |Li      Li      Li     |  
 Li    | Li      Li            |  
 |    Li      Li      Li       |  
 |     |                       |  
 |     |                       |  
 |     |                       |  
 |     |                       |  
 |     |                       |  
 |     |                       |  
 |     .-----------------------.  
 |    /                       /   
 |   /                       /    
 |  /                       /     
 | /                       /      
 |/                       /       
 *-----------------------*        

Positions:
   0 Li     1.617037    1.617037   10.000000    ( 0.0000,  0.0000,  0.0000)
   1 Li     4.851111    1.617037   10.000000    ( 0.0000,  0.0000,  0.0000)
   2 Li     8.085185    1.617037   10.000000    ( 0.0000,  0.0000,  0.0000)
   3 Li     1.617037    4.851111   10.000000    ( 0.0000,  0.0000,  0.0000)
   4 Li     4.851111    4.851111   10.000000    ( 0.0000,  0.0000,  0.0000)
   5 Li     8.085185    4.851111   10.000000    ( 0.0000,  0.0000,  0.0000)
   6 Li     1.617037    8.085185   10.000000    ( 0.0000,  0.0000,  0.0000)
   7 Li     4.851111    8.085185   10.000000    ( 0.0000,  0.0000,  0.0000)
   8 Li     8.085185    8.085185   10.000000    ( 0.0000,  0.0000,  0.0000)
   9 Li     0.000000    0.000000   11.617037    ( 0.0000,  0.0000,  0.0000)
  10 Li     3.234074    0.000000   11.617037    ( 0.0000,  0.0000,  0.0000)
  11 Li     6.468148    0.000000   11.617037    ( 0.0000,  0.0000,  0.0000)
  12 Li     0.000000    3.234074   11.617037    ( 0.0000,  0.0000,  0.0000)
  13 Li     3.234074    3.234074   11.617037    ( 0.0000,  0.0000,  0.0000)
  14 Li     6.468148    3.234074   11.617037    ( 0.0000,  0.0000,  0.0000)
  15 Li     0.000000    6.468148   11.617037    ( 0.0000,  0.0000,  0.0000)
  16 Li     3.234074    6.468148   11.617037    ( 0.0000,  0.0000,  0.0000)
  17 Li     6.468148    6.468148   11.617037    ( 0.0000,  0.0000,  0.0000)
  18 Li     1.618937    1.615705   13.463435    ( 0.0000,  0.0000,  0.0000)
  19 Li     4.851174    1.617365   13.474848    ( 0.0000,  0.0000,  0.0000)
  20 Li     8.083580    1.615327   13.462708    ( 0.0000,  0.0000,  0.0000)
  21 Li     1.618311    4.851327   13.469208    ( 0.0000,  0.0000,  0.0000)
  22 Li     4.851164    4.851256   13.473187    ( 0.0000,  0.0000,  0.0000)
  23 Li     8.083825    4.851813   13.468549    ( 0.0000,  0.0000,  0.0000)
  24 Li     1.616106    8.086206   13.473563    ( 0.0000,  0.0000,  0.0000)
  25 Li     4.851368    8.084107   13.471010    ( 0.0000,  0.0000,  0.0000)
  26 Li     8.085981    8.086168   13.473323    ( 0.0000,  0.0000,  0.0000)
  27 Li    -0.000387   -0.002370   15.463322    ( 0.0000,  0.0000,  0.0000)
  28 Li     3.238287   -0.003215   15.443044    ( 0.0000,  0.0000,  0.0000)
  29 Li     6.464264   -0.003487   15.443865    ( 0.0000,  0.0000,  0.0000)
  30 Li     0.002378    3.303564   15.274979    ( 0.0000,  0.0000,  0.0000)
  31 Li     3.241337    3.237172   15.440981    ( 0.0000,  0.0000,  0.0000)
  32 Li     6.462706    3.237005   15.443871    ( 0.0000,  0.0000,  0.0000)
  33 Li     0.000200    6.468293   15.447860    ( 0.0000,  0.0000,  0.0000)
  34 Li     3.233598    6.467934   15.444564    ( 0.0000,  0.0000,  0.0000)
  35 Li     6.468413    6.468093   15.444492    ( 0.0000,  0.0000,  0.0000)
  36 O      0.014867    1.625857   19.454553    ( 0.0000,  0.0000,  0.0000)
  37 O      0.044593    4.517180   19.218144    ( 0.0000,  0.0000,  0.0000)
  38 C      1.212154    2.350370   19.102007    ( 0.0000,  0.0000,  0.0000)
  39 C      1.192369    3.762662   19.623310    ( 0.0000,  0.0000,  0.0000)
  40 H      2.110939    1.804484   19.360613    ( 0.0000,  0.0000,  0.0000)
  41 H      1.223397    2.395520   18.043235    ( 0.0000,  0.0000,  0.0000)
  42 H      2.062177    4.294105   19.229125    ( 0.0000,  0.0000,  0.0000)
  43 H      1.262010    3.718230   20.712737    ( 0.0000,  0.0000,  0.0000)
  44 H      0.073336    1.440623   20.397338    ( 0.0000,  0.0000,  0.0000)
  45 H     -0.724121    3.937200   19.309233    ( 0.0000,  0.0000,  0.0000)
  46 N     -0.088627    1.546157   16.814907    ( 0.0000,  0.0000,  0.0000)
  47 N     -0.109441    2.681370   16.989993    ( 0.0000,  0.0000,  0.0000)

Unit cell:
           periodic     x           y           z      points  spacing
  1. axis:    yes    9.702222    0.000000    0.000000    60     0.1617
  2. axis:    yes    0.000000    9.702222    0.000000    60     0.1617
  3. axis:    no     0.000000    0.000000   26.351111   164     0.1607

  Lengths:   9.702222   9.702222  26.351111
  Angles:   90.000000  90.000000  90.000000

Effective grid spacing dv^(1/3) = 0.1614

     iter     time        total  log10-change:
                         energy  eigst   dens
iter:   1 13:00:36  -325.670324  -0.94
iter:   2 13:00:44  -325.664505  -1.50  -2.01
iter:   3 13:00:51  -325.657486c -2.16  -2.02
iter:   4 13:00:59  -325.653364c -2.22  -2.36
Writing to output.gpw (mode='')

iter:   5 13:01:06  -325.652952c -2.48  -2.53
iter:   6 13:01:13  -325.652983c -2.59  -2.59
iter:   7 13:01:21  -325.652195c -3.03  -2.76
iter:   8 13:01:28  -325.652271c -3.22  -2.96
iter:   9 13:01:35  -325.652329c -3.72  -2.98
Writing to output.gpw (mode='')

iter:  10 13:01:43  -325.652291c -3.63  -3.04
iter:  11 13:01:50  -325.652397c -4.07  -3.23
iter:  12 13:01:58  -325.652291c -4.21  -3.33
iter:  13 13:02:05  -325.652307c -4.68  -3.47
iter:  14 13:02:12  -325.652299c -4.67  -3.51
Writing to output.gpw (mode='')

iter:  15 13:02:25  -325.652306c -4.64  -3.63
iter:  16 13:02:33  -325.652295c -5.10  -3.61
iter:  17 13:02:40  -325.652292c -4.92  -3.72
iter:  18 13:02:47  -325.652302c -5.46  -3.96
iter:  19 13:02:55  -325.652300c -5.60  -4.13c
Writing to output.gpw (mode='')

iter:  20 13:03:02  -325.652300c -5.73  -4.31c
iter:  21 13:03:09  -325.652299c -5.93  -4.41c
iter:  22 13:03:17  -325.652300c -6.05  -4.50c
iter:  23 13:03:24  -325.652298c -6.34  -4.61c
iter:  24 13:03:31  -325.652298c -6.40  -4.65c
Writing to output.gpw (mode='')

iter:  25 13:03:39  -325.652298c -6.46  -4.78c
iter:  26 13:03:46  -325.652297c -6.57  -4.90c
iter:  27 13:03:54  -325.652298c -6.73  -5.04c
iter:  28 13:04:01  -325.652298c -7.00  -5.07c
iter:  29 13:04:08  -325.652299c -7.03  -5.17c
Writing to output.gpw (mode='')

iter:  30 13:04:16  -325.652298c -7.10  -5.35c
iter:  31 13:04:23  -325.652298c -7.31  -5.44c
iter:  32 13:04:30  -325.652298c -7.36  -5.52c
iter:  33 13:04:38  -325.652298c -7.46c -5.60c

Converged after 33 iterations.

Dipole moment: (-6.709666, -2.981231, 0.239937) |e|*Ang

Energy contributions relative to reference atoms: (reference = -16475.706344)

Kinetic:       +172.005195
Potential:     -162.453162
External:        +0.000000
XC:            -336.254287
Entropy (-ST):   -0.154329
Local:           +1.127120
--------------------------
Free energy:   -325.729463
Extrapolated:  -325.652298

Dipole-layer corrected work functions: 3.400509, 2.939267 eV

Showing only first 2 kpts
 Kpt  Band  Eigenvalues  Occupancy
  0    34     -3.42733    1.98845
  0    35     -3.34089    1.93664
  0    36     -3.04418    0.14976
  0    37     -2.97598    0.04054

  1    34     -3.24344    1.62646
  1    35     -3.16530    0.95412
  1    36     -3.10876    0.45496
  1    37     -3.05398    0.17926


Fermi level: -3.16989

No gap
Writing to output.gpw (mode='')


Forces in eV/Ang:
  0 Li    0.02239   -0.00348   -0.27995
  1 Li   -0.00305    0.00165   -0.26902
  2 Li   -0.01941   -0.00369   -0.27962
  3 Li   -0.00302    0.02172   -0.28042
  4 Li   -0.00080   -0.00702   -0.26636
  5 Li    0.00374    0.02275   -0.27986
  6 Li   -0.00785   -0.01544   -0.26526
  7 Li   -0.00090    0.00900   -0.28663
  8 Li    0.00813   -0.01739   -0.26282
  9 Li   -0.00090   -0.00846    0.29003
 10 Li    0.02052   -0.00286    0.25537
 11 Li   -0.01915   -0.00275    0.26155
 12 Li   -0.00113    0.00139    0.35611
 13 Li    0.01371   -0.00188    0.25934
 14 Li   -0.01221   -0.00039    0.27061
 15 Li   -0.00057    0.00840    0.23930
 16 Li    0.00261    0.00391    0.25050
 17 Li   -0.00105    0.00533    0.24808
 18 Li    0.03420   -0.03314   -0.09054
 19 Li    0.00311    0.00398    0.06846
 20 Li   -0.02987   -0.03587   -0.11269
 21 Li    0.03638    0.02698   -0.03381
 22 Li    0.00339    0.00416    0.04517
 23 Li   -0.03864    0.03432   -0.04693
 24 Li   -0.01388    0.01644    0.05194
 25 Li    0.00298   -0.01650    0.01515
 26 Li    0.01168    0.01418    0.04916
 27 Li   -0.00440   -0.05956    0.19790
 28 Li    0.05452   -0.03966   -0.03872
 29 Li   -0.05943   -0.05311   -0.02913
 30 Li    0.06486    0.41795   -0.99138
 31 Li    0.09626    0.03874   -0.06630
 32 Li   -0.07716    0.04335   -0.02771
 33 Li    0.00390    0.00202    0.03009
 34 Li   -0.01083   -0.00473   -0.01724
 35 Li    0.00600    0.00013   -0.01969
 36 O     0.27999    0.10603    0.17397
 37 O     0.08733   -0.04576    0.09822
 38 C     0.22280   -0.01779    0.48388
 39 C     0.10396    0.16210    0.31953
 40 H     0.35890   -0.13445    0.65724
 41 H     0.73752    0.09897    0.27282
 42 H     0.05345    0.06997    0.09231
 43 H     0.04129    0.29071    0.32462
 44 H    -0.05168   -0.12613    0.13575
 45 H     0.03376    0.00380   -0.01744
 46 N    -0.78572    0.69538   -1.24782
 47 N    -1.19431   -1.39969   -0.22995

System changes: positions 

Initializing position-dependent things.

Density initialized from wave functions
       .-----------------------.  
      /|                       |  
     / |                       |  
    /  |                       |  
   /   |                       |  
  /    |                       |  
 *     |                       |  
 |     |                       |  
 |     |                       |  
 |     |                       |  
 |     |                       |  
 |    H|                       |  
 |H O C| H                H    |  
 |O  C H       Li      Li      Li 
 |     |                       |  
 |   LH|     Li      Li        |  
 |     |                  N    |  
 | Li  |  LLi     LLi     Ni   |  
 |     |                       |  
 |     |Li      Li      Li     |  
 |   Li|     Li      Li        |  
 |    Li  Li  Li  Li  Li  Li   |  
 | Li  |   Li      Li          |  
 |     |Li      Li      Li     |  
 Li    | Li      Li            |  
 |    Li      Li      Li       |  
 |     |                       |  
 |     |                       |  
 |     |                       |  
 |     |                       |  
 |     |                       |  
 |     |                       |  
 |     .-----------------------.  
 |    /                       /   
 |   /                       /    
 |  /                       /     
 | /                       /      
 |/                       /       
 *-----------------------*        

Positions:
   0 Li     1.617037    1.617037   10.000000    ( 0.0000,  0.0000,  0.0000)
   1 Li     4.851111    1.617037   10.000000    ( 0.0000,  0.0000,  0.0000)
   2 Li     8.085185    1.617037   10.000000    ( 0.0000,  0.0000,  0.0000)
   3 Li     1.617037    4.851111   10.000000    ( 0.0000,  0.0000,  0.0000)
   4 Li     4.851111    4.851111   10.000000    ( 0.0000,  0.0000,  0.0000)
   5 Li     8.085185    4.851111   10.000000    ( 0.0000,  0.0000,  0.0000)
   6 Li     1.617037    8.085185   10.000000    ( 0.0000,  0.0000,  0.0000)
   7 Li     4.851111    8.085185   10.000000    ( 0.0000,  0.0000,  0.0000)
   8 Li     8.085185    8.085185   10.000000    ( 0.0000,  0.0000,  0.0000)
   9 Li     0.000000    0.000000   11.617037    ( 0.0000,  0.0000,  0.0000)
  10 Li     3.234074    0.000000   11.617037    ( 0.0000,  0.0000,  0.0000)
  11 Li     6.468148    0.000000   11.617037    ( 0.0000,  0.0000,  0.0000)
  12 Li     0.000000    3.234074   11.617037    ( 0.0000,  0.0000,  0.0000)
  13 Li     3.234074    3.234074   11.617037    ( 0.0000,  0.0000,  0.0000)
  14 Li     6.468148    3.234074   11.617037    ( 0.0000,  0.0000,  0.0000)
  15 Li     0.000000    6.468148   11.617037    ( 0.0000,  0.0000,  0.0000)
  16 Li     3.234074    6.468148   11.617037    ( 0.0000,  0.0000,  0.0000)
  17 Li     6.468148    6.468148   11.617037    ( 0.0000,  0.0000,  0.0000)
  18 Li     1.619699    1.615016   13.461333    ( 0.0000,  0.0000,  0.0000)
  19 Li     4.851233    1.617461   13.476481    ( 0.0000,  0.0000,  0.0000)
  20 Li     8.082915    1.614557   13.460154    ( 0.0000,  0.0000,  0.0000)
  21 Li     1.619048    4.851803   13.468601    ( 0.0000,  0.0000,  0.0000)
  22 Li     4.851229    4.851350   13.474268    ( 0.0000,  0.0000,  0.0000)
  23 Li     8.083041    4.852459   13.467656    ( 0.0000,  0.0000,  0.0000)
  24 Li     1.615783    8.086587   13.474811    ( 0.0000,  0.0000,  0.0000)
  25 Li     4.851440    8.083722   13.471381    ( 0.0000,  0.0000,  0.0000)
  26 Li     8.086254    8.086508   13.474504    ( 0.0000,  0.0000,  0.0000)
  27 Li    -0.000490   -0.003735   15.468116    ( 0.0000,  0.0000,  0.0000)
  28 Li     3.239610   -0.004184   15.442101    ( 0.0000,  0.0000,  0.0000)
  29 Li     6.462883   -0.004713   15.443158    ( 0.0000,  0.0000,  0.0000)
  30 Li     0.003698    3.317199   15.242704    ( 0.0000,  0.0000,  0.0000)
  31 Li     3.243673    3.238119   15.439358    ( 0.0000,  0.0000,  0.0000)
  32 Li     6.460852    3.238017   15.443166    ( 0.0000,  0.0000,  0.0000)
  33 Li     0.000285    6.468349   15.448539    ( 0.0000,  0.0000,  0.0000)
  34 Li     3.233358    6.467831   15.444147    ( 0.0000,  0.0000,  0.0000)
  35 Li     6.468550    6.468087   15.444026    ( 0.0000,  0.0000,  0.0000)
  36 O      0.020946    1.628405   19.458369    ( 0.0000,  0.0000,  0.0000)
  37 O      0.046158    4.516499   19.220217    ( 0.0000,  0.0000,  0.0000)
  38 C      1.219876    2.350437   19.116095    ( 0.0000,  0.0000,  0.0000)
  39 C      1.194801    3.766235   19.630747    ( 0.0000,  0.0000,  0.0000)
  40 H      2.119337    1.801048   19.374994    ( 0.0000,  0.0000,  0.0000)
  41 H      1.245291    2.398791   18.057164    ( 0.0000,  0.0000,  0.0000)
[...]
iter:  21 20:41:36  -328.173725c -7.33  -5.05c
iter:  22 20:41:43  -328.173724c -7.39  -5.15c
iter:  23 20:41:51  -328.173725c -7.60c -5.25c

Converged after 23 iterations.

Dipole moment: (-19.170456, -1.783751, 0.410364) |e|*Ang

Energy contributions relative to reference atoms: (reference = -16475.706344)

Kinetic:       +156.790411
Potential:     -149.936177
External:        +0.000000
XC:            -336.099329
Entropy (-ST):   -0.162151
Local:           +1.152445
--------------------------
Free energy:   -328.254800
Extrapolated:  -328.173725

Dipole-layer corrected work functions: 3.394477, 2.605616 eV

Showing only first 2 kpts
 Kpt  Band  Eigenvalues  Occupancy
  0    34     -3.18198    1.94877
  0    35     -3.01966    1.19366
  0    36     -2.98787    0.87881
  0    37     -2.88513    0.18251

  1    34     -3.31257    1.99615
  1    35     -2.96037    0.62284
  1    36     -2.89397    0.21404
  1    37     -2.88123    0.16999


Fermi level: -3.00005

No gap
Writing to output.gpw (mode='')


Forces in eV/Ang:
  0 Li   -0.00539   -0.00892   -0.29505
  1 Li    0.00414    0.01069   -0.29438
  2 Li    0.00193    0.00123   -0.25862
  3 Li    0.01331    0.01747   -0.28229
  4 Li   -0.00716    0.00952   -0.29237
  5 Li   -0.01081   -0.00012   -0.28883
  6 Li    0.00678   -0.00385   -0.29245
  7 Li   -0.01280   -0.01034   -0.28816
  8 Li    0.01028    0.00926   -0.29535
  9 Li   -0.04233    0.00577    0.34811
 10 Li   -0.00722   -0.00431    0.31014
 11 Li    0.05671    0.01975    0.30245
 12 Li   -0.04446   -0.06178    0.29454
 13 Li   -0.02038   -0.02004    0.30397
 14 Li    0.04774   -0.05529    0.35958
 15 Li   -0.02097   -0.01965    0.26867
 16 Li    0.00894   -0.00557    0.30927
 17 Li    0.01986    0.00165    0.29871
 18 Li   -0.00644    0.00021    0.00222
 19 Li    0.02639    0.01534    0.00863
 20 Li   -0.00485    0.02523    0.01949
 21 Li   -0.00510   -0.00369    0.01825
 22 Li   -0.00470    0.00521   -0.00275
 23 Li    0.00477   -0.01792    0.02530
 24 Li   -0.00010    0.00543   -0.00671
 25 Li   -0.00889   -0.01375   -0.01048
 26 Li    0.01399    0.02740    0.00354
 27 Li   -0.02630    0.03075   -0.00461
 28 Li   -0.00977    0.00422   -0.01261
 29 Li    0.01923   -0.00417    0.00505
 30 Li   -0.00775    0.01801   -0.04135
 31 Li    0.00981   -0.00862   -0.01095
 32 Li    0.02772   -0.03206    0.00952
 33 Li   -0.00766    0.01418   -0.01242
 34 Li    0.00556   -0.00047   -0.01046
 35 Li    0.00266   -0.00108   -0.01298
 36 O     0.00079   -0.01428   -0.01059
 37 O     0.00506   -0.00010   -0.02457
 38 C     0.00189    0.00439   -0.02802
 39 C    -0.01445    0.01394    0.00546
 40 H    -0.00988    0.00440    0.00526
 41 H     0.01060   -0.01813   -0.05193
 42 H     0.01069   -0.00266   -0.01227
 43 H     0.00825    0.00898    0.02446
 44 H     0.00566    0.01882    0.00448
 45 H     0.00648    0.01050    0.00061
 46 N     0.01087   -0.00405    0.04415
 47 N    -0.04433    0.04881   -0.04838

System changes: positions 

Initializing position-dependent things.

Density initialized from wave functions
       .-----------------------.  
      /|                       |  
     / |                       |  
    /  |                       |  
   /   |                       |  
  /    |                       |  
 *     |                       |  
 |     |                       |  
 |     |                       |  
 |     |                       |  
 |    H|                       |  
 |     C H                     |  
 | HO  |H                 H    |  
 | O  CLi      Li              |  
 |     H                       |  
 |   Li|     Li      Li        |  
 |     |                       |  
 |     |  LLi     LLi     Li   |  
 |     |             N N       |  
 |     |Li      LiLi    Li     |  
 |   Li|     Li      LLi       |  
 |    Li  Li  Li  Li      Li   |  
 | Li  |   Li      Li          |  
 |     |Li      Li      Li     |  
 Li    | Li      Li            |  
 |    Li      Li      Li       |  
 |     |                       |  
 |     |                       |  
 |     |                       |  
 |     |                       |  
 |     |                       |  
 |     |                       |  
 |     .-----------------------.  
 |    /                       /   
 |   /                       /    
 |  /                       /     
 | /                       /      
 |/                       /       
 *-----------------------*        

Positions:
   0 Li     1.617037    1.617037   10.000000    ( 0.0000,  0.0000,  0.0000)
   1 Li     4.851111    1.617037   10.000000    ( 0.0000,  0.0000,  0.0000)
   2 Li     8.085185    1.617037   10.000000    ( 0.0000,  0.0000,  0.0000)
   3 Li     1.617037    4.851111   10.000000    ( 0.0000,  0.0000,  0.0000)
   4 Li     4.851111    4.851111   10.000000    ( 0.0000,  0.0000,  0.0000)
   5 Li     8.085185    4.851111   10.000000    ( 0.0000,  0.0000,  0.0000)
   6 Li     1.617037    8.085185   10.000000    ( 0.0000,  0.0000,  0.0000)
   7 Li     4.851111    8.085185   10.000000    ( 0.0000,  0.0000,  0.0000)
   8 Li     8.085185    8.085185   10.000000    ( 0.0000,  0.0000,  0.0000)
   9 Li     0.000000    0.000000   11.617037    ( 0.0000,  0.0000,  0.0000)
  10 Li     3.234074    0.000000   11.617037    ( 0.0000,  0.0000,  0.0000)
  11 Li     6.468148    0.000000   11.617037    ( 0.0000,  0.0000,  0.0000)
  12 Li     0.000000    3.234074   11.617037    ( 0.0000,  0.0000,  0.0000)
  13 Li     3.234074    3.234074   11.617037    ( 0.0000,  0.0000,  0.0000)
  14 Li     6.468148    3.234074   11.617037    ( 0.0000,  0.0000,  0.0000)
  15 Li     0.000000    6.468148   11.617037    ( 0.0000,  0.0000,  0.0000)
  16 Li     3.234074    6.468148   11.617037    ( 0.0000,  0.0000,  0.0000)
  17 Li     6.468148    6.468148   11.617037    ( 0.0000,  0.0000,  0.0000)
  18 Li     1.594094    1.554000   13.541839    ( 0.0000,  0.0000,  0.0000)
  19 Li     4.838694    1.641347   13.505246    ( 0.0000,  0.0000,  0.0000)
  20 Li     8.094792    1.558419   13.642547    ( 0.0000,  0.0000,  0.0000)
  21 Li     1.545324    4.787775   13.500396    ( 0.0000,  0.0000,  0.0000)
  22 Li     4.834452    4.877665   13.510219    ( 0.0000,  0.0000,  0.0000)
  23 Li     8.062088    4.820452   13.528566    ( 0.0000,  0.0000,  0.0000)
  24 Li     1.638150    8.013745   13.528835    ( 0.0000,  0.0000,  0.0000)
  25 Li     4.925890    8.148400   13.525658    ( 0.0000,  0.0000,  0.0000)
  26 Li     8.134861    8.024159   13.552978    ( 0.0000,  0.0000,  0.0000)
  27 Li     0.122579   -0.233027   15.587824    ( 0.0000,  0.0000,  0.0000)
  28 Li     3.377238   -0.037538   15.475561    ( 0.0000,  0.0000,  0.0000)
  29 Li     6.673675    0.178290   15.620692    ( 0.0000,  0.0000,  0.0000)
  30 Li    -0.236640    2.864832   15.744051    ( 0.0000,  0.0000,  0.0000)
  31 Li     3.092996    3.311953   15.426124    ( 0.0000,  0.0000,  0.0000)
  32 Li     6.365423    3.285451   15.532953    ( 0.0000,  0.0000,  0.0000)
  33 Li     0.080474    6.173201   15.598069    ( 0.0000,  0.0000,  0.0000)
  34 Li     3.243941    6.486586   15.478673    ( 0.0000,  0.0000,  0.0000)
  35 Li     6.411138    6.553882   15.493216    ( 0.0000,  0.0000,  0.0000)
  36 O      0.447737    1.577061   19.755027    ( 0.0000,  0.0000,  0.0000)
  37 O      0.257921    4.411517   19.219424    ( 0.0000,  0.0000,  0.0000)
  38 C      1.609111    2.388136   19.497981    ( 0.0000,  0.0000,  0.0000)
  39 C      1.377216    3.837691   19.897537    ( 0.0000,  0.0000,  0.0000)
  40 H      2.495969    1.988455   20.005590    ( 0.0000,  0.0000,  0.0000)
  41 H      1.773802    2.325654   18.420085    ( 0.0000,  0.0000,  0.0000)
  42 H      2.248216    4.439349   19.623689    ( 0.0000,  0.0000,  0.0000)
  43 H      1.243221    3.907548   20.987483    ( 0.0000,  0.0000,  0.0000)
  44 H      0.443189    1.332815   20.687780    ( 0.0000,  0.0000,  0.0000)
  45 H     -0.480040    3.794928   19.330390    ( 0.0000,  0.0000,  0.0000)
  46 N     -1.184036    1.060802   15.686398    ( 0.0000,  0.0000,  0.0000)
  47 N     -2.060209    1.961458   15.699032    ( 0.0000,  0.0000,  0.0000)

Unit cell:
           periodic     x           y           z      points  spacing
  1. axis:    yes    9.702222    0.000000    0.000000    60     0.1617
  2. axis:    yes    0.000000    9.702222    0.000000    60     0.1617
  3. axis:    no     0.000000    0.000000   26.351111   164     0.1607

  Lengths:   9.702222   9.702222  26.351111
  Angles:   90.000000  90.000000  90.000000

Effective grid spacing dv^(1/3) = 0.1614

     iter     time        total  log10-change:
                         energy  eigst   dens
iter:   1 20:42:00  -328.176574  -2.65
iter:   2 20:42:07  -328.174818  -3.05  -2.43
iter:   3 20:42:14  -328.174202c -3.98  -2.64
iter:   4 20:42:27  -328.174288c -4.04  -3.04
Writing to output.gpw (mode='')

iter:   5 20:42:34  -328.174337c -4.02  -3.40
iter:   6 20:42:42  -328.174382c -4.00  -3.58
iter:   7 20:42:49  -328.174315c -4.64  -3.58
iter:   8 20:42:57  -328.174316c -4.79  -3.88
iter:   9 20:43:04  -328.174326c -4.89  -3.96
Writing to output.gpw (mode='')

iter:  10 20:43:11  -328.174301c -5.46  -4.04c
iter:  11 20:43:19  -328.174305c -5.59  -4.11c
iter:  12 20:43:26  -328.174312c -5.77  -4.19c
iter:  13 20:43:33  -328.174311c -6.10  -4.43c
iter:  14 20:43:41  -328.174313c -6.23  -4.48c
Writing to output.gpw (mode='')

iter:  15 20:43:48  -328.174315c -6.30  -4.69c
iter:  16 20:43:55  -328.174314c -6.61  -4.69c
iter:  17 20:44:05  -328.174307c -6.76  -4.74c
iter:  18 20:44:12  -328.174308c -7.01  -4.91c
iter:  19 20:44:20  -328.174309c -7.17  -4.98c
Writing to output.gpw (mode='')

iter:  20 20:44:30  -328.174307c -7.20  -5.04c
iter:  21 20:44:39  -328.174307c -7.43c -5.09c

Converged after 21 iterations.

Dipole moment: (-19.134449, -1.821047, 0.409949) |e|*Ang

Energy contributions relative to reference atoms: (reference = -16475.706344)

Kinetic:       +156.816271
Potential:     -149.951622
External:        +0.000000
XC:            -336.110234
Entropy (-ST):   -0.162084
Local:           +1.152320
--------------------------
Free energy:   -328.255349
Extrapolated:  -328.174307

Dipole-layer corrected work functions: 3.394635, 2.606572 eV

Showing only first 2 kpts
 Kpt  Band  Eigenvalues  Occupancy
  0    34     -3.18269    1.94892
  0    35     -3.02031    1.19451
  0    36     -2.98842    0.87875
  0    37     -2.88596    0.18344

  1    34     -3.31322    1.99616
  1    35     -2.96053    0.61941
  1    36     -2.89434    0.21331
  1    37     -2.88192    0.17041


Fermi level: -3.00060

No gap
Writing to output.gpw (mode='')


Forces in eV/Ang:
  0 Li   -0.00537   -0.00893   -0.29512
  1 Li    0.00411    0.01073   -0.29427
  2 Li    0.00191    0.00123   -0.25843
  3 Li    0.01332    0.01745   -0.28232
  4 Li   -0.00718    0.00959   -0.29236
  5 Li   -0.01088   -0.00011   -0.28879
  6 Li    0.00679   -0.00389   -0.29230
  7 Li   -0.01284   -0.01046   -0.28809
  8 Li    0.01023    0.00921   -0.29536
  9 Li   -0.04203    0.00590    0.34803
 10 Li   -0.00716   -0.00441    0.30959
 11 Li    0.05639    0.01933    0.30193
 12 Li   -0.04412   -0.06133    0.29426
 13 Li   -0.02053   -0.01945    0.30390
 14 Li    0.04784   -0.05482    0.35890
 15 Li   -0.02064   -0.01971    0.26835
 16 Li    0.00882   -0.00574    0.30878
 17 Li    0.02001    0.00164    0.29844
 18 Li   -0.00638    0.00006    0.00186
 19 Li    0.02717    0.01533    0.00997
 20 Li   -0.00392    0.02512    0.02575
 21 Li   -0.00508   -0.00406    0.01736
 22 Li   -0.00489    0.00473   -0.00244
 23 Li    0.00451   -0.01862    0.02554
 24 Li   -0.00097    0.00587   -0.00558
 25 Li   -0.00876   -0.01326   -0.01016
 26 Li    0.01426    0.02722    0.00392
 27 Li   -0.01825    0.02007   -0.00291
 28 Li   -0.00941    0.00366   -0.01291
 29 Li    0.02060   -0.00305    0.00604
 30 Li   -0.00661    0.02380   -0.04164
 31 Li    0.00965   -0.00819   -0.01022
 32 Li    0.01112   -0.01756    0.00523
 33 Li   -0.00746    0.01376   -0.01199
 34 Li    0.00561   -0.00037   -0.01078
 35 Li    0.00253   -0.00074   -0.01280
 36 O     0.00065   -0.01028   -0.02186
 37 O     0.00237   -0.00056   -0.01852
 38 C    -0.00504   -0.00905   -0.02029
 39 C     0.00144    0.00306    0.00215
 40 H    -0.01137    0.00764   -0.00058
 41 H     0.01216   -0.01415   -0.04023
 42 H     0.00366    0.00352   -0.01086
 43 H     0.00728    0.00970    0.01726
 44 H     0.00905    0.01968    0.01007
 45 H     0.00554    0.01437   -0.00058
 46 N    -0.01237   -0.00063    0.02396
 47 N    -0.00781    0.02429   -0.03077

Timing:                                      incl.     excl.
-------------------------------------------------------------------
Density initialized from wave functions:     6.360     6.356   0.0% |
 Symmetrize density:                         0.003     0.003   0.0% |
Forces:                                     50.075    50.075   0.2% |
Hamiltonian:                               680.251     0.016   0.0% |
 Atomic:                                     0.028     0.028   0.0% |
  XC Correction:                             0.000     0.000   0.0% |
 Calculate atomic Hamiltonians:              0.049     0.049   0.0% |
 Communicate:                               11.442    11.442   0.0% |
 Hartree integrate/restrict:                 2.124     2.124   0.0% |
 Initialize Hamiltonian:                     0.000     0.000   0.0% |
 Poisson:                                   32.004    11.801   0.0% |
  Communicate from 1D:                       3.150     3.150   0.0% |
  Communicate from 2D:                       3.082     3.082   0.0% |
  Communicate to 1D:                         1.758     1.758   0.0% |
  Communicate to 2D:                         3.696     3.696   0.0% |
  FFT 1D:                                    4.363     4.363   0.0% |
  FFT 2D:                                    4.155     4.155   0.0% |
 XC 3D grid:                               633.940    96.309   0.3% |
  VdW-DF integral:                         537.631     4.528   0.0% |
   Convolution:                             48.801    48.801   0.2% |
   FFT:                                     21.176    21.176   0.1% |
   gather:                                 184.337   184.337   0.6% |
   hmm1:                                    17.703    17.703   0.1% |
   hmm2:                                    22.874    22.874   0.1% |
   iFFT:                                    21.810    21.810   0.1% |
   potential:                              212.622     5.772   0.0% |
    collect:                                32.019    32.019   0.1% |
    p1:                                     94.344    94.344   0.3% |
    p2:                                     35.475    35.475   0.1% |
    sum:                                    45.012    45.012   0.1% |
   splines:                                  3.779     3.779   0.0% |
 vbar:                                       0.648     0.648   0.0% |
LCAO initialization:                         1.159     0.183   0.0% |
 LCAO eigensolver:                           0.221     0.000   0.0% |
  Calculate projections:                     0.000     0.000   0.0% |
  DenseAtomicCorrection:                     0.000     0.000   0.0% |
  Distribute overlap matrix:                 0.205     0.205   0.0% |
  Orbital Layouts:                           0.014     0.014   0.0% |
  Potential matrix:                          0.001     0.001   0.0% |
  Sum over cells:                            0.001     0.001   0.0% |
 LCAO to grid:                               0.629     0.629   0.0% |
 Set positions (LCAO WFS):                   0.125     0.083   0.0% |
  Basic WFS set positions:                   0.001     0.001   0.0% |
  Basis functions set positions:             0.000     0.000   0.0% |
  P tci:                                     0.000     0.000   0.0% |
  ST tci:                                    0.012     0.012   0.0% |
  mktci:                                     0.029     0.029   0.0% |
Redistribute:                                0.076     0.076   0.0% |
SCF-cycle:                               29234.178   418.431   1.4% ||
 Davidson:                                7931.494  2350.299   7.8% |--|
  Apply hamiltonian:                       504.567   504.567   1.7% ||
  Subspace diag:                          1494.721     0.475   0.0% |
   calc_h_matrix:                          733.830   228.155   0.8% |
    Apply hamiltonian:                     505.675   505.675   1.7% ||
   diagonalize:                             88.705    88.705   0.3% |
   rotate_psi:                             671.712   671.712   2.2% ||
  calc. matrices:                         2506.928  1322.789   4.4% |-|
   Apply hamiltonian:                     1184.139  1184.139   3.9% |-|
  diagonalize:                              24.110    24.110   0.1% |
  rotate_psi:                             1050.870  1050.870   3.5% ||
 Density:                                  150.790     0.098   0.0% |
  Atomic density matrices:                  17.717    17.717   0.1% |
  Mix:                                      66.296    66.296   0.2% |
  Multipole moments:                         6.943     6.943   0.0% |
  Pseudo density:                           59.736    59.655   0.2% |
   Symmetrize density:                       0.081     0.081   0.0% |
 Hamiltonian:                            20710.209     0.507   0.0% |
  Atomic:                                    0.992     0.982   0.0% |
   XC Correction:                            0.010     0.010   0.0% |
  Calculate atomic Hamiltonians:             1.602     1.602   0.0% |
  Communicate:                             278.443   278.443   0.9% |
  Hartree integrate/restrict:               66.623    66.623   0.2% |
  Poisson:                                1007.592   375.916   1.2% |
   Communicate from 1D:                     98.484    98.484   0.3% |
   Communicate from 2D:                    100.645   100.645   0.3% |
   Communicate to 1D:                       56.226    56.226   0.2% |
   Communicate to 2D:                      117.531   117.531   0.4% |
   FFT 1D:                                 130.533   130.533   0.4% |
   FFT 2D:                                 128.257   128.257   0.4% |
  XC 3D grid:                            19337.719  2962.923   9.8% |---|
   VdW-DF integral:                      16374.796   139.843   0.5% |
    Convolution:                          1509.639  1509.639   5.0% |-|
    FFT:                                   656.714   656.714   2.2% ||
    gather:                               5703.306  5703.306  18.9% |-------|
    hmm1:                                  545.963   545.963   1.8% ||
    hmm2:                                  706.438   706.438   2.3% ||
    iFFT:                                  674.480   674.480   2.2% ||
    potential:                            6438.379   178.480   0.6% |
     collect:                              995.161   995.161   3.3% ||
     p1:                                  2915.733  2915.733   9.7% |---|
     p2:                                  1095.934  1095.934   3.6% ||
     sum:                                 1253.070  1253.070   4.2% |-|
    splines:                                 0.035     0.035   0.0% |
  vbar:                                     16.732    16.732   0.1% |
 Orthonormalize:                            23.253     0.017   0.0% |
  calc_s_matrix:                             3.365     3.365   0.0% |
  inverse-cholesky:                          6.918     6.918   0.0% |
  projections:                               0.003     0.003   0.0% |
  rotate_psi_s:                             12.951    12.951   0.0% |
Set symmetry:                                0.002     0.002   0.0% |
Other:                                     137.673   137.673   0.5% |
-------------------------------------------------------------------
Total:                                             30109.774 100.0%

Memory usage: 1.12 GiB
Date: Fri Mar 10 20:44:41 2023
