
  ___ ___ ___ _ _ _  
 |   |   |_  | | | | 
 | | | | | . | | | | 
 |__ |  _|___|_____|  22.8.0
 |___|_|             

User:   vazumah@r339.ib.bridges2.psc.edu
Date:   Fri Mar 10 10:03:24 2023
Arch:   x86_64
Pid:    82318
CWD:    /jet/home/vazumah/Calcs/LiMEAS/proton_donors/butanol_z/ontop/9.702_9.702/N2_y
Python: 3.11.0
gpaw:   /jet/home/vazumah/.conda/envs/GPAW_mpich/lib/python3.11/site-packages/gpaw
_gpaw:  /jet/home/vazumah/.conda/envs/GPAW_mpich/lib/python3.11/site-packages/
        _gpaw.cpython-311-x86_64-linux-gnu.so
ase:    /jet/home/vazumah/.conda/envs/GPAW_mpich/lib/python3.11/site-packages/ase (version 3.22.1)
numpy:  /jet/home/vazumah/.conda/envs/GPAW_mpich/lib/python3.11/site-packages/numpy (version 1.24.2)
scipy:  /jet/home/vazumah/.conda/envs/GPAW_mpich/lib/python3.11/site-packages/scipy (version 1.10.1)
libxc:  5.2.3
units:  Angstrom and eV
cores: 128
OpenMP: True
OMP_NUM_THREADS: 1

Input parameters:
  h: 0.16
  kpts: {size: [4, 4, 1]}
  occupations: {name: fermi-dirac,
                width: 0.05}
  poissonsolver: {dipolelayer: xy}
  xc: BEEF-vdW

System changes: positions, numbers, cell, pbc, initial_charges, initial_magmoms 

Initialize ...

species:
  Li:
    name: Lithium
    id: 830b4218f175192f93f959cfc0aad614
    Z: 3.0
    valence: 1
    core: 2
    charge: 0.0
    file: /jet/home/vazumah/datasets/gpaw-setups-0.9.20000/Li.PBE.gz
    compensation charges: {type: gauss,
                           rc: 0.33,
                           lmax: 2}
    cutoffs: {filter: 1.91,
              core: 2.55}
    valence states:
      #              energy  rcut
      - 2s(1.00)    -2.874   1.058
      - 2p(0.00)    -1.090   1.058
      -  s          24.337   1.058
  
    # Using partial waves for Li as LCAO basis

  O:
    name: Oxygen
    id: 32ecd46bf208036f09c70b0ec9a88b78
    Z: 8.0
    valence: 6
    core: 2
    charge: 0.0
    file: /jet/home/vazumah/datasets/gpaw-setups-0.9.20000/O.PBE.gz
    compensation charges: {type: gauss,
                           rc: 0.21,
                           lmax: 2}
    cutoffs: {filter: 1.17,
              core: 0.83}
    valence states:
      #              energy  rcut
      - 2s(2.00)   -23.961   0.688
      - 2p(4.00)    -9.029   0.598
      -  s           3.251   0.688
      -  p          18.182   0.598
      -  d           0.000   0.619
  
    # Using partial waves for O as LCAO basis

  C:
    name: Carbon
    id: 4aa54d4b901d75f77cc0ea3eec22967b
    Z: 6.0
    valence: 4
    core: 2
    charge: 0.0
    file: /jet/home/vazumah/datasets/gpaw-setups-0.9.20000/C.PBE.gz
    compensation charges: {type: gauss,
                           rc: 0.20,
                           lmax: 2}
    cutoffs: {filter: 1.14,
              core: 1.14}
    valence states:
      #              energy  rcut
      - 2s(2.00)   -13.751   0.635
      - 2p(2.00)    -5.284   0.635
      -  s          13.461   0.635
      -  p          21.927   0.635
      -  d           0.000   0.635
  
    # Using partial waves for C as LCAO basis

  H:
    name: Hydrogen
    id: d65de229564ff8ea4db303e23b6d1ecf
    Z: 1.0
    valence: 1
    core: 0
    charge: 0.0
    file: /jet/home/vazumah/datasets/gpaw-setups-0.9.20000/H.PBE.gz
    compensation charges: {type: gauss,
                           rc: 0.15,
                           lmax: 2}
    cutoffs: {filter: 0.85,
              core: 0.53}
    valence states:
      #              energy  rcut
      - 1s(1.00)    -6.494   0.476
      -  s          20.717   0.476
      -  p           0.000   0.476
  
    # Using partial waves for H as LCAO basis

  N:
    name: Nitrogen
    id: f7500608b86eaa90eef8b1d9a670dc53
    Z: 7.0
    valence: 5
    core: 2
    charge: 0.0
    file: /jet/home/vazumah/datasets/gpaw-setups-0.9.20000/N.PBE.gz
    compensation charges: {type: gauss,
                           rc: 0.18,
                           lmax: 2}
    cutoffs: {filter: 1.11,
              core: 0.96}
    valence states:
      #              energy  rcut
      - 2s(2.00)   -18.583   0.603
      - 2p(3.00)    -7.089   0.529
      -  s           8.629   0.603
      -  p          20.123   0.529
      -  d           0.000   0.577
  
    # Using partial waves for N as LCAO basis

Reference energy: -16540.070923  # eV

Spin-paired calculation

Convergence criteria:
 Maximum [total energy] change in last 3 cyles: 0.0005 eV / electron
 Maximum integral of absolute [dens]ity change: 0.0001 electrons / valence electron
 Maximum integral of absolute [eigenst]ate change: 4e-08 eV^2 / valence electron
 Maximum number of scf [iter]ations: 333
 (Square brackets indicate name in SCF output, whereas a 'c' in
 the SCF output indicates the quantity has converged.)

Symmetries present (total): 1

  ( 1  0  0)
  ( 0  1  0)
  ( 0  0  1)

16 k-points: 4 x 4 x 1 Monkhorst-Pack grid
8 k-points in the irreducible part of the Brillouin zone
       k-points in crystal coordinates                weights
   0:     0.12500000   -0.37500000    0.00000000          2/16
   1:     0.12500000   -0.12500000    0.00000000          2/16
   2:     0.12500000    0.12500000    0.00000000          2/16
   3:     0.12500000    0.37500000    0.00000000          2/16
   4:     0.37500000   -0.37500000    0.00000000          2/16
   5:     0.37500000   -0.12500000    0.00000000          2/16
   6:     0.37500000    0.12500000    0.00000000          2/16
   7:     0.37500000    0.37500000    0.00000000          2/16

Wave functions: Uniform real-space grid
  Kinetic energy operator: 6*3+1=19 point O(h^6) finite-difference Laplacian
  ScaLapack parameters: grid=1x1, blocksize=None
  Wavefunction extrapolation:
    Improved wavefunction reuse through dual PAW basis 

Occupation numbers: Fermi-Dirac:
  width: 0.0500  # eV
 

Eigensolver
   Davidson(niter=2) 

Densities:
  Coarse grid: 60*60*164 grid
  Fine grid: 120*120*328 grid
  Total Charge: 0.000000 

Density mixing:
  Method: separate
  Backend: pulay
  Linear mixing parameter: 0.05
  old densities: 5
  Damping of long wavelength oscillations: 50 

Hamiltonian:
  XC and Coulomb potentials evaluated on a 120*120*328 grid
  Using the BEEF-vdW Exchange-Correlation functional
  Interpolation: tri-quintic (5. degree polynomial)
  Poisson solver: FastPoissonSolver using
    Stencil: 6*3+1=19 point O(h^6) finite-difference Laplacian
    FFT axes: [0, 1]
    FST axes: [2]

Dipole correction along z-axis 

XC parameters: BEEF-vdW with 2 nearest neighbor stencil

Memory estimate:
  Process memory now: 126.07 MiB
  Calculator: 88.32 MiB
    Density: 22.73 MiB
      Arrays: 7.22 MiB
      Localized functions: 12.76 MiB
      Mixer: 2.75 MiB
    Hamiltonian: 5.73 MiB
      Arrays: 4.72 MiB
      XC: 0.00 MiB
      Poisson: 0.00 MiB
      vbar: 1.01 MiB
    Wavefunctions: 59.86 MiB
      Arrays psit_nG: 28.02 MiB
      Eigensolver: 31.16 MiB
      Projections: 0.02 MiB
      Projectors: 0.67 MiB

Total number of cores used: 128
Parallelization over k-points: 8
Domain decomposition: 2 x 2 x 4

Number of atoms: 53
Number of atomic orbitals: 182
Number of bands in calculation: 51
Number of valence electrons: 78
Bands to converge: occupied

... initialized

Initializing position-dependent things.

Density initialized from atomic densities
Creating initial wave functions:
  51 bands from LCAO basis set

       .-----------------------.  
      /|                       |  
     / |                       |  
    /  |                       H  
   /   |                       |  
  /    |                       |  
 *     |H                   H C|  
 |     |                       |  
 |     |                       |  
 |  H  |H              H    H C|  
 |     |                 C     |  
 |     |                       N  
 | H   |               H       |  
 |     |                 C     |  
 |     |                       |  
 | H Li|     Li      Li        |  
 |     |                 O     |  
 | Li  |  LLi     LLi     Ni   |  
 |     |                       |  
 Li    |LLi     LLi     Li     |  
 |   Li|     Li      Li        |  
 |    Li  Li  Li  Li  Li  Li   |  
 | Li  |   Li      Li          |  
 |     |Li      Li      Li     |  
 Li    | Li      Li            |  
 |    Li      Li      Li       |  
 |     |                       |  
 |     |                       |  
 |     |                       |  
 |     |                       |  
 |     |                       |  
 |     |                       |  
 |     .-----------------------.  
 |    /                       /   
 |   /                       /    
 |  /                       /     
 | /                       /      
 |/                       /       
 *-----------------------*        

Positions:
   0 Li     1.617037    1.617037   10.000000    ( 0.0000,  0.0000,  0.0000)
   1 Li     4.851111    1.617037   10.000000    ( 0.0000,  0.0000,  0.0000)
   2 Li     8.085185    1.617037   10.000000    ( 0.0000,  0.0000,  0.0000)
   3 Li     1.617037    4.851111   10.000000    ( 0.0000,  0.0000,  0.0000)
   4 Li     4.851111    4.851111   10.000000    ( 0.0000,  0.0000,  0.0000)
   5 Li     8.085185    4.851111   10.000000    ( 0.0000,  0.0000,  0.0000)
   6 Li     1.617037    8.085185   10.000000    ( 0.0000,  0.0000,  0.0000)
   7 Li     4.851111    8.085185   10.000000    ( 0.0000,  0.0000,  0.0000)
   8 Li     8.085185    8.085185   10.000000    ( 0.0000,  0.0000,  0.0000)
   9 Li     0.000000    0.000000   11.617037    ( 0.0000,  0.0000,  0.0000)
  10 Li     3.234074    0.000000   11.617037    ( 0.0000,  0.0000,  0.0000)
  11 Li     6.468148    0.000000   11.617037    ( 0.0000,  0.0000,  0.0000)
  12 Li     0.000000    3.234074   11.617037    ( 0.0000,  0.0000,  0.0000)
  13 Li     3.234074    3.234074   11.617037    ( 0.0000,  0.0000,  0.0000)
  14 Li     6.468148    3.234074   11.617037    ( 0.0000,  0.0000,  0.0000)
  15 Li     0.000000    6.468148   11.617037    ( 0.0000,  0.0000,  0.0000)
  16 Li     3.234074    6.468148   11.617037    ( 0.0000,  0.0000,  0.0000)
  17 Li     6.468148    6.468148   11.617037    ( 0.0000,  0.0000,  0.0000)
  18 Li     1.617038    1.617038   13.469728    ( 0.0000,  0.0000,  0.0000)
  19 Li     4.851111    1.617038   13.469729    ( 0.0000,  0.0000,  0.0000)
  20 Li     8.085184    1.617038   13.469728    ( 0.0000,  0.0000,  0.0000)
  21 Li     1.617038    4.851111   13.469729    ( 0.0000,  0.0000,  0.0000)
  22 Li     4.851111    4.851111   13.469730    ( 0.0000,  0.0000,  0.0000)
  23 Li     8.085184    4.851111   13.469729    ( 0.0000,  0.0000,  0.0000)
  24 Li     1.617038    8.085184   13.469728    ( 0.0000,  0.0000,  0.0000)
  25 Li     4.851111    8.085184   13.469729    ( 0.0000,  0.0000,  0.0000)
  26 Li     8.085184    8.085184   13.469728    ( 0.0000,  0.0000,  0.0000)
  27 Li    -0.000000   -0.000000   15.445939    ( 0.0000,  0.0000,  0.0000)
  28 Li     3.234074    0.000000   15.445939    ( 0.0000,  0.0000,  0.0000)
  29 Li     6.468148    0.000000   15.445939    ( 0.0000,  0.0000,  0.0000)
  30 Li     0.000000    3.234074   15.445939    ( 0.0000,  0.0000,  0.0000)
  31 Li     3.234076    3.234076   15.445938    ( 0.0000,  0.0000,  0.0000)
  32 Li     6.468146    3.234076   15.445938    ( 0.0000,  0.0000,  0.0000)
  33 Li     0.000000    6.468148   15.445939    ( 0.0000,  0.0000,  0.0000)
  34 Li     3.234076    6.468146   15.445938    ( 0.0000,  0.0000,  0.0000)
  35 Li     6.468146    6.468146   15.445938    ( 0.0000,  0.0000,  0.0000)
  36 O      9.702222    9.702222   18.445939    ( 0.0000,  0.0000,  0.0000)
  37 C      9.666396    9.714563   20.912999    ( 0.0000,  0.0000,  0.0000)
  38 C      9.679807    8.859511   22.182560    ( 0.0000,  0.0000,  0.0000)
  39 C      9.702015    8.891743   19.630422    ( 0.0000,  0.0000,  0.0000)
  40 C      9.695436    9.710497   23.455270    ( 0.0000,  0.0000,  0.0000)
  41 H      8.772903   10.347732   20.898200    ( 0.0000,  0.0000,  0.0000)
  42 H     10.537752   10.384751   20.926315    ( 0.0000,  0.0000,  0.0000)
  43 H     10.556016    8.200436   22.169599    ( 0.0000,  0.0000,  0.0000)
  44 H      8.801836    8.203347   22.187463    ( 0.0000,  0.0000,  0.0000)
  45 H     10.576154    8.226176   19.636976    ( 0.0000,  0.0000,  0.0000)
  46 H      8.807396    8.268428   19.545907    ( 0.0000,  0.0000,  0.0000)
  47 H     10.579479   10.352977   23.482857    ( 0.0000,  0.0000,  0.0000)
  48 H      8.817984   10.360510   23.500588    ( 0.0000,  0.0000,  0.0000)
  49 H      9.701580    9.096771   24.358445    ( 0.0000,  0.0000,  0.0000)
  50 H     10.464401   10.291321   18.495250    ( 0.0000,  0.0000,  0.0000)
  51 N      9.702000    9.702000   16.945939    ( 0.0000,  0.0000,  0.0000)
  52 N      9.702000   10.798622   16.945939    ( 0.0000,  0.0000,  0.0000)

Unit cell:
           periodic     x           y           z      points  spacing
  1. axis:    yes    9.702222    0.000000    0.000000    60     0.1617
  2. axis:    yes    0.000000    9.702222    0.000000    60     0.1617
  3. axis:    no     0.000000    0.000000   26.351111   164     0.1607

  Lengths:   9.702222   9.702222  26.351111
  Angles:   90.000000  90.000000  90.000000

Effective grid spacing dv^(1/3) = 0.1614

     iter     time        total  log10-change:
                         energy  eigst   dens
iter:   1 10:03:39  -819.127189
iter:   2 10:03:46   196.321011  +2.76  +0.06
iter:   3 10:03:54   305.895381  +3.48  -0.10
iter:   4 10:04:01   -87.414463  +3.55  -0.17
Writing to output.gpw (mode='')

iter:   5 10:04:09  -224.683603  +3.04  -0.17
iter:   6 10:04:16  -335.087524  +2.74  -0.39
iter:   7 10:04:23  -408.237230  +2.46  -0.45
iter:   8 10:04:31  -443.839962  +2.34  -0.38
iter:   9 10:04:43  -877.769119  +3.10  -0.32
Writing to output.gpw (mode='')

iter:  10 10:04:52  -419.179259  +1.86  -0.07
iter:  11 10:05:00  -381.176659  +1.69  -0.33
iter:  12 10:05:07  -379.329276  +1.56  -0.45
iter:  13 10:05:14  -362.550153  +2.42  -0.47
iter:  14 10:05:22  -364.998112  +1.68  -0.65
Writing to output.gpw (mode='')

iter:  15 10:05:29  -387.099315  +2.19  -0.65
iter:  16 10:05:37  -367.019736  +1.40  -0.54
iter:  17 10:05:44  -365.235871  +1.10  -0.69
iter:  18 10:05:51  -361.620882  +1.19  -0.69
iter:  19 10:05:59  -360.634721  +1.04  -0.67
Writing to output.gpw (mode='')

iter:  20 10:06:06  -363.703895  +0.78  -0.74
iter:  21 10:06:14  -359.525413  +0.81  -0.68
iter:  22 10:06:21  -355.726598  +0.05  -0.78
iter:  23 10:06:29  -355.903795  -0.10  -1.10
iter:  24 10:06:36  -355.621116  -0.44  -1.11
Writing to output.gpw (mode='')

iter:  25 10:06:43  -355.109006  -0.37  -1.13
iter:  26 10:06:51  -354.546600  -0.29  -1.13
iter:  27 10:06:58  -353.093322  -0.18  -1.13
iter:  28 10:07:06  -352.810265  -0.16  -1.34
iter:  29 10:07:13  -352.830592  -0.51  -1.39
Writing to output.gpw (mode='')

iter:  30 10:07:21  -352.913748  -0.25  -1.40
iter:  31 10:07:28  -352.746122  -0.23  -1.34
iter:  32 10:07:35  -352.700017  -0.81  -1.55
iter:  33 10:07:43  -352.706094  -1.12  -1.72
iter:  34 10:07:50  -352.704815c -1.28  -1.73
Writing to output.gpw (mode='')

iter:  35 10:07:58  -352.708115c -1.43  -1.81
iter:  36 10:08:05  -352.710757c -1.44  -1.86
iter:  37 10:08:12  -352.705195c -1.53  -2.02
iter:  38 10:08:20  -352.706160c -1.57  -2.25
iter:  39 10:08:27  -352.708805c -1.79  -2.33
Writing to output.gpw (mode='')

iter:  40 10:08:34  -352.713077c -1.82  -2.36
iter:  41 10:08:42  -352.712999c -1.92  -2.46
iter:  42 10:08:49  -352.714334c -2.13  -2.52
iter:  43 10:08:56  -352.716278c -2.21  -2.70
iter:  44 10:09:04  -352.717417c -2.43  -2.76
Writing to output.gpw (mode='')

iter:  45 10:09:11  -352.718150c -2.39  -2.78
iter:  46 10:09:19  -352.719229c -2.44  -2.92
iter:  47 10:09:26  -352.719662c -2.80  -3.09
iter:  48 10:09:33  -352.720100c -2.78  -3.13
iter:  49 10:09:47  -352.720664c -2.74  -3.16
Writing to output.gpw (mode='')

iter:  50 10:09:55  -352.721042c -2.83  -3.23
iter:  51 10:10:02  -352.721308c -3.14  -3.41
iter:  52 10:10:10  -352.721501c -3.22  -3.40
iter:  53 10:10:17  -352.721776c -3.08  -3.35
iter:  54 10:10:24  -352.721943c -3.29  -3.41
Writing to output.gpw (mode='')

iter:  55 10:10:32  -352.722122c -3.12  -3.41
iter:  56 10:10:39  -352.722288c -3.27  -3.34
iter:  57 10:10:47  -352.722454c -3.29  -3.38
iter:  58 10:10:54  -352.722508c -3.63  -3.34
iter:  59 10:11:01  -352.722629c -3.44  -3.30
Writing to output.gpw (mode='')

iter:  60 10:11:09  -352.722738c -3.42  -3.33
iter:  61 10:11:16  -352.722836c -3.52  -3.41
iter:  62 10:11:24  -352.722914c -3.68  -3.49
iter:  63 10:11:31  -352.723004c -3.76  -3.61
iter:  64 10:11:38  -352.723019c -3.77  -3.67
Writing to output.gpw (mode='')

iter:  65 10:11:46  -352.723073c -3.81  -3.73
iter:  66 10:11:53  -352.723080c -4.14  -3.83
iter:  67 10:12:01  -352.723101c -4.23  -3.96
iter:  68 10:12:08  -352.723116c -4.46  -4.09c
iter:  69 10:12:15  -352.723125c -4.24  -4.11c
Writing to output.gpw (mode='')

iter:  70 10:12:23  -352.723141c -4.29  -4.19c
iter:  71 10:12:30  -352.723140c -4.49  -4.25c
iter:  72 10:12:38  -352.723146c -4.73  -4.30c
iter:  73 10:12:45  -352.723159c -4.65  -4.34c
iter:  74 10:12:53  -352.723161c -4.83  -4.45c
Writing to output.gpw (mode='')

iter:  75 10:13:00  -352.723169c -4.80  -4.48c
iter:  76 10:13:07  -352.723170c -4.89  -4.68c
iter:  77 10:13:15  -352.723170c -4.79  -4.88c
iter:  78 10:13:22  -352.723173c -4.95  -4.91c
iter:  79 10:13:30  -352.723175c -5.18  -4.88c
Writing to output.gpw (mode='')

iter:  80 10:13:37  -352.723174c -5.21  -4.86c
iter:  81 10:13:45  -352.723177c -5.19  -4.70c
iter:  82 10:13:52  -352.723177c -5.33  -4.74c
iter:  83 10:14:00  -352.723178c -5.18  -4.67c
iter:  84 10:14:07  -352.723180c -5.31  -4.67c
Writing to output.gpw (mode='')

iter:  85 10:14:14  -352.723183c -5.36  -4.72c
iter:  86 10:14:22  -352.723183c -5.53  -4.85c
iter:  87 10:14:29  -352.723186c -5.64  -4.78c
iter:  88 10:14:36  -352.723189c -5.47  -4.92c
iter:  89 10:14:50  -352.723189c -5.44  -5.02c
Writing to output.gpw (mode='')

iter:  90 10:14:57  -352.723190c -5.53  -5.09c
iter:  91 10:15:05  -352.723192c -5.70  -5.14c
iter:  92 10:15:12  -352.723192c -5.91  -5.23c
iter:  93 10:15:19  -352.723192c -5.72  -5.38c
iter:  94 10:15:27  -352.723192c -6.10  -5.38c
Writing to output.gpw (mode='')

iter:  95 10:15:34  -352.723192c -5.95  -5.49c
iter:  96 10:15:41  -352.723192c -6.12  -5.55c
iter:  97 10:15:49  -352.723192c -6.12  -5.54c
iter:  98 10:15:56  -352.723192c -6.20  -5.71c
iter:  99 10:16:04  -352.723193c -6.29  -5.74c
Writing to output.gpw (mode='')

iter: 100 10:16:11  -352.723192c -6.37  -5.84c
iter: 101 10:16:18  -352.723193c -6.36  -5.89c
iter: 102 10:16:26  -352.723193c -6.44  -5.94c
iter: 103 10:16:33  -352.723193c -6.48  -5.91c
iter: 104 10:16:41  -352.723193c -6.40  -5.94c
Writing to output.gpw (mode='')

iter: 105 10:16:48  -352.723193c -6.52  -5.94c
iter: 106 10:16:55  -352.723193c -6.53  -5.94c
iter: 107 10:17:03  -352.723193c -6.79  -5.99c
iter: 108 10:17:10  -352.723193c -6.69  -5.99c
iter: 109 10:17:19  -352.723193c -6.82  -5.98c
Writing to output.gpw (mode='')

iter: 110 10:17:26  -352.723193c -6.73  -6.00c
iter: 111 10:17:34  -352.723193c -6.98  -6.01c
iter: 112 10:17:41  -352.723193c -6.94  -6.13c
iter: 113 10:17:49  -352.723193c -7.02  -6.23c
iter: 114 10:17:56  -352.723193c -6.93  -6.32c
Writing to output.gpw (mode='')

iter: 115 10:18:03  -352.723193c -7.07  -6.34c
iter: 116 10:18:11  -352.723193c -7.24  -6.50c
iter: 117 10:18:18  -352.723193c -7.30  -6.48c
iter: 118 10:18:26  -352.723193c -7.25  -6.44c
iter: 119 10:18:33  -352.723193c -7.30  -6.25c
Writing to output.gpw (mode='')

iter: 120 10:18:40  -352.723193c -7.25  -6.27c
iter: 121 10:18:48  -352.723193c -7.49c -6.29c

Converged after 121 iterations.

Dipole moment: (-24.337401, -16.704386, 0.683893) |e|*Ang

Energy contributions relative to reference atoms: (reference = -16540.070923)

Kinetic:       +223.935251
Potential:     -207.884299
External:        +0.000000
XC:            -369.549590
Entropy (-ST):   -0.151971
Local:           +0.851430
--------------------------
Free energy:   -352.799179
Extrapolated:  -352.723193

Dipole-layer corrected work functions: 3.366950, 2.052273 eV

Showing only first 2 kpts
 Kpt  Band  Eigenvalues  Occupancy
  0    37     -2.96244    1.98735
  0    38     -2.83575    1.85145
  0    39     -2.60069    0.20339
  0    40     -2.46650    0.01535

  1    37     -2.78357    1.62887
  1    38     -2.73645    1.26211
  1    39     -2.64230    0.41297
  1    40     -2.60469    0.21849


Fermi level: -2.70961

Gap: 0.039 eV
Transition (v -> c):
  (s=0, k=1, n=38, [0.12, -0.12, 0.00]) -> (s=0, k=4, n=39, [0.38, -0.38, 0.00])
Writing to output.gpw (mode='')


Forces in eV/Ang:
  0 Li    0.01675    0.00570   -0.27747
  1 Li   -0.00216   -0.00247   -0.26340
  2 Li   -0.01427    0.00600   -0.27482
  3 Li   -0.00659    0.00737   -0.26499
  4 Li    0.00049   -0.00030   -0.28100
  5 Li    0.00569    0.00907   -0.26288
  6 Li    0.00413   -0.01513   -0.27685
  7 Li   -0.00019    0.00706   -0.26246
  8 Li   -0.00413   -0.01773   -0.27751
  9 Li    0.00069    0.00443    0.35179
 10 Li    0.01786    0.00030    0.25714
 11 Li   -0.01874   -0.00008    0.26044
 12 Li   -0.00085    0.00525    0.27927
 13 Li    0.00585    0.00125    0.26600
 14 Li   -0.00584    0.00182    0.26721
 15 Li   -0.00176   -0.00293    0.24458
 16 Li   -0.00426   -0.00563    0.26161
 17 Li    0.00681   -0.00530    0.25737
 18 Li    0.03445    0.00845   -0.08620
 19 Li    0.00132   -0.00914    0.07394
 20 Li   -0.03570    0.01152   -0.09613
 21 Li   -0.02282   -0.00948    0.07032
 22 Li    0.00152    0.01033   -0.00479
 23 Li    0.02230   -0.01177    0.07564
 24 Li    0.01487   -0.00157   -0.02322
 25 Li   -0.00042    0.00073    0.05968
 26 Li   -0.01475   -0.00049   -0.02513
 27 Li   -0.02152   -0.80734   -7.22059
 28 Li    0.12613   -0.01789   -0.07167
 29 Li   -0.11935   -0.02681   -0.05557
 30 Li    0.00647   -0.22286    0.20412
 31 Li    0.05413    0.03333   -0.02041
 32 Li   -0.05568    0.04844   -0.03135
 33 Li    0.00046   -0.05316   -0.04851
 34 Li    0.00409   -0.00823   -0.02124
 35 Li   -0.00515   -0.01321   -0.02319
 36 O     0.23409   -2.84132   11.20761
 37 C     0.01120    0.29352   -0.19003
 38 C    -0.01833   -0.11916    0.02159
 39 C    -0.07185   -2.00594    1.49550
 40 C    -0.02180    0.02397    0.00926
 41 H     0.01745    0.04518    0.02797
 42 H    -0.04235    0.01122    0.00964
 43 H    -0.01146    0.02271   -0.00371
 44 H     0.01124    0.01130   -0.00507
 45 H    -0.05031    0.03011   -0.08617
 46 H     0.04429   -0.00579    0.00679
 47 H     0.00852   -0.01149   -0.00222
 48 H    -0.01309   -0.01024    0.00227
 49 H     0.00037    0.00718   -0.19091
 50 H     0.34909    0.45222    0.68445
 51 N    -0.50146   -5.91909   -0.23796
 52 N     0.04275   11.02577   -5.59650

System changes: positions 

Initializing position-dependent things.

Density initialized from wave functions
       .-----------------------.  
      /|                       |  
     / |                       |  
    /  |                       H  
   /   |                       |  
  /    |                       |  
 *     |H                   H C|  
 |     |                       |  
 |     |                       |  
 |  H  |H              H    H C|  
 |     O                 C     |  
 |     |                       N  
 | H   |               H       |  
 |     |       Li      LiC     Li 
 |     |                       |  
 | H Li|     Li      Li        |  
 |     |                       |  
 | Li  |  LLi     LLi     Ni   |  
 |     |                       |  
 |     |Li      Li      Li     |  
 |   Li|     Li      Li        |  
 |    Li  Li  Li  Li  Li  Li   |  
 | Li  |   Li      Li          |  
 |     |Li      Li      Li     |  
 Li    | Li      Li            |  
 |    Li      Li      Li       |  
 |     |                       |  
 |     |                       |  
 |     |                       |  
 |     |                       |  
 |     |                       |  
 |     |                       |  
 |     .-----------------------.  
 |    /                       /   
 |   /                       /    
 |  /                       /     
 | /                       /      
 |/                       /       
 *-----------------------*        

Positions:
   0 Li     1.617037    1.617037   10.000000    ( 0.0000,  0.0000,  0.0000)
   1 Li     4.851111    1.617037   10.000000    ( 0.0000,  0.0000,  0.0000)
   2 Li     8.085185    1.617037   10.000000    ( 0.0000,  0.0000,  0.0000)
   3 Li     1.617037    4.851111   10.000000    ( 0.0000,  0.0000,  0.0000)
   4 Li     4.851111    4.851111   10.000000    ( 0.0000,  0.0000,  0.0000)
   5 Li     8.085185    4.851111   10.000000    ( 0.0000,  0.0000,  0.0000)
   6 Li     1.617037    8.085185   10.000000    ( 0.0000,  0.0000,  0.0000)
   7 Li     4.851111    8.085185   10.000000    ( 0.0000,  0.0000,  0.0000)
   8 Li     8.085185    8.085185   10.000000    ( 0.0000,  0.0000,  0.0000)
   9 Li     0.000000    0.000000   11.617037    ( 0.0000,  0.0000,  0.0000)
  10 Li     3.234074    0.000000   11.617037    ( 0.0000,  0.0000,  0.0000)
  11 Li     6.468148    0.000000   11.617037    ( 0.0000,  0.0000,  0.0000)
  12 Li     0.000000    3.234074   11.617037    ( 0.0000,  0.0000,  0.0000)
  13 Li     3.234074    3.234074   11.617037    ( 0.0000,  0.0000,  0.0000)
  14 Li     6.468148    3.234074   11.617037    ( 0.0000,  0.0000,  0.0000)
  15 Li     0.000000    6.468148   11.617037    ( 0.0000,  0.0000,  0.0000)
  16 Li     3.234074    6.468148   11.617037    ( 0.0000,  0.0000,  0.0000)
  17 Li     6.468148    6.468148   11.617037    ( 0.0000,  0.0000,  0.0000)
  18 Li     1.617150    1.617065   13.469449    ( 0.0000,  0.0000,  0.0000)
  19 Li     4.851115    1.617009   13.469969    ( 0.0000,  0.0000,  0.0000)
  20 Li     8.085068    1.617075   13.469417    ( 0.0000,  0.0000,  0.0000)
  21 Li     1.616965    4.851080   13.469957    ( 0.0000,  0.0000,  0.0000)
  22 Li     4.851116    4.851144   13.469715    ( 0.0000,  0.0000,  0.0000)
  23 Li     8.085256    4.851073   13.469974    ( 0.0000,  0.0000,  0.0000)
  24 Li     1.617086    8.085179   13.469653    ( 0.0000,  0.0000,  0.0000)
  25 Li     4.851110    8.085186   13.469923    ( 0.0000,  0.0000,  0.0000)
  26 Li     8.085136    8.085182   13.469647    ( 0.0000,  0.0000,  0.0000)
  27 Li    -0.000070   -0.002612   15.422581    ( 0.0000,  0.0000,  0.0000)
  28 Li     3.234482   -0.000058   15.445707    ( 0.0000,  0.0000,  0.0000)
  29 Li     6.467762   -0.000087   15.445759    ( 0.0000,  0.0000,  0.0000)
  30 Li     0.000021    3.233353   15.446599    ( 0.0000,  0.0000,  0.0000)
  31 Li     3.234252    3.234184   15.445872    ( 0.0000,  0.0000,  0.0000)
  32 Li     6.467965    3.234233   15.445837    ( 0.0000,  0.0000,  0.0000)
  33 Li     0.000001    6.467976   15.445782    ( 0.0000,  0.0000,  0.0000)
  34 Li     3.234090    6.468119   15.445869    ( 0.0000,  0.0000,  0.0000)
  35 Li     6.468129    6.468103   15.445863    ( 0.0000,  0.0000,  0.0000)
  36 O      9.702979    9.693030   18.482196    ( 0.0000,  0.0000,  0.0000)
  37 C      9.666432    9.715512   20.912384    ( 0.0000,  0.0000,  0.0000)
  38 C      9.679747    8.859125   22.182630    ( 0.0000,  0.0000,  0.0000)
  39 C      9.701782    8.885254   19.635260    ( 0.0000,  0.0000,  0.0000)
  40 C      9.695365    9.710574   23.455300    ( 0.0000,  0.0000,  0.0000)
  41 H      8.772959   10.347878   20.898291    ( 0.0000,  0.0000,  0.0000)
  42 H     10.537615   10.384787   20.926346    ( 0.0000,  0.0000,  0.0000)
  43 H     10.555979    8.200509   22.169587    ( 0.0000,  0.0000,  0.0000)
  44 H      8.801873    8.203384   22.187447    ( 0.0000,  0.0000,  0.0000)
  45 H     10.575991    8.226274   19.636698    ( 0.0000,  0.0000,  0.0000)
  46 H      8.807540    8.268410   19.545929    ( 0.0000,  0.0000,  0.0000)
  47 H     10.579506   10.352940   23.482849    ( 0.0000,  0.0000,  0.0000)
  48 H      8.817942   10.360477   23.500595    ( 0.0000,  0.0000,  0.0000)
  49 H      9.701582    9.096795   24.357827    ( 0.0000,  0.0000,  0.0000)
  50 H     10.465531   10.292784   18.497464    ( 0.0000,  0.0000,  0.0000)
  51 N      9.700378    9.682852   16.945170    ( 0.0000,  0.0000,  0.0000)
  52 N      9.702138   10.834290   16.927835    ( 0.0000,  0.0000,  0.0000)

Unit cell:
           periodic     x           y           z      points  spacing
  1. axis:    yes    9.702222    0.000000    0.000000    60     0.1617
  2. axis:    yes    0.000000    9.702222    0.000000    60     0.1617
  3. axis:    no     0.000000    0.000000   26.351111   164     0.1607

  Lengths:   9.702222   9.702222  26.351111
  Angles:   90.000000  90.000000  90.000000

Effective grid spacing dv^(1/3) = 0.1614

     iter     time        total  log10-change:
                         energy  eigst   dens
iter:   1 10:18:57  -355.258637  -0.02
iter:   2 10:19:04  -354.139340  -0.45  -1.34
iter:   3 10:19:12  -353.949600  -0.81  -1.36
iter:   4 10:19:19  -353.848916  -0.71  -1.52
Writing to output.gpw (mode='')

iter:   5 10:19:27  -353.784147  -1.15  -1.80
iter:   6 10:19:34  -353.766398  -1.34  -1.81
iter:   7 10:19:49  -353.759830c -1.05  -1.84
iter:   8 10:19:56  -353.738075c -1.91  -2.01
iter:   9 10:20:04  -353.698500  -1.85  -2.06
Writing to output.gpw (mode='')

iter:  10 10:20:11  -353.698083  -2.36  -2.36
iter:  11 10:20:19  -353.700884c -2.45  -2.44
iter:  12 10:20:26  -353.696608c -2.42  -2.55
iter:  13 10:20:34  -353.696777c -3.08  -2.86
iter:  14 10:20:41  -353.696550c -2.95  -2.92
Writing to output.gpw (mode='')

iter:  15 10:20:49  -353.696704c -3.69  -3.00
iter:  16 10:20:56  -353.696554c -3.31  -3.07
iter:  17 10:21:04  -353.696706c -3.94  -3.21
iter:  18 10:21:11  -353.696712c -4.13  -3.34
iter:  19 10:21:19  -353.696633c -4.06  -3.41
Writing to output.gpw (mode='')

iter:  20 10:21:26  -353.696671c -4.47  -3.55
iter:  21 10:21:34  -353.696699c -4.33  -3.63
iter:  22 10:21:41  -353.696673c -4.55  -3.59
iter:  23 10:21:49  -353.696678c -4.84  -3.81
iter:  24 10:21:56  -353.696678c -4.84  -3.88
Writing to output.gpw (mode='')

iter:  25 10:22:03  -353.696678c -5.20  -4.08c
iter:  26 10:22:11  -353.696675c -4.99  -4.12c
iter:  27 10:22:18  -353.696681c -5.28  -4.35c
iter:  28 10:22:26  -353.696680c -5.42  -4.37c
iter:  29 10:22:33  -353.696683c -5.46  -4.40c
Writing to output.gpw (mode='')

iter:  30 10:22:41  -353.696686c -5.48  -4.47c
iter:  31 10:22:48  -353.696686c -5.88  -4.60c
iter:  32 10:22:56  -353.696685c -5.86  -4.65c
iter:  33 10:23:03  -353.696687c -5.94  -4.80c
iter:  34 10:23:11  -353.696687c -5.83  -4.85c
Writing to output.gpw (mode='')

iter:  35 10:23:18  -353.696688c -5.95  -5.03c
iter:  36 10:23:26  -353.696688c -6.18  -5.03c
iter:  37 10:23:33  -353.696689c -6.25  -5.07c
iter:  38 10:23:41  -353.696689c -6.29  -5.18c
iter:  39 10:23:48  -353.696689c -6.47  -5.26c
Writing to output.gpw (mode='')

iter:  40 10:23:56  -353.696689c -6.40  -5.36c
iter:  41 10:24:03  -353.696689c -6.61  -5.45c
iter:  42 10:24:11  -353.696689c -6.64  -5.43c
iter:  43 10:24:18  -353.696689c -6.85  -5.30c
iter:  44 10:24:25  -353.696689c -6.90  -5.33c
Writing to output.gpw (mode='')

iter:  45 10:24:33  -353.696689c -7.03  -5.65c
iter:  46 10:24:44  -353.696689c -6.93  -5.65c
iter:  47 10:24:53  -353.696689c -7.19  -5.78c
iter:  48 10:25:01  -353.696689c -6.97  -5.85c
iter:  49 10:25:08  -353.696689c -7.12  -5.87c
Writing to output.gpw (mode='')

iter:  50 10:25:17  -353.696689c -7.18  -5.90c
iter:  51 10:25:29  -353.696689c -7.17  -5.99c
iter:  52 10:25:39  -353.696689c -7.35  -6.10c
iter:  53 10:25:47  -353.696689c -7.40c -6.09c

Converged after 53 iterations.

Dipole moment: (-24.285783, -13.906691, 0.654755) |e|*Ang

Energy contributions relative to reference atoms: (reference = -16540.070923)

Kinetic:       +213.688152
Potential:     -200.144417
External:        +0.000000
XC:            -368.014209
Entropy (-ST):   -0.153446
Local:           +0.850508
--------------------------
Free energy:   -353.773413
Extrapolated:  -353.696689

Dipole-layer corrected work functions: 3.370759, 2.112095 eV

Showing only first 2 kpts
 Kpt  Band  Eigenvalues  Occupancy
  0    37     -2.99328    1.98710
  0    38     -2.86441    1.84254
  0    39     -2.65127    0.28293
  0    40     -2.49652    0.01481

  1    37     -2.82536    1.68548
  1    38     -2.76346    1.21686
  1    39     -2.66078    0.33239
  1    40     -2.62915    0.19146


Fermi level: -2.74143

Gap: 0.038 eV
Transition (v -> c):
  (s=0, k=1, n=38, [0.12, -0.12, 0.00]) -> (s=0, k=4, n=39, [0.38, -0.38, 0.00])
Writing to output.gpw (mode='')


Forces in eV/Ang:
  0 Li    0.01687    0.00614   -0.27965
  1 Li   -0.00203   -0.00248   -0.26278
  2 Li   -0.01455    0.00647   -0.27751
  3 Li   -0.00648    0.00785   -0.26475
  4 Li    0.00028   -0.00026   -0.28269
  5 Li    0.00577    0.00924   -0.26246
  6 Li    0.00465   -0.01626   -0.27930
  7 Li   -0.00037    0.00688   -0.26186
  8 Li   -0.00438   -0.01852   -0.27992
  9 Li    0.00073    0.00415    0.35952
 10 Li    0.01612    0.00068    0.25952
 11 Li   -0.01706    0.00023    0.26319
 12 Li   -0.00077    0.00586    0.28123
 13 Li    0.00704    0.00124    0.26662
 14 Li   -0.00707    0.00164    0.26772
 15 Li   -0.00144   -0.00294    0.24498
 16 Li   -0.00316   -0.00603    0.26026
 17 Li    0.00534   -0.00561    0.25715
 18 Li    0.03721    0.01348   -0.09859
 19 Li    0.00099   -0.01079    0.07665
 20 Li   -0.03818    0.01652   -0.10801
 21 Li   -0.02380   -0.00835    0.06970
 22 Li    0.00152    0.00942   -0.00345
 23 Li    0.02336   -0.01014    0.07461
 24 Li    0.01975   -0.00886   -0.03797
 25 Li   -0.00055    0.00462    0.06272
 26 Li   -0.01967   -0.00808   -0.04072
 27 Li   -0.01486   -0.68677   -6.37972
 28 Li    0.10874   -0.01674   -0.05813
 29 Li   -0.10046   -0.02436   -0.03758
 30 Li    0.00578   -0.28643    0.26175
 31 Li    0.05447    0.03607   -0.02002
 32 Li   -0.05482    0.04918   -0.02769
 33 Li    0.00090   -0.04506   -0.04223
 34 Li    0.00771   -0.01072   -0.02381
 35 Li   -0.00916   -0.01549   -0.02565
 36 O     0.33421   -1.47247    8.49568
 37 C     0.00107    0.12350    0.00213
 38 C    -0.01496   -0.04790    0.03019
 39 C     0.00589   -1.86419    1.66118
 40 C    -0.01924    0.01137   -0.00080
 41 H     0.00958    0.04302    0.00332
 42 H    -0.02812    0.01048   -0.01606
 43 H    -0.00640    0.01838   -0.00316
 44 H     0.00347    0.00589   -0.00491
 45 H     0.03527   -0.10969    0.00103
 46 H    -0.04488   -0.11557    0.06173
 47 H     0.00825   -0.01110   -0.00266
 48 H    -0.01528   -0.00829    0.00207
 49 H     0.00032    0.00303   -0.17103
 50 H     0.12373    0.32760    0.67286
 51 N    -0.51552   -0.17841   -0.02323
 52 N     0.10114    4.31930   -4.45004

System changes: positions 

Initializing position-dependent things.

Density initialized from wave functions
       .-----------------------.  
      /|                       |  
     / |                       |  
    /  |                       H  
   /   |                       |  
  /    |                       |  
 *     |H                   H C|  
 |     |                       |  
 |     |                       |  
 |  H  |H              H    H C|  
 |     O                 C     |  
 |     |                       N  
 | H   |               H       |  
 |     |       Li      LiC     Li 
 |     |                       |  
 | H Li|     Li      Li        |  
 |     |                       |  
 |NLi  |  LLi     LLi     Li   |  
 |     |                       |  
 |     |Li      Li      Li     |  
 |   Li|     Li      Li        |  
 |    Li  Li  Li  Li  Li  Li   |  
 | Li  |   Li      Li          |  
 |     |Li      Li      Li     |  
 Li    | Li      Li            |  
 |    Li      Li      Li       |  
 |     |                       |  
 |     |                       |  
 |     |                       |  
 |     |                       |  
 |     |                       |  
 |     |                       |  
 |     .-----------------------.  
 |    /                       /   
 |   /                       /    
 |  /                       /     
 | /                       /      
 |/                       /       
 *-----------------------*        

Positions:
   0 Li     1.617037    1.617037   10.000000    ( 0.0000,  0.0000,  0.0000)
   1 Li     4.851111    1.617037   10.000000    ( 0.0000,  0.0000,  0.0000)
   2 Li     8.085185    1.617037   10.000000    ( 0.0000,  0.0000,  0.0000)
   3 Li     1.617037    4.851111   10.000000    ( 0.0000,  0.0000,  0.0000)
   4 Li     4.851111    4.851111   10.000000    ( 0.0000,  0.0000,  0.0000)
   5 Li     8.085185    4.851111   10.000000    ( 0.0000,  0.0000,  0.0000)
   6 Li     1.617037    8.085185   10.000000    ( 0.0000,  0.0000,  0.0000)
   7 Li     4.851111    8.085185   10.000000    ( 0.0000,  0.0000,  0.0000)
   8 Li     8.085185    8.085185   10.000000    ( 0.0000,  0.0000,  0.0000)
   9 Li     0.000000    0.000000   11.617037    ( 0.0000,  0.0000,  0.0000)
  10 Li     3.234074    0.000000   11.617037    ( 0.0000,  0.0000,  0.0000)
  11 Li     6.468148    0.000000   11.617037    ( 0.0000,  0.0000,  0.0000)
  12 Li     0.000000    3.234074   11.617037    ( 0.0000,  0.0000,  0.0000)
  13 Li     3.234074    3.234074   11.617037    ( 0.0000,  0.0000,  0.0000)
  14 Li     6.468148    3.234074   11.617037    ( 0.0000,  0.0000,  0.0000)
  15 Li     0.000000    6.468148   11.617037    ( 0.0000,  0.0000,  0.0000)
  16 Li     3.234074    6.468148   11.617037    ( 0.0000,  0.0000,  0.0000)
  17 Li     6.468148    6.468148   11.617037    ( 0.0000,  0.0000,  0.0000)
  18 Li     1.617355    1.617149   13.468894    ( 0.0000,  0.0000,  0.0000)
  19 Li     4.851120    1.616947   13.470385    ( 0.0000,  0.0000,  0.0000)
  20 Li     8.084858    1.617175   13.468812    ( 0.0000,  0.0000,  0.0000)
  21 Li     1.616835    4.851038   13.470329    ( 0.0000,  0.0000,  0.0000)
  22 Li     4.851124    4.851193   13.469699    ( 0.0000,  0.0000,  0.0000)
  23 Li     8.085383    4.851022   13.470372    ( 0.0000,  0.0000,  0.0000)
  24 Li     1.617203    8.085115   13.469417    ( 0.0000,  0.0000,  0.0000)
  25 Li     4.851106    8.085219   13.470265    ( 0.0000,  0.0000,  0.0000)
  26 Li     8.085020    8.085123   13.469395    ( 0.0000,  0.0000,  0.0000)
  27 Li    -0.000135   -0.006031   15.390215    ( 0.0000,  0.0000,  0.0000)
  28 Li     3.235027   -0.000145   15.445425    ( 0.0000,  0.0000,  0.0000)
  29 Li     6.467265   -0.000212   15.445597    ( 0.0000,  0.0000,  0.0000)
  30 Li     0.000050    3.231680   15.448127    ( 0.0000,  0.0000,  0.0000)
  31 Li     3.234544    3.234384   15.445766    ( 0.0000,  0.0000,  0.0000)
  32 Li     6.467673    3.234498   15.445696    ( 0.0000,  0.0000,  0.0000)
  33 Li     0.000007    6.467752   15.445569    ( 0.0000,  0.0000,  0.0000)
  34 Li     3.234139    6.468056   15.445736    ( 0.0000,  0.0000,  0.0000)
  35 Li     6.468071    6.468015   15.445720    ( 0.0000,  0.0000,  0.0000)
  36 O      9.704988    9.688110   18.521841    ( 0.0000,  0.0000,  0.0000)
  37 C      9.666416    9.715805   20.912812    ( 0.0000,  0.0000,  0.0000)
  38 C      9.679675    8.859023   22.182810    ( 0.0000,  0.0000,  0.0000)
  39 C      9.701983    8.875570   19.644523    ( 0.0000,  0.0000,  0.0000)
  40 C      9.695268    9.710608   23.455274    ( 0.0000,  0.0000,  0.0000)
  41 H      8.772993   10.348104   20.898255    ( 0.0000,  0.0000,  0.0000)
  42 H     10.537496   10.384842   20.926205    ( 0.0000,  0.0000,  0.0000)
  43 H     10.555956    8.200598   22.169571    ( 0.0000,  0.0000,  0.0000)
  44 H      8.801875    8.203403   22.187421    ( 0.0000,  0.0000,  0.0000)
  45 H     10.576366    8.225383   19.636892    ( 0.0000,  0.0000,  0.0000)
  46 H      8.807106    8.267552   19.546379    ( 0.0000,  0.0000,  0.0000)
  47 H     10.579550   10.352881   23.482834    ( 0.0000,  0.0000,  0.0000)
  48 H      8.817855   10.360437   23.500605    ( 0.0000,  0.0000,  0.0000)
  49 H      9.701583    9.096802   24.356954    ( 0.0000,  0.0000,  0.0000)
  50 H     10.465705   10.294270   18.501045    ( 0.0000,  0.0000,  0.0000)
  51 N      9.697584    9.694357   16.945511    ( 0.0000,  0.0000,  0.0000)
  52 N      9.702807   10.842882   16.906474    ( 0.0000,  0.0000,  0.0000)

Unit cell:
           periodic     x           y           z      points  spacing
  1. axis:    yes    9.702222    0.000000    0.000000    60     0.1617
  2. axis:    yes    0.000000    9.702222    0.000000    60     0.1617
  3. axis:    no     0.000000    0.000000   26.351111   164     0.1607

  Lengths:   9.702222   9.702222  26.351111
  Angles:   90.000000  90.000000  90.000000

Effective grid spacing dv^(1/3) = 0.1614

     iter     time        total  log10-change:
                         energy  eigst   dens
iter:   1 10:25:56  -354.396344  -0.87
iter:   2 10:26:04  -354.378391  -1.30  -1.91
iter:   3 10:26:11  -354.367515c -1.87  -1.95
iter:   4 10:26:18  -354.358720c -1.76  -2.28
Writing to output.gpw (mode='')

iter:   5 10:26:26  -354.367685c -2.13  -2.44
iter:   6 10:26:33  -354.364447c -2.26  -2.24
iter:   7 10:26:41  -354.355520c -2.04  -2.33
iter:   8 10:26:48  -354.355687c -2.48  -2.76
iter:   9 10:26:56  -354.355700c -2.93  -2.74
Writing to output.gpw (mode='')

iter:  10 10:27:03  -354.355552c -3.23  -2.96
iter:  11 10:27:11  -354.355747c -3.57  -3.12
iter:  12 10:27:18  -354.355705c -3.34  -3.22
iter:  13 10:27:26  -354.355686c -3.87  -3.22
iter:  14 10:27:33  -354.355630c -3.97  -3.30
Writing to output.gpw (mode='')

iter:  15 10:27:41  -354.355690c -4.12  -3.43
iter:  16 10:27:48  -354.355661c -4.27  -3.56
iter:  17 10:27:55  -354.355663c -4.09  -3.68
iter:  18 10:28:03  -354.355687c -4.45  -3.68
iter:  19 10:28:10  -354.355709c -4.58  -3.65
Writing to output.gpw (mode='')

iter:  20 10:28:18  -354.355676c -4.81  -3.78
iter:  21 10:28:25  -354.355698c -4.94  -3.97
iter:  22 10:28:33  -354.355702c -5.03  -4.07c
iter:  23 10:28:40  -354.355705c -5.21  -4.38c
iter:  24 10:28:48  -354.355700c -5.19  -4.47c
Writing to output.gpw (mode='')

iter:  25 10:28:55  -354.355703c -5.34  -4.55c
iter:  26 10:29:03  -354.355707c -5.40  -4.65c
iter:  27 10:29:10  -354.355708c -5.68  -4.70c
iter:  28 10:29:18  -354.355709c -5.88  -4.84c
iter:  29 10:29:25  -354.355709c -5.67  -4.91c
Writing to output.gpw (mode='')

iter:  30 10:29:33  -354.355710c -5.83  -4.86c
iter:  31 10:29:46  -354.355710c -5.96  -4.84c
iter:  32 10:29:55  -354.355709c -6.15  -4.83c
iter:  33 10:30:02  -354.355711c -6.36  -4.91c
iter:  34 10:30:09  -354.355711c -6.34  -4.92c
Writing to output.gpw (mode='')

iter:  35 10:30:17  -354.355710c -6.43  -4.94c
iter:  36 10:30:24  -354.355711c -6.70  -4.81c
iter:  37 10:30:32  -354.355712c -6.67  -4.85c
iter:  38 10:30:39  -354.355712c -6.78  -5.00c
iter:  39 10:30:47  -354.355713c -6.70  -5.04c
Writing to output.gpw (mode='')

iter:  40 10:30:54  -354.355714c -6.99  -5.13c
iter:  41 10:31:02  -354.355713c -7.06  -5.33c
iter:  42 10:31:09  -354.355713c -6.94  -5.44c
iter:  43 10:31:17  -354.355713c -7.28  -5.52c
iter:  44 10:31:24  -354.355714c -7.06  -5.57c
Writing to output.gpw (mode='')

iter:  45 10:31:31  -354.355713c -7.30  -5.61c
iter:  46 10:31:39  -354.355714c -7.66c -5.66c

Converged after 46 iterations.

Dipole moment: (-24.244792, -14.779696, 0.638554) |e|*Ang

Energy contributions relative to reference atoms: (reference = -16540.070923)

Kinetic:       +212.366180
Potential:     -199.563938
External:        +0.000000
XC:            -367.928806
Entropy (-ST):   -0.152309
Local:           +0.847005
--------------------------
Free energy:   -354.431868
Extrapolated:  -354.355714

Dipole-layer corrected work functions: 3.370492, 2.142972 eV

Showing only first 2 kpts
 Kpt  Band  Eigenvalues  Occupancy
  0    37     -3.01040    1.98756
  0    38     -2.88519    1.85770
  0    39     -2.65988    0.25196
  0    40     -2.51201    0.01486

  1    37     -2.83910    1.67707
  1    38     -2.77922    1.22117
  1    39     -2.67586    0.33109
  1    40     -2.64964    0.21017


Fermi level: -2.75673

Gap: 0.037 eV
Transition (v -> c):
  (s=0, k=1, n=38, [0.12, -0.12, 0.00]) -> (s=0, k=4, n=39, [0.38, -0.38, 0.00])
Writing to output.gpw (mode='')


Forces in eV/Ang:
  0 Li    0.01716    0.00591   -0.28024
  1 Li   -0.00195   -0.00261   -0.26227
  2 Li   -0.01492    0.00632   -0.27816
  3 Li   -0.00669    0.00801   -0.26395
  4 Li    0.00024   -0.00055   -0.28331
  5 Li    0.00605    0.00935   -0.26144
  6 Li    0.00433   -0.01636   -0.28000
  7 Li   -0.00039    0.00745   -0.26145
  8 Li   -0.00415   -0.01839   -0.28045
  9 Li    0.00069    0.00450    0.36385
 10 Li    0.01653    0.00044    0.25917
 11 Li   -0.01730    0.00004    0.26337
 12 Li   -0.00068    0.00626    0.28131
 13 Li    0.00815    0.00187    0.26558
 14 Li   -0.00843    0.00242    0.26652
 15 Li   -0.00145   -0.00324    0.24494
 16 Li   -0.00273   -0.00629    0.25992
 17 Li    0.00497   -0.00650    0.25667
 18 Li    0.04175    0.01822   -0.10381
 19 Li    0.00076   -0.01072    0.07631
 20 Li   -0.04230    0.02170   -0.11251
 21 Li   -0.02352   -0.00930    0.07065
 22 Li    0.00176    0.00961   -0.00383
 23 Li    0.02294   -0.01122    0.07525
 24 Li    0.02433   -0.01331   -0.04377
 25 Li   -0.00039    0.00401    0.06256
 26 Li   -0.02420   -0.01317   -0.04643
 27 Li   -0.00651   -0.70493   -5.51452
 28 Li    0.11082   -0.01743   -0.06106
 29 Li   -0.10039   -0.02398   -0.03845
 30 Li    0.00547   -0.26901    0.24851
 31 Li    0.05475    0.03645   -0.02259
 32 Li   -0.05410    0.04859   -0.02894
 33 Li    0.00072   -0.04678   -0.04114
 34 Li    0.00684   -0.01004   -0.02323
 35 Li   -0.00828   -0.01461   -0.02558
 36 O     0.35951   -0.60832    6.72882
 37 C    -0.00832   -0.07406    0.24954
 38 C    -0.01314    0.01961    0.07666
 39 C     0.09679   -1.51642    1.77396
 40 C    -0.01631    0.00018   -0.00320
 41 H     0.00716    0.02705   -0.02263
 42 H    -0.01823   -0.00326   -0.04201
 43 H    -0.00437    0.01768   -0.00176
 44 H    -0.00096    0.00392   -0.00370
 45 H     0.14072   -0.27076    0.09295
 46 H    -0.13369   -0.22613    0.11114
 47 H     0.00718   -0.01123   -0.00324
 48 H    -0.01700   -0.00678    0.00183
 49 H     0.00022   -0.00238   -0.14379
 50 H     0.03551    0.15376    0.84049
 51 N    -0.55262   -0.02329   -0.71954
 52 N     0.08634    3.41292   -3.50687

System changes: positions 

Initializing position-dependent things.

Density initialized from wave functions
       .-----------------------.  
      /|                       |  
     / |                       |  
    /  |                       H  
   /   |                       |  
  /    |                       |  
 *     |H                   H C|  
 |     |                       |  
 |     |                       |  
 |  H COH              H    H  |  
 |     |                 C     |  
 |     |                       |  
 | H   |               H       |  
 |     |       Li      LiC     Li 
 |     |                       |  
 | H Li|     Li      Li        |  
 |     |                       |  
 |NLi  |  LLi     LLi    NLi   |  
 |     |                       |  
 |     |Li      Li      Li     |  
 |   Li|     Li      Li        |  
 |    Li  Li  Li  Li  Li  Li   |  
 | Li  |   Li      Li          |  
 |     |Li      Li      Li     |  
 Li    | Li      Li            |  
 |    Li      Li      Li       |  
 |     |                       |  
 |     |                       |  
 |     |                       |  
 |     |                       |  
 |     |                       |  
 |     |                       |  
 |     .-----------------------.  
 |    /                       /   
 |   /                       /    
 |  /                       /     
 | /                       /      
 |/                       /       
 *-----------------------*        

Positions:
   0 Li     1.617037    1.617037   10.000000    ( 0.0000,  0.0000,  0.0000)
   1 Li     4.851111    1.617037   10.000000    ( 0.0000,  0.0000,  0.0000)
   2 Li     8.085185    1.617037   10.000000    ( 0.0000,  0.0000,  0.0000)
   3 Li     1.617037    4.851111   10.000000    ( 0.0000,  0.0000,  0.0000)
   4 Li     4.851111    4.851111   10.000000    ( 0.0000,  0.0000,  0.0000)
   5 Li     8.085185    4.851111   10.000000    ( 0.0000,  0.0000,  0.0000)
   6 Li     1.617037    8.085185   10.000000    ( 0.0000,  0.0000,  0.0000)
   7 Li     4.851111    8.085185   10.000000    ( 0.0000,  0.0000,  0.0000)
   8 Li     8.085185    8.085185   10.000000    ( 0.0000,  0.0000,  0.0000)
   9 Li     0.000000    0.000000   11.617037    ( 0.0000,  0.0000,  0.0000)
  10 Li     3.234074    0.000000   11.617037    ( 0.0000,  0.0000,  0.0000)
  11 Li     6.468148    0.000000   11.617037    ( 0.0000,  0.0000,  0.0000)
  12 Li     0.000000    3.234074   11.617037    ( 0.0000,  0.0000,  0.0000)
  13 Li     3.234074    3.234074   11.617037    ( 0.0000,  0.0000,  0.0000)
  14 Li     6.468148    3.234074   11.617037    ( 0.0000,  0.0000,  0.0000)
  15 Li     0.000000    6.468148   11.617037    ( 0.0000,  0.0000,  0.0000)
  16 Li     3.234074    6.468148   11.617037    ( 0.0000,  0.0000,  0.0000)
  17 Li     6.468148    6.468148   11.617037    ( 0.0000,  0.0000,  0.0000)
  18 Li     1.617749    1.617348   13.467945    ( 0.0000,  0.0000,  0.0000)
  19 Li     4.851124    1.616853   13.471040    ( 0.0000,  0.0000,  0.0000)
  20 Li     8.084463    1.617407   13.467795    ( 0.0000,  0.0000,  0.0000)
  21 Li     1.616634    4.850954   13.470939    ( 0.0000,  0.0000,  0.0000)
  22 Li     4.851141    4.851275   13.469666    ( 0.0000,  0.0000,  0.0000)
  23 Li     8.085578    4.850922   13.471018    ( 0.0000,  0.0000,  0.0000)
  24 Li     1.617453    8.084956   13.468973    ( 0.0000,  0.0000,  0.0000)
  25 Li     4.851104    8.085257   13.470805    ( 0.0000,  0.0000,  0.0000)
  26 Li     8.084771    8.084959   13.468927    ( 0.0000,  0.0000,  0.0000)
  27 Li    -0.000118   -0.011952   15.350862    ( 0.0000,  0.0000,  0.0000)
  28 Li     3.235955   -0.000297   15.444908    ( 0.0000,  0.0000,  0.0000)
  29 Li     6.466444   -0.000409   15.445297    ( 0.0000,  0.0000,  0.0000)
  30 Li     0.000094    3.229381   15.450269    ( 0.0000,  0.0000,  0.0000)
  31 Li     3.235015    3.234703   15.445555    ( 0.0000,  0.0000,  0.0000)
  32 Li     6.467218    3.234911   15.445447    ( 0.0000,  0.0000,  0.0000)
  33 Li     0.000013    6.467356   15.445238    ( 0.0000,  0.0000,  0.0000)
  34 Li     3.234198    6.467970   15.445537    ( 0.0000,  0.0000,  0.0000)
  35 Li     6.467999    6.467892   15.445497    ( 0.0000,  0.0000,  0.0000)
  36 O      9.708435    9.691713   18.561529    ( 0.0000,  0.0000,  0.0000)
  37 C      9.666259    9.713437   20.917078    ( 0.0000,  0.0000,  0.0000)
  38 C      9.679582    8.859809   22.183813    ( 0.0000,  0.0000,  0.0000)
  39 C      9.703607    8.865356   19.660810    ( 0.0000,  0.0000,  0.0000)
  40 C      9.695154    9.710505   23.455210    ( 0.0000,  0.0000,  0.0000)
  41 H      8.773022   10.348218   20.897829    ( 0.0000,  0.0000,  0.0000)
  42 H     10.537438   10.384715   20.925611    ( 0.0000,  0.0000,  0.0000)
  43 H     10.555943    8.200736   22.169567    ( 0.0000,  0.0000,  0.0000)
  44 H      8.801820    8.203412   22.187398    ( 0.0000,  0.0000,  0.0000)
  45 H     10.578485    8.221651   19.638510    ( 0.0000,  0.0000,  0.0000)
  46 H      8.805158    8.264620   19.547787    ( 0.0000,  0.0000,  0.0000)
  47 H     10.579603   10.352785   23.482802    ( 0.0000,  0.0000,  0.0000)
  48 H      8.817693   10.360393   23.500619    ( 0.0000,  0.0000,  0.0000)
  49 H      9.701584    9.096735   24.355957    ( 0.0000,  0.0000,  0.0000)
  50 H     10.464943   10.294106   18.509399    ( 0.0000,  0.0000,  0.0000)
  51 N      9.692569    9.706407   16.934826    ( 0.0000,  0.0000,  0.0000)
  52 N      9.703553   10.852588   16.885430    ( 0.0000,  0.0000,  0.0000)

Unit cell:
           periodic     x           y           z      points  spacing
  1. axis:    yes    9.702222    0.000000    0.000000    60     0.1617
  2. axis:    yes    0.000000    9.702222    0.000000    60     0.1617
  3. axis:    no     0.000000    0.000000   26.351111   164     0.1607

  Lengths:   9.702222   9.702222  26.351111
  Angles:   90.000000  90.000000  90.000000

Effective grid spacing dv^(1/3) = 0.1614

     iter     time        total  log10-change:
                         energy  eigst   dens
iter:   1 10:31:48  -354.990831  -0.85
iter:   2 10:31:56  -354.981366  -1.36  -1.99
iter:   3 10:32:03  -354.975309c -1.88  -2.03
iter:   4 10:32:11  -354.967788c -1.84  -2.28
Writing to output.gpw (mode='')

iter:   5 10:32:18  -354.972252c -2.21  -2.44
iter:   6 10:32:26  -354.968672c -2.34  -2.30
iter:   7 10:32:33  -354.963183c -2.21  -2.40
iter:   8 10:32:41  -354.963316c -2.65  -2.72
iter:   9 10:32:48  -354.963056c -2.88  -2.79
Writing to output.gpw (mode='')

iter:  10 10:32:56  -354.963103c -3.14  -2.93
iter:  11 10:33:03  -354.962981c -3.52  -3.05
iter:  12 10:33:11  -354.963218c -3.28  -3.11
iter:  13 10:33:21  -354.963123c -3.59  -3.23
iter:  14 10:33:28  -354.963107c -3.69  -3.25
Writing to output.gpw (mode='')

iter:  15 10:33:36  -354.963116c -4.08  -3.33
iter:  16 10:33:43  -354.963108c -4.31  -3.53
iter:  17 10:33:51  -354.963101c -3.98  -3.63
iter:  18 10:33:58  -354.963113c -4.22  -3.53
iter:  19 10:34:06  -354.963127c -4.30  -3.80
Writing to output.gpw (mode='')

iter:  20 10:34:14  -354.963139c -4.87  -3.90
iter:  21 10:34:21  -354.963141c -4.85  -3.94
iter:  22 10:34:28  -354.963152c -4.89  -4.15c
iter:  23 10:34:36  -354.963149c -4.82  -4.16c
iter:  24 10:34:49  -354.963146c -5.18  -4.24c
Writing to output.gpw (mode='')

iter:  25 10:34:57  -354.963147c -5.56  -4.35c
iter:  26 10:35:04  -354.963156c -5.36  -4.41c
iter:  27 10:35:12  -354.963155c -5.51  -4.39c
iter:  28 10:35:19  -354.963159c -5.47  -4.44c
iter:  29 10:35:27  -354.963157c -5.65  -4.59c
Writing to output.gpw (mode='')

iter:  30 10:35:34  -354.963157c -6.11  -4.67c
iter:  31 10:35:42  -354.963156c -5.88  -4.82c
iter:  32 10:35:49  -354.963157c -6.36  -4.81c
iter:  33 10:35:57  -354.963157c -6.12  -4.88c
iter:  34 10:36:04  -354.963158c -6.39  -5.08c
Writing to output.gpw (mode='')

iter:  35 10:36:12  -354.963158c -6.69  -5.20c
iter:  36 10:36:19  -354.963158c -6.39  -5.26c
iter:  37 10:36:27  -354.963158c -6.39  -5.40c
iter:  38 10:36:34  -354.963160c -6.45  -5.41c
iter:  39 10:36:42  -354.963159c -6.78  -5.47c
Writing to output.gpw (mode='')

iter:  40 10:36:49  -354.963159c -6.69  -5.52c
iter:  41 10:36:57  -354.963160c -7.07  -5.56c
iter:  42 10:37:04  -354.963160c -6.91  -5.59c
iter:  43 10:37:12  -354.963160c -7.16  -5.63c
iter:  44 10:37:20  -354.963160c -7.56c -5.73c

Converged after 44 iterations.

Dipole moment: (-24.210272, -16.204752, 0.610393) |e|*Ang

Energy contributions relative to reference atoms: (reference = -16540.070923)

Kinetic:       +211.169292
Potential:     -199.077030
External:        +0.000000
XC:            -367.826043
Entropy (-ST):   -0.151230
Local:           +0.846236
--------------------------
Free energy:   -355.038775
Extrapolated:  -354.963160

Dipole-layer corrected work functions: 3.370901, 2.197516 eV

Showing only first 2 kpts
 Kpt  Band  Eigenvalues  Occupancy
  0    37     -3.04000    1.98807
  0    38     -2.91917    1.87397
  0    39     -2.68076    0.22432
  0    40     -2.53982    0.01496

  1    37     -2.86472    1.66687
  1    38     -2.80635    1.21786
  1    39     -2.70194    0.32349
  1    40     -2.68259    0.23168


Fermi level: -2.78421

Gap: 0.034 eV
Transition (v -> c):
  (s=0, k=1, n=38, [0.12, -0.12, 0.00]) -> (s=0, k=4, n=39, [0.38, -0.38, 0.00])
Writing to output.gpw (mode='')


Forces in eV/Ang:
  0 Li    0.01756    0.00561   -0.28102
  1 Li   -0.00193   -0.00273   -0.26201
  2 Li   -0.01535    0.00616   -0.27916
  3 Li   -0.00705    0.00826   -0.26301
  4 Li    0.00021   -0.00102   -0.28419
  5 Li    0.00647    0.00953   -0.26042
  6 Li    0.00394   -0.01649   -0.28092
  7 Li   -0.00046    0.00825   -0.26078
  8 Li   -0.00374   -0.01836   -0.28120
  9 Li    0.00067    0.00468    0.36845
 10 Li    0.01688    0.00027    0.25899
 11 Li   -0.01750   -0.00012    0.26370
 12 Li   -0.00057    0.00707    0.28094
 13 Li    0.00939    0.00267    0.26440
 14 Li   -0.00984    0.00323    0.26538
 15 Li   -0.00145   -0.00350    0.24535
 16 Li   -0.00172   -0.00690    0.25909
 17 Li    0.00397   -0.00755    0.25598
 18 Li    0.04583    0.02410   -0.10847
 19 Li    0.00061   -0.01064    0.07572
 20 Li   -0.04594    0.02770   -0.11710
 21 Li   -0.02297   -0.01036    0.07126
 22 Li    0.00180    0.00997   -0.00387
 23 Li    0.02233   -0.01224    0.07558
 24 Li    0.03089   -0.01955   -0.05120
 25 Li   -0.00006    0.00330    0.06204
 26 Li   -0.03096   -0.02000   -0.05448
 27 Li    0.00701   -0.69270   -4.81164
 28 Li    0.11021   -0.01856   -0.06315
 29 Li   -0.09875   -0.02393   -0.03844
 30 Li    0.00552   -0.25205    0.23496
 31 Li    0.05504    0.03703   -0.02561
 32 Li   -0.05387    0.04844   -0.03006
 33 Li    0.00091   -0.04761   -0.03891
 34 Li    0.00556   -0.00889   -0.02279
 35 Li   -0.00741   -0.01361   -0.02570
 36 O     0.08192   -0.22661    5.16473
 37 C    -0.00156   -0.13625    0.45265
 38 C    -0.01311    0.01297    0.18153
 39 C     0.12805   -1.14000    1.61443
 40 C    -0.01473    0.00337    0.02167
 41 H     0.03203   -0.02131   -0.03208
 42 H    -0.03964   -0.04683   -0.04193
 43 H    -0.01225    0.02516    0.00727
 44 H     0.00517    0.00982    0.00512
 45 H     0.20207   -0.37855    0.18479
 46 H    -0.11706   -0.25319    0.16453
 47 H     0.00445   -0.01201   -0.00335
 48 H    -0.01593   -0.00673    0.00223
 49 H     0.00000   -0.00785   -0.11150
 50 H     0.20613    0.14050    0.93661
 51 N    -0.51436    0.26532   -0.94516
 52 N     0.06033    2.72600   -2.81018

System changes: positions 

Initializing position-dependent things.

Density initialized from wave functions
       .-----------------------.  
      /|                       |  
     / |                       |  
    /  |                       H  
   /   |                       |  
  /    |                       |  
 *     |H                   H C|  
 |     |                       |  
 |     |                       |  
 |  H COH              H    H  |  
 |     |                 C     |  
 |     |                       |  
 | H   |               H       |  
 |     Li      Li      LiC     |  
 |     |                       |  
 | H Li|     Li      Li        |  
 |     |                       |  
 |NLi  |  LLi     LLi    NLi   |  
 |     |                       |  
 |     |Li      Li      Li     |  
 |   Li|     Li      Li        |  
 |    Li  Li  Li  Li  Li  Li   |  
 | Li  |   Li      Li          |  
 |     |Li      Li      Li     |  
 Li    | Li      Li            |  
 |    Li      Li      Li       |  
 |     |                       |  
 |     |                       |  
 |     |                       |  
 |     |                       |  
 |     |                       |  
 |     |                       |  
 |     .-----------------------.  
 |    /                       /   
 |   /                       /    
 |  /                       /     
 | /                       /      
 |/                       /       
 *-----------------------*        

Positions:
   0 Li     1.617037    1.617037   10.000000    ( 0.0000,  0.0000,  0.0000)
   1 Li     4.851111    1.617037   10.000000    ( 0.0000,  0.0000,  0.0000)
   2 Li     8.085185    1.617037   10.000000    ( 0.0000,  0.0000,  0.0000)
   3 Li     1.617037    4.851111   10.000000    ( 0.0000,  0.0000,  0.0000)
   4 Li     4.851111    4.851111   10.000000    ( 0.0000,  0.0000,  0.0000)
   5 Li     8.085185    4.851111   10.000000    ( 0.0000,  0.0000,  0.0000)
   6 Li     1.617037    8.085185   10.000000    ( 0.0000,  0.0000,  0.0000)
   7 Li     4.851111    8.085185   10.000000    ( 0.0000,  0.0000,  0.0000)
   8 Li     8.085185    8.085185   10.000000    ( 0.0000,  0.0000,  0.0000)
   9 Li     0.000000    0.000000   11.617037    ( 0.0000,  0.0000,  0.0000)
  10 Li     3.234074    0.000000   11.617037    ( 0.0000,  0.0000,  0.0000)
  11 Li     6.468148    0.000000   11.617037    ( 0.0000,  0.0000,  0.0000)
  12 Li     0.000000    3.234074   11.617037    ( 0.0000,  0.0000,  0.0000)
  13 Li     3.234074    3.234074   11.617037    ( 0.0000,  0.0000,  0.0000)
  14 Li     6.468148    3.234074   11.617037    ( 0.0000,  0.0000,  0.0000)
  15 Li     0.000000    6.468148   11.617037    ( 0.0000,  0.0000,  0.0000)
  16 Li     3.234074    6.468148   11.617037    ( 0.0000,  0.0000,  0.0000)
  17 Li     6.468148    6.468148   11.617037    ( 0.0000,  0.0000,  0.0000)
  18 Li     1.618252    1.617645   13.466796    ( 0.0000,  0.0000,  0.0000)
  19 Li     4.851128    1.616745   13.471797    ( 0.0000,  0.0000,  0.0000)
  20 Li     8.083963    1.617743   13.466565    ( 0.0000,  0.0000,  0.0000)
  21 Li     1.616407    4.850843   13.471658    ( 0.0000,  0.0000,  0.0000)
  22 Li     4.851160    4.851375   13.469627    ( 0.0000,  0.0000,  0.0000)
  23 Li     8.085798    4.850792   13.471777    ( 0.0000,  0.0000,  0.0000)
  24 Li     1.617820    8.084701   13.468379    ( 0.0000,  0.0000,  0.0000)
  25 Li     4.851105    8.085289   13.471426    ( 0.0000,  0.0000,  0.0000)
  26 Li     8.084403    8.084693   13.468297    ( 0.0000,  0.0000,  0.0000)
  27 Li     0.000061   -0.018751   15.311444    ( 0.0000,  0.0000,  0.0000)
  28 Li     3.237041   -0.000489   15.444272    ( 0.0000,  0.0000,  0.0000)
  29 Li     6.465491   -0.000643   15.444934    ( 0.0000,  0.0000,  0.0000)
  30 Li     0.000146    3.226933   15.452574    ( 0.0000,  0.0000,  0.0000)
  31 Li     3.235568    3.235082   15.445273    ( 0.0000,  0.0000,  0.0000)
  32 Li     6.466685    3.235392   15.445140    ( 0.0000,  0.0000,  0.0000)
  33 Li     0.000023    6.466879   15.444872    ( 0.0000,  0.0000,  0.0000)
  34 Li     3.234249    6.467886   15.445310    ( 0.0000,  0.0000,  0.0000)
  35 Li     6.467927    6.467761   15.445237    ( 0.0000,  0.0000,  0.0000)
  36 O      9.708390    9.697555   18.593486    ( 0.0000,  0.0000,  0.0000)
  37 C      9.666207    9.710528   20.924026    ( 0.0000,  0.0000,  0.0000)
  38 C      9.679465    8.860372   22.186318    ( 0.0000,  0.0000,  0.0000)
  39 C      9.705609    8.857557   19.677128    ( 0.0000,  0.0000,  0.0000)
  40 C      9.695032    9.710475   23.455502    ( 0.0000,  0.0000,  0.0000)
  41 H      8.773421   10.347718   20.897297    ( 0.0000,  0.0000,  0.0000)
  42 H     10.537026   10.383993   20.925018    ( 0.0000,  0.0000,  0.0000)
  43 H     10.555806    8.201008   22.169685    ( 0.0000,  0.0000,  0.0000)
  44 H      8.801862    8.203517   22.187492    ( 0.0000,  0.0000,  0.0000)
  45 H     10.581439    8.216369   19.641347    ( 0.0000,  0.0000,  0.0000)
  46 H      8.803458    8.261234   19.549992    ( 0.0000,  0.0000,  0.0000)
  47 H     10.579630   10.352662   23.482764    ( 0.0000,  0.0000,  0.0000)
  48 H      8.817526   10.360337   23.500641    ( 0.0000,  0.0000,  0.0000)
  49 H      9.701583    9.096599   24.355148    ( 0.0000,  0.0000,  0.0000)
  50 H     10.466916   10.294355   18.520032    ( 0.0000,  0.0000,  0.0000)
  51 N      9.687368    9.719224   16.921054    ( 0.0000,  0.0000,  0.0000)
  52 N      9.704054   10.862672   16.866843    ( 0.0000,  0.0000,  0.0000)

Unit cell:
           periodic     x           y           z      points  spacing
  1. axis:    yes    9.702222    0.000000    0.000000    60     0.1617
  2. axis:    yes    0.000000    9.702222    0.000000    60     0.1617
  3. axis:    no     0.000000    0.000000   26.351111   164     0.1607

  Lengths:   9.702222   9.702222  26.351111
  Angles:   90.000000  90.000000  90.000000

Effective grid spacing dv^(1/3) = 0.1614

     iter     time        total  log10-change:
                         energy  eigst   dens
iter:   1 10:37:29  -355.455463  -0.92
iter:   2 10:37:36  -355.453197  -1.54  -2.16
iter:   3 10:37:44  -355.450885c -1.99  -2.21
iter:   4 10:37:51  -355.444519c -1.97  -2.32
Writing to output.gpw (mode='')

iter:   5 10:37:58  -355.446313c -2.47  -2.47
iter:   6 10:38:06  -355.444914c -2.57  -2.48
iter:   7 10:38:13  -355.441903c -2.49  -2.53
iter:   8 10:38:21  -355.442176c -2.80  -2.74
iter:   9 10:38:28  -355.442007c -3.09  -2.87
Writing to output.gpw (mode='')

iter:  10 10:38:36  -355.441883c -3.46  -3.03
iter:  11 10:38:43  -355.442081c -3.46  -3.17
iter:  12 10:38:51  -355.442027c -3.63  -3.21
iter:  13 10:38:58  -355.441895c -3.92  -3.28
iter:  14 10:39:06  -355.441927c -4.34  -3.38
Writing to output.gpw (mode='')

iter:  15 10:39:13  -355.441969c -4.16  -3.50
iter:  16 10:39:20  -355.441945c -4.43  -3.64
iter:  17 10:39:28  -355.441980c -4.52  -3.72
iter:  18 10:39:35  -355.441980c -4.57  -3.74
iter:  19 10:39:48  -355.441966c -4.76  -3.78
Writing to output.gpw (mode='')

iter:  20 10:39:56  -355.441981c -4.74  -4.13c
iter:  21 10:40:03  -355.441978c -5.19  -4.28c
iter:  22 10:40:11  -355.441980c -5.06  -4.34c
iter:  23 10:40:18  -355.441986c -5.26  -4.43c
iter:  24 10:40:25  -355.441992c -5.43  -4.47c
Writing to output.gpw (mode='')

iter:  25 10:40:33  -355.441989c -5.35  -4.52c
iter:  26 10:40:40  -355.441990c -5.78  -4.70c
iter:  27 10:40:48  -355.441991c -5.76  -4.74c
iter:  28 10:40:55  -355.441997c -5.86  -4.77c
iter:  29 10:41:03  -355.441996c -6.05  -4.73c
Writing to output.gpw (mode='')

iter:  30 10:41:10  -355.441993c -5.91  -4.76c
iter:  31 10:41:18  -355.441993c -6.13  -4.86c
iter:  32 10:41:25  -355.441995c -6.14  -5.03c
iter:  33 10:41:33  -355.441995c -6.56  -5.15c
iter:  34 10:41:40  -355.441995c -6.45  -5.18c
Writing to output.gpw (mode='')

iter:  35 10:41:48  -355.441995c -6.49  -5.29c
iter:  36 10:41:55  -355.441995c -6.62  -5.37c
iter:  37 10:42:03  -355.441995c -6.56  -5.43c
iter:  38 10:42:10  -355.441996c -6.77  -5.46c
iter:  39 10:42:18  -355.441996c -6.88  -5.45c
Writing to output.gpw (mode='')

iter:  40 10:42:25  -355.441996c -6.92  -5.68c
iter:  41 10:42:33  -355.441996c -6.90  -5.86c
iter:  42 10:42:40  -355.441996c -7.24  -5.87c
iter:  43 10:42:48  -355.441996c -7.14  -5.90c
iter:  44 10:42:55  -355.441996c -7.21  -5.97c
Writing to output.gpw (mode='')

iter:  45 10:43:03  -355.441996c -7.24  -6.03c
iter:  46 10:43:10  -355.441996c -7.40c -6.06c

Converged after 46 iterations.

Dipole moment: (-23.859360, -17.765613, 0.581307) |e|*Ang

Energy contributions relative to reference atoms: (reference = -16540.070923)

Kinetic:       +210.048446
Potential:     -198.569743
External:        +0.000000
XC:            -367.689885
Entropy (-ST):   -0.150406
Local:           +0.844389
--------------------------
Free energy:   -355.517200
Extrapolated:  -355.441996

Dipole-layer corrected work functions: 3.371483, 2.254011 eV

Showing only first 2 kpts
 Kpt  Band  Eigenvalues  Occupancy
  0    37     -3.07060    1.98855
  0    38     -2.95363    1.88725
  0    39     -2.70341    0.20188
  0    40     -2.56872    0.01507

  1    37     -2.89162    1.65768
  1    38     -2.83416    1.21096
  1    39     -2.73011    0.32145
  1    40     -2.71455    0.24610


Fermi level: -2.81275

Gap: 0.031 eV
Transition (v -> c):
  (s=0, k=1, n=38, [0.12, -0.12, 0.00]) -> (s=0, k=4, n=39, [0.38, -0.38, 0.00])
Writing to output.gpw (mode='')


Forces in eV/Ang:
  0 Li    0.01785    0.00531   -0.28189
  1 Li   -0.00196   -0.00281   -0.26184
  2 Li   -0.01563    0.00601   -0.28018
  3 Li   -0.00744    0.00854   -0.26215
  4 Li    0.00020   -0.00144   -0.28508
  5 Li    0.00693    0.00978   -0.25952
  6 Li    0.00349   -0.01663   -0.28188
  7 Li   -0.00052    0.00898   -0.26010
  8 Li   -0.00327   -0.01840   -0.28206
  9 Li    0.00065    0.00479    0.37248
 10 Li    0.01714    0.00014    0.25913
 11 Li   -0.01760   -0.00024    0.26425
 12 Li   -0.00051    0.00789    0.28067
 13 Li    0.01065    0.00354    0.26341
 14 Li   -0.01121    0.00406    0.26442
 15 Li   -0.00147   -0.00367    0.24584
 16 Li   -0.00055   -0.00766    0.25816
 17 Li    0.00282   -0.00868    0.25522
 18 Li    0.04976    0.03010   -0.11284
 19 Li    0.00056   -0.01039    0.07478
 20 Li   -0.04951    0.03376   -0.12147
 21 Li   -0.02233   -0.01133    0.07142
 22 Li    0.00178    0.01033   -0.00374
 23 Li    0.02168   -0.01326    0.07560
 24 Li    0.03818   -0.02666   -0.05909
 25 Li    0.00023    0.00249    0.06125
 26 Li   -0.03842   -0.02753   -0.06301
 27 Li    0.01852   -0.66464   -4.22013
 28 Li    0.10867   -0.01956   -0.06433
 29 Li   -0.09670   -0.02417   -0.03817
 30 Li    0.00584   -0.23919    0.22424
 31 Li    0.05535    0.03748   -0.02794
 32 Li   -0.05387    0.04855   -0.03100
 33 Li    0.00116   -0.04780   -0.03674
 34 Li    0.00428   -0.00774   -0.02254
 35 Li   -0.00658   -0.01264   -0.02581
 36 O    -0.04237    0.07409    4.02874
 37 C     0.00580   -0.14739    0.53868
 38 C    -0.01052   -0.00351    0.26903
 39 C     0.11530   -0.90230    1.39588
 40 C    -0.01335    0.00698    0.06148
 41 H     0.05145   -0.06326   -0.02170
 42 H    -0.05220   -0.07869   -0.02009
 43 H    -0.01409    0.02576    0.02435
 44 H     0.00516    0.00920    0.02121
 45 H     0.20260   -0.40332    0.24548
 46 H    -0.05600   -0.24236    0.22194
 47 H     0.00316   -0.01170   -0.00218
 48 H    -0.01595   -0.00580    0.00395
 49 H    -0.00025   -0.01082   -0.07483
 50 H     0.22937    0.04750    0.96920
 51 N    -0.47825    0.40490   -1.05435
 52 N     0.02112    2.27237   -2.38221

System changes: positions 

Initializing position-dependent things.

Density initialized from wave functions
       .-----------------------.  
      /|                       |  
     / |                       |  
    /  |                       H  
   /   |                       |  
  /    |                       |  
 *     |H                   H C|  
 |     |                       |  
 |     |                       |  
 |  H C|H              H    H  |  
 |     |                 C     |  
 |     |                       |  
 | H   |               H       |  
 |     Li      Li      LiC     |  
 |     |                       |  
 O H Li|     Li      Li        |  
 |     |                       |  
 |NLi  |  LLi     LLi    NLi   |  
 |     |                       |  
 |     |Li      Li      Li     |  
 |   Li|     Li      Li        |  
 |    Li  Li  Li  Li  Li  Li   |  
 | Li  |   Li      Li          |  
 |     |Li      Li      Li     |  
 Li    | Li      Li            |  
 |    Li      Li      Li       |  
 |     |                       |  
 |     |                       |  
 |     |                       |  
 |     |                       |  
 |     |                       |  
 |     |                       |  
 |     .-----------------------.  
 |    /                       /   
 |   /                       /    
 |  /                       /     
 | /                       /      
 |/                       /       
 *-----------------------*        

Positions:
   0 Li     1.617037    1.617037   10.000000    ( 0.0000,  0.0000,  0.0000)
   1 Li     4.851111    1.617037   10.000000    ( 0.0000,  0.0000,  0.0000)
   2 Li     8.085185    1.617037   10.000000    ( 0.0000,  0.0000,  0.0000)
   3 Li     1.617037    4.851111   10.000000    ( 0.0000,  0.0000,  0.0000)
   4 Li     4.851111    4.851111   10.000000    ( 0.0000,  0.0000,  0.0000)
   5 Li     8.085185    4.851111   10.000000    ( 0.0000,  0.0000,  0.0000)
   6 Li     1.617037    8.085185   10.000000    ( 0.0000,  0.0000,  0.0000)
   7 Li     4.851111    8.085185   10.000000    ( 0.0000,  0.0000,  0.0000)
   8 Li     8.085185    8.085185   10.000000    ( 0.0000,  0.0000,  0.0000)
   9 Li     0.000000    0.000000   11.617037    ( 0.0000,  0.0000,  0.0000)
  10 Li     3.234074    0.000000   11.617037    ( 0.0000,  0.0000,  0.0000)
  11 Li     6.468148    0.000000   11.617037    ( 0.0000,  0.0000,  0.0000)
  12 Li     0.000000    3.234074   11.617037    ( 0.0000,  0.0000,  0.0000)
  13 Li     3.234074    3.234074   11.617037    ( 0.0000,  0.0000,  0.0000)
  14 Li     6.468148    3.234074   11.617037    ( 0.0000,  0.0000,  0.0000)
  15 Li     0.000000    6.468148   11.617037    ( 0.0000,  0.0000,  0.0000)
  16 Li     3.234074    6.468148   11.617037    ( 0.0000,  0.0000,  0.0000)
  17 Li     6.468148    6.468148   11.617037    ( 0.0000,  0.0000,  0.0000)
  18 Li     1.618867    1.618052   13.465446    ( 0.0000,  0.0000,  0.0000)
  19 Li     4.851132    1.616626   13.472645    ( 0.0000,  0.0000,  0.0000)
  20 Li     8.083356    1.618194   13.465121    ( 0.0000,  0.0000,  0.0000)
  21 Li     1.616156    4.850704   13.472477    ( 0.0000,  0.0000,  0.0000)
  22 Li     4.851182    4.851495   13.469585    ( 0.0000,  0.0000,  0.0000)
  23 Li     8.086041    4.850631   13.472640    ( 0.0000,  0.0000,  0.0000)
  24 Li     1.618324    8.084327   13.467616    ( 0.0000,  0.0000,  0.0000)
  25 Li     4.851111    8.085314   13.472122    ( 0.0000,  0.0000,  0.0000)
  26 Li     8.083895    8.084303   13.467484    ( 0.0000,  0.0000,  0.0000)
  27 Li     0.000395   -0.026127   15.272132    ( 0.0000,  0.0000,  0.0000)
  28 Li     3.238260   -0.000720   15.443532    ( 0.0000,  0.0000,  0.0000)
  29 Li     6.464423   -0.000914   15.444517    ( 0.0000,  0.0000,  0.0000)
  30 Li     0.000212    3.224305   15.455060    ( 0.0000,  0.0000,  0.0000)
  31 Li     3.236202    3.235517   15.444928    ( 0.0000,  0.0000,  0.0000)
  32 Li     6.466077    3.235944   15.444780    ( 0.0000,  0.0000,  0.0000)
  33 Li     0.000037    6.466333   15.444480    ( 0.0000,  0.0000,  0.0000)
  34 Li     3.234290    6.467806   15.445055    ( 0.0000,  0.0000,  0.0000)
  35 Li     6.467857    6.467625   15.444940    ( 0.0000,  0.0000,  0.0000)
  36 O      9.706847    9.705780   18.620194    ( 0.0000,  0.0000,  0.0000)
  37 C      9.666267    9.707594   20.932339    ( 0.0000,  0.0000,  0.0000)
  38 C      9.679366    8.860621   22.190204    ( 0.0000,  0.0000,  0.0000)
  39 C      9.707449    8.850867   19.692466    ( 0.0000,  0.0000,  0.0000)
  40 C      9.694905    9.710515   23.456390    ( 0.0000,  0.0000,  0.0000)
  41 H      8.774129   10.346638   20.896917    ( 0.0000,  0.0000,  0.0000)
  42 H     10.536381   10.382797   20.924723    ( 0.0000,  0.0000,  0.0000)
  43 H     10.555629    8.201319   22.170053    ( 0.0000,  0.0000,  0.0000)
  44 H      8.801913    8.203623   22.187820    ( 0.0000,  0.0000,  0.0000)
  45 H     10.584481    8.210521   19.645116    ( 0.0000,  0.0000,  0.0000)
  46 H      8.802599    8.257835   19.553146    ( 0.0000,  0.0000,  0.0000)
  47 H     10.579649   10.352527   23.482740    ( 0.0000,  0.0000,  0.0000)
  48 H      8.817338   10.360283   23.500692    ( 0.0000,  0.0000,  0.0000)
  49 H      9.701578    9.096422   24.354655    ( 0.0000,  0.0000,  0.0000)
  50 H     10.469512   10.293676   18.532167    ( 0.0000,  0.0000,  0.0000)
  51 N      9.681989    9.732441   16.905307    ( 0.0000,  0.0000,  0.0000)
  52 N      9.704088   10.873402   16.848580    ( 0.0000,  0.0000,  0.0000)

Unit cell:
           periodic     x           y           z      points  spacing
  1. axis:    yes    9.702222    0.000000    0.000000    60     0.1617
  2. axis:    yes    0.000000    9.702222    0.000000    60     0.1617
  3. axis:    no     0.000000    0.000000   26.351111   164     0.1607

  Lengths:   9.702222   9.702222  26.351111
  Angles:   90.000000  90.000000  90.000000

Effective grid spacing dv^(1/3) = 0.1614

     iter     time        total  log10-change:
                         energy  eigst   dens
iter:   1 10:43:20  -355.849912  -0.96
iter:   2 10:43:27  -355.849220  -1.67  -2.23
iter:   3 10:43:35  -355.846706c -2.06  -2.31
iter:   4 10:43:42  -355.841770c -1.99  -2.36
Writing to output.gpw (mode='')

iter:   5 10:43:50  -355.842927c -2.62  -2.46
iter:   6 10:43:57  -355.842181c -2.75  -2.56
iter:   7 10:44:05  -355.839878c -2.52  -2.60
iter:   8 10:44:12  -355.840195c -2.93  -2.85
iter:   9 10:44:20  -355.840204c -3.36  -2.91
Writing to output.gpw (mode='')

iter:  10 10:44:27  -355.840018c -3.70  -3.00
iter:  11 10:44:35  -355.840124c -3.37  -3.11
iter:  12 10:44:48  -355.840148c -3.96  -3.26
iter:  13 10:44:56  -355.840071c -4.03  -3.32
iter:  14 10:45:03  -355.839969c -4.27  -3.38
Writing to output.gpw (mode='')

iter:  15 10:45:11  -355.840032c -4.56  -3.56
iter:  16 10:45:18  -355.840019c -4.53  -3.74
iter:  17 10:45:26  -355.840036c -4.94  -3.77
iter:  18 10:45:33  -355.840042c -4.70  -3.81
iter:  19 10:45:41  -355.840052c -5.18  -4.08c
Writing to output.gpw (mode='')

iter:  20 10:45:48  -355.840048c -5.05  -4.12c
iter:  21 10:45:56  -355.840052c -5.53  -4.20c
iter:  22 10:46:03  -355.840058c -5.44  -4.20c
iter:  23 10:46:11  -355.840065c -5.42  -4.28c
iter:  24 10:46:18  -355.840064c -5.91  -4.38c
Writing to output.gpw (mode='')

iter:  25 10:46:26  -355.840067c -5.68  -4.42c
iter:  26 10:46:33  -355.840065c -5.92  -4.64c
iter:  27 10:46:41  -355.840066c -5.85  -4.75c
iter:  28 10:46:48  -355.840066c -6.08  -4.82c
iter:  29 10:46:56  -355.840067c -6.16  -4.85c
Writing to output.gpw (mode='')

iter:  30 10:47:04  -355.840066c -6.22  -5.01c
iter:  31 10:47:11  -355.840065c -6.20  -5.06c
iter:  32 10:47:18  -355.840065c -6.44  -5.13c
iter:  33 10:47:26  -355.840066c -6.55  -5.12c
iter:  34 10:47:34  -355.840067c -6.52  -5.14c
Writing to output.gpw (mode='')

iter:  35 10:47:41  -355.840066c -6.68  -5.14c
iter:  36 10:47:49  -355.840067c -6.81  -5.08c
iter:  37 10:47:56  -355.840066c -6.72  -5.02c
iter:  38 10:48:04  -355.840066c -6.94  -4.99c
iter:  39 10:48:11  -355.840067c -7.02  -5.01c
Writing to output.gpw (mode='')

iter:  40 10:48:19  -355.840067c -7.16  -5.00c
iter:  41 10:48:26  -355.840068c -7.26  -5.01c
iter:  42 10:48:34  -355.840068c -7.40c -5.13c

Converged after 42 iterations.

Dipole moment: (-23.310136, -19.456522, 0.554150) |e|*Ang

Energy contributions relative to reference atoms: (reference = -16540.070923)

Kinetic:       +209.025165
Potential:     -198.073513
External:        +0.000000
XC:            -367.559369
Entropy (-ST):   -0.149717
Local:           +0.842508
--------------------------
Free energy:   -355.914926
Extrapolated:  -355.840068

Dipole-layer corrected work functions: 3.372075, 2.306809 eV

Showing only first 2 kpts
 Kpt  Band  Eigenvalues  Occupancy
  0    37     -3.09931    1.98900
  0    38     -2.98557    1.89789
  0    39     -2.72476    0.18329
  0    40     -2.59586    0.01521

  1    37     -2.91679    1.64897
  1    38     -2.86002    1.20295
  1    39     -2.75840    0.33015
  1    40     -2.74163    0.24775


Fermi level: -2.83944

Gap: 0.027 eV
Transition (v -> c):
  (s=0, k=1, n=38, [0.12, -0.12, 0.00]) -> (s=0, k=4, n=39, [0.38, -0.38, 0.00])
Writing to output.gpw (mode='')


Forces in eV/Ang:
  0 Li    0.01804    0.00501   -0.28285
  1 Li   -0.00202   -0.00290   -0.26169
  2 Li   -0.01578    0.00584   -0.28127
  3 Li   -0.00788    0.00884   -0.26134
  4 Li    0.00020   -0.00185   -0.28602
  5 Li    0.00742    0.01007   -0.25871
  6 Li    0.00302   -0.01673   -0.28290
  7 Li   -0.00058    0.00967   -0.25944
  8 Li   -0.00274   -0.01846   -0.28301
  9 Li    0.00062    0.00485    0.37608
 10 Li    0.01732    0.00004    0.25952
 11 Li   -0.01763   -0.00034    0.26500
 12 Li   -0.00046    0.00866    0.28055
 13 Li    0.01198    0.00445    0.26250
 14 Li   -0.01258    0.00493    0.26357
 15 Li   -0.00149   -0.00377    0.24639
 16 Li    0.00068   -0.00855    0.25714
 17 Li    0.00162   -0.00987    0.25441
 18 Li    0.05378    0.03624   -0.11710
 19 Li    0.00060   -0.01007    0.07365
 20 Li   -0.05318    0.03985   -0.12580
 21 Li   -0.02173   -0.01229    0.07131
 22 Li    0.00169    0.01069   -0.00351
 23 Li    0.02111   -0.01427    0.07540
 24 Li    0.04606   -0.03454   -0.06748
 25 Li    0.00053    0.00166    0.06025
 26 Li   -0.04644   -0.03569   -0.07203
 27 Li    0.02846   -0.62968   -3.70856
 28 Li    0.10649   -0.02048   -0.06488
 29 Li   -0.09434   -0.02452   -0.03765
 30 Li    0.00630   -0.23004    0.21619
 31 Li    0.05566    0.03790   -0.02976
 32 Li   -0.05410    0.04885   -0.03165
 33 Li    0.00144   -0.04756   -0.03472
 34 Li    0.00309   -0.00665   -0.02232
[...]
  1    39     -2.95009    0.36518
  1    40     -2.79041    0.01816


Fermi level: -3.02503

No gap
Writing to output.gpw (mode='')


Forces in eV/Ang:
  0 Li    0.00094    0.01033   -0.29289
  1 Li    0.00654   -0.01158   -0.29680
  2 Li    0.00282   -0.00035   -0.24958
  3 Li    0.00971    0.00512   -0.28454
  4 Li   -0.00900    0.01161   -0.28616
  5 Li    0.01502   -0.00454   -0.29469
  6 Li    0.01929   -0.01561   -0.29004
  7 Li   -0.00305   -0.00497   -0.28635
  8 Li   -0.00934    0.00422   -0.29254
  9 Li   -0.06107    0.04566    0.26269
 10 Li   -0.03130    0.03857    0.28347
 11 Li    0.02361    0.05332    0.31526
 12 Li   -0.06931   -0.03942    0.32394
 13 Li   -0.02480   -0.02380    0.28891
 14 Li    0.04128   -0.05759    0.28171
 15 Li   -0.05455    0.01800    0.29377
 16 Li   -0.01288   -0.00496    0.29428
 17 Li    0.01500   -0.00237    0.28781
 18 Li   -0.00419    0.00370    0.00827
 19 Li    0.01378   -0.01202    0.00791
 20 Li   -0.00057   -0.00115    0.00555
 21 Li    0.00910   -0.01234   -0.00127
 22 Li    0.01610   -0.00319    0.00886
 23 Li    0.00835   -0.00537   -0.00247
 24 Li   -0.00069   -0.00344   -0.00598
 25 Li    0.00625   -0.01450    0.00216
 26 Li    0.01116   -0.00012    0.00426
 27 Li   -0.00670    0.02094   -0.01629
 28 Li   -0.00265    0.00305    0.00095
 29 Li   -0.00820    0.01011   -0.01173
 30 Li    0.03377    0.01474   -0.02679
 31 Li    0.00226    0.00329    0.00543
 32 Li    0.01241    0.00694    0.00215
 33 Li   -0.01208   -0.01599    0.01049
 34 Li    0.00618    0.00441    0.02318
 35 Li    0.00017   -0.00195    0.00692
 36 O     0.05206    0.05645   -0.02604
 37 C     0.00158    0.03627   -0.05140
 38 C    -0.01201    0.01252   -0.03091
 39 C    -0.00123   -0.03506    0.04898
 40 C     0.00443    0.00282    0.03166
 41 H     0.01465   -0.02036    0.00499
 42 H    -0.00432    0.00449    0.00677
 43 H     0.02109   -0.01066   -0.00644
 44 H     0.00453   -0.00794   -0.01469
 45 H    -0.01920    0.00467   -0.00196
 46 H    -0.01563   -0.04470    0.00308
 47 H    -0.00126   -0.01304    0.01364
 48 H    -0.02097    0.01083    0.01417
 49 H     0.00451    0.00201   -0.02108
 50 H    -0.01785   -0.03468    0.00109
 51 N     0.03571    0.06686   -0.02540
 52 N    -0.01671   -0.04268   -0.00709

System changes: positions 

Initializing position-dependent things.

Density initialized from wave functions
       .-----------------------.  
      /|                       |  
     / |                       |  
    /  |                       |  
   /   |                      HC  
  /    |                       |  
 *     |                       |  
 |     |H                   H C|  
 |     |                       |  
 |     C                       |  
 | H   | H             H    H  |  
 |     |                       |  
 |     |                       |  
 C  H  |       Li     LiH      |  
 |     |                       |  
 |   Li|     Li      Li        |  
 |O H  |                       |  
 |     |  LLi     LLi     LLi  |  
 |     |            N  NLi     |  
 |     |Li      Li      Li     |  
 |   Li|     Li      LLi       |  
 |    Li  Li  Li  Li      Li   |  
 | Li  |   Li      Li          |  
 |     |Li      Li      Li     |  
 Li    | Li      Li            |  
 |    Li      Li      Li       |  
 |     |                       |  
 |     |                       |  
 |     |                       |  
 |     |                       |  
 |     |                       |  
 |     |                       |  
 |     .-----------------------.  
 |    /                       /   
 |   /                       /    
 |  /                       /     
 | /                       /      
 |/                       /       
 *-----------------------*        

Positions:
   0 Li     1.617037    1.617037   10.000000    ( 0.0000,  0.0000,  0.0000)
   1 Li     4.851111    1.617037   10.000000    ( 0.0000,  0.0000,  0.0000)
   2 Li     8.085185    1.617037   10.000000    ( 0.0000,  0.0000,  0.0000)
   3 Li     1.617037    4.851111   10.000000    ( 0.0000,  0.0000,  0.0000)
   4 Li     4.851111    4.851111   10.000000    ( 0.0000,  0.0000,  0.0000)
   5 Li     8.085185    4.851111   10.000000    ( 0.0000,  0.0000,  0.0000)
   6 Li     1.617037    8.085185   10.000000    ( 0.0000,  0.0000,  0.0000)
   7 Li     4.851111    8.085185   10.000000    ( 0.0000,  0.0000,  0.0000)
   8 Li     8.085185    8.085185   10.000000    ( 0.0000,  0.0000,  0.0000)
   9 Li     0.000000    0.000000   11.617037    ( 0.0000,  0.0000,  0.0000)
  10 Li     3.234074    0.000000   11.617037    ( 0.0000,  0.0000,  0.0000)
  11 Li     6.468148    0.000000   11.617037    ( 0.0000,  0.0000,  0.0000)
  12 Li     0.000000    3.234074   11.617037    ( 0.0000,  0.0000,  0.0000)
  13 Li     3.234074    3.234074   11.617037    ( 0.0000,  0.0000,  0.0000)
  14 Li     6.468148    3.234074   11.617037    ( 0.0000,  0.0000,  0.0000)
  15 Li     0.000000    6.468148   11.617037    ( 0.0000,  0.0000,  0.0000)
  16 Li     3.234074    6.468148   11.617037    ( 0.0000,  0.0000,  0.0000)
  17 Li     6.468148    6.468148   11.617037    ( 0.0000,  0.0000,  0.0000)
  18 Li     1.541100    1.655865   13.520771    ( 0.0000,  0.0000,  0.0000)
  19 Li     4.829103    1.584923   13.487686    ( 0.0000,  0.0000,  0.0000)
  20 Li     8.075300    1.576442   13.649801    ( 0.0000,  0.0000,  0.0000)
  21 Li     1.604258    4.876898   13.483312    ( 0.0000,  0.0000,  0.0000)
  22 Li     4.876594    4.790028   13.466439    ( 0.0000,  0.0000,  0.0000)
  23 Li     8.088606    4.834344   13.494673    ( 0.0000,  0.0000,  0.0000)
  24 Li     1.545483    8.156093   13.452778    ( 0.0000,  0.0000,  0.0000)
  25 Li     4.818444    8.067511   13.466904    ( 0.0000,  0.0000,  0.0000)
  26 Li     8.028179    8.136165   13.519294    ( 0.0000,  0.0000,  0.0000)
  27 Li    -0.361046    0.306012   15.965210    ( 0.0000,  0.0000,  0.0000)
  28 Li     3.114850   -0.059532   15.361577    ( 0.0000,  0.0000,  0.0000)
  29 Li     6.254950   -0.111322   15.557138    ( 0.0000,  0.0000,  0.0000)
  30 Li    -0.014443    3.412609   15.543623    ( 0.0000,  0.0000,  0.0000)
  31 Li     3.275017    3.257707   15.412259    ( 0.0000,  0.0000,  0.0000)
  32 Li     6.560387    3.030440   15.554013    ( 0.0000,  0.0000,  0.0000)
  33 Li     0.046475    6.599225   15.367113    ( 0.0000,  0.0000,  0.0000)
  34 Li     3.246117    6.452605   15.380567    ( 0.0000,  0.0000,  0.0000)
  35 Li     6.421685    6.355299   15.404009    ( 0.0000,  0.0000,  0.0000)
  36 O     10.030835    9.943397   17.799383    ( 0.0000,  0.0000,  0.0000)
  37 C      9.836977    9.762553   20.248570    ( 0.0000,  0.0000,  0.0000)
  38 C      9.606338    8.826276   21.438822    ( 0.0000,  0.0000,  0.0000)
  39 C      9.888717    9.032772   18.912976    ( 0.0000,  0.0000,  0.0000)
  40 C      9.583733    9.577894   22.770267    ( 0.0000,  0.0000,  0.0000)
  41 H      9.042488   10.515338   20.208418    ( 0.0000,  0.0000,  0.0000)
  42 H     10.780554   10.304890   20.391995    ( 0.0000,  0.0000,  0.0000)
  43 H     10.388912    8.060123   21.464678    ( 0.0000,  0.0000,  0.0000)
  44 H      8.656803    8.296484   21.303583    ( 0.0000,  0.0000,  0.0000)
  45 H     10.706062    8.300233   18.896062    ( 0.0000,  0.0000,  0.0000)
  46 H      8.954916    8.501176   18.718415    ( 0.0000,  0.0000,  0.0000)
  47 H     10.528313   10.099771   22.939977    ( 0.0000,  0.0000,  0.0000)
  48 H      8.787160   10.325633   22.777492    ( 0.0000,  0.0000,  0.0000)
  49 H      9.418633    8.901119   23.610826    ( 0.0000,  0.0000,  0.0000)
  50 H     10.844191   10.459722   17.906312    ( 0.0000,  0.0000,  0.0000)
  51 N      7.507246   10.934282   15.685466    ( 0.0000,  0.0000,  0.0000)
  52 N      8.380485   11.830219   15.668231    ( 0.0000,  0.0000,  0.0000)

Unit cell:
           periodic     x           y           z      points  spacing
  1. axis:    yes    9.702222    0.000000    0.000000    60     0.1617
  2. axis:    yes    0.000000    9.702222    0.000000    60     0.1617
  3. axis:    no     0.000000    0.000000   26.351111   164     0.1607

  Lengths:   9.702222   9.702222  26.351111
  Angles:   90.000000  90.000000  90.000000

Effective grid spacing dv^(1/3) = 0.1614

     iter     time        total  log10-change:
                         energy  eigst   dens
iter:   1 00:59:05  -361.190271  -2.36
iter:   2 00:59:14  -361.186396  -2.68  -2.24
iter:   3 00:59:22  -361.183802c -3.75  -2.41
iter:   4 00:59:29  -361.183296c -3.86  -2.82
Writing to output.gpw (mode='')

iter:   5 00:59:38  -361.183029c -3.58  -3.01
iter:   6 00:59:50  -361.182978c -3.54  -3.29
iter:   7 00:59:58  -361.183067c -4.45  -3.33
iter:   8 01:00:05  -361.183031c -4.17  -3.53
iter:   9 01:00:13  -361.183047c -4.84  -3.63
Writing to output.gpw (mode='')

iter:  10 01:00:20  -361.183044c -4.86  -3.83
iter:  11 01:00:28  -361.183067c -5.26  -3.87
iter:  12 01:00:42  -361.183060c -5.72  -3.96
iter:  13 01:00:50  -361.183052c -5.57  -4.06c
iter:  14 01:00:57  -361.183044c -5.80  -4.17c
Writing to output.gpw (mode='')

iter:  15 01:01:05  -361.183044c -5.96  -4.27c
iter:  16 01:01:12  -361.183046c -6.15  -4.43c
iter:  17 01:01:20  -361.183049c -6.35  -4.54c
iter:  18 01:01:27  -361.183045c -6.45  -4.68c
iter:  19 01:01:35  -361.183046c -6.74  -4.72c
Writing to output.gpw (mode='')

iter:  20 01:01:42  -361.183050c -6.79  -4.82c
iter:  21 01:01:50  -361.183049c -7.27  -4.90c
iter:  22 01:01:57  -361.183047c -7.07  -4.99c
iter:  23 01:02:05  -361.183049c -7.30  -5.16c
iter:  24 01:02:12  -361.183049c -7.52c -5.26c

Converged after 24 iterations.

Dipole moment: (-16.994071, -11.320857, 0.375863) |e|*Ang

Energy contributions relative to reference atoms: (reference = -16540.070923)

Kinetic:       +182.770779
Potential:     -178.020617
External:        +0.000000
XC:            -366.722171
Entropy (-ST):   -0.162205
Local:           +0.870064
--------------------------
Free energy:   -361.264151
Extrapolated:  -361.183049

Dipole-layer corrected work functions: 3.385933, 2.663395 eV

Showing only first 2 kpts
 Kpt  Band  Eigenvalues  Occupancy
  0    37     -3.25523    1.98032
  0    38     -3.05945    1.33445
  0    39     -3.00340    0.79048
  0    40     -2.81699    0.03094

  1    37     -3.28107    1.98821
  1    38     -3.17928    1.91314
  1    39     -2.94983    0.36585
  1    40     -2.79061    0.01837


Fermi level: -3.02466

No gap
Writing to output.gpw (mode='')


Forces in eV/Ang:
  0 Li    0.00096    0.01038   -0.29299
  1 Li    0.00652   -0.01167   -0.29699
  2 Li    0.00267   -0.00033   -0.24971
  3 Li    0.00955    0.00481   -0.28455
  4 Li   -0.00901    0.01178   -0.28625
  5 Li    0.01500   -0.00447   -0.29496
  6 Li    0.01920   -0.01540   -0.29007
  7 Li   -0.00297   -0.00510   -0.28634
  8 Li   -0.00923    0.00426   -0.29253
  9 Li   -0.06161    0.04717    0.26075
 10 Li   -0.03044    0.03858    0.28347
 11 Li    0.02368    0.05217    0.31559
 12 Li   -0.06928   -0.04008    0.32423
 13 Li   -0.02368   -0.02303    0.28936
 14 Li    0.04165   -0.05670    0.28335
 15 Li   -0.05396    0.01622    0.29433
 16 Li   -0.01450   -0.00542    0.29572
 17 Li    0.01592   -0.00275    0.28938
 18 Li   -0.00374    0.00326    0.00849
 19 Li    0.01204   -0.01220    0.00795
 20 Li   -0.00024    0.00232    0.00758
 21 Li    0.01180   -0.00805   -0.00294
 22 Li    0.01568   -0.00522    0.00768
 23 Li    0.00640   -0.00400   -0.00451
 24 Li    0.00275   -0.00780   -0.00041
 25 Li    0.00706   -0.01349    0.00204
 26 Li    0.00840   -0.00207    0.00540
 27 Li   -0.00898    0.01552   -0.00902
 28 Li   -0.00405    0.00271   -0.00105
 29 Li   -0.00390    0.01434   -0.01274
 30 Li    0.03730    0.02109   -0.02478
 31 Li    0.00302    0.00431    0.00476
 32 Li    0.00541    0.01496    0.00370
 33 Li   -0.01057   -0.01262    0.00917
 34 Li    0.00372    0.00390    0.01932
 35 Li    0.00081   -0.00270    0.00574
 36 O     0.03010    0.03873   -0.00420
 37 C     0.00668    0.01448   -0.02175
 38 C    -0.00022   -0.01155   -0.00476
 39 C    -0.00246   -0.04105    0.00696
 40 C    -0.00560    0.00697   -0.00092
 41 H    -0.00079   -0.00212   -0.00270
 42 H    -0.00287    0.00955   -0.00042
 43 H     0.00903   -0.00158   -0.01609
 44 H     0.00449   -0.00802   -0.01850
 45 H    -0.01150    0.00487   -0.00410
 46 H    -0.00857   -0.02390    0.01168
 47 H     0.01324    0.00251    0.01435
 48 H    -0.01467    0.00541    0.03027
 49 H    -0.00873   -0.00118   -0.01887
 50 H    -0.00196   -0.02379    0.00375
 51 N     0.02160    0.02633   -0.02102
 52 N     0.00168   -0.01463   -0.02827

Timing:                                      incl.     excl.
-------------------------------------------------------------------
Density initialized from wave functions:    13.082    13.076   0.0% |
 Symmetrize density:                         0.006     0.006   0.0% |
Forces:                                     89.302    89.302   0.2% |
Hamiltonian:                              1168.851     0.028   0.0% |
 Atomic:                                     0.049     0.049   0.0% |
  XC Correction:                             0.001     0.001   0.0% |
 Calculate atomic Hamiltonians:              0.090     0.090   0.0% |
 Communicate:                               15.799    15.799   0.0% |
 Hartree integrate/restrict:                 4.345     4.345   0.0% |
 Initialize Hamiltonian:                     0.000     0.000   0.0% |
 Poisson:                                   55.885    20.340   0.0% |
  Communicate from 1D:                       5.717     5.717   0.0% |
  Communicate from 2D:                       5.971     5.971   0.0% |
  Communicate to 1D:                         3.041     3.041   0.0% |
  Communicate to 2D:                         6.675     6.675   0.0% |
  FFT 1D:                                    7.162     7.162   0.0% |
  FFT 2D:                                    6.980     6.980   0.0% |
 XC 3D grid:                              1091.766   161.192   0.3% |
  VdW-DF integral:                         930.574     7.621   0.0% |
   Convolution:                             86.080    86.080   0.2% |
   FFT:                                     36.509    36.509   0.1% |
   gather:                                 331.078   331.078   0.6% |
   hmm1:                                    30.182    30.182   0.1% |
   hmm2:                                    39.923    39.923   0.1% |
   iFFT:                                    37.705    37.705   0.1% |
   potential:                              357.822     9.637   0.0% |
    collect:                                56.635    56.635   0.1% |
    p1:                                    163.581   163.581   0.3% |
    p2:                                     60.853    60.853   0.1% |
    sum:                                    67.117    67.117   0.1% |
   splines:                                  3.654     3.654   0.0% |
 vbar:                                       0.889     0.889   0.0% |
LCAO initialization:                         1.153     0.183   0.0% |
 LCAO eigensolver:                           0.189     0.000   0.0% |
  Calculate projections:                     0.000     0.000   0.0% |
  DenseAtomicCorrection:                     0.000     0.000   0.0% |
  Distribute overlap matrix:                 0.153     0.153   0.0% |
  Orbital Layouts:                           0.034     0.034   0.0% |
  Potential matrix:                          0.001     0.001   0.0% |
  Sum over cells:                            0.001     0.001   0.0% |
 LCAO to grid:                               0.682     0.682   0.0% |
 Set positions (LCAO WFS):                   0.099     0.053   0.0% |
  Basic WFS set positions:                   0.001     0.001   0.0% |
  Basis functions set positions:             0.000     0.000   0.0% |
  P tci:                                     0.000     0.000   0.0% |
  ST tci:                                    0.013     0.013   0.0% |
  mktci:                                     0.032     0.032   0.0% |
Redistribute:                                0.130     0.130   0.0% |
SCF-cycle:                               52432.148   898.847   1.7% ||
 Davidson:                               14907.510  4495.723   8.3% |--|
  Apply hamiltonian:                       912.289   912.289   1.7% ||
  Subspace diag:                          2761.354     0.896   0.0% |
   calc_h_matrix:                         1374.500   443.270   0.8% |
    Apply hamiltonian:                     931.230   931.230   1.7% ||
   diagonalize:                            138.411   138.411   0.3% |
   rotate_psi:                            1247.548  1247.548   2.3% ||
  calc. matrices:                         4712.290  2528.624   4.7% |-|
   Apply hamiltonian:                     2183.665  2183.665   4.0% |-|
  diagonalize:                              48.683    48.683   0.1% |
  rotate_psi:                             1977.170  1977.170   3.7% ||
 Density:                                  265.675     0.307   0.0% |
  Atomic density matrices:                  35.152    35.152   0.1% |
  Mix:                                     111.578   111.578   0.2% |
  Multipole moments:                         8.762     8.762   0.0% |
  Pseudo density:                          109.876   109.728   0.2% |
   Symmetrize density:                       0.148     0.148   0.0% |
 Hamiltonian:                            36317.870     0.883   0.0% |
  Atomic:                                    1.756     1.739   0.0% |
   XC Correction:                            0.018     0.018   0.0% |
  Calculate atomic Hamiltonians:             2.801     2.801   0.0% |
  Communicate:                             513.757   513.757   1.0% |
  Hartree integrate/restrict:              129.207   129.207   0.2% |
  Poisson:                                1737.221   640.255   1.2% |
   Communicate from 1D:                    172.681   172.681   0.3% |
   Communicate from 2D:                    174.765   174.765   0.3% |
   Communicate to 1D:                       96.268    96.268   0.2% |
   Communicate to 2D:                      201.243   201.243   0.4% |
   FFT 1D:                                 227.614   227.614   0.4% |
   FFT 2D:                                 224.395   224.395   0.4% |
  XC 3D grid:                            33902.419  5077.115   9.4% |---|
   VdW-DF integral:                      28825.304   239.657   0.4% |
    Convolution:                          2703.092  2703.092   5.0% |-|
    FFT:                                  1147.733  1147.733   2.1% ||
    gather:                               9984.728  9984.728  18.5% |------|
    hmm1:                                  953.563   953.563   1.8% ||
    hmm2:                                 1245.569  1245.569   2.3% ||
    iFFT:                                 1185.749  1185.749   2.2% ||
    potential:                           11365.153   305.773   0.6% |
     collect:                             1759.648  1759.648   3.3% ||
     p1:                                  5133.687  5133.687   9.5% |---|
     p2:                                  1914.288  1914.288   3.5% ||
     sum:                                 2251.756  2251.756   4.2% |-|
    splines:                                 0.060     0.060   0.0% |
  vbar:                                     29.824    29.824   0.1% |
 Orthonormalize:                            42.247     0.029   0.0% |
  calc_s_matrix:                             6.269     6.269   0.0% |
  inverse-cholesky:                         12.124    12.124   0.0% |
  projections:                               0.005     0.005   0.0% |
  rotate_psi_s:                             23.820    23.820   0.0% |
Set symmetry:                                0.012     0.012   0.0% |
Other:                                     225.163   225.163   0.4% |
-------------------------------------------------------------------
Total:                                             53929.841 100.0%

Memory usage: 1.14 GiB
Date: Sat Mar 11 01:02:14 2023
