
  ___ ___ ___ _ _ _  
 |   |   |_  | | | | 
 | | | | | . | | | | 
 |__ |  _|___|_____|  22.8.0
 |___|_|             

User:   vazumah@f003
Date:   Wed Mar  1 08:08:42 2023
Arch:   x86_64
Pid:    1281
CWD:    /home/vazumah/Research_Projects/LiMEAS/LiNRR_proton_donors/N2_with_proton_donor/Li_BCC_100/adsorbates/CH3CH2OH_z/bridge/8.085_1.617/N2_x/1.8_diag
Python: 3.10.6
gpaw:   /home/vazumah/anaconda3/envs/NAME/lib/python3.10/site-packages/gpaw
_gpaw:  /home/vazumah/anaconda3/envs/NAME/lib/python3.10/site-packages/
        _gpaw.cpython-310-x86_64-linux-gnu.so
ase:    /home/vazumah/anaconda3/envs/NAME/lib/python3.10/site-packages/ase (version 3.22.1)
numpy:  /home/vazumah/anaconda3/envs/NAME/lib/python3.10/site-packages/numpy (version 1.23.3)
scipy:  /home/vazumah/anaconda3/envs/NAME/lib/python3.10/site-packages/scipy (version 1.9.1)
libxc:  5.2.3
units:  Angstrom and eV
cores: 32
OpenMP: True
OMP_NUM_THREADS: 1

Input parameters:
  h: 0.16
  kpts: {size: [4, 4, 1]}
  occupations: {name: fermi-dirac,
                width: 0.05}
  poissonsolver: {dipolelayer: xy}
  xc: BEEF-vdW

System changes: positions, numbers, cell, pbc, initial_charges, initial_magmoms 

Initialize ...

species:
  Li:
    name: Lithium
    id: 830b4218f175192f93f959cfc0aad614
    Z: 3.0
    valence: 1
    core: 2
    charge: 0.0
    file: /home/vazumah/anaconda3/envs/NAME/share/gpaw/Li.PBE.gz
    compensation charges: {type: gauss,
                           rc: 0.33,
                           lmax: 2}
    cutoffs: {filter: 1.91,
              core: 2.55}
    valence states:
      #              energy  rcut
      - 2s(1.00)    -2.874   1.058
      - 2p(0.00)    -1.090   1.058
      -  s          24.337   1.058
  
    # Using partial waves for Li as LCAO basis

  O:
    name: Oxygen
    id: 32ecd46bf208036f09c70b0ec9a88b78
    Z: 8.0
    valence: 6
    core: 2
    charge: 0.0
    file: /home/vazumah/anaconda3/envs/NAME/share/gpaw/O.PBE.gz
    compensation charges: {type: gauss,
                           rc: 0.21,
                           lmax: 2}
    cutoffs: {filter: 1.17,
              core: 0.83}
    valence states:
      #              energy  rcut
      - 2s(2.00)   -23.961   0.688
      - 2p(4.00)    -9.029   0.598
      -  s           3.251   0.688
      -  p          18.182   0.598
      -  d           0.000   0.619
  
    # Using partial waves for O as LCAO basis

  C:
    name: Carbon
    id: 4aa54d4b901d75f77cc0ea3eec22967b
    Z: 6.0
    valence: 4
    core: 2
    charge: 0.0
    file: /home/vazumah/anaconda3/envs/NAME/share/gpaw/C.PBE.gz
    compensation charges: {type: gauss,
                           rc: 0.20,
                           lmax: 2}
    cutoffs: {filter: 1.14,
              core: 1.14}
    valence states:
      #              energy  rcut
      - 2s(2.00)   -13.751   0.635
      - 2p(2.00)    -5.284   0.635
      -  s          13.461   0.635
      -  p          21.927   0.635
      -  d           0.000   0.635
  
    # Using partial waves for C as LCAO basis

  H:
    name: Hydrogen
    id: d65de229564ff8ea4db303e23b6d1ecf
    Z: 1.0
    valence: 1
    core: 0
    charge: 0.0
    file: /home/vazumah/anaconda3/envs/NAME/share/gpaw/H.PBE.gz
    compensation charges: {type: gauss,
                           rc: 0.15,
                           lmax: 2}
    cutoffs: {filter: 0.85,
              core: 0.53}
    valence states:
      #              energy  rcut
      - 1s(1.00)    -6.494   0.476
      -  s          20.717   0.476
      -  p           0.000   0.476
  
    # Using partial waves for H as LCAO basis

  N:
    name: Nitrogen
    id: f7500608b86eaa90eef8b1d9a670dc53
    Z: 7.0
    valence: 5
    core: 2
    charge: 0.0
    file: /home/vazumah/anaconda3/envs/NAME/share/gpaw/N.PBE.gz
    compensation charges: {type: gauss,
                           rc: 0.18,
                           lmax: 2}
    cutoffs: {filter: 1.11,
              core: 0.96}
    valence states:
      #              energy  rcut
      - 2s(2.00)   -18.583   0.603
      - 2p(3.00)    -7.089   0.529
      -  s           8.629   0.603
      -  p          20.123   0.529
      -  d           0.000   0.577
  
    # Using partial waves for N as LCAO basis

Reference energy: -14434.854043  # eV

Spin-paired calculation

Convergence criteria:
 Maximum [total energy] change in last 3 cyles: 0.0005 eV / electron
 Maximum integral of absolute [dens]ity change: 0.0001 electrons / valence electron
 Maximum integral of absolute [eigenst]ate change: 4e-08 eV^2 / valence electron
 Maximum number of scf [iter]ations: 333
 (Square brackets indicate name in SCF output, whereas a 'c' in
 the SCF output indicates the quantity has converged.)

Symmetries present (total): 1

  ( 1  0  0)
  ( 0  1  0)
  ( 0  0  1)

16 k-points: 4 x 4 x 1 Monkhorst-Pack grid
8 k-points in the irreducible part of the Brillouin zone
       k-points in crystal coordinates                weights
   0:     0.12500000   -0.37500000    0.00000000          2/16
   1:     0.12500000   -0.12500000    0.00000000          2/16
   2:     0.12500000    0.12500000    0.00000000          2/16
   3:     0.12500000    0.37500000    0.00000000          2/16
   4:     0.37500000   -0.37500000    0.00000000          2/16
   5:     0.37500000   -0.12500000    0.00000000          2/16
   6:     0.37500000    0.12500000    0.00000000          2/16
   7:     0.37500000    0.37500000    0.00000000          2/16

Wave functions: Uniform real-space grid
  Kinetic energy operator: 6*3+1=19 point O(h^6) finite-difference Laplacian
  ScaLapack parameters: grid=1x1, blocksize=None
  Wavefunction extrapolation:
    Improved wavefunction reuse through dual PAW basis 

Occupation numbers: Fermi-Dirac:
  width: 0.0500  # eV
 

Eigensolver
   Davidson(niter=2) 

Densities:
  Coarse grid: 60*60*156 grid
  Fine grid: 120*120*312 grid
  Total Charge: 0.000000 

Density mixing:
  Method: separate
  Backend: pulay
  Linear mixing parameter: 0.05
  old densities: 5
  Damping of long wavelength oscillations: 50 

Hamiltonian:
  XC and Coulomb potentials evaluated on a 120*120*312 grid
  Using the BEEF-vdW Exchange-Correlation functional
  Interpolation: tri-quintic (5. degree polynomial)
  Poisson solver: FastPoissonSolver using
    Stencil: 6*3+1=19 point O(h^6) finite-difference Laplacian
    FFT axes: [0, 1]
    FST axes: [2]

Dipole correction along z-axis 

XC parameters: BEEF-vdW with 2 nearest neighbor stencil

Memory estimate:
  Process memory now: 213.38 MiB
  Calculator: 307.36 MiB
    Density: 88.33 MiB
      Arrays: 27.47 MiB
      Localized functions: 50.43 MiB
      Mixer: 10.44 MiB
    Hamiltonian: 21.95 MiB
      Arrays: 17.96 MiB
      XC: 0.00 MiB
      Poisson: 0.00 MiB
      vbar: 3.99 MiB
    Wavefunctions: 197.08 MiB
      Arrays psit_nG: 91.85 MiB
      Eigensolver: 102.58 MiB
      Projections: 0.05 MiB
      Projectors: 2.60 MiB

Total number of cores used: 32
Parallelization over k-points: 8
Domain decomposition: 1 x 1 x 4

Number of atoms: 47
Number of atomic orbitals: 170
Number of bands in calculation: 44
Number of valence electrons: 66
Bands to converge: occupied

... initialized

Initializing position-dependent things.

Density initialized from atomic densities
Creating initial wave functions:
  44 bands from LCAO basis set

       .-----------------------.  
      /|                       |  
     / |                       |  
    /  |                       |  
   /   |                       |  
  /    |                       |  
 *     |                       |  
 |     |                       |  
 |     |                       |  
 |     |                       |  
 |     |           H  H H      |  
 |     |             C         |  
 |     |       Li H    Li      |  
 |     |          H C  H       |  
 |   Li|     Li      Li        |  
 |     |  Li      LiLi    Li   |  
 |  Li |    Li          N      |  
 |     |Li      Li   N  Li     |  
 |     |                 Li    |  
 |   LLi     LLi     LLi       |  
 |     |  Li      Li      Li   |  
 | Li  |   Li      Li          |  
 |     |Li      Li      Li     |  
 Li    | Li      Li            |  
 |    Li      Li      Li       |  
 |     |                       |  
 |     |                       |  
 |     |                       |  
 |     |                       |  
 |     |                       |  
 |     |                       |  
 |     .-----------------------.  
 |    /                       /   
 |   /                       /    
 |  /                       /     
 | /                       /      
 |/                       /       
 *-----------------------*        

Positions:
   0 Li     1.617037    1.617037   10.000000    ( 0.0000,  0.0000,  0.0000)
   1 Li     4.851111    1.617037   10.000000    ( 0.0000,  0.0000,  0.0000)
   2 Li     8.085185    1.617037   10.000000    ( 0.0000,  0.0000,  0.0000)
   3 Li     1.617037    4.851111   10.000000    ( 0.0000,  0.0000,  0.0000)
   4 Li     4.851111    4.851111   10.000000    ( 0.0000,  0.0000,  0.0000)
   5 Li     8.085185    4.851111   10.000000    ( 0.0000,  0.0000,  0.0000)
   6 Li     1.617037    8.085185   10.000000    ( 0.0000,  0.0000,  0.0000)
   7 Li     4.851111    8.085185   10.000000    ( 0.0000,  0.0000,  0.0000)
   8 Li     8.085185    8.085185   10.000000    ( 0.0000,  0.0000,  0.0000)
   9 Li     0.000000    0.000000   11.617037    ( 0.0000,  0.0000,  0.0000)
  10 Li     3.234074    0.000000   11.617037    ( 0.0000,  0.0000,  0.0000)
  11 Li     6.468148    0.000000   11.617037    ( 0.0000,  0.0000,  0.0000)
  12 Li     0.000000    3.234074   11.617037    ( 0.0000,  0.0000,  0.0000)
  13 Li     3.234074    3.234074   11.617037    ( 0.0000,  0.0000,  0.0000)
  14 Li     6.468148    3.234074   11.617037    ( 0.0000,  0.0000,  0.0000)
  15 Li     0.000000    6.468148   11.617037    ( 0.0000,  0.0000,  0.0000)
  16 Li     3.234074    6.468148   11.617037    ( 0.0000,  0.0000,  0.0000)
  17 Li     6.468148    6.468148   11.617037    ( 0.0000,  0.0000,  0.0000)
  18 Li     1.665476    1.646605   13.478570    ( 0.0000,  0.0000,  0.0000)
  19 Li     4.952245    1.583733   13.556254    ( 0.0000,  0.0000,  0.0000)
  20 Li     8.087999    1.598335   13.562666    ( 0.0000,  0.0000,  0.0000)
  21 Li     1.683062    4.863988   13.497936    ( 0.0000,  0.0000,  0.0000)
  22 Li     4.928552    4.799202   13.483123    ( 0.0000,  0.0000,  0.0000)
  23 Li     8.128551    4.751446   13.530912    ( 0.0000,  0.0000,  0.0000)
  24 Li     1.607727    8.103887   13.481905    ( 0.0000,  0.0000,  0.0000)
  25 Li     4.825819    7.992194   13.493215    ( 0.0000,  0.0000,  0.0000)
  26 Li     8.072457    8.025416   13.499146    ( 0.0000,  0.0000,  0.0000)
  27 Li    -0.095575    0.053597   15.425829    ( 0.0000,  0.0000,  0.0000)
  28 Li     3.187534   -0.030191   15.434694    ( 0.0000,  0.0000,  0.0000)
  29 Li     6.443061   -0.289417   15.450339    ( 0.0000,  0.0000,  0.0000)
  30 Li     0.233239    3.186901   15.475375    ( 0.0000,  0.0000,  0.0000)
  31 Li     3.424301    3.304742   15.450019    ( 0.0000,  0.0000,  0.0000)
  32 Li     6.913998    2.758107   16.081893    ( 0.0000,  0.0000,  0.0000)
  33 Li     0.057705    6.469195   15.410291    ( 0.0000,  0.0000,  0.0000)
  34 Li     3.232747    6.490421   15.473579    ( 0.0000,  0.0000,  0.0000)
  35 Li     6.402890    6.221734   15.485528    ( 0.0000,  0.0000,  0.0000)
  36 O      6.901716    2.759913   18.082228    ( 0.0000,  0.0000,  0.0000)
  37 C      7.442073    1.627911   18.815540    ( 0.0000,  0.0000,  0.0000)
  38 C      7.721131    1.956131   20.270996    ( 0.0000,  0.0000,  0.0000)
  39 H      6.756007    0.777881   18.725103    ( 0.0000,  0.0000,  0.0000)
  40 H      8.363831    1.375588   18.293683    ( 0.0000,  0.0000,  0.0000)
  41 H      8.146456    1.079982   20.767394    ( 0.0000,  0.0000,  0.0000)
  42 H      8.434800    2.777758   20.353999    ( 0.0000,  0.0000,  0.0000)
  43 H      6.805753    2.223131   20.805922    ( 0.0000,  0.0000,  0.0000)
  44 H      6.077583    3.036661   18.504576    ( 0.0000,  0.0000,  0.0000)
  45 N      7.766232    0.928826   15.521778    ( 0.0000,  0.0000,  0.0000)
  46 N      8.706956    1.873018   15.542359    ( 0.0000,  0.0000,  0.0000)

Unit cell:
           periodic     x           y           z      points  spacing
  1. axis:    yes    9.702222    0.000000    0.000000    60     0.1617
  2. axis:    yes    0.000000    9.702222    0.000000    60     0.1617
  3. axis:    no     0.000000    0.000000   24.851111   156     0.1593

  Lengths:   9.702222   9.702222  24.851111
  Angles:   90.000000  90.000000  90.000000

Effective grid spacing dv^(1/3) = 0.1609

     iter     time        total  log10-change:
                         energy  eigst   dens
iter:   1 08:09:29  -469.817715
iter:   2 08:09:59  -163.160941  +2.26  -0.10
iter:   3 08:10:28  -132.270513  +3.20  -0.23
iter:   4 08:10:56  -185.779324  +2.70  -0.30
Writing to output.gpw (mode='')

iter:   5 08:11:26  -236.171301  +2.57  -0.44
iter:   6 08:11:56  -264.396122  +2.55  -0.53
iter:   7 08:12:27  -341.789823  +2.80  -0.73
iter:   8 08:12:57  -347.053830  +2.25  -0.49
iter:   9 08:13:27  -325.440516  +1.75  -0.53
Writing to output.gpw (mode='')

iter:  10 08:13:56  -333.117586  +1.42  -0.67
iter:  11 08:14:26  -363.806618  +1.80  -0.65
iter:  12 08:14:54  -342.729446  +1.14  -0.54
iter:  13 08:15:23  -317.114356  +1.41  -0.54
iter:  14 08:15:49  -315.775438  +0.75  -0.75
Writing to output.gpw (mode='')

iter:  15 08:16:22  -314.153251  +0.51  -0.78
iter:  16 08:16:52  -322.628970  +0.82  -0.82
iter:  17 08:17:22  -311.821984  +0.65  -0.58
iter:  18 08:17:53  -311.324072  +0.34  -0.93
iter:  19 08:18:21  -311.201082  +0.05  -0.96
Writing to output.gpw (mode='')

iter:  20 08:18:50  -310.473141  +0.03  -0.99
iter:  21 08:19:26  -310.480044  +0.42  -1.12
iter:  22 08:19:57  -310.205923  -0.34  -1.26
iter:  23 08:20:27  -310.237965  +0.13  -1.35
iter:  24 08:20:57  -310.149334  -0.39  -1.42
Writing to output.gpw (mode='')

iter:  25 08:21:30  -310.168691  -0.52  -1.53
iter:  26 08:22:00  -310.164938c -0.64  -1.56
iter:  27 08:22:31  -310.170195c -1.06  -1.77
iter:  28 08:23:06  -310.163631c -1.12  -1.81
iter:  29 08:23:59  -310.166686c -0.98  -1.84
Writing to output.gpw (mode='')

iter:  30 08:24:30  -310.172360c -1.13  -1.98
iter:  31 08:25:00  -310.176594c -1.58  -2.13
iter:  32 08:25:31  -310.178970c -1.72  -2.14
iter:  33 08:25:58  -310.180323c -1.75  -2.13
iter:  34 08:26:28  -310.187353c -1.78  -2.14
Writing to output.gpw (mode='')

iter:  35 08:26:59  -310.184132c -1.90  -2.07
iter:  36 08:27:31  -310.186263c -2.21  -2.24
iter:  37 08:27:59  -310.187352c -1.97  -2.23
iter:  38 08:28:29  -310.187615c -2.06  -2.19
iter:  39 08:28:58  -310.188793c -2.32  -2.27
Writing to output.gpw (mode='')

iter:  40 08:29:29  -310.190928c -2.29  -2.24
iter:  41 08:29:58  -310.192567c -2.36  -2.23
iter:  42 08:30:26  -310.194018c -2.44  -2.20
iter:  43 08:30:57  -310.191189c -2.30  -2.17
iter:  44 08:31:28  -310.189923c -2.61  -2.23
Writing to output.gpw (mode='')

iter:  45 08:31:57  -310.189987c -2.29  -2.28
iter:  46 08:32:27  -310.189367c -2.17  -2.33
iter:  47 08:32:59  -310.190247c -2.52  -2.37
iter:  48 08:33:36  -310.189605c -2.85  -2.36
iter:  49 08:34:04  -310.189704c -2.53  -2.53
Writing to output.gpw (mode='')

iter:  50 08:34:33  -310.189622c -2.85  -2.66
iter:  51 08:35:04  -310.189943c -2.85  -2.95
iter:  52 08:35:33  -310.189451c -3.47  -2.85
iter:  53 08:36:03  -310.189407c -3.39  -3.07
iter:  54 08:36:30  -310.189461c -3.84  -3.21
Writing to output.gpw (mode='')

iter:  55 08:36:57  -310.189456c -3.74  -3.30
iter:  56 08:37:27  -310.189485c -3.75  -3.38
iter:  57 08:37:56  -310.189514c -4.17  -3.42
iter:  58 08:38:27  -310.189569c -4.13  -3.50
iter:  59 08:38:56  -310.189588c -4.42  -3.74
Writing to output.gpw (mode='')

iter:  60 08:39:26  -310.189611c -4.31  -3.81
iter:  61 08:39:57  -310.189622c -4.31  -3.93
iter:  62 08:40:27  -310.189632c -4.50  -3.93
iter:  63 08:40:57  -310.189622c -4.93  -3.88
iter:  64 08:41:27  -310.189620c -4.95  -4.15c
Writing to output.gpw (mode='')

iter:  65 08:41:55  -310.189621c -4.95  -4.21c
iter:  66 08:42:23  -310.189624c -4.93  -4.20c
iter:  67 08:42:54  -310.189617c -5.08  -4.17c
iter:  68 08:43:24  -310.189622c -5.19  -4.23c
iter:  69 08:43:55  -310.189625c -5.13  -4.23c
Writing to output.gpw (mode='')

iter:  70 08:44:23  -310.189626c -5.33  -4.20c
iter:  71 08:44:54  -310.189625c -5.42  -4.21c
iter:  72 08:45:21  -310.189626c -5.37  -4.22c
iter:  73 08:45:51  -310.189625c -5.44  -4.18c
iter:  74 08:46:17  -310.189629c -5.44  -4.19c
Writing to output.gpw (mode='')

iter:  75 08:46:46  -310.189637c -5.53  -4.25c
iter:  76 08:47:18  -310.189641c -5.48  -4.31c
iter:  77 08:47:55  -310.189637c -5.71  -4.41c
iter:  78 08:48:25  -310.189641c -5.88  -4.50c
iter:  79 08:48:53  -310.189642c -5.81  -4.57c
Writing to output.gpw (mode='')

iter:  80 08:49:29  -310.189640c -5.92  -4.68c
iter:  81 08:49:58  -310.189639c -5.99  -4.74c
iter:  82 08:50:27  -310.189640c -5.92  -4.86c
iter:  83 08:50:56  -310.189641c -6.06  -5.05c
iter:  84 08:51:24  -310.189641c -6.15  -5.15c
Writing to output.gpw (mode='')

iter:  85 08:51:53  -310.189641c -6.23  -5.24c
iter:  86 08:52:19  -310.189641c -6.34  -5.28c
iter:  87 08:52:48  -310.189641c -6.31  -5.27c
iter:  88 08:53:18  -310.189641c -6.50  -5.22c
iter:  89 08:53:46  -310.189641c -6.65  -5.49c
Writing to output.gpw (mode='')

iter:  90 08:54:18  -310.189641c -6.56  -5.55c
iter:  91 08:54:48  -310.189641c -6.54  -5.58c
iter:  92 08:55:15  -310.189641c -6.69  -5.56c
iter:  93 08:55:46  -310.189641c -6.86  -5.52c
iter:  94 08:56:15  -310.189641c -6.95  -5.46c
Writing to output.gpw (mode='')

iter:  95 08:56:46  -310.189641c -6.84  -5.46c
iter:  96 08:57:17  -310.189642c -6.98  -5.43c
iter:  97 08:57:44  -310.189642c -6.86  -5.53c
iter:  98 08:58:14  -310.189642c -6.92  -5.51c
iter:  99 08:58:44  -310.189642c -7.21  -5.50c
Writing to output.gpw (mode='')

iter: 100 08:59:14  -310.189642c -7.23  -5.40c
iter: 101 08:59:43  -310.189642c -7.19  -5.55c
iter: 102 09:00:13  -310.189642c -6.97  -5.40c
iter: 103 09:00:41  -310.189642c -6.96  -5.61c
iter: 104 09:01:11  -310.189642c -7.07  -5.72c
Writing to output.gpw (mode='')

iter: 105 09:01:37  -310.189642c -7.14  -5.83c
iter: 106 09:02:04  -310.189642c -7.12  -5.91c
iter: 107 09:02:30  -310.189642c -7.38  -6.08c
iter: 108 09:02:56  -310.189642c -7.53c -6.11c

Converged after 108 iterations.

Dipole moment: (-3.618936, -1.198633, 0.358376) |e|*Ang

Energy contributions relative to reference atoms: (reference = -14434.854043)

Kinetic:       +144.119199
Potential:     -137.435954
External:        +0.000000
XC:            -317.567112
Entropy (-ST):   -0.161686
Local:           +0.775069
--------------------------
Free energy:   -310.270485
Extrapolated:  -310.189642

Dipole-layer corrected work functions: 3.389404, 2.700482 eV

Showing only first 2 kpts
 Kpt  Band  Eigenvalues  Occupancy
  0    31     -3.27981    1.98192
  0    32     -3.07604    1.30130
  0    33     -2.99954    0.57481
  0    34     -2.85099    0.04050

  1    31     -3.27088    1.97843
  1    32     -3.24739    1.96571
  1    33     -2.98350    0.45278
  1    34     -2.78786    0.01163


Fermi level: -3.04494

No gap
Writing to output.gpw (mode='')


Forces in eV/Ang:
  0 Li   -0.01350    0.01472   -0.29352
  1 Li    0.00649   -0.00550   -0.28913
  2 Li   -0.00491    0.00358   -0.23816
  3 Li    0.00589    0.01338   -0.28502
  4 Li   -0.01917    0.02042   -0.28504
  5 Li    0.00611   -0.00480   -0.28608
  6 Li    0.00949   -0.00814   -0.28432
  7 Li   -0.01421   -0.00654   -0.28608
  8 Li   -0.01390    0.01597   -0.29366
  9 Li   -0.00448   -0.00111    0.25567
 10 Li    0.03733    0.01326    0.31213
 11 Li    0.03126   -0.00793    0.32059
 12 Li   -0.00344   -0.03886    0.30914
 13 Li    0.05365   -0.02553    0.28798
 14 Li    0.02871   -0.03392    0.21288
 15 Li   -0.00512   -0.02541    0.30503
 16 Li    0.01404   -0.03276    0.25092
 17 Li    0.04102   -0.03894    0.27873
 18 Li   -0.02198   -0.00832    0.02135
 19 Li   -0.00868   -0.00380    0.00094
 20 Li    0.01172   -0.00787    0.19320
 21 Li    0.01300    0.00853   -0.01911
 22 Li   -0.02411   -0.01819    0.01197
 23 Li   -0.00950   -0.00148    0.01420
 24 Li    0.00673   -0.02090   -0.01010
 25 Li   -0.00670    0.01207   -0.01401
 26 Li   -0.02739    0.01431    0.00868
 27 Li   -0.11534    0.12773    0.03618
 28 Li   -0.00751   -0.01080   -0.01143
 29 Li   -0.11775   -0.09842    0.00072
 30 Li    0.11199    0.14636    0.00663
 31 Li    0.00793    0.01809   -0.00946
 32 Li    0.14128   -0.13068   -0.03328
 33 Li    0.00868    0.01971    0.01120
 34 Li   -0.00104   -0.00219    0.00170
 35 Li   -0.00021    0.00796   -0.01206
 36 O    -0.04539    0.02854    0.01896
 37 C     0.01218   -0.01590    0.03153
 38 C    -0.00958   -0.00160    0.01065
 39 H     0.00567    0.01668   -0.00090
 40 H    -0.02848    0.00560   -0.01304
 41 H     0.00352   -0.00471   -0.00948
 42 H    -0.02580    0.02519    0.01224
 43 H    -0.00021    0.03776   -0.00814
 44 H    -0.00863    0.00568    0.00846
 45 N     1.84361    1.91208   -0.05058
 46 N    -1.87493   -1.88005   -0.14043

System changes: positions 

Initializing position-dependent things.

Density initialized from wave functions
       .-----------------------.  
      /|                       |  
     / |                       |  
    /  |                       |  
   /   |                       |  
  /    |                       |  
 *     |                       |  
 |     |                       |  
 |     |                       |  
 |     |                       |  
 |     |           H  H H      |  
 |     |             C         |  
 |     |       Li H    Li      |  
 |     |          H C  H       |  
 |   Li|     Li      Li        |  
 |     |  Li      LiLi    Li   |  
 |  Li |    Li          N      |  
 |     |Li      Li   N  Li     |  
 |     |                 Li    |  
 |   LLi     LLi     LLi       |  
 |     |  Li      Li      Li   |  
 | Li  |   Li      Li          |  
 |     |Li      Li      Li     |  
 Li    | Li      Li            |  
 |    Li      Li      Li       |  
 |     |                       |  
 |     |                       |  
 |     |                       |  
 |     |                       |  
 |     |                       |  
 |     |                       |  
 |     .-----------------------.  
 |    /                       /   
 |   /                       /    
 |  /                       /     
 | /                       /      
 |/                       /       
 *-----------------------*        

Positions:
   0 Li     1.617037    1.617037   10.000000    ( 0.0000,  0.0000,  0.0000)
   1 Li     4.851111    1.617037   10.000000    ( 0.0000,  0.0000,  0.0000)
   2 Li     8.085185    1.617037   10.000000    ( 0.0000,  0.0000,  0.0000)
   3 Li     1.617037    4.851111   10.000000    ( 0.0000,  0.0000,  0.0000)
   4 Li     4.851111    4.851111   10.000000    ( 0.0000,  0.0000,  0.0000)
   5 Li     8.085185    4.851111   10.000000    ( 0.0000,  0.0000,  0.0000)
   6 Li     1.617037    8.085185   10.000000    ( 0.0000,  0.0000,  0.0000)
   7 Li     4.851111    8.085185   10.000000    ( 0.0000,  0.0000,  0.0000)
   8 Li     8.085185    8.085185   10.000000    ( 0.0000,  0.0000,  0.0000)
   9 Li     0.000000    0.000000   11.617037    ( 0.0000,  0.0000,  0.0000)
  10 Li     3.234074    0.000000   11.617037    ( 0.0000,  0.0000,  0.0000)
  11 Li     6.468148    0.000000   11.617037    ( 0.0000,  0.0000,  0.0000)
  12 Li     0.000000    3.234074   11.617037    ( 0.0000,  0.0000,  0.0000)
  13 Li     3.234074    3.234074   11.617037    ( 0.0000,  0.0000,  0.0000)
  14 Li     6.468148    3.234074   11.617037    ( 0.0000,  0.0000,  0.0000)
  15 Li     0.000000    6.468148   11.617037    ( 0.0000,  0.0000,  0.0000)
  16 Li     3.234074    6.468148   11.617037    ( 0.0000,  0.0000,  0.0000)
  17 Li     6.468148    6.468148   11.617037    ( 0.0000,  0.0000,  0.0000)
  18 Li     1.665162    1.646487   13.478875    ( 0.0000,  0.0000,  0.0000)
  19 Li     4.952121    1.583678   13.556267    ( 0.0000,  0.0000,  0.0000)
  20 Li     8.088167    1.598223   13.565426    ( 0.0000,  0.0000,  0.0000)
  21 Li     1.683247    4.864110   13.497663    ( 0.0000,  0.0000,  0.0000)
  22 Li     4.928207    4.798942   13.483294    ( 0.0000,  0.0000,  0.0000)
  23 Li     8.128416    4.751425   13.531114    ( 0.0000,  0.0000,  0.0000)
  24 Li     1.607823    8.103588   13.481761    ( 0.0000,  0.0000,  0.0000)
  25 Li     4.825724    7.992366   13.493015    ( 0.0000,  0.0000,  0.0000)
  26 Li     8.072066    8.025621   13.499270    ( 0.0000,  0.0000,  0.0000)
  27 Li    -0.097223    0.055422   15.426346    ( 0.0000,  0.0000,  0.0000)
  28 Li     3.187427   -0.030345   15.434531    ( 0.0000,  0.0000,  0.0000)
  29 Li     6.441379   -0.290823   15.450350    ( 0.0000,  0.0000,  0.0000)
  30 Li     0.234839    3.188992   15.475470    ( 0.0000,  0.0000,  0.0000)
  31 Li     3.424414    3.305001   15.449884    ( 0.0000,  0.0000,  0.0000)
  32 Li     6.916016    2.756240   16.081417    ( 0.0000,  0.0000,  0.0000)
  33 Li     0.057829    6.469476   15.410451    ( 0.0000,  0.0000,  0.0000)
  34 Li     3.232732    6.490389   15.473603    ( 0.0000,  0.0000,  0.0000)
  35 Li     6.402887    6.221848   15.485356    ( 0.0000,  0.0000,  0.0000)
  36 O      6.901068    2.760321   18.082498    ( 0.0000,  0.0000,  0.0000)
  37 C      7.442247    1.627684   18.815991    ( 0.0000,  0.0000,  0.0000)
  38 C      7.720994    1.956108   20.271149    ( 0.0000,  0.0000,  0.0000)
  39 H      6.756088    0.778119   18.725090    ( 0.0000,  0.0000,  0.0000)
  40 H      8.363424    1.375668   18.293496    ( 0.0000,  0.0000,  0.0000)
  41 H      8.146506    1.079914   20.767258    ( 0.0000,  0.0000,  0.0000)
  42 H      8.434431    2.778118   20.354174    ( 0.0000,  0.0000,  0.0000)
  43 H      6.805750    2.223671   20.805805    ( 0.0000,  0.0000,  0.0000)
  44 H      6.077459    3.036742   18.504697    ( 0.0000,  0.0000,  0.0000)
  45 N      7.792569    0.956141   15.521056    ( 0.0000,  0.0000,  0.0000)
  46 N      8.680171    1.846161   15.540353    ( 0.0000,  0.0000,  0.0000)

Unit cell:
           periodic     x           y           z      points  spacing
  1. axis:    yes    9.702222    0.000000    0.000000    60     0.1617
  2. axis:    yes    0.000000    9.702222    0.000000    60     0.1617
  3. axis:    no     0.000000    0.000000   24.851111   156     0.1593

  Lengths:   9.702222   9.702222  24.851111
  Angles:   90.000000  90.000000  90.000000

Effective grid spacing dv^(1/3) = 0.1609

     iter     time        total  log10-change:
                         energy  eigst   dens
iter:   1 09:03:31  -311.524970  -0.58
iter:   2 09:03:57  -310.669274  -0.37  -1.24
iter:   3 09:04:23  -310.415412  -0.62  -1.32
iter:   4 09:04:49  -310.304323  -0.36  -1.57
Writing to output.gpw (mode='')

iter:   5 09:05:15  -310.299314  -1.04  -1.86
iter:   6 09:05:41  -310.299538c -1.30  -2.03
iter:   7 09:06:07  -310.324119c -0.49  -2.06
iter:   8 09:06:33  -310.295502c -1.60  -2.05
iter:   9 09:06:59  -310.292810c -1.92  -2.30
Writing to output.gpw (mode='')

iter:  10 09:07:25  -310.293848c -2.11  -2.54
iter:  11 09:07:51  -310.293682c -2.33  -2.60
iter:  12 09:08:17  -310.293317c -2.55  -2.76
iter:  13 09:08:43  -310.293497c -2.96  -2.94
iter:  14 09:09:09  -310.293640c -3.10  -3.05
Writing to output.gpw (mode='')

iter:  15 09:09:35  -310.293691c -3.25  -3.13
iter:  16 09:10:01  -310.293944c -3.26  -3.29
iter:  17 09:10:28  -310.293878c -3.45  -3.15
iter:  18 09:10:54  -310.293886c -3.65  -3.43
iter:  19 09:11:20  -310.293911c -3.78  -3.54
Writing to output.gpw (mode='')

iter:  20 09:11:46  -310.293916c -3.72  -3.56
iter:  21 09:12:12  -310.293946c -3.98  -3.68
iter:  22 09:12:38  -310.293960c -4.28  -3.78
iter:  23 09:13:04  -310.293976c -4.04  -3.80
iter:  24 09:13:30  -310.293984c -4.25  -3.94
Writing to output.gpw (mode='')

iter:  25 09:13:56  -310.293989c -4.72  -4.11c
iter:  26 09:14:22  -310.293994c -4.77  -4.13c
iter:  27 09:14:48  -310.293995c -4.68  -4.15c
iter:  28 09:15:14  -310.293998c -4.80  -4.21c
iter:  29 09:15:40  -310.293999c -5.11  -4.28c
Writing to output.gpw (mode='')

iter:  30 09:16:06  -310.293990c -5.15  -4.29c
iter:  31 09:16:32  -310.293992c -5.51  -4.33c
iter:  32 09:16:58  -310.293996c -5.42  -4.46c
iter:  33 09:17:24  -310.293996c -5.57  -4.58c
iter:  34 09:17:50  -310.293997c -5.55  -4.62c
Writing to output.gpw (mode='')

iter:  35 09:18:16  -310.293997c -5.86  -4.68c
iter:  36 09:18:42  -310.294002c -5.35  -4.67c
iter:  37 09:19:08  -310.293997c -5.90  -4.37c
iter:  38 09:19:34  -310.294001c -5.97  -4.59c
iter:  39 09:20:00  -310.294001c -6.20  -4.40c
Writing to output.gpw (mode='')

iter:  40 09:20:27  -310.294000c -6.47  -4.64c
iter:  41 09:20:53  -310.293998c -6.04  -4.67c
iter:  42 09:21:19  -310.293998c -6.46  -5.10c
iter:  43 09:21:45  -310.293998c -6.56  -5.11c
iter:  44 09:22:11  -310.293998c -6.69  -5.14c
Writing to output.gpw (mode='')

iter:  45 09:22:37  -310.293998c -6.70  -5.24c
iter:  46 09:23:03  -310.293998c -6.90  -5.31c
iter:  47 09:23:29  -310.293998c -6.98  -5.55c
iter:  48 09:23:55  -310.293998c -6.96  -5.58c
iter:  49 09:24:21  -310.293998c -7.10  -5.61c
Writing to output.gpw (mode='')

iter:  50 09:24:47  -310.293998c -7.17  -5.69c
iter:  51 09:25:13  -310.293998c -7.15  -5.71c
iter:  52 09:25:39  -310.293998c -7.37  -5.75c
iter:  53 09:26:05  -310.293998c -7.49c -5.76c

Converged after 53 iterations.

Dipole moment: (-3.526982, -1.292629, 0.377556) |e|*Ang

Energy contributions relative to reference atoms: (reference = -14434.854043)

Kinetic:       +148.100156
Potential:     -140.776763
External:        +0.000000
XC:            -318.314387
Entropy (-ST):   -0.163598
Local:           +0.778796
--------------------------
Free energy:   -310.375797
Extrapolated:  -310.293998

Dipole-layer corrected work functions: 3.384434, 2.658642 eV

Showing only first 2 kpts
 Kpt  Band  Eigenvalues  Occupancy
  0    31     -3.25551    1.98160
  0    32     -3.04246    1.20620
  0    33     -2.98583    0.65735
  0    34     -2.82750    0.04043

  1    31     -3.25971    1.98307
  1    32     -3.20457    1.94985
  1    33     -2.96602    0.49564
  1    34     -2.76635    0.01207


Fermi level: -3.02154

No gap
Writing to output.gpw (mode='')


Forces in eV/Ang:
  0 Li   -0.01349    0.01466   -0.29570
  1 Li    0.00541   -0.00580   -0.29017
  2 Li   -0.00460    0.00315   -0.24108
  3 Li    0.00495    0.01221   -0.28764
  4 Li   -0.01920    0.02067   -0.28399
  5 Li    0.00637   -0.00350   -0.28700
  6 Li    0.00897   -0.00754   -0.28382
  7 Li   -0.01281   -0.00555   -0.28903
  8 Li   -0.01388    0.01601   -0.29593
  9 Li   -0.01030    0.00433    0.26926
 10 Li    0.03920    0.01309    0.30939
 11 Li    0.03403   -0.00639    0.33034
 12 Li   -0.00504   -0.04170    0.31943
 13 Li    0.05335   -0.02606    0.28583
 14 Li    0.03241   -0.03769    0.22536
 15 Li   -0.00496   -0.02733    0.30188
 16 Li    0.01328   -0.03213    0.25727
 17 Li    0.04094   -0.03884    0.27651
 18 Li   -0.00836   -0.00947    0.01086
 19 Li   -0.01797   -0.00222   -0.00583
 20 Li   -0.00244    0.01031   -0.01831
 21 Li    0.00582   -0.00009   -0.01424
 22 Li   -0.01796   -0.02397    0.01292
 23 Li   -0.00998    0.00530    0.00934
 24 Li   -0.00331   -0.01114   -0.00599
 25 Li    0.00184    0.01878   -0.00947
 26 Li   -0.02464   -0.00270   -0.00408
 27 Li    0.02923   -0.01682    0.00055
 28 Li   -0.00819   -0.00055   -0.00844
 29 Li    0.03312    0.03864   -0.01221
 30 Li   -0.02574   -0.00492   -0.00785
 31 Li    0.00765    0.00655   -0.00723
 32 Li    0.00227    0.00761   -0.01102
 33 Li   -0.00184    0.02076    0.01339
 34 Li   -0.00099   -0.00174    0.00192
 35 Li    0.01051    0.00822   -0.01086
 36 O     0.01434   -0.01129   -0.00254
 37 C    -0.02396    0.01213    0.03013
 38 C     0.00863   -0.00068    0.01161
 39 H    -0.00093    0.00769    0.00190
 40 H    -0.00370    0.00238    0.00142
 41 H     0.00238   -0.00302   -0.00589
 42 H    -0.02684    0.01887    0.01001
 43 H    -0.00329    0.03204   -0.01241
 44 H    -0.04147    0.01731    0.00987
 45 N    -0.16338   -0.11560    0.01626
 46 N     0.12596    0.11295    0.02370

System changes: positions 

Initializing position-dependent things.

Density initialized from wave functions
       .-----------------------.  
      /|                       |  
     / |                       |  
    /  |                       |  
   /   |                       |  
  /    |                       |  
 *     |                       |  
 |     |                       |  
 |     |                       |  
 |     |                       |  
 |     |           H  H H      |  
 |     |             C         |  
 |     |       Li H    Li      |  
 |     |          H C  H       |  
 |   Li|     Li      Li        |  
 |     |  Li      LiLi    Li   |  
 |  Li |    Li          N      |  
 |     |Li      Li   N  Li     |  
 |     |                 Li    |  
 |   LLi     LLi     LLi       |  
 |     |  Li      Li      Li   |  
 | Li  |   Li      Li          |  
 |     |Li      Li      Li     |  
 Li    | Li      Li            |  
 |    Li      Li      Li       |  
 |     |                       |  
 |     |                       |  
 |     |                       |  
 |     |                       |  
 |     |                       |  
 |     |                       |  
 |     .-----------------------.  
 |    /                       /   
 |   /                       /    
 |  /                       /     
 | /                       /      
 |/                       /       
 *-----------------------*        

Positions:
   0 Li     1.617037    1.617037   10.000000    ( 0.0000,  0.0000,  0.0000)
   1 Li     4.851111    1.617037   10.000000    ( 0.0000,  0.0000,  0.0000)
   2 Li     8.085185    1.617037   10.000000    ( 0.0000,  0.0000,  0.0000)
   3 Li     1.617037    4.851111   10.000000    ( 0.0000,  0.0000,  0.0000)
   4 Li     4.851111    4.851111   10.000000    ( 0.0000,  0.0000,  0.0000)
   5 Li     8.085185    4.851111   10.000000    ( 0.0000,  0.0000,  0.0000)
   6 Li     1.617037    8.085185   10.000000    ( 0.0000,  0.0000,  0.0000)
   7 Li     4.851111    8.085185   10.000000    ( 0.0000,  0.0000,  0.0000)
   8 Li     8.085185    8.085185   10.000000    ( 0.0000,  0.0000,  0.0000)
   9 Li     0.000000    0.000000   11.617037    ( 0.0000,  0.0000,  0.0000)
  10 Li     3.234074    0.000000   11.617037    ( 0.0000,  0.0000,  0.0000)
  11 Li     6.468148    0.000000   11.617037    ( 0.0000,  0.0000,  0.0000)
  12 Li     0.000000    3.234074   11.617037    ( 0.0000,  0.0000,  0.0000)
  13 Li     3.234074    3.234074   11.617037    ( 0.0000,  0.0000,  0.0000)
  14 Li     6.468148    3.234074   11.617037    ( 0.0000,  0.0000,  0.0000)
  15 Li     0.000000    6.468148   11.617037    ( 0.0000,  0.0000,  0.0000)
  16 Li     3.234074    6.468148   11.617037    ( 0.0000,  0.0000,  0.0000)
  17 Li     6.468148    6.468148   11.617037    ( 0.0000,  0.0000,  0.0000)
  18 Li     1.665050    1.646360   13.479021    ( 0.0000,  0.0000,  0.0000)
  19 Li     4.951880    1.583649   13.556189    ( 0.0000,  0.0000,  0.0000)
  20 Li     8.088134    1.598361   13.565185    ( 0.0000,  0.0000,  0.0000)
  21 Li     1.683326    4.864109   13.497472    ( 0.0000,  0.0000,  0.0000)
  22 Li     4.927967    4.798622   13.483467    ( 0.0000,  0.0000,  0.0000)
  23 Li     8.128282    4.751496   13.531239    ( 0.0000,  0.0000,  0.0000)
  24 Li     1.607779    8.103439   13.481680    ( 0.0000,  0.0000,  0.0000)
  25 Li     4.825748    7.992617   13.492888    ( 0.0000,  0.0000,  0.0000)
  26 Li     8.071736    8.025585   13.499216    ( 0.0000,  0.0000,  0.0000)
  27 Li    -0.096834    0.055199   15.426353    ( 0.0000,  0.0000,  0.0000)
  28 Li     3.187317   -0.030352   15.434418    ( 0.0000,  0.0000,  0.0000)
  29 Li     6.441819   -0.290308   15.450187    ( 0.0000,  0.0000,  0.0000)
  30 Li     0.234497    3.188928   15.475365    ( 0.0000,  0.0000,  0.0000)
  31 Li     3.424516    3.305088   15.449788    ( 0.0000,  0.0000,  0.0000)
  32 Li     6.916049    2.756340   16.081270    ( 0.0000,  0.0000,  0.0000)
  33 Li     0.057804    6.469754   15.410630    ( 0.0000,  0.0000,  0.0000)
  34 Li     3.232719    6.490366   15.473629    ( 0.0000,  0.0000,  0.0000)
  35 Li     6.403028    6.221958   15.485210    ( 0.0000,  0.0000,  0.0000)
  36 O      6.901258    2.760171   18.082465    ( 0.0000,  0.0000,  0.0000)
  37 C      7.441927    1.627845   18.816394    ( 0.0000,  0.0000,  0.0000)
  38 C      7.721109    1.956099   20.271304    ( 0.0000,  0.0000,  0.0000)
  39 H      6.756076    0.778222   18.725116    ( 0.0000,  0.0000,  0.0000)
  40 H      8.363374    1.375700   18.293515    ( 0.0000,  0.0000,  0.0000)
  41 H      8.146538    1.079874   20.767179    ( 0.0000,  0.0000,  0.0000)
  42 H      8.434072    2.778371   20.354308    ( 0.0000,  0.0000,  0.0000)
  43 H      6.805706    2.224099   20.805639    ( 0.0000,  0.0000,  0.0000)
  44 H      6.076905    3.036973   18.504829    ( 0.0000,  0.0000,  0.0000)
  45 N      7.790415    0.954626   15.521272    ( 0.0000,  0.0000,  0.0000)
  46 N      8.681825    1.847640   15.540667    ( 0.0000,  0.0000,  0.0000)

Unit cell:
           periodic     x           y           z      points  spacing
  1. axis:    yes    9.702222    0.000000    0.000000    60     0.1617
  2. axis:    yes    0.000000    9.702222    0.000000    60     0.1617
  3. axis:    no     0.000000    0.000000   24.851111   156     0.1593

  Lengths:   9.702222   9.702222  24.851111
  Angles:   90.000000  90.000000  90.000000

Effective grid spacing dv^(1/3) = 0.1609

     iter     time        total  log10-change:
                         energy  eigst   dens
iter:   1 09:26:40  -310.302300  -2.32
iter:   2 09:27:06  -310.296588  -2.59  -2.35
iter:   3 09:27:32  -310.295504c -2.99  -2.43
iter:   4 09:27:58  -310.294619c -2.87  -2.71
Writing to output.gpw (mode='')

iter:   5 09:28:24  -310.294646c -3.61  -3.07
iter:   6 09:28:50  -310.294597c -2.81  -3.18
iter:   7 09:29:16  -310.294571c -3.77  -3.08
iter:   8 09:29:42  -310.294636c -3.91  -3.42
iter:   9 09:30:08  -310.294583c -4.35  -3.60
Writing to output.gpw (mode='')

iter:  10 09:30:34  -310.294582c -4.66  -3.70
iter:  11 09:31:00  -310.294597c -4.64  -3.82
iter:  12 09:31:26  -310.294591c -5.44  -3.97
iter:  13 09:31:52  -310.294591c -5.56  -4.11c
iter:  14 09:32:18  -310.294600c -5.64  -4.18c
Writing to output.gpw (mode='')

iter:  15 09:32:44  -310.294597c -5.71  -4.31c
iter:  16 09:33:10  -310.294596c -5.86  -4.36c
iter:  17 09:33:36  -310.294602c -5.97  -4.47c
iter:  18 09:34:02  -310.294602c -5.89  -4.51c
iter:  19 09:34:28  -310.294601c -6.33  -4.65c
Writing to output.gpw (mode='')

iter:  20 09:34:55  -310.294601c -6.41  -4.72c
iter:  21 09:35:21  -310.294600c -6.56  -4.84c
iter:  22 09:35:47  -310.294600c -6.76  -4.90c
iter:  23 09:36:13  -310.294601c -6.69  -4.96c
iter:  24 09:36:39  -310.294601c -6.98  -5.12c
Writing to output.gpw (mode='')

iter:  25 09:37:05  -310.294601c -7.10  -5.27c
iter:  26 09:37:31  -310.294601c -7.38  -5.40c
iter:  27 09:37:57  -310.294601c -7.07  -5.40c
iter:  28 09:38:23  -310.294601c -7.36  -5.43c
iter:  29 09:38:49  -310.294601c -7.41c -5.64c

Converged after 29 iterations.

Dipole moment: (-3.538106, -1.285340, 0.376203) |e|*Ang

Energy contributions relative to reference atoms: (reference = -14434.854043)

Kinetic:       +147.768073
Potential:     -140.505712
External:        +0.000000
XC:            -318.253905
Entropy (-ST):   -0.163496
Local:           +0.778692
--------------------------
Free energy:   -310.376349
Extrapolated:  -310.294601

Dipole-layer corrected work functions: 3.384777, 2.661587 eV

Showing only first 2 kpts
 Kpt  Band  Eigenvalues  Occupancy
  0    31     -3.25724    1.98163
  0    32     -3.04481    1.21292
  0    33     -2.98687    0.65203
  0    34     -2.82912    0.04041

  1    31     -3.26059    1.98281
  1    32     -3.20740    1.95101
  1    33     -2.96732    0.49305
  1    34     -2.76759    0.01198


Fermi level: -3.02318

No gap
Writing to output.gpw (mode='')


Forces in eV/Ang:
  0 Li   -0.01348    0.01468   -0.29557
  1 Li    0.00548   -0.00578   -0.29012
  2 Li   -0.00462    0.00318   -0.24090
  3 Li    0.00504    0.01233   -0.28747
  4 Li   -0.01922    0.02064   -0.28407
  5 Li    0.00637   -0.00359   -0.28696
  6 Li    0.00902   -0.00761   -0.28384
  7 Li   -0.01289   -0.00560   -0.28884
  8 Li   -0.01389    0.01599   -0.29575
  9 Li   -0.00994    0.00393    0.26843
 10 Li    0.03893    0.01311    0.30951
 11 Li    0.03381   -0.00634    0.32963
 12 Li   -0.00497   -0.04150    0.31885
 13 Li    0.05324   -0.02618    0.28591
 14 Li    0.03210   -0.03740    0.22461
 15 Li   -0.00510   -0.02719    0.30206
 16 Li    0.01346   -0.03218    0.25679
 17 Li    0.04071   -0.03903    0.27671
 18 Li   -0.00902   -0.00918    0.01116
 19 Li   -0.01712   -0.00230   -0.00546
 20 Li   -0.00150    0.00868   -0.00315
 21 Li    0.00597    0.00040   -0.01413
 22 Li   -0.01785   -0.02297    0.01250
 23 Li   -0.00974    0.00500    0.00933
 24 Li   -0.00265   -0.01158   -0.00616
 25 Li    0.00124    0.01799   -0.00954
 26 Li   -0.02428   -0.00158   -0.00328
 27 Li    0.01685   -0.00604    0.00298
 28 Li   -0.00798   -0.00132   -0.00856
 29 Li    0.02101    0.02801   -0.01123
 30 Li   -0.01843    0.00264   -0.00658
 31 Li    0.00738    0.00707   -0.00711
 32 Li    0.01073   -0.00074   -0.01163
 33 Li   -0.00112    0.02045    0.01293
 34 Li   -0.00095   -0.00169    0.00181
 35 Li    0.00954    0.00822   -0.01088
 36 O    -0.02467    0.00538    0.01759
 37 C    -0.00151    0.00466    0.01375
 38 C    -0.00311    0.00517    0.01213
 39 H    -0.00436    0.00559    0.00412
 40 H    -0.01514    0.00432    0.00818
 41 H     0.00309   -0.00416   -0.00303
 42 H    -0.02185    0.01938    0.00980
 43 H    -0.00117    0.02899   -0.00987
 44 H    -0.00790    0.00689   -0.00774
 45 N     0.00711    0.03551    0.01186
 46 N    -0.03322   -0.03389    0.01063

Timing:                                      incl.     excl.
-------------------------------------------------------------------
Density initialized from wave functions:     0.298     0.298   0.0% |
 Symmetrize density:                         0.000     0.000   0.0% |
Forces:                                      7.633     7.633   0.1% |
Hamiltonian:                                53.776     0.001   0.0% |
 Atomic:                                     0.231     0.003   0.0% |
  XC Correction:                             0.228     0.228   0.0% |
 Calculate atomic Hamiltonians:              0.182     0.182   0.0% |
 Communicate:                                0.452     0.452   0.0% |
 Hartree integrate/restrict:                 0.206     0.206   0.0% |
 Initialize Hamiltonian:                     0.000     0.000   0.0% |
 Poisson:                                    4.145     1.977   0.0% |
  Communicate from 1D:                       0.286     0.286   0.0% |
  Communicate from 2D:                       0.416     0.416   0.0% |
  Communicate to 1D:                         0.093     0.093   0.0% |
  Communicate to 2D:                         0.448     0.448   0.0% |
  FFT 1D:                                    0.434     0.434   0.0% |
  FFT 2D:                                    0.491     0.491   0.0% |
 XC 3D grid:                                48.537     9.884   0.2% |
  VdW-DF integral:                          38.653     0.293   0.0% |
   Convolution:                              3.546     3.546   0.1% |
   FFT:                                      1.378     1.378   0.0% |
   gather:                                  13.557    13.557   0.3% |
   hmm1:                                     1.085     1.085   0.0% |
   hmm2:                                     1.294     1.294   0.0% |
   iFFT:                                     1.193     1.193   0.0% |
   potential:                                9.151     0.184   0.0% |
    collect:                                 1.054     1.054   0.0% |
    p1:                                      3.637     3.637   0.1% |
    p2:                                      1.609     1.609   0.0% |
    sum:                                     2.667     2.667   0.0% |
   splines:                                  7.155     7.155   0.1% |
 vbar:                                       0.024     0.024   0.0% |
LCAO initialization:                         3.940     0.399   0.0% |
 LCAO eigensolver:                           1.548     0.001   0.0% |
  Calculate projections:                     0.000     0.000   0.0% |
  DenseAtomicCorrection:                     0.000     0.000   0.0% |
  Distribute overlap matrix:                 1.528     1.528   0.0% |
  Orbital Layouts:                           0.017     0.017   0.0% |
  Potential matrix:                          0.001     0.001   0.0% |
  Sum over cells:                            0.001     0.001   0.0% |
 LCAO to grid:                               1.344     1.344   0.0% |
 Set positions (LCAO WFS):                   0.649     0.472   0.0% |
  Basic WFS set positions:                   0.003     0.003   0.0% |
  Basis functions set positions:             0.000     0.000   0.0% |
  P tci:                                     0.001     0.001   0.0% |
  ST tci:                                    0.103     0.103   0.0% |
  mktci:                                     0.071     0.071   0.0% |
Redistribute:                                0.001     0.001   0.0% |
SCF-cycle:                                5326.515   134.109   2.5% ||
 Davidson:                                2048.336   769.401  14.2% |-----|
  Apply hamiltonian:                       165.849   165.849   3.1% ||
  Subspace diag:                           316.896     0.049   0.0% |
   calc_h_matrix:                          197.749    31.330   0.6% |
    Apply hamiltonian:                     166.419   166.419   3.1% ||
   diagonalize:                              4.438     4.438   0.1% |
   rotate_psi:                             114.660   114.660   2.1% ||
  calc. matrices:                          618.128   242.618   4.5% |-|
   Apply hamiltonian:                      375.511   375.511   6.9% |--|
  diagonalize:                               1.438     1.438   0.0% |
  rotate_psi:                              176.622   176.622   3.3% ||
 Density:                                   36.097     0.008   0.0% |
  Atomic density matrices:                   1.593     1.593   0.0% |
  Mix:                                      17.990    17.990   0.3% |
  Multipole moments:                         0.170     0.170   0.0% |
  Pseudo density:                           16.336    16.327   0.3% |
   Symmetrize density:                       0.009     0.009   0.0% |
 Hamiltonian:                             3104.803     0.043   0.0% |
  Atomic:                                   14.333     0.157   0.0% |
   XC Correction:                           14.176    14.176   0.3% |
  Calculate atomic Hamiltonians:            10.275    10.275   0.2% |
  Communicate:                              26.645    26.645   0.5% |
  Hartree integrate/restrict:               11.673    11.673   0.2% |
  Poisson:                                 260.642   125.041   2.3% ||
   Communicate from 1D:                     16.944    16.944   0.3% |
   Communicate from 2D:                     26.542    26.542   0.5% |
   Communicate to 1D:                        5.716     5.716   0.1% |
   Communicate to 2D:                       27.519    27.519   0.5% |
   FFT 1D:                                  26.827    26.827   0.5% |
   FFT 2D:                                  32.054    32.054   0.6% |
  XC 3D grid:                             2778.908   618.300  11.4% |----|
   VdW-DF integral:                       2160.609    18.382   0.3% |
    Convolution:                           235.779   235.779   4.4% |-|
    FFT:                                    88.645    88.645   1.6% ||
    gather:                               1011.421  1011.421  18.7% |------|
    hmm1:                                   65.949    65.949   1.2% |
    hmm2:                                   82.626    82.626   1.5% ||
    iFFT:                                   80.615    80.615   1.5% ||
    potential:                             577.190    11.690   0.2% |
     collect:                               59.377    59.377   1.1% |
     p1:                                   232.974   232.974   4.3% |-|
     p2:                                   109.237   109.237   2.0% ||
     sum:                                  163.912   163.912   3.0% ||
    splines:                                 0.002     0.002   0.0% |
  vbar:                                      2.284     2.284   0.0% |
 Orthonormalize:                             3.171     0.001   0.0% |
  calc_s_matrix:                             0.252     0.252   0.0% |
  inverse-cholesky:                          1.829     1.829   0.0% |
  projections:                               0.000     0.000   0.0% |
  rotate_psi_s:                              1.089     1.089   0.0% |
Set symmetry:                                0.002     0.002   0.0% |
Other:                                      17.816    17.816   0.3% |
-------------------------------------------------------------------
Total:                                              5409.981 100.0%

Memory usage: 1.41 GiB
Date: Wed Mar  1 09:38:52 2023
