
  ___ ___ ___ _ _ _  
 |   |   |_  | | | | 
 | | | | | . | | | | 
 |__ |  _|___|_____|  22.8.0
 |___|_|             

User:   vazumah@f003
Date:   Mon Feb 27 11:03:43 2023
Arch:   x86_64
Pid:    39899
CWD:    /home/vazumah/Research_Projects/LiMEAS/LiNRR_proton_donors/N2_with_proton_donor/Li_BCC_100/adsorbates/CH3CH2OH_z/bridge/8.085_1.617/N2_z/1H
Python: 3.10.6
gpaw:   /home/vazumah/anaconda3/envs/NAME/lib/python3.10/site-packages/gpaw
_gpaw:  /home/vazumah/anaconda3/envs/NAME/lib/python3.10/site-packages/
        _gpaw.cpython-310-x86_64-linux-gnu.so
ase:    /home/vazumah/anaconda3/envs/NAME/lib/python3.10/site-packages/ase (version 3.22.1)
numpy:  /home/vazumah/anaconda3/envs/NAME/lib/python3.10/site-packages/numpy (version 1.23.3)
scipy:  /home/vazumah/anaconda3/envs/NAME/lib/python3.10/site-packages/scipy (version 1.9.1)
libxc:  5.2.3
units:  Angstrom and eV
cores: 32
OpenMP: True
OMP_NUM_THREADS: 1

Input parameters:
  h: 0.16
  kpts: {size: [4, 4, 1]}
  occupations: {name: fermi-dirac,
                width: 0.05}
  poissonsolver: {dipolelayer: xy}
  xc: BEEF-vdW

System changes: positions, numbers, cell, pbc, initial_charges, initial_magmoms 

Initialize ...

species:
  Li:
    name: Lithium
    id: 830b4218f175192f93f959cfc0aad614
    Z: 3.0
    valence: 1
    core: 2
    charge: 0.0
    file: /home/vazumah/anaconda3/envs/NAME/share/gpaw/Li.PBE.gz
    compensation charges: {type: gauss,
                           rc: 0.33,
                           lmax: 2}
    cutoffs: {filter: 1.91,
              core: 2.55}
    valence states:
      #              energy  rcut
      - 2s(1.00)    -2.874   1.058
      - 2p(0.00)    -1.090   1.058
      -  s          24.337   1.058
  
    # Using partial waves for Li as LCAO basis

  O:
    name: Oxygen
    id: 32ecd46bf208036f09c70b0ec9a88b78
    Z: 8.0
    valence: 6
    core: 2
    charge: 0.0
    file: /home/vazumah/anaconda3/envs/NAME/share/gpaw/O.PBE.gz
    compensation charges: {type: gauss,
                           rc: 0.21,
                           lmax: 2}
    cutoffs: {filter: 1.17,
              core: 0.83}
    valence states:
      #              energy  rcut
      - 2s(2.00)   -23.961   0.688
      - 2p(4.00)    -9.029   0.598
      -  s           3.251   0.688
      -  p          18.182   0.598
      -  d           0.000   0.619
  
    # Using partial waves for O as LCAO basis

  C:
    name: Carbon
    id: 4aa54d4b901d75f77cc0ea3eec22967b
    Z: 6.0
    valence: 4
    core: 2
    charge: 0.0
    file: /home/vazumah/anaconda3/envs/NAME/share/gpaw/C.PBE.gz
    compensation charges: {type: gauss,
                           rc: 0.20,
                           lmax: 2}
    cutoffs: {filter: 1.14,
              core: 1.14}
    valence states:
      #              energy  rcut
      - 2s(2.00)   -13.751   0.635
      - 2p(2.00)    -5.284   0.635
      -  s          13.461   0.635
      -  p          21.927   0.635
      -  d           0.000   0.635
  
    # Using partial waves for C as LCAO basis

  H:
    name: Hydrogen
    id: d65de229564ff8ea4db303e23b6d1ecf
    Z: 1.0
    valence: 1
    core: 0
    charge: 0.0
    file: /home/vazumah/anaconda3/envs/NAME/share/gpaw/H.PBE.gz
    compensation charges: {type: gauss,
                           rc: 0.15,
                           lmax: 2}
    cutoffs: {filter: 0.85,
              core: 0.53}
    valence states:
      #              energy  rcut
      - 1s(1.00)    -6.494   0.476
      -  s          20.717   0.476
      -  p           0.000   0.476
  
    # Using partial waves for H as LCAO basis

  N:
    name: Nitrogen
    id: f7500608b86eaa90eef8b1d9a670dc53
    Z: 7.0
    valence: 5
    core: 2
    charge: 0.0
    file: /home/vazumah/anaconda3/envs/NAME/share/gpaw/N.PBE.gz
    compensation charges: {type: gauss,
                           rc: 0.18,
                           lmax: 2}
    cutoffs: {filter: 1.11,
              core: 0.96}
    valence states:
      #              energy  rcut
      - 2s(2.00)   -18.583   0.603
      - 2p(3.00)    -7.089   0.529
      -  s           8.629   0.603
      -  p          20.123   0.529
      -  d           0.000   0.577
  
    # Using partial waves for N as LCAO basis

Reference energy: -14447.344205  # eV

Spin-paired calculation

Convergence criteria:
 Maximum [total energy] change in last 3 cyles: 0.0005 eV / electron
 Maximum integral of absolute [dens]ity change: 0.0001 electrons / valence electron
 Maximum integral of absolute [eigenst]ate change: 4e-08 eV^2 / valence electron
 Maximum number of scf [iter]ations: 333
 (Square brackets indicate name in SCF output, whereas a 'c' in
 the SCF output indicates the quantity has converged.)

Symmetries present (total): 1

  ( 1  0  0)
  ( 0  1  0)
  ( 0  0  1)

16 k-points: 4 x 4 x 1 Monkhorst-Pack grid
8 k-points in the irreducible part of the Brillouin zone
       k-points in crystal coordinates                weights
   0:     0.12500000   -0.37500000    0.00000000          2/16
   1:     0.12500000   -0.12500000    0.00000000          2/16
   2:     0.12500000    0.12500000    0.00000000          2/16
   3:     0.12500000    0.37500000    0.00000000          2/16
   4:     0.37500000   -0.37500000    0.00000000          2/16
   5:     0.37500000   -0.12500000    0.00000000          2/16
   6:     0.37500000    0.12500000    0.00000000          2/16
   7:     0.37500000    0.37500000    0.00000000          2/16

Wave functions: Uniform real-space grid
  Kinetic energy operator: 6*3+1=19 point O(h^6) finite-difference Laplacian
  ScaLapack parameters: grid=1x1, blocksize=None
  Wavefunction extrapolation:
    Improved wavefunction reuse through dual PAW basis 

Occupation numbers: Fermi-Dirac:
  width: 0.0500  # eV
 

Eigensolver
   Davidson(niter=2) 

Densities:
  Coarse grid: 60*60*156 grid
  Fine grid: 120*120*312 grid
  Total Charge: 0.000000 

Density mixing:
  Method: separate
  Backend: pulay
  Linear mixing parameter: 0.05
  old densities: 5
  Damping of long wavelength oscillations: 50 

Hamiltonian:
  XC and Coulomb potentials evaluated on a 120*120*312 grid
  Using the BEEF-vdW Exchange-Correlation functional
  Interpolation: tri-quintic (5. degree polynomial)
  Poisson solver: FastPoissonSolver using
    Stencil: 6*3+1=19 point O(h^6) finite-difference Laplacian
    FFT axes: [0, 1]
    FST axes: [2]

Dipole correction along z-axis 

XC parameters: BEEF-vdW with 2 nearest neighbor stencil

Memory estimate:
  Process memory now: 213.09 MiB
  Calculator: 311.68 MiB
    Density: 88.45 MiB
      Arrays: 27.47 MiB
      Localized functions: 50.55 MiB
      Mixer: 10.44 MiB
    Hamiltonian: 21.96 MiB
      Arrays: 17.96 MiB
      XC: 0.00 MiB
      Poisson: 0.00 MiB
      vbar: 4.00 MiB
    Wavefunctions: 201.27 MiB
      Arrays psit_nG: 93.93 MiB
      Eigensolver: 104.68 MiB
      Projections: 0.05 MiB
      Projectors: 2.61 MiB

Total number of cores used: 32
Parallelization over k-points: 8
Domain decomposition: 1 x 1 x 4

Number of atoms: 48
Number of atomic orbitals: 171
Number of bands in calculation: 45
Number of valence electrons: 67
Bands to converge: occupied

... initialized

Initializing position-dependent things.

Density initialized from atomic densities
Creating initial wave functions:
  45 bands from LCAO basis set

       .-----------------------.  
      /|                       |  
     / |                       |  
    /  |                       |  
   /   |                       |  
  /    |                     H |  
 *     |                 H     |  
 |     |                       |  
 |     |             H         |  
 |     |            H C  H     |  
 |     |                       |  
 |     |              C        |  
 |     Li      Li    H O       |  
 |     |                       |  
 |   Li|     Li      Hi        |  
 |     |  Li      Li      Li   |  
 |     |   Li      LiN    Li   |  
 |     |Li      LiLi   NLi     |  
 |     |                       |  
 |   LLi     LLi     LLi       |  
 |     |  Li      Li      Li   |  
 | Li  |   Li      Li          |  
 |     |Li      Li      Li     |  
 Li    | Li      Li            |  
 |    Li      Li      Li       |  
 |     |                       |  
 |     |                       |  
 |     |                       |  
 |     |                       |  
 |     |                       |  
 |     |                       |  
 |     .-----------------------.  
 |    /                       /   
 |   /                       /    
 |  /                       /     
 | /                       /      
 |/                       /       
 *-----------------------*        

Positions:
   0 Li     1.617037    1.617037   10.000000    ( 0.0000,  0.0000,  0.0000)
   1 Li     4.851111    1.617037   10.000000    ( 0.0000,  0.0000,  0.0000)
   2 Li     8.085185    1.617037   10.000000    ( 0.0000,  0.0000,  0.0000)
   3 Li     1.617037    4.851111   10.000000    ( 0.0000,  0.0000,  0.0000)
   4 Li     4.851111    4.851111   10.000000    ( 0.0000,  0.0000,  0.0000)
   5 Li     8.085185    4.851111   10.000000    ( 0.0000,  0.0000,  0.0000)
   6 Li     1.617037    8.085185   10.000000    ( 0.0000,  0.0000,  0.0000)
   7 Li     4.851111    8.085185   10.000000    ( 0.0000,  0.0000,  0.0000)
   8 Li     8.085185    8.085185   10.000000    ( 0.0000,  0.0000,  0.0000)
   9 Li     0.000000    0.000000   11.617037    ( 0.0000,  0.0000,  0.0000)
  10 Li     3.234074    0.000000   11.617037    ( 0.0000,  0.0000,  0.0000)
  11 Li     6.468148    0.000000   11.617037    ( 0.0000,  0.0000,  0.0000)
  12 Li     0.000000    3.234074   11.617037    ( 0.0000,  0.0000,  0.0000)
  13 Li     3.234074    3.234074   11.617037    ( 0.0000,  0.0000,  0.0000)
  14 Li     6.468148    3.234074   11.617037    ( 0.0000,  0.0000,  0.0000)
  15 Li     0.000000    6.468148   11.617037    ( 0.0000,  0.0000,  0.0000)
  16 Li     3.234074    6.468148   11.617037    ( 0.0000,  0.0000,  0.0000)
  17 Li     6.468148    6.468148   11.617037    ( 0.0000,  0.0000,  0.0000)
  18 Li     1.596868    1.576436   13.495006    ( 0.0000,  0.0000,  0.0000)
  19 Li     4.855589    1.671186   13.501169    ( 0.0000,  0.0000,  0.0000)
  20 Li     8.078552    1.622111   13.541613    ( 0.0000,  0.0000,  0.0000)
  21 Li     1.564720    4.786416   13.495108    ( 0.0000,  0.0000,  0.0000)
  22 Li     4.807581    4.893575   13.500221    ( 0.0000,  0.0000,  0.0000)
  23 Li     8.039536    4.851282   13.501718    ( 0.0000,  0.0000,  0.0000)
  24 Li     1.663295    8.033753   13.477357    ( 0.0000,  0.0000,  0.0000)
  25 Li     4.902965    8.136161   13.485114    ( 0.0000,  0.0000,  0.0000)
  26 Li     8.130489    8.112267   13.500550    ( 0.0000,  0.0000,  0.0000)
  27 Li     0.115660   -0.134615   15.468680    ( 0.0000,  0.0000,  0.0000)
  28 Li     3.355163   -0.049640   15.402409    ( 0.0000,  0.0000,  0.0000)
  29 Li     6.702563    0.219824   15.536280    ( 0.0000,  0.0000,  0.0000)
  30 Li    -0.261690    2.945731   15.602072    ( 0.0000,  0.0000,  0.0000)
  31 Li     3.071855    3.274459   15.458029    ( 0.0000,  0.0000,  0.0000)
  32 Li     6.336901    3.351643   15.485708    ( 0.0000,  0.0000,  0.0000)
  33 Li     0.053745    6.336049   15.406003    ( 0.0000,  0.0000,  0.0000)
  34 Li     3.243940    6.465300   15.468751    ( 0.0000,  0.0000,  0.0000)
  35 Li     6.423098    6.624665   15.450699    ( 0.0000,  0.0000,  0.0000)
  36 O      8.553580    1.315166   19.157653    ( 0.0000,  0.0000,  0.0000)
  37 C      8.253790    0.600377   20.366994    ( 0.0000,  0.0000,  0.0000)
  38 C      8.117250    1.512262   21.577643    ( 0.0000,  0.0000,  0.0000)
  39 H      7.348780   -0.008899   20.237138    ( 0.0000,  0.0000,  0.0000)
  40 H      9.093331   -0.084993   20.506870    ( 0.0000,  0.0000,  0.0000)
  41 H      7.908708    0.922185   22.472448    ( 0.0000,  0.0000,  0.0000)
  42 H      9.038535    2.076708   21.732404    ( 0.0000,  0.0000,  0.0000)
  43 H      7.296333    2.222835   21.449697    ( 0.0000,  0.0000,  0.0000)
  44 H      7.796626    1.875518   18.942590    ( 0.0000,  0.0000,  0.0000)
  45 N      8.504318    1.144280   15.533057    ( 0.0000,  0.0000,  0.0000)
  46 N      7.618164    2.037130   15.557112    ( 0.0000,  0.0000,  0.0000)
  47 H      7.618000    2.037000   17.472448    ( 0.0000,  0.0000,  0.0000)

Unit cell:
           periodic     x           y           z      points  spacing
  1. axis:    yes    9.702222    0.000000    0.000000    60     0.1617
  2. axis:    yes    0.000000    9.702222    0.000000    60     0.1617
  3. axis:    no     0.000000    0.000000   24.851111   156     0.1593

  Lengths:   9.702222   9.702222  24.851111
  Angles:   90.000000  90.000000  90.000000

Effective grid spacing dv^(1/3) = 0.1609

     iter     time        total  log10-change:
                         energy  eigst   dens
iter:   1 11:04:40  -521.657399
iter:   2 11:05:13  -148.406978  +2.32  -0.09
iter:   3 11:05:50  -104.255168  +3.10  -0.24
iter:   4 11:06:36  -180.376558  +2.79  -0.28
Writing to output.gpw (mode='')

iter:   5 11:07:21  -244.103553  +2.82  -0.35
iter:   6 11:07:54  -282.460284  +2.46  -0.50
iter:   7 11:08:28  -325.389869  +2.34  -0.67
iter:   8 11:09:03  -341.232880  +2.15  -0.58
iter:   9 11:09:49  -346.660195  +1.96  -0.61
Writing to output.gpw (mode='')

iter:  10 11:10:34  -354.322359  +1.80  -0.61
iter:  11 11:11:09  -377.615865  +1.82  -0.53
iter:  12 11:11:44  -377.130103  +1.51  -0.57
iter:  13 11:12:20  -346.056030  +1.08  -0.52
iter:  14 11:12:55  -318.872426  +1.12  -0.57
Writing to output.gpw (mode='')

iter:  15 11:13:31  -314.991571  +0.99  -0.69
iter:  16 11:14:05  -314.668699  +0.30  -0.83
iter:  17 11:14:57  -315.654778  +0.65  -0.90
iter:  18 11:15:49  -319.342206  +0.34  -0.94
iter:  19 11:16:40  -318.022702  -0.10  -0.88
Writing to output.gpw (mode='')

iter:  20 11:17:47  -315.369268  -0.29  -0.92
iter:  21 11:18:52  -312.500533  +0.63  -0.99
iter:  22 11:21:07  -312.308892  +0.17  -1.13
iter:  23 11:23:24  -312.022195  -0.03  -1.18
iter:  24 11:25:48  -311.949822  -0.25  -1.23
Writing to output.gpw (mode='')

iter:  25 11:28:20  -311.756004  -0.10  -1.25
iter:  26 11:32:39  -311.677589  -0.39  -1.36
iter:  27 11:35:08  -311.690361  -0.61  -1.58
iter:  28 11:37:43  -311.683261c -0.85  -1.64
iter:  29 11:39:56  -311.688898c -1.01  -1.77
Writing to output.gpw (mode='')

iter:  30 11:41:28  -311.689706c -0.83  -1.88
iter:  31 11:43:42  -311.687971c -1.38  -2.01
iter:  32 11:45:35  -311.691103c -1.63  -2.12
iter:  33 11:47:19  -311.693998c -1.50  -2.13
iter:  34 11:49:30  -311.696777c -1.86  -2.17
Writing to output.gpw (mode='')

iter:  35 11:51:13  -311.697191c -2.18  -2.45
iter:  36 11:55:19  -311.698452c -2.19  -2.45
iter:  37 11:58:34  -311.698571c -2.13  -2.60
iter:  38 12:00:23  -311.699459c -2.35  -2.85
iter:  39 12:02:14  -311.700098c -2.39  -2.86
Writing to output.gpw (mode='')

iter:  40 12:06:32  -311.700875c -2.27  -2.95
iter:  41 12:09:25  -311.701395c -2.72  -3.07
iter:  42 12:11:28  -311.701763c -2.85  -3.13
iter:  43 12:13:19  -311.702148c -2.73  -3.16
iter:  44 12:15:05  -311.702429c -2.89  -3.14
Writing to output.gpw (mode='')

iter:  45 12:16:55  -311.702723c -2.94  -3.08
iter:  46 12:18:36  -311.702912c -2.95  -3.07
iter:  47 12:22:06  -311.703033c -3.35  -3.06
iter:  48 12:24:51  -311.703137c -3.42  -3.01
iter:  49 12:28:48  -311.703228c -3.18  -3.09
Writing to output.gpw (mode='')

iter:  50 12:30:48  -311.703379c -3.47  -2.99
iter:  51 12:34:42  -311.703468c -3.49  -3.15
iter:  52 12:37:36  -311.703537c -3.46  -3.20
iter:  53 12:40:49  -311.703558c -3.88  -3.38
iter:  54 12:43:13  -311.703558c -3.72  -3.43
Writing to output.gpw (mode='')

iter:  55 12:46:15  -311.703591c -3.80  -3.66
iter:  56 12:48:19  -311.703619c -4.00  -3.77
iter:  57 12:50:37  -311.703644c -3.99  -3.86
iter:  58 12:52:56  -311.703659c -4.13  -3.96
iter:  59 12:57:24  -311.703668c -4.37  -4.03c
Writing to output.gpw (mode='')

iter:  60 12:59:57  -311.703675c -4.46  -4.10c
iter:  61 13:02:42  -311.703682c -4.61  -4.16c
iter:  62 13:05:04  -311.703688c -4.70  -4.40c
iter:  63 13:08:23  -311.703696c -4.67  -4.47c
iter:  64 13:11:32  -311.703699c -4.75  -4.60c
Writing to output.gpw (mode='')

iter:  65 13:14:43  -311.703703c -4.71  -4.73c
iter:  66 13:18:16  -311.703707c -4.93  -4.73c
iter:  67 13:21:41  -311.703710c -5.00  -4.74c
iter:  68 13:25:46  -311.703712c -5.10  -4.88c
iter:  69 13:30:00  -311.703714c -5.13  -4.93c
Writing to output.gpw (mode='')

iter:  70 13:34:47  -311.703715c -5.19  -4.94c
iter:  71 13:40:07  -311.703717c -5.32  -5.01c
iter:  72 13:44:41  -311.703718c -5.38  -5.12c
iter:  73 13:49:54  -311.703719c -5.33  -5.13c
iter:  74 13:53:52  -311.703720c -5.38  -5.12c
Writing to output.gpw (mode='')

iter:  75 13:57:10  -311.703721c -5.36  -5.12c
iter:  76 14:03:36  -311.703721c -5.63  -5.11c
iter:  77 14:10:08  -311.703722c -5.76  -5.00c
iter:  78 14:17:17  -311.703722c -5.81  -5.17c
iter:  79 14:21:22  -311.703722c -5.86  -5.20c
Writing to output.gpw (mode='')

iter:  80 14:26:52  -311.703723c -5.87  -5.06c
iter:  81 14:32:15  -311.703724c -5.77  -5.28c
iter:  82 14:38:48  -311.703724c -5.90  -5.54c
iter:  83 14:45:35  -311.703724c -5.98  -5.58c
iter:  84 14:50:46  -311.703724c -6.12  -5.69c
Writing to output.gpw (mode='')

iter:  85 14:55:26  -311.703724c -6.21  -5.75c
iter:  86 14:59:28  -311.703724c -6.24  -5.83c
iter:  87 15:04:18  -311.703724c -6.24  -5.87c
iter:  88 15:08:09  -311.703724c -6.35  -5.93c
iter:  89 15:12:39  -311.703724c -6.41  -5.90c
Writing to output.gpw (mode='')

iter:  90 15:17:22  -311.703724c -6.47  -5.72c
iter:  91 15:22:02  -311.703724c -6.50  -5.85c
iter:  92 15:25:57  -311.703724c -6.56  -5.97c
iter:  93 15:29:34  -311.703724c -6.56  -6.00c
iter:  94 15:34:35  -311.703724c -6.77  -6.00c
Writing to output.gpw (mode='')

iter:  95 15:40:00  -311.703724c -6.84  -5.95c
iter:  96 15:44:24  -311.703724c -6.89  -5.84c
iter:  97 15:48:08  -311.703724c -6.91  -5.73c
iter:  98 15:54:34  -311.703724c -6.99  -5.64c
iter:  99 16:00:58  -311.703724c -7.06  -5.65c
Writing to output.gpw (mode='')

iter: 100 16:06:55  -311.703724c -7.02  -5.86c
iter: 101 16:12:34  -311.703724c -7.12  -5.98c
iter: 102 16:17:48  -311.703724c -7.28  -5.96c
iter: 103 16:22:37  -311.703724c -7.22  -5.74c
iter: 104 16:26:57  -311.703724c -7.31  -5.80c
Writing to output.gpw (mode='')

iter: 105 16:32:07  -311.703724c -7.36  -5.67c
iter: 106 16:37:30  -311.703724c -7.46c -5.95c

Converged after 106 iterations.

Dipole moment: (-0.347367, -5.227496, -0.102550) |e|*Ang

Energy contributions relative to reference atoms: (reference = -14447.344205)

Kinetic:       +152.668622
Potential:     -144.218913
External:        +0.000000
XC:            -320.851684
Entropy (-ST):   -0.145982
Local:           +0.771242
--------------------------
Free energy:   -311.776715
Extrapolated:  -311.703724

Dipole-layer corrected work functions: 3.416845, 3.613981 eV

Showing only first 2 kpts
 Kpt  Band  Eigenvalues  Occupancy
  0    31     -3.75292    1.98285
  0    32     -3.69421    1.94554
  0    33     -3.49953    0.84254
  0    34     -3.44017    0.36339

  1    31     -3.81429    1.99494
  1    32     -3.76409    1.98626
  1    33     -3.43657    0.34247
  1    34     -3.37797    0.12030


Fermi level: -3.51541

No gap
Writing to output.gpw (mode='')


Forces in eV/Ang:
  0 Li   -0.00519    0.00041   -0.27916
  1 Li    0.00493    0.00154   -0.28617
  2 Li    0.00113   -0.00200   -0.23636
  3 Li    0.01120    0.02100   -0.28364
  4 Li   -0.01082    0.01205   -0.28720
  5 Li   -0.00101   -0.00436   -0.28697
  6 Li    0.01255   -0.01088   -0.29524
  7 Li   -0.02065   -0.01105   -0.28554
  8 Li    0.00074    0.00575   -0.27968
  9 Li   -0.00310    0.00565    0.25830
 10 Li    0.00354    0.01512    0.29395
 11 Li    0.01296    0.02858    0.26133
 12 Li   -0.03108   -0.01534    0.26109
 13 Li   -0.01191   -0.00960    0.27617
 14 Li    0.00910   -0.00422    0.29070
 15 Li   -0.01343   -0.00403    0.29436
 16 Li    0.00650   -0.01525    0.26728
 17 Li    0.01136    0.01489    0.28202
 18 Li    0.02793    0.01659   -0.00386
 19 Li   -0.05206   -0.02324   -0.04364
 20 Li    0.03735   -0.02275   -0.14093
 21 Li    0.00082   -0.00612   -0.00716
 22 Li   -0.01112    0.00593   -0.02463
 23 Li    0.01645    0.03217   -0.03604
 24 Li    0.01621   -0.01711   -0.00932
 25 Li    0.01004   -0.00416   -0.00279
 26 Li   -0.02367   -0.04414   -0.01615
 27 Li   -0.02695    0.02257    0.09661
 28 Li    0.00747   -0.00703    0.01406
 29 Li   -0.03769    0.02242    0.17851
 30 Li   -0.02658    0.03573    0.17367
 31 Li    0.00643    0.00447   -0.01074
 32 Li    0.02530   -0.02700    0.38414
 33 Li    0.00462   -0.01228    0.01920
 34 Li   -0.01438    0.01428   -0.03109
 35 Li    0.00024   -0.01203   -0.01580
 36 O     0.77955   -0.57606    0.97022
 37 C     0.13604   -0.07714   -0.11073
 38 C    -0.02567    0.00925   -0.00066
 39 H    -0.02848    0.01023    0.00338
 40 H    -0.02349   -0.06130    0.02776
 41 H     0.02712   -0.00101    0.02762
 42 H    -0.00995    0.01320    0.02296
 43 H     0.00611   -0.00370   -0.03277
 44 H    -0.31717    0.35886   -0.47187
 45 N     0.07579   -0.09146   -1.63184
 46 N     0.89135   -0.88936    1.38892
 47 H    -1.46962    1.29461   -0.75087

System changes: positions 

Initializing position-dependent things.

Density initialized from wave functions
       .-----------------------.  
      /|                       |  
     / |                       |  
    /  |                       |  
   /   |                       |  
  /    |                     H |  
 *     |                 H     |  
 |     |                       |  
 |     |             H         |  
 |     |            H C  H     |  
 |     |                       |  
 |     |              C        |  
 |     Li      Li    H O       |  
 |     |                       |  
 |   Li|     Li      Hi        |  
 |     |  Li      Li      Li   |  
 |     |   Li      LiN    Li   |  
 |     |Li      LiLi   NLi     |  
 |     |                       |  
 |   LLi     LLi     LLi       |  
 |     |  Li      Li      Li   |  
 | Li  |   Li      Li          |  
 |     |Li      Li      Li     |  
 Li    | Li      Li            |  
 |    Li      Li      Li       |  
 |     |                       |  
 |     |                       |  
 |     |                       |  
 |     |                       |  
 |     |                       |  
 |     |                       |  
 |     .-----------------------.  
 |    /                       /   
 |   /                       /    
 |  /                       /     
 | /                       /      
 |/                       /       
 *-----------------------*        

Positions:
   0 Li     1.617037    1.617037   10.000000    ( 0.0000,  0.0000,  0.0000)
   1 Li     4.851111    1.617037   10.000000    ( 0.0000,  0.0000,  0.0000)
   2 Li     8.085185    1.617037   10.000000    ( 0.0000,  0.0000,  0.0000)
   3 Li     1.617037    4.851111   10.000000    ( 0.0000,  0.0000,  0.0000)
   4 Li     4.851111    4.851111   10.000000    ( 0.0000,  0.0000,  0.0000)
   5 Li     8.085185    4.851111   10.000000    ( 0.0000,  0.0000,  0.0000)
   6 Li     1.617037    8.085185   10.000000    ( 0.0000,  0.0000,  0.0000)
   7 Li     4.851111    8.085185   10.000000    ( 0.0000,  0.0000,  0.0000)
   8 Li     8.085185    8.085185   10.000000    ( 0.0000,  0.0000,  0.0000)
   9 Li     0.000000    0.000000   11.617037    ( 0.0000,  0.0000,  0.0000)
  10 Li     3.234074    0.000000   11.617037    ( 0.0000,  0.0000,  0.0000)
  11 Li     6.468148    0.000000   11.617037    ( 0.0000,  0.0000,  0.0000)
  12 Li     0.000000    3.234074   11.617037    ( 0.0000,  0.0000,  0.0000)
  13 Li     3.234074    3.234074   11.617037    ( 0.0000,  0.0000,  0.0000)
  14 Li     6.468148    3.234074   11.617037    ( 0.0000,  0.0000,  0.0000)
  15 Li     0.000000    6.468148   11.617037    ( 0.0000,  0.0000,  0.0000)
  16 Li     3.234074    6.468148   11.617037    ( 0.0000,  0.0000,  0.0000)
  17 Li     6.468148    6.468148   11.617037    ( 0.0000,  0.0000,  0.0000)
  18 Li     1.597267    1.576673   13.494951    ( 0.0000,  0.0000,  0.0000)
  19 Li     4.854846    1.670854   13.500545    ( 0.0000,  0.0000,  0.0000)
  20 Li     8.079086    1.621786   13.539600    ( 0.0000,  0.0000,  0.0000)
  21 Li     1.564732    4.786328   13.495006    ( 0.0000,  0.0000,  0.0000)
  22 Li     4.807422    4.893660   13.499869    ( 0.0000,  0.0000,  0.0000)
  23 Li     8.039771    4.851741   13.501203    ( 0.0000,  0.0000,  0.0000)
  24 Li     1.663526    8.033509   13.477224    ( 0.0000,  0.0000,  0.0000)
  25 Li     4.903108    8.136101   13.485074    ( 0.0000,  0.0000,  0.0000)
  26 Li     8.130151    8.111636   13.500319    ( 0.0000,  0.0000,  0.0000)
  27 Li     0.115275   -0.134292   15.470060    ( 0.0000,  0.0000,  0.0000)
  28 Li     3.355269   -0.049740   15.402610    ( 0.0000,  0.0000,  0.0000)
  29 Li     6.702025    0.220144   15.538830    ( 0.0000,  0.0000,  0.0000)
  30 Li    -0.262069    2.946241   15.604553    ( 0.0000,  0.0000,  0.0000)
  31 Li     3.071946    3.274523   15.457875    ( 0.0000,  0.0000,  0.0000)
  32 Li     6.337262    3.351257   15.491196    ( 0.0000,  0.0000,  0.0000)
  33 Li     0.053811    6.335874   15.406277    ( 0.0000,  0.0000,  0.0000)
  34 Li     3.243735    6.465504   15.468307    ( 0.0000,  0.0000,  0.0000)
  35 Li     6.423102    6.624493   15.450473    ( 0.0000,  0.0000,  0.0000)
  36 O      8.564716    1.306937   19.171514    ( 0.0000,  0.0000,  0.0000)
  37 C      8.255734    0.599275   20.365412    ( 0.0000,  0.0000,  0.0000)
  38 C      8.116883    1.512394   21.577634    ( 0.0000,  0.0000,  0.0000)
  39 H      7.348374   -0.008753   20.237186    ( 0.0000,  0.0000,  0.0000)
  40 H      9.092995   -0.085869   20.507266    ( 0.0000,  0.0000,  0.0000)
  41 H      7.909095    0.922170   22.472843    ( 0.0000,  0.0000,  0.0000)
  42 H      9.038393    2.076897   21.732732    ( 0.0000,  0.0000,  0.0000)
  43 H      7.296420    2.222782   21.449229    ( 0.0000,  0.0000,  0.0000)
  44 H      7.792095    1.880645   18.935849    ( 0.0000,  0.0000,  0.0000)
  45 N      8.505401    1.142973   15.509744    ( 0.0000,  0.0000,  0.0000)
  46 N      7.630898    2.024425   15.576954    ( 0.0000,  0.0000,  0.0000)
  47 H      7.597005    2.055494   17.461722    ( 0.0000,  0.0000,  0.0000)

Unit cell:
           periodic     x           y           z      points  spacing
  1. axis:    yes    9.702222    0.000000    0.000000    60     0.1617
  2. axis:    yes    0.000000    9.702222    0.000000    60     0.1617
  3. axis:    no     0.000000    0.000000   24.851111   156     0.1593

  Lengths:   9.702222   9.702222  24.851111
  Angles:   90.000000  90.000000  90.000000

Effective grid spacing dv^(1/3) = 0.1609

     iter     time        total  log10-change:
                         energy  eigst   dens
iter:   1 16:43:57  -311.920371  -0.97
iter:   2 16:51:07  -311.889071  -1.58  -1.93
iter:   3 16:56:24  -311.871008  -1.69  -2.03
iter:   4 17:02:12  -311.866471c -1.71  -2.21
Writing to output.gpw (mode='')

iter:   5 17:08:22  -311.865097c -2.33  -2.43
iter:   6 17:13:12  -311.863953c -2.11  -2.57
iter:   7 17:18:08  -311.863220c -2.33  -2.53
iter:   8 17:24:23  -311.863092c -2.91  -2.87
iter:   9 17:29:57  -311.863185c -3.18  -2.99
Writing to output.gpw (mode='')

iter:  10 17:31:56  -311.863191c -3.49  -3.02
iter:  11 17:34:18  -311.863283c -3.49  -3.24
iter:  12 17:36:15  -311.863226c -4.12  -3.29
iter:  13 17:38:39  -311.863217c -4.29  -3.35
iter:  14 17:41:09  -311.863188c -4.27  -3.38
Writing to output.gpw (mode='')

iter:  15 17:45:05  -311.863155c -4.27  -3.47
iter:  16 17:49:11  -311.863190c -4.22  -3.48
iter:  17 17:52:18  -311.863196c -5.05  -3.62
iter:  18 17:54:54  -311.863195c -5.10  -3.80
iter:  19 17:57:04  -311.863217c -5.11  -3.84
Writing to output.gpw (mode='')

iter:  20 17:58:39  -311.863229c -5.16  -4.00
iter:  21 18:01:52  -311.863213c -5.73  -4.16c
iter:  22 18:05:02  -311.863203c -5.58  -4.28c
iter:  23 18:10:21  -311.863211c -5.75  -4.40c
iter:  24 18:13:13  -311.863212c -6.15  -4.59c
Writing to output.gpw (mode='')

iter:  25 18:16:38  -311.863215c -6.03  -4.61c
iter:  26 18:19:23  -311.863217c -6.17  -4.73c
iter:  27 18:22:41  -311.863216c -6.35  -4.86c
iter:  28 18:24:07  -311.863217c -6.61  -4.83c
iter:  29 18:25:32  -311.863217c -6.66  -4.89c
Writing to output.gpw (mode='')

iter:  30 18:27:18  -311.863217c -6.78  -4.97c
iter:  31 18:29:51  -311.863217c -7.02  -4.88c
iter:  32 18:32:26  -311.863217c -7.15  -5.17c
iter:  33 18:35:22  -311.863218c -7.41c -5.28c

Converged after 33 iterations.

Dipole moment: (-0.301839, -5.264677, -0.127429) |e|*Ang

Energy contributions relative to reference atoms: (reference = -14447.344205)

Kinetic:       +153.091020
Potential:     -144.671431
External:        +0.000000
XC:            -320.983218
Entropy (-ST):   -0.144986
Local:           +0.772905
--------------------------
Free energy:   -311.935711
Extrapolated:  -311.863218

Dipole-layer corrected work functions: 3.417255, 3.662217 eV

Showing only first 2 kpts
 Kpt  Band  Eigenvalues  Occupancy
  0    31     -3.77797    1.98309
  0    32     -3.72087    1.94797
  0    33     -3.52340    0.83813
  0    34     -3.46462    0.36415

  1    31     -3.82965    1.99395
  1    32     -3.79459    1.98785
  1    33     -3.46218    0.34982
  1    34     -3.40178    0.11915


Fermi level: -3.53974

No gap
Writing to output.gpw (mode='')


Forces in eV/Ang:
  0 Li   -0.00450    0.00039   -0.27847
  1 Li    0.00413    0.00081   -0.28608
  2 Li    0.00143   -0.00230   -0.23551
  3 Li    0.01143    0.02084   -0.28336
  4 Li   -0.01030    0.01154   -0.28758
  5 Li   -0.00028   -0.00351   -0.28681
  6 Li    0.01277   -0.01109   -0.29591
  7 Li   -0.02043   -0.01125   -0.28527
  8 Li    0.00075    0.00506   -0.27898
  9 Li   -0.00084    0.00340    0.25333
 10 Li    0.00259    0.01567    0.29298
 11 Li    0.01350    0.02890    0.26270
 12 Li   -0.03139   -0.01582    0.26238
 13 Li   -0.01140   -0.00856    0.27428
 14 Li    0.00876   -0.00391    0.29098
 15 Li   -0.01405   -0.00310    0.29340
 16 Li    0.00680   -0.01558    0.26839
 17 Li    0.01029    0.01414    0.28009
 18 Li    0.02858    0.01918   -0.00323
 19 Li   -0.05738   -0.02188   -0.04476
 20 Li    0.02686   -0.01211   -0.16745
 21 Li   -0.00144   -0.00685   -0.00648
 22 Li   -0.00847    0.00327   -0.02140
 23 Li    0.01535    0.03720   -0.03676
 24 Li    0.01543   -0.01641   -0.00952
 25 Li    0.01081   -0.00186   -0.00221
 26 Li   -0.02640   -0.04494   -0.01559
 27 Li    0.00762   -0.01168    0.08167
 28 Li    0.00836   -0.00433    0.01437
 29 Li   -0.06188   -0.00817    0.17089
 30 Li    0.00575    0.05747    0.16650
 31 Li    0.00798    0.00173   -0.01046
 32 Li    0.09390   -0.09810    0.39452
 33 Li    0.00186   -0.01301    0.01930
 34 Li   -0.01360    0.01346   -0.03045
 35 Li    0.00302   -0.01366   -0.01542
 36 O    -0.02159    0.24231    0.34212
 37 C     0.04967   -0.12959    0.15314
 38 C    -0.00082   -0.04963    0.02607
 39 H    -0.01911    0.00520    0.00158
 40 H     0.00821   -0.13177    0.09025
 41 H     0.02135    0.00928    0.02448
 42 H    -0.01435    0.01043    0.01775
 43 H    -0.00699    0.00142   -0.04134
 44 H     0.49343   -0.24426   -0.30261
 45 N     0.56708   -0.50719   -1.37958
 46 N     0.21482   -0.25727    1.33678
 47 H    -1.35149    1.19264   -0.76450

System changes: positions 

Initializing position-dependent things.

Density initialized from wave functions
       .-----------------------.  
      /|                       |  
     / |                       |  
    /  |                       |  
   /   |                       |  
  /    |                     H |  
 *     |                 H     |  
 |     |                       |  
 |     |             H         |  
 |     |            H C  H     |  
 |     |                       |  
 |     |              C        |  
 |     Li      Li    H O       |  
 |     |                       |  
 |   Li|     Li      Hi        |  
 |     |  Li      Li      Li   |  
 |     |   Li      LiN    Li   |  
 |     |Li      LiLi   NLi     |  
 |     |                       |  
 |   LLi     LLi     LLi       |  
 |     |  Li      Li      Li   |  
 | Li  |   Li      Li          |  
 |     |Li      Li      Li     |  
 Li    | Li      Li            |  
 |    Li      Li      Li       |  
 |     |                       |  
 |     |                       |  
 |     |                       |  
 |     |                       |  
 |     |                       |  
 |     |                       |  
 |     .-----------------------.  
 |    /                       /   
 |   /                       /    
 |  /                       /     
 | /                       /      
 |/                       /       
 *-----------------------*        

Positions:
   0 Li     1.617037    1.617037   10.000000    ( 0.0000,  0.0000,  0.0000)
   1 Li     4.851111    1.617037   10.000000    ( 0.0000,  0.0000,  0.0000)
   2 Li     8.085185    1.617037   10.000000    ( 0.0000,  0.0000,  0.0000)
   3 Li     1.617037    4.851111   10.000000    ( 0.0000,  0.0000,  0.0000)
   4 Li     4.851111    4.851111   10.000000    ( 0.0000,  0.0000,  0.0000)
   5 Li     8.085185    4.851111   10.000000    ( 0.0000,  0.0000,  0.0000)
   6 Li     1.617037    8.085185   10.000000    ( 0.0000,  0.0000,  0.0000)
   7 Li     4.851111    8.085185   10.000000    ( 0.0000,  0.0000,  0.0000)
   8 Li     8.085185    8.085185   10.000000    ( 0.0000,  0.0000,  0.0000)
   9 Li     0.000000    0.000000   11.617037    ( 0.0000,  0.0000,  0.0000)
  10 Li     3.234074    0.000000   11.617037    ( 0.0000,  0.0000,  0.0000)
  11 Li     6.468148    0.000000   11.617037    ( 0.0000,  0.0000,  0.0000)
  12 Li     0.000000    3.234074   11.617037    ( 0.0000,  0.0000,  0.0000)
  13 Li     3.234074    3.234074   11.617037    ( 0.0000,  0.0000,  0.0000)
  14 Li     6.468148    3.234074   11.617037    ( 0.0000,  0.0000,  0.0000)
  15 Li     0.000000    6.468148   11.617037    ( 0.0000,  0.0000,  0.0000)
  16 Li     3.234074    6.468148   11.617037    ( 0.0000,  0.0000,  0.0000)
  17 Li     6.468148    6.468148   11.617037    ( 0.0000,  0.0000,  0.0000)
  18 Li     1.597829    1.577033   13.494882    ( 0.0000,  0.0000,  0.0000)
  19 Li     4.853750    1.670409   13.499666    ( 0.0000,  0.0000,  0.0000)
  20 Li     8.079705    1.621459   13.536493    ( 0.0000,  0.0000,  0.0000)
  21 Li     1.564722    4.786198   13.494872    ( 0.0000,  0.0000,  0.0000)
  22 Li     4.807232    4.893746   13.499418    ( 0.0000,  0.0000,  0.0000)
  23 Li     8.040084    4.852438   13.500480    ( 0.0000,  0.0000,  0.0000)
  24 Li     1.663839    8.033177   13.477037    ( 0.0000,  0.0000,  0.0000)
  25 Li     4.903316    8.136046   13.485025    ( 0.0000,  0.0000,  0.0000)
  26 Li     8.129649    8.110751   13.500005    ( 0.0000,  0.0000,  0.0000)
  27 Li     0.115143   -0.134243   15.471804    ( 0.0000,  0.0000,  0.0000)
  28 Li     3.355428   -0.049849   15.402893    ( 0.0000,  0.0000,  0.0000)
  29 Li     6.700995    0.220233   15.542284    ( 0.0000,  0.0000,  0.0000)
  30 Li    -0.262220    2.947204   15.607917    ( 0.0000,  0.0000,  0.0000)
  31 Li     3.072092    3.274579   15.457665    ( 0.0000,  0.0000,  0.0000)
  32 Li     6.338564    3.349893   15.498942    ( 0.0000,  0.0000,  0.0000)
  33 Li     0.053870    6.335622   15.406659    ( 0.0000,  0.0000,  0.0000)
  34 Li     3.243459    6.465778   15.467697    ( 0.0000,  0.0000,  0.0000)
  35 Li     6.423139    6.624235   15.450164    ( 0.0000,  0.0000,  0.0000)
  36 O      8.570856    1.305037   19.183454    ( 0.0000,  0.0000,  0.0000)
  37 C      8.257428    0.597133   20.366288    ( 0.0000,  0.0000,  0.0000)
  38 C      8.116663    1.511892   21.577932    ( 0.0000,  0.0000,  0.0000)
  39 H      7.347918   -0.008609   20.237232    ( 0.0000,  0.0000,  0.0000)
  40 H      9.092898   -0.087906   20.508545    ( 0.0000,  0.0000,  0.0000)
  41 H      7.909566    0.922270   22.473355    ( 0.0000,  0.0000,  0.0000)
  42 H      9.038145    2.077127   21.733127    ( 0.0000,  0.0000,  0.0000)
  43 H      7.296389    2.222768   21.448479    ( 0.0000,  0.0000,  0.0000)
  44 H      7.795243    1.880741   18.928455    ( 0.0000,  0.0000,  0.0000)
  45 N      8.512629    1.136314   15.480294    ( 0.0000,  0.0000,  0.0000)
  46 N      7.640708    2.014137   15.603915    ( 0.0000,  0.0000,  0.0000)
  47 H      7.569212    2.080003   17.446659    ( 0.0000,  0.0000,  0.0000)

Unit cell:
           periodic     x           y           z      points  spacing
  1. axis:    yes    9.702222    0.000000    0.000000    60     0.1617
  2. axis:    yes    0.000000    9.702222    0.000000    60     0.1617
  3. axis:    no     0.000000    0.000000   24.851111   156     0.1593

  Lengths:   9.702222   9.702222  24.851111
  Angles:   90.000000  90.000000  90.000000

Effective grid spacing dv^(1/3) = 0.1609

     iter     time        total  log10-change:
                         energy  eigst   dens
iter:   1 18:39:54  -312.038394  -0.99
iter:   2 18:42:00  -312.033782  -1.56  -2.09
iter:   3 18:45:59  -312.030925c -1.97  -2.22
iter:   4 18:49:22  -312.028060c -1.85  -2.47
Writing to output.gpw (mode='')

iter:   5 18:51:55  -312.028445c -2.42  -2.59
iter:   6 18:54:04  -312.028861c -2.53  -2.77
iter:   7 18:56:53  -312.028411c -2.71  -2.79
iter:   8 18:59:40  -312.028504c -3.09  -3.03
iter:   9 19:01:59  -312.028500c -3.42  -3.11
Writing to output.gpw (mode='')

iter:  10 19:04:54  -312.028380c -3.50  -3.15
iter:  11 19:08:45  -312.028449c -3.95  -3.23
iter:  12 19:11:34  -312.028468c -4.16  -3.30
iter:  13 19:15:38  -312.028549c -4.20  -3.40
iter:  14 19:18:22  -312.028536c -4.56  -3.56
Writing to output.gpw (mode='')

iter:  15 19:22:47  -312.028590c -4.45  -3.64
iter:  16 19:25:50  -312.028608c -4.71  -3.92
iter:  17 19:28:37  -312.028592c -5.12  -3.84
iter:  18 19:30:52  -312.028583c -5.07  -4.00c
iter:  19 19:32:30  -312.028581c -5.43  -4.21c
Writing to output.gpw (mode='')

iter:  20 19:35:49  -312.028576c -5.54  -4.29c
iter:  21 19:40:36  -312.028572c -5.60  -4.36c
iter:  22 19:44:17  -312.028570c -5.78  -4.46c
iter:  23 19:47:19  -312.028575c -5.97  -4.55c
iter:  24 19:49:02  -312.028583c -5.98  -4.67c
Writing to output.gpw (mode='')

iter:  25 19:52:30  -312.028582c -6.23  -4.88c
iter:  26 19:54:59  -312.028579c -6.22  -4.93c
iter:  27 19:57:16  -312.028579c -6.29  -5.07c
iter:  28 20:00:12  -312.028578c -6.46  -5.19c
iter:  29 20:03:50  -312.028579c -6.66  -5.22c
Writing to output.gpw (mode='')

iter:  30 20:07:06  -312.028579c -6.82  -5.36c
iter:  31 20:10:28  -312.028579c -6.91  -5.45c
iter:  32 20:15:51  -312.028579c -7.01  -5.54c
iter:  33 20:18:50  -312.028579c -7.08  -5.51c
iter:  34 20:20:26  -312.028579c -7.12  -5.53c
Writing to output.gpw (mode='')

iter:  35 20:22:50  -312.028579c -7.26  -5.51c
iter:  36 20:25:14  -312.028579c -7.43c -5.39c

Converged after 36 iterations.

Dipole moment: (-0.276218, -5.265512, -0.133085) |e|*Ang

Energy contributions relative to reference atoms: (reference = -14447.344205)

Kinetic:       +152.960446
Potential:     -144.638681
External:        +0.000000
XC:            -321.053283
Entropy (-ST):   -0.144183
Local:           +0.775030
--------------------------
Free energy:   -312.100671
Extrapolated:  -312.028579

Dipole-layer corrected work functions: 3.417692, 3.673527 eV

Showing only first 2 kpts
 Kpt  Band  Eigenvalues  Occupancy
  0    31     -3.78453    1.98332
  0    32     -3.72761    1.94884
  0    33     -3.52886    0.83403
  0    34     -3.47029    0.36295

  1    31     -3.83499    1.99389
  1    32     -3.80287    1.98841
  1    33     -3.46911    0.35598
  1    34     -3.40928    0.12285


Fermi level: -3.54561

No gap
Writing to output.gpw (mode='')


Forces in eV/Ang:
  0 Li   -0.00403    0.00034   -0.27707
  1 Li    0.00373    0.00010   -0.28613
  2 Li    0.00152   -0.00236   -0.23426
  3 Li    0.01134    0.02065   -0.28296
  4 Li   -0.00941    0.01068   -0.28763
  5 Li    0.00042   -0.00310   -0.28684
  6 Li    0.01312   -0.01146   -0.29594
  7 Li   -0.02020   -0.01117   -0.28486
  8 Li    0.00079    0.00457   -0.27753
  9 Li    0.00287   -0.00026    0.24436
 10 Li    0.00139    0.01662    0.29288
 11 Li    0.01277    0.02867    0.26113
 12 Li   -0.03111   -0.01508    0.26072
 13 Li   -0.01137   -0.00723    0.27259
 14 Li    0.00837   -0.00359    0.28920
 15 Li   -0.01511   -0.00195    0.29327
 16 Li    0.00734   -0.01612    0.26918
 17 Li    0.00897    0.01382    0.27835
 18 Li    0.02591    0.02198   -0.00017
 19 Li   -0.06190   -0.01954   -0.04391
 20 Li    0.01735   -0.00304   -0.16586
 21 Li   -0.00275   -0.00600   -0.00604
 22 Li   -0.00564    0.00051   -0.01740
 23 Li    0.01335    0.04194   -0.03582
 24 Li    0.01647   -0.01750   -0.01073
 25 Li    0.00994   -0.00055   -0.00189
 26 Li   -0.02924   -0.04164   -0.01185
 27 Li    0.07104   -0.07319    0.06686
 28 Li    0.01001   -0.00370    0.01381
 29 Li   -0.05250   -0.01368    0.15779
 30 Li    0.01336    0.04807    0.15208
 31 Li    0.01080    0.00099   -0.01074
 32 Li    0.14016   -0.14667    0.40093
 33 Li    0.00108   -0.01451    0.01850
 34 Li   -0.01279    0.01266   -0.02933
 35 Li    0.00381   -0.01663   -0.01557
 36 O    -0.20309    0.52207   -0.07785
 37 C    -0.05061   -0.09838    0.28738
 38 C     0.00964   -0.07184    0.06032
 39 H    -0.00774   -0.00247    0.00366
 40 H     0.03688   -0.17390    0.12132
 41 H     0.01286    0.01310    0.03971
 42 H    -0.02047    0.00202    0.01214
 43 H    -0.00415   -0.01232   -0.04601
 44 H     0.71572   -0.44451   -0.18744
 45 N     0.51208   -0.47795   -1.03957
 46 N     0.05677   -0.00963    1.20237
 47 H    -1.17791    1.04561   -0.84993

System changes: positions 

Initializing position-dependent things.

Density initialized from wave functions
       .-----------------------.  
      /|                       |  
     / |                       |  
    /  |                       |  
   /   |                       |  
  /    |                     H |  
 *     |                 H     |  
 |     |                       |  
 |     |             H         |  
 |     |            H C  H     |  
 |     |                       |  
 |     |              C        |  
 |     Li      Li    H O       |  
 |     |                       |  
 |   Li|     Li      Hi        |  
 |     |  Li      Li      Li   |  
 |     |   Li      LiN    Li   |  
 |     |Li      LiLi   NLi     |  
 |     |                       |  
 |   LLi     LLi     LLi       |  
 |     |  Li      Li      Li   |  
 | Li  |   Li      Li          |  
 |     |Li      Li      Li     |  
 Li    | Li      Li            |  
 |    Li      Li      Li       |  
 |     |                       |  
 |     |                       |  
 |     |                       |  
 |     |                       |  
 |     |                       |  
 |     |                       |  
 |     .-----------------------.  
 |    /                       /   
 |   /                       /    
 |  /                       /     
 | /                       /      
 |/                       /       
 *-----------------------*        

Positions:
   0 Li     1.617037    1.617037   10.000000    ( 0.0000,  0.0000,  0.0000)
   1 Li     4.851111    1.617037   10.000000    ( 0.0000,  0.0000,  0.0000)
   2 Li     8.085185    1.617037   10.000000    ( 0.0000,  0.0000,  0.0000)
   3 Li     1.617037    4.851111   10.000000    ( 0.0000,  0.0000,  0.0000)
   4 Li     4.851111    4.851111   10.000000    ( 0.0000,  0.0000,  0.0000)
   5 Li     8.085185    4.851111   10.000000    ( 0.0000,  0.0000,  0.0000)
   6 Li     1.617037    8.085185   10.000000    ( 0.0000,  0.0000,  0.0000)
   7 Li     4.851111    8.085185   10.000000    ( 0.0000,  0.0000,  0.0000)
   8 Li     8.085185    8.085185   10.000000    ( 0.0000,  0.0000,  0.0000)
   9 Li     0.000000    0.000000   11.617037    ( 0.0000,  0.0000,  0.0000)
  10 Li     3.234074    0.000000   11.617037    ( 0.0000,  0.0000,  0.0000)
  11 Li     6.468148    0.000000   11.617037    ( 0.0000,  0.0000,  0.0000)
  12 Li     0.000000    3.234074   11.617037    ( 0.0000,  0.0000,  0.0000)
  13 Li     3.234074    3.234074   11.617037    ( 0.0000,  0.0000,  0.0000)
  14 Li     6.468148    3.234074   11.617037    ( 0.0000,  0.0000,  0.0000)
  15 Li     0.000000    6.468148   11.617037    ( 0.0000,  0.0000,  0.0000)
  16 Li     3.234074    6.468148   11.617037    ( 0.0000,  0.0000,  0.0000)
  17 Li     6.468148    6.468148   11.617037    ( 0.0000,  0.0000,  0.0000)
  18 Li     1.598385    1.577448   13.494850    ( 0.0000,  0.0000,  0.0000)
  19 Li     4.852537    1.669969   13.498751    ( 0.0000,  0.0000,  0.0000)
  20 Li     8.080239    1.621225   13.533266    ( 0.0000,  0.0000,  0.0000)
  21 Li     1.564696    4.786074   13.494735    ( 0.0000,  0.0000,  0.0000)
  22 Li     4.807068    4.893803   13.498993    ( 0.0000,  0.0000,  0.0000)
  23 Li     8.040389    4.853234   13.499729    ( 0.0000,  0.0000,  0.0000)
  24 Li     1.664184    8.032811   13.476822    ( 0.0000,  0.0000,  0.0000)
  25 Li     4.903523    8.136002   13.484978    ( 0.0000,  0.0000,  0.0000)
  26 Li     8.129083    8.109862   13.499725    ( 0.0000,  0.0000,  0.0000)
  27 Li     0.115841   -0.135003   15.473458    ( 0.0000,  0.0000,  0.0000)
  28 Li     3.355617   -0.049957   15.403183    ( 0.0000,  0.0000,  0.0000)
  29 Li     6.700066    0.220287   15.545760    ( 0.0000,  0.0000,  0.0000)
  30 Li    -0.262313    2.948064   15.611278    ( 0.0000,  0.0000,  0.0000)
  31 Li     3.072283    3.274632   15.457439    ( 0.0000,  0.0000,  0.0000)
  32 Li     6.340497    3.347864   15.507199    ( 0.0000,  0.0000,  0.0000)
  33 Li     0.053925    6.335335   15.407052    ( 0.0000,  0.0000,  0.0000)
  34 Li     3.243177    6.466058   15.467068    ( 0.0000,  0.0000,  0.0000)
  35 Li     6.423186    6.623924   15.449835    ( 0.0000,  0.0000,  0.0000)
  36 O      8.575783    1.305928   19.190996    ( 0.0000,  0.0000,  0.0000)
  37 C      8.257931    0.595366   20.368758    ( 0.0000,  0.0000,  0.0000)
  38 C      8.116546    1.511124   21.578690    ( 0.0000,  0.0000,  0.0000)
  39 H      7.347582   -0.008556   20.237312    ( 0.0000,  0.0000,  0.0000)
  40 H      9.093155   -0.090558   20.510252    ( 0.0000,  0.0000,  0.0000)
  41 H      7.909953    0.922416   22.474110    ( 0.0000,  0.0000,  0.0000)
  42 H      9.037802    2.077256   21.733472    ( 0.0000,  0.0000,  0.0000)
  43 H      7.296411    2.222557   21.447632    ( 0.0000,  0.0000,  0.0000)
  44 H      7.800679    1.878790   18.922040    ( 0.0000,  0.0000,  0.0000)
  45 N      8.518913    1.130184   15.453599    ( 0.0000,  0.0000,  0.0000)
  46 N      7.649688    2.005946   15.630589    ( 0.0000,  0.0000,  0.0000)
  47 H      7.542121    2.103972   17.429584    ( 0.0000,  0.0000,  0.0000)

Unit cell:
           periodic     x           y           z      points  spacing
  1. axis:    yes    9.702222    0.000000    0.000000    60     0.1617
  2. axis:    yes    0.000000    9.702222    0.000000    60     0.1617
  3. axis:    no     0.000000    0.000000   24.851111   156     0.1593

  Lengths:   9.702222   9.702222  24.851111
  Angles:   90.000000  90.000000  90.000000

Effective grid spacing dv^(1/3) = 0.1609

     iter     time        total  log10-change:
                         energy  eigst   dens
iter:   1 20:27:41  -312.176173  -1.03
iter:   2 20:31:12  -312.173207  -1.61  -2.16
iter:   3 20:36:12  -312.169123c -1.98  -2.28
iter:   4 20:38:17  -312.166230c -1.80  -2.49
Writing to output.gpw (mode='')

iter:   5 20:39:55  -312.166643c -2.57  -2.60
iter:   6 20:42:22  -312.167471c -2.49  -2.80
iter:   7 20:45:00  -312.166915c -2.57  -2.70
iter:   8 20:46:59  -312.166785c -3.16  -2.97
iter:   9 20:48:53  -312.166651c -3.14  -3.08
Writing to output.gpw (mode='')

iter:  10 20:50:24  -312.166657c -3.72  -3.10
iter:  11 20:52:12  -312.166580c -3.73  -3.33
iter:  12 20:53:41  -312.166579c -3.92  -3.39
iter:  13 20:55:40  -312.166629c -4.31  -3.39
iter:  14 20:57:49  -312.166736c -4.40  -3.49
Writing to output.gpw (mode='')

iter:  15 21:01:28  -312.166690c -4.77  -3.74
iter:  16 21:03:13  -312.166707c -4.98  -3.80
iter:  17 21:04:54  -312.166716c -5.04  -3.91
iter:  18 21:07:51  -312.166716c -5.08  -4.03c
iter:  19 21:10:55  -312.166712c -5.53  -4.31c
Writing to output.gpw (mode='')

iter:  20 21:13:53  -312.166708c -5.54  -4.32c
iter:  21 21:16:50  -312.166720c -5.70  -4.33c
iter:  22 21:19:00  -312.166722c -5.88  -4.53c
iter:  23 21:23:33  -312.166721c -6.03  -4.64c
iter:  24 21:25:44  -312.166721c -6.21  -4.69c
Writing to output.gpw (mode='')

iter:  25 21:28:44  -312.166717c -6.22  -4.79c
iter:  26 21:30:44  -312.166715c -6.35  -4.97c
iter:  27 21:33:30  -312.166715c -6.73  -5.11c
iter:  28 21:35:50  -312.166716c -6.68  -5.13c
iter:  29 21:37:30  -312.166717c -6.75  -5.29c
Writing to output.gpw (mode='')

iter:  30 21:39:17  -312.166717c -6.99  -5.35c
iter:  31 21:41:39  -312.166717c -7.18  -5.38c
iter:  32 21:44:52  -312.166717c -7.10  -5.61c
iter:  33 21:46:40  -312.166717c -7.13  -5.76c
iter:  34 21:48:07  -312.166717c -7.28  -5.86c
Writing to output.gpw (mode='')

iter:  35 21:49:46  -312.166717c -7.51c -5.91c

Converged after 35 iterations.

Dipole moment: (-0.262778, -5.228282, -0.127907) |e|*Ang

Energy contributions relative to reference atoms: (reference = -14447.344205)

Kinetic:       +152.632722
Potential:     -144.435086
External:        +0.000000
XC:            -321.069316
Entropy (-ST):   -0.143665
Local:           +0.776796
--------------------------
Free energy:   -312.238549
Extrapolated:  -312.166717

Dipole-layer corrected work functions: 3.417882, 3.663764 eV

Showing only first 2 kpts
 Kpt  Band  Eigenvalues  Occupancy
  0    31     -3.78024    1.98349
  0    32     -3.72327    1.94928
  0    33     -3.52369    0.83032
  0    34     -3.46515    0.36084

  1    31     -3.83120    1.99401
  1    32     -3.79849    1.98851
  1    33     -3.46525    0.36147
  1    34     -3.40660    0.12778


Fermi level: -3.54082

No gap

Forces in eV/Ang:
  0 Li   -0.00371    0.00023   -0.27572
  1 Li    0.00353   -0.00055   -0.28621
  2 Li    0.00153   -0.00233   -0.23322
  3 Li    0.01122    0.02056   -0.28261
  4 Li   -0.00859    0.00987   -0.28759
  5 Li    0.00104   -0.00289   -0.28691
  6 Li    0.01352   -0.01187   -0.29578
  7 Li   -0.02009   -0.01107   -0.28449
  8 Li    0.00085    0.00422   -0.27614
  9 Li    0.00637   -0.00377    0.23589
 10 Li    0.00029    0.01757    0.29288
 11 Li    0.01187    0.02839    0.25918
 12 Li   -0.03079   -0.01411    0.25863
 13 Li   -0.01151   -0.00598    0.27108
 14 Li    0.00804   -0.00333    0.28715
 15 Li   -0.01613   -0.00090    0.29322
 16 Li    0.00785   -0.01659    0.26963
 17 Li    0.00773    0.01362    0.27682
 18 Li    0.02256    0.02427    0.00313
 19 Li   -0.06524   -0.01708   -0.04226
 20 Li    0.00877    0.00464   -0.16175
 21 Li   -0.00367   -0.00495   -0.00563
 22 Li   -0.00282   -0.00219   -0.01332
 23 Li    0.01130    0.04566   -0.03424
 24 Li    0.01774   -0.01879   -0.01185
 25 Li    0.00887    0.00044   -0.00156
 26 Li   -0.03157   -0.03743   -0.00785
 27 Li    0.12207   -0.12310    0.05705
 28 Li    0.01188   -0.00354    0.01313
 29 Li   -0.03809   -0.01170    0.14264
 30 Li    0.01778    0.03439    0.13579
 31 Li    0.01400    0.00067   -0.01092
 32 Li    0.17300   -0.18063    0.40334
 33 Li    0.00079   -0.01625    0.01760
 34 Li   -0.01222    0.01210   -0.02814
 35 Li    0.00409   -0.01997   -0.01565
 36 O    -0.23845    0.59744   -0.26893
 37 C    -0.05751   -0.06228    0.29224
 38 C     0.00768   -0.06367    0.08144
 39 H    -0.00572   -0.00564    0.00239
 40 H     0.02637   -0.17253    0.13328
 41 H     0.00395    0.01134    0.06186
 42 H    -0.02320   -0.00617    0.00901
 43 H     0.00203   -0.02706   -0.04338
 44 H     0.75593   -0.50224   -0.11181
 45 N     0.44727   -0.35366   -0.70547
 46 N    -0.05178    0.07322    1.03684
 47 H    -0.99837    0.87324   -0.93608

System changes: positions 

Initializing position-dependent things.

Density initialized from wave functions
       .-----------------------.  
      /|                       |  
     / |                       |  
    /  |                       |  
   /   |                       |  
  /    |                     H |  
 *     |                 H     |  
 |     |                       |  
 |     |             H         |  
 |     |            H C  H     |  
 |     |                       |  
 |     |              C        |  
 |     Li      Li    H O       |  
 |     |                       |  
 |   Li|     Li      Hi        |  
 |     |  Li      Li      Li   |  
 |     |   Li      LiN    Li   |  
 |     |Li      LiLi   NLi     |  
 |     |                       |  
 |   LLi     LLi     LLi       |  
 |     |  Li      Li      Li   |  
 | Li  |   Li      Li          |  
 |     |Li      Li      Li     |  
 Li    | Li      Li            |  
 |    Li      Li      Li       |  
 |     |                       |  
 |     |                       |  
 |     |                       |  
 |     |                       |  
 |     |                       |  
 |     |                       |  
 |     .-----------------------.  
 |    /                       /   
 |   /                       /    
 |  /                       /     
 | /                       /      
 |/                       /       
 *-----------------------*        

Positions:
   0 Li     1.617037    1.617037   10.000000    ( 0.0000,  0.0000,  0.0000)
   1 Li     4.851111    1.617037   10.000000    ( 0.0000,  0.0000,  0.0000)
   2 Li     8.085185    1.617037   10.000000    ( 0.0000,  0.0000,  0.0000)
   3 Li     1.617037    4.851111   10.000000    ( 0.0000,  0.0000,  0.0000)
   4 Li     4.851111    4.851111   10.000000    ( 0.0000,  0.0000,  0.0000)
   5 Li     8.085185    4.851111   10.000000    ( 0.0000,  0.0000,  0.0000)
   6 Li     1.617037    8.085185   10.000000    ( 0.0000,  0.0000,  0.0000)
   7 Li     4.851111    8.085185   10.000000    ( 0.0000,  0.0000,  0.0000)
   8 Li     8.085185    8.085185   10.000000    ( 0.0000,  0.0000,  0.0000)
   9 Li     0.000000    0.000000   11.617037    ( 0.0000,  0.0000,  0.0000)
  10 Li     3.234074    0.000000   11.617037    ( 0.0000,  0.0000,  0.0000)
  11 Li     6.468148    0.000000   11.617037    ( 0.0000,  0.0000,  0.0000)
  12 Li     0.000000    3.234074   11.617037    ( 0.0000,  0.0000,  0.0000)
  13 Li     3.234074    3.234074   11.617037    ( 0.0000,  0.0000,  0.0000)
  14 Li     6.468148    3.234074   11.617037    ( 0.0000,  0.0000,  0.0000)
  15 Li     0.000000    6.468148   11.617037    ( 0.0000,  0.0000,  0.0000)
  16 Li     3.234074    6.468148   11.617037    ( 0.0000,  0.0000,  0.0000)
  17 Li     6.468148    6.468148   11.617037    ( 0.0000,  0.0000,  0.0000)
  18 Li     1.598929    1.577926   13.494866    ( 0.0000,  0.0000,  0.0000)
  19 Li     4.851191    1.669536   13.497797    ( 0.0000,  0.0000,  0.0000)
  20 Li     8.080682    1.621092   13.529877    ( 0.0000,  0.0000,  0.0000)
  21 Li     1.564654    4.785956   13.494596    ( 0.0000,  0.0000,  0.0000)
  22 Li     4.806934    4.893823   13.498600    ( 0.0000,  0.0000,  0.0000)
  23 Li     8.040684    4.854140   13.498951    ( 0.0000,  0.0000,  0.0000)
  24 Li     1.664572    8.032401   13.476577    ( 0.0000,  0.0000,  0.0000)
  25 Li     4.903729    8.135971   13.484932    ( 0.0000,  0.0000,  0.0000)
  26 Li     8.128444    8.108976   13.499485    ( 0.0000,  0.0000,  0.0000)
  27 Li     0.117346   -0.136557   15.475078    ( 0.0000,  0.0000,  0.0000)
  28 Li     3.355848   -0.050071   15.403483    ( 0.0000,  0.0000,  0.0000)
  29 Li     6.699285    0.220371   15.549246    ( 0.0000,  0.0000,  0.0000)
  30 Li    -0.262342    2.948782   15.614625    ( 0.0000,  0.0000,  0.0000)
  31 Li     3.072535    3.274684   15.457196    ( 0.0000,  0.0000,  0.0000)
  32 Li     6.343057    3.345185   15.516055    ( 0.0000,  0.0000,  0.0000)
  33 Li     0.053980    6.335003   15.407458    ( 0.0000,  0.0000,  0.0000)
  34 Li     3.242885    6.466347   15.466414    ( 0.0000,  0.0000,  0.0000)
  35 Li     6.423240    6.623541   15.449482    ( 0.0000,  0.0000,  0.0000)
  36 O      8.580431    1.308074   19.196181    ( 0.0000,  0.0000,  0.0000)
  37 C      8.258380    0.594006   20.371473    ( 0.0000,  0.0000,  0.0000)
  38 C      8.116392    1.510424   21.579813    ( 0.0000,  0.0000,  0.0000)
  39 H      7.347252   -0.008547   20.237377    ( 0.0000,  0.0000,  0.0000)
  40 H      9.093267   -0.093368   20.512257    ( 0.0000,  0.0000,  0.0000)
  41 H      7.910233    0.922546   22.475247    ( 0.0000,  0.0000,  0.0000)
  42 H      9.037397    2.077272   21.733795    ( 0.0000,  0.0000,  0.0000)
  43 H      7.296525    2.222114   21.446767    ( 0.0000,  0.0000,  0.0000)
  44 H      7.807163    1.875790   18.916326    ( 0.0000,  0.0000,  0.0000)
  45 N      8.524744    1.125440   15.430085    ( 0.0000,  0.0000,  0.0000)
  46 N      7.657569    1.998482   15.656606    ( 0.0000,  0.0000,  0.0000)
  47 H      7.515871    2.126990   17.410062    ( 0.0000,  0.0000,  0.0000)

Unit cell:
           periodic     x           y           z      points  spacing
  1. axis:    yes    9.702222    0.000000    0.000000    60     0.1617
  2. axis:    yes    0.000000    9.702222    0.000000    60     0.1617
  3. axis:    no     0.000000    0.000000   24.851111   156     0.1593

  Lengths:   9.702222   9.702222  24.851111
  Angles:   90.000000  90.000000  90.000000

Effective grid spacing dv^(1/3) = 0.1609

     iter     time        total  log10-change:
                         energy  eigst   dens
iter:   1 21:52:05  -312.292326  -1.07
iter:   2 21:53:44  -312.289942  -1.66  -2.21
iter:   3 21:55:55  -312.283779c -1.97  -2.32
iter:   4 21:58:14  -312.281582c -1.77  -2.49
Writing to output.gpw (mode='')

iter:   5 22:00:14  -312.282029c -2.57  -2.58
iter:   6 22:01:30  -312.282186c -2.55  -2.78
iter:   7 22:02:44  -312.282137c -2.47  -2.75
iter:   8 22:04:02  -312.281841c -2.98  -2.94
iter:   9 22:05:13  -312.281738c -3.42  -3.04
Writing to output.gpw (mode='')

iter:  10 22:06:50  -312.281640c -3.68  -3.15
iter:  11 22:08:54  -312.281473c -3.73  -3.30
iter:  12 22:10:33  -312.281489c -3.91  -3.34
iter:  13 22:12:20  -312.281502c -4.32  -3.40
iter:  14 22:13:36  -312.281584c -4.48  -3.43
Writing to output.gpw (mode='')

iter:  15 22:14:53  -312.281644c -4.53  -3.71
iter:  16 22:16:10  -312.281644c -5.02  -3.83
iter:  17 22:17:29  -312.281620c -5.11  -3.83
iter:  18 22:18:45  -312.281636c -5.20  -4.05c
iter:  19 22:20:02  -312.281627c -5.38  -4.07c
Writing to output.gpw (mode='')

iter:  20 22:21:10  -312.281636c -5.59  -4.18c
iter:  21 22:22:24  -312.281608c -5.66  -4.08c
iter:  22 22:23:40  -312.281610c -6.03  -4.40c
iter:  23 22:25:05  -312.281604c -5.89  -4.41c
iter:  24 22:27:02  -312.281598c -5.77  -4.36c
Writing to output.gpw (mode='')

iter:  25 22:28:17  -312.281607c -6.08  -4.20c
iter:  26 22:29:35  -312.281612c -6.38  -4.48c
iter:  27 22:30:52  -312.281618c -6.26  -4.55c
iter:  28 22:32:12  -312.281609c -6.63  -4.55c
iter:  29 22:33:36  -312.281610c -6.79  -4.69c
Writing to output.gpw (mode='')

iter:  30 22:34:52  -312.281612c -6.79  -4.73c
iter:  31 22:36:07  -312.281612c -6.98  -4.79c
iter:  32 22:37:22  -312.281614c -7.20  -4.90c
iter:  33 22:38:42  -312.281611c -7.23  -4.98c
iter:  34 22:40:00  -312.281612c -7.53c -5.17c

Converged after 34 iterations.

Dipole moment: (-0.260209, -5.167819, -0.117923) |e|*Ang

Energy contributions relative to reference atoms: (reference = -14447.344205)

Kinetic:       +152.216007
Potential:     -144.146570
External:        +0.000000
XC:            -321.056013
Entropy (-ST):   -0.143331
Local:           +0.776629
--------------------------
Free energy:   -312.353277
Extrapolated:  -312.281612

Dipole-layer corrected work functions: 3.417933, 3.644621 eV

Showing only first 2 kpts
 Kpt  Band  Eigenvalues  Occupancy
  0    31     -3.77107    1.98361
  0    32     -3.71394    1.94950
  0    33     -3.51373    0.82629
  0    34     -3.45517    0.35829

  1    31     -3.82332    1.99420
  1    32     -3.78841    1.98838
  1    33     -3.45651    0.36625
  1    34     -3.39925    0.13316


Fermi level: -3.53128

No gap
Writing to output.gpw (mode='')


Forces in eV/Ang:
  0 Li   -0.00346    0.00012   -0.27447
  1 Li    0.00344   -0.00113   -0.28629
  2 Li    0.00151   -0.00227   -0.23236
  3 Li    0.01110    0.02049   -0.28228
  4 Li   -0.00785    0.00913   -0.28749
  5 Li    0.00157   -0.00280   -0.28699
  6 Li    0.01392   -0.01232   -0.29549
  7 Li   -0.02001   -0.01098   -0.28414
  8 Li    0.00091    0.00393   -0.27485
  9 Li    0.00966   -0.00709    0.22820
 10 Li   -0.00078    0.01845    0.29289
 11 Li    0.01090    0.02811    0.25715
 12 Li   -0.03041   -0.01306    0.25638
 13 Li   -0.01177   -0.00477    0.26968
 14 Li    0.00765   -0.00306    0.28489
 15 Li   -0.01708    0.00005    0.29318
 16 Li    0.00836   -0.01703    0.26991
 17 Li    0.00654    0.01353    0.27538
 18 Li    0.01877    0.02617    0.00630
 19 Li   -0.06749   -0.01463   -0.04007
 20 Li    0.00103    0.01135   -0.15551
 21 Li   -0.00431   -0.00382   -0.00529
 22 Li    0.00001   -0.00489   -0.00925
 23 Li    0.00922    0.04850   -0.03221
 24 Li    0.01903   -0.02008   -0.01292
 25 Li    0.00777    0.00120   -0.00126
 26 Li   -0.03338   -0.03279   -0.00395
 27 Li    0.15946   -0.15909    0.05125
 28 Li    0.01390   -0.00364    0.01249
 29 Li   -0.02079   -0.00751    0.12599
 30 Li    0.01964    0.02048    0.11805
 31 Li    0.01742    0.00059   -0.01087
 32 Li    0.19625   -0.20517    0.40210
 33 Li    0.00074   -0.01812    0.01674
 34 Li   -0.01189    0.01175   -0.02682
 35 Li    0.00414   -0.02350   -0.01550
 36 O    -0.22067    0.56885   -0.34049
 37 C    -0.05438   -0.02576    0.24989
 38 C     0.00846   -0.05655    0.08962
 39 H     0.00396    0.00134   -0.00126
 40 H     0.01104   -0.15746    0.13543
 41 H    -0.00383    0.00973    0.07985
 42 H    -0.02269   -0.01073    0.00942
 43 H     0.00327   -0.03567   -0.03815
 44 H     0.72346   -0.50371   -0.06388
 45 N     0.25751   -0.23938   -0.37396
 46 N    -0.15338    0.16188    0.89726
 47 H    -0.81320    0.69229   -1.00881

System changes: positions 

Initializing position-dependent things.

Density initialized from wave functions
       .-----------------------.  
      /|                       |  
     / |                       |  
    /  |                       |  
   /   |                       |  
  /    |                     H |  
 *     |                 H     |  
 |     |                       |  
 |     |             H         |  
 |     |            H C  H     |  
 |     |                       |  
 |     |              C        |  
 |     Li      Li    H O       |  
 |     |                       |  
 |   Li|     Li      Hi        |  
 |     |  Li      Li      Li   |  
 |     |   Li      LiN    Li   |  
 |     |Li      LiLi   NLi     |  
 |     |                       |  
 |   LLi     LLi     LLi       |  
 |     |  Li      Li      Li   |  
 | Li  |   Li      Li          |  
 |     |Li      Li      Li     |  
 Li    | Li      Li            |  
 |    Li      Li      Li       |  
 |     |                       |  
 |     |                       |  
 |     |                       |  
 |     |                       |  
 |     |                       |  
 |     |                       |  
 |     .-----------------------.  
 |    /                       /   
 |   /                       /    
 |  /                       /     
 | /                       /      
 |/                       /       
 *-----------------------*        

Positions:
   0 Li     1.617037    1.617037   10.000000    ( 0.0000,  0.0000,  0.0000)
   1 Li     4.851111    1.617037   10.000000    ( 0.0000,  0.0000,  0.0000)
   2 Li     8.085185    1.617037   10.000000    ( 0.0000,  0.0000,  0.0000)
   3 Li     1.617037    4.851111   10.000000    ( 0.0000,  0.0000,  0.0000)
   4 Li     4.851111    4.851111   10.000000    ( 0.0000,  0.0000,  0.0000)
   5 Li     8.085185    4.851111   10.000000    ( 0.0000,  0.0000,  0.0000)
   6 Li     1.617037    8.085185   10.000000    ( 0.0000,  0.0000,  0.0000)
   7 Li     4.851111    8.085185   10.000000    ( 0.0000,  0.0000,  0.0000)
   8 Li     8.085185    8.085185   10.000000    ( 0.0000,  0.0000,  0.0000)
   9 Li     0.000000    0.000000   11.617037    ( 0.0000,  0.0000,  0.0000)
  10 Li     3.234074    0.000000   11.617037    ( 0.0000,  0.0000,  0.0000)
  11 Li     6.468148    0.000000   11.617037    ( 0.0000,  0.0000,  0.0000)
  12 Li     0.000000    3.234074   11.617037    ( 0.0000,  0.0000,  0.0000)
  13 Li     3.234074    3.234074   11.617037    ( 0.0000,  0.0000,  0.0000)
  14 Li     6.468148    3.234074   11.617037    ( 0.0000,  0.0000,  0.0000)
  15 Li     0.000000    6.468148   11.617037    ( 0.0000,  0.0000,  0.0000)
  16 Li     3.234074    6.468148   11.617037    ( 0.0000,  0.0000,  0.0000)
  17 Li     6.468148    6.468148   11.617037    ( 0.0000,  0.0000,  0.0000)
  18 Li     1.599454    1.578470   13.494932    ( 0.0000,  0.0000,  0.0000)
  19 Li     4.849708    1.669111   13.496807    ( 0.0000,  0.0000,  0.0000)
  20 Li     8.081029    1.621060   13.526316    ( 0.0000,  0.0000,  0.0000)
  21 Li     1.564598    4.785847   13.494452    ( 0.0000,  0.0000,  0.0000)
  22 Li     4.806837    4.893800   13.498243    ( 0.0000,  0.0000,  0.0000)
  23 Li     8.040968    4.855160   13.498147    ( 0.0000,  0.0000,  0.0000)
  24 Li     1.665008    8.031942   13.476296    ( 0.0000,  0.0000,  0.0000)
  25 Li     4.903933    8.135951   13.484888    ( 0.0000,  0.0000,  0.0000)
  26 Li     8.127728    8.108096   13.499288    ( 0.0000,  0.0000,  0.0000)
  27 Li     0.119564   -0.138807   15.476715    ( 0.0000,  0.0000,  0.0000)
  28 Li     3.356126   -0.050192   15.403796    ( 0.0000,  0.0000,  0.0000)
  29 Li     6.698695    0.220501   15.552724    ( 0.0000,  0.0000,  0.0000)
  30 Li    -0.262319    2.949355   15.617937    ( 0.0000,  0.0000,  0.0000)
  31 Li     3.072860    3.274736   15.456935    ( 0.0000,  0.0000,  0.0000)
  32 Li     6.346216    3.341877   15.525546    ( 0.0000,  0.0000,  0.0000)
  33 Li     0.054036    6.334618   15.407880    ( 0.0000,  0.0000,  0.0000)
  34 Li     3.242577    6.466652   15.465733    ( 0.0000,  0.0000,  0.0000)
  35 Li     6.423302    6.623075   15.449107    ( 0.0000,  0.0000,  0.0000)
  36 O      8.585067    1.310579   19.200144    ( 0.0000,  0.0000,  0.0000)
  37 C      8.258841    0.593070   20.373943    ( 0.0000,  0.0000,  0.0000)
  38 C      8.116258    1.509738   21.581166    ( 0.0000,  0.0000,  0.0000)
  39 H      7.347055   -0.008434   20.237389    ( 0.0000,  0.0000,  0.0000)
  40 H      9.093176   -0.096208   20.514491    ( 0.0000,  0.0000,  0.0000)
  41 H      7.910409    0.922669   22.476742    ( 0.0000,  0.0000,  0.0000)
  42 H      9.036965    2.077217   21.734143    ( 0.0000,  0.0000,  0.0000)
  43 H      7.296656    2.221508   21.445913    ( 0.0000,  0.0000,  0.0000)
  44 H      7.814253    1.872077   18.911067    ( 0.0000,  0.0000,  0.0000)
  45 N      8.528462    1.121789   15.410160    ( 0.0000,  0.0000,  0.0000)
  46 N      7.663937    1.992332   15.682328    ( 0.0000,  0.0000,  0.0000)
  47 H      7.490652    2.148822   17.387986    ( 0.0000,  0.0000,  0.0000)

Unit cell:
           periodic     x           y           z      points  spacing
  1. axis:    yes    9.702222    0.000000    0.000000    60     0.1617
  2. axis:    yes    0.000000    9.702222    0.000000    60     0.1617
  3. axis:    no     0.000000    0.000000   24.851111   156     0.1593

  Lengths:   9.702222   9.702222  24.851111
  Angles:   90.000000  90.000000  90.000000

Effective grid spacing dv^(1/3) = 0.1609

     iter     time        total  log10-change:
                         energy  eigst   dens
iter:   1 22:41:38  -312.388307  -1.10
iter:   2 22:42:52  -312.385955  -1.71  -2.25
iter:   3 22:44:37  -312.377418c -1.90  -2.34
iter:   4 22:45:46  -312.376332c -1.78  -2.50
Writing to output.gpw (mode='')

iter:   5 22:46:57  -312.377233c -2.45  -2.56
iter:   6 22:48:13  -312.376289c -2.64  -2.72
iter:   7 22:49:25  -312.376703c -2.33  -2.81
iter:   8 22:50:48  -312.376373c -2.79  -2.91
iter:   9 22:52:05  -312.376139c -3.48  -2.96
Writing to output.gpw (mode='')

iter:  10 22:53:46  -312.376058c -3.76  -3.15
iter:  11 22:54:57  -312.375885c -3.75  -3.28
iter:  12 22:56:14  -312.375890c -4.05  -3.37
iter:  13 22:57:35  -312.375891c -4.39  -3.46
iter:  14 22:59:13  -312.375918c -4.47  -3.50
Writing to output.gpw (mode='')

iter:  15 23:00:23  -312.376005c -4.60  -3.57
iter:  16 23:01:33  -312.376003c -5.06  -3.86
iter:  17 23:02:43  -312.375986c -4.98  -3.95
iter:  18 23:03:50  -312.375980c -5.24  -3.99
iter:  19 23:05:04  -312.375970c -5.51  -4.17c
Writing to output.gpw (mode='')

iter:  20 23:06:14  -312.375971c -5.62  -4.33c
iter:  21 23:07:56  -312.375986c -5.84  -4.36c
iter:  22 23:09:09  -312.375986c -6.07  -4.52c
iter:  23 23:10:18  -312.375987c -6.13  -4.58c
iter:  24 23:11:42  -312.375983c -6.50  -4.62c
Writing to output.gpw (mode='')

iter:  25 23:12:59  -312.375980c -6.54  -4.84c
iter:  26 23:14:40  -312.375981c -6.51  -4.99c
iter:  27 23:16:03  -312.375981c -6.79  -5.05c
iter:  28 23:17:52  -312.375980c -6.87  -5.18c
iter:  29 23:19:13  -312.375981c -7.20  -5.28c
Writing to output.gpw (mode='')

iter:  30 23:20:32  -312.375981c -7.18  -5.38c
iter:  31 23:21:54  -312.375982c -7.13  -5.48c
iter:  32 23:23:16  -312.375982c -7.27  -5.60c
iter:  33 23:24:39  -312.375982c -7.60c -5.63c

Converged after 33 iterations.

Dipole moment: (-0.269008, -5.093262, -0.105562) |e|*Ang

Energy contributions relative to reference atoms: (reference = -14447.344205)

Kinetic:       +151.772742
Potential:     -143.822399
External:        +0.000000
XC:            -321.031346
Entropy (-ST):   -0.143121
Local:           +0.776582
--------------------------
Free energy:   -312.447543
Extrapolated:  -312.375982

Dipole-layer corrected work functions: 3.417848, 3.620774 eV

Showing only first 2 kpts
 Kpt  Band  Eigenvalues  Occupancy
  0    31     -3.75938    1.98370
  0    32     -3.70209    1.94961
  0    33     -3.50144    0.82316
  0    34     -3.44269    0.35526

  1    31     -3.81328    1.99442
  1    32     -3.77547    1.98816
  1    33     -3.44521    0.37024
  1    34     -3.38940    0.13850


Fermi level: -3.51931

No gap
Writing to output.gpw (mode='')


Forces in eV/Ang:
  0 Li   -0.00327   -0.00006   -0.27338
  1 Li    0.00342   -0.00169   -0.28631
  2 Li    0.00147   -0.00218   -0.23167
  3 Li    0.01097    0.02053   -0.28201
  4 Li   -0.00717    0.00847   -0.28741
  5 Li    0.00209   -0.00277   -0.28704
  6 Li    0.01434   -0.01276   -0.29522
  7 Li   -0.02003   -0.01087   -0.28385
  8 Li    0.00104    0.00370   -0.27374
  9 Li    0.01267   -0.01013    0.22139
 10 Li   -0.00172    0.01928    0.29277
 11 Li    0.00990    0.02783    0.25512
 12 Li   -0.03008   -0.01200    0.25421
 13 Li   -0.01204   -0.00363    0.26834
 14 Li    0.00722   -0.00272    0.28243
 15 Li   -0.01798    0.00089    0.29300
 16 Li    0.00882   -0.01744    0.26999
 17 Li    0.00543    0.01344    0.27403
 18 Li    0.01492    0.02768    0.00922
 19 Li   -0.06882   -0.01221   -0.03734
 20 Li   -0.00550    0.01675   -0.14540
 21 Li   -0.00483   -0.00276   -0.00487
 22 Li    0.00287   -0.00761   -0.00505
 23 Li    0.00720    0.05048   -0.02974
 24 Li    0.02018   -0.02123   -0.01378
 25 Li    0.00665    0.00181   -0.00094
 26 Li   -0.03480   -0.02798   -0.00028
 27 Li    0.17692   -0.17609    0.04831
 28 Li    0.01598   -0.00388    0.01191
 29 Li   -0.00567   -0.00288    0.10803
 30 Li    0.01867    0.00509    0.09903
 31 Li    0.02099    0.00065   -0.01062
 32 Li    0.20808   -0.21782    0.39667
 33 Li    0.00088   -0.02013    0.01594
 34 Li   -0.01169    0.01155   -0.02544
 35 Li    0.00400   -0.02719   -0.01512
 36 O    -0.18995    0.49149   -0.37286
 37 C    -0.04532   -0.00017    0.20309
 38 C     0.00778   -0.04960    0.08932
 39 H     0.01485    0.01260   -0.00733
 40 H    -0.00632   -0.13449    0.13125
 41 H    -0.01003    0.00870    0.09144
 42 H    -0.02001   -0.01288    0.01207
 43 H     0.00309   -0.04113   -0.03091
 44 H     0.65584   -0.47741   -0.03328
 45 N     0.18189   -0.18567   -0.06911
 46 N    -0.29395    0.24460    0.67901
 47 H    -0.62922    0.53220   -1.06050

System changes: positions 

Initializing position-dependent things.

Density initialized from wave functions
       .-----------------------.  
      /|                       |  
     / |                       |  
    /  |                       |  
   /   |                       |  
  /    |                     H |  
 *     |                 H     |  
 |     |                       |  
 |     |             H         |  
 |     |            H C  H     |  
 |     |                       |  
 |     |              C        |  
 |     Li      Li     HO       |  
 |     |                       |  
 |   Li|     Li      Hi        |  
 |     |  Li      Li      Li   |  
 |     |   Li      LiN    Li   |  
 |     |Li      LiLi   NLi     |  
 |     |                       |  
 |   LLi     LLi     LLi       |  
 |     |  Li      Li      Li   |  
 | Li  |   Li      Li          |  
 |     |Li      Li      Li     |  
 Li    | Li      Li            |  
 |    Li      Li      Li       |  
 |     |                       |  
 |     |                       |  
 |     |                       |  
 |     |                       |  
 |     |                       |  
 |     |                       |  
 |     .-----------------------.  
 |    /                       /   
 |   /                       /    
 |  /                       /     
 | /                       /      
 |/                       /       
 *-----------------------*        

Positions:
   0 Li     1.617037    1.617037   10.000000    ( 0.0000,  0.0000,  0.0000)
   1 Li     4.851111    1.617037   10.000000    ( 0.0000,  0.0000,  0.0000)
   2 Li     8.085185    1.617037   10.000000    ( 0.0000,  0.0000,  0.0000)
   3 Li     1.617037    4.851111   10.000000    ( 0.0000,  0.0000,  0.0000)
   4 Li     4.851111    4.851111   10.000000    ( 0.0000,  0.0000,  0.0000)
   5 Li     8.085185    4.851111   10.000000    ( 0.0000,  0.0000,  0.0000)
   6 Li     1.617037    8.085185   10.000000    ( 0.0000,  0.0000,  0.0000)
   7 Li     4.851111    8.085185   10.000000    ( 0.0000,  0.0000,  0.0000)
   8 Li     8.085185    8.085185   10.000000    ( 0.0000,  0.0000,  0.0000)
   9 Li     0.000000    0.000000   11.617037    ( 0.0000,  0.0000,  0.0000)
  10 Li     3.234074    0.000000   11.617037    ( 0.0000,  0.0000,  0.0000)
  11 Li     6.468148    0.000000   11.617037    ( 0.0000,  0.0000,  0.0000)
  12 Li     0.000000    3.234074   11.617037    ( 0.0000,  0.0000,  0.0000)
  13 Li     3.234074    3.234074   11.617037    ( 0.0000,  0.0000,  0.0000)
  14 Li     6.468148    3.234074   11.617037    ( 0.0000,  0.0000,  0.0000)
  15 Li     0.000000    6.468148   11.617037    ( 0.0000,  0.0000,  0.0000)
  16 Li     3.234074    6.468148   11.617037    ( 0.0000,  0.0000,  0.0000)
  17 Li     6.468148    6.468148   11.617037    ( 0.0000,  0.0000,  0.0000)
  18 Li     1.599954    1.579082   13.495052    ( 0.0000,  0.0000,  0.0000)
  19 Li     4.848090    1.668696   13.495789    ( 0.0000,  0.0000,  0.0000)
  20 Li     8.081281    1.621128   13.522638    ( 0.0000,  0.0000,  0.0000)
  21 Li     1.564526    4.785747   13.494305    ( 0.0000,  0.0000,  0.0000)
  22 Li     4.806782    4.893729   13.497934    ( 0.0000,  0.0000,  0.0000)
  23 Li     8.041238    4.856292   13.497324    ( 0.0000,  0.0000,  0.0000)
  24 Li     1.665493    8.031430   13.475981    ( 0.0000,  0.0000,  0.0000)
  25 Li     4.904133    8.135941   13.484846    ( 0.0000,  0.0000,  0.0000)
  26 Li     8.126933    8.107231   13.499139    ( 0.0000,  0.0000,  0.0000)
  27 Li     0.122297   -0.141565   15.478402    ( 0.0000,  0.0000,  0.0000)
  28 Li     3.356461   -0.050323   15.404121    ( 0.0000,  0.0000,  0.0000)
  29 Li     6.698294    0.220690   15.556150    ( 0.0000,  0.0000,  0.0000)
  30 Li    -0.262278    2.949733   15.621167    ( 0.0000,  0.0000,  0.0000)
  31 Li     3.073268    3.274790   15.456659    ( 0.0000,  0.0000,  0.0000)
  32 Li     6.349880    3.338037   15.535648    ( 0.0000,  0.0000,  0.0000)
  33 Li     0.054095    6.334171   15.408320    ( 0.0000,  0.0000,  0.0000)
  34 Li     3.242251    6.466975   15.465026    ( 0.0000,  0.0000,  0.0000)
  35 Li     6.423368    6.622512   15.448710    ( 0.0000,  0.0000,  0.0000)
  36 O      8.589795    1.312831   19.203136    ( 0.0000,  0.0000,  0.0000)
  37 C      8.259369    0.592460   20.376107    ( 0.0000,  0.0000,  0.0000)
  38 C      8.116128    1.509059   21.582656    ( 0.0000,  0.0000,  0.0000)
  39 H      7.347031   -0.008140   20.237304    ( 0.0000,  0.0000,  0.0000)
  40 H      9.092834   -0.098958   20.516887    ( 0.0000,  0.0000,  0.0000)
  41 H      7.910487    0.922793   22.478542    ( 0.0000,  0.0000,  0.0000)
  42 H      9.036539    2.077115   21.734551    ( 0.0000,  0.0000,  0.0000)
  43 H      7.296787    2.220765   21.445104    ( 0.0000,  0.0000,  0.0000)
  44 H      7.821539    1.867925   18.906128    ( 0.0000,  0.0000,  0.0000)
  45 N      8.531558    1.118463   15.394135    ( 0.0000,  0.0000,  0.0000)
  46 N      7.667872    1.987704   15.706286    ( 0.0000,  0.0000,  0.0000)
  47 H      7.466780    2.169462   17.363407    ( 0.0000,  0.0000,  0.0000)

Unit cell:
           periodic     x           y           z      points  spacing
  1. axis:    yes    9.702222    0.000000    0.000000    60     0.1617
  2. axis:    yes    0.000000    9.702222    0.000000    60     0.1617
  3. axis:    no     0.000000    0.000000   24.851111   156     0.1593

  Lengths:   9.702222   9.702222  24.851111
  Angles:   90.000000  90.000000  90.000000

Effective grid spacing dv^(1/3) = 0.1609

     iter     time        total  log10-change:
                         energy  eigst   dens
iter:   1 23:26:18  -312.466842  -1.13
iter:   2 23:27:59  -312.463553  -1.79  -2.28
iter:   3 23:29:12  -312.452558c -1.58  -2.35
iter:   4 23:30:26  -312.451919c -2.36  -2.42
Writing to output.gpw (mode='')

iter:   5 23:31:43  -312.452554c -2.34  -2.58
iter:   6 23:33:11  -312.451168c -2.40  -2.67
iter:   7 23:34:31  -312.451356c -2.80  -2.88
iter:   8 23:35:43  -312.451571c -2.96  -2.99
iter:   9 23:36:58  -312.451283c -3.67  -2.95
Writing to output.gpw (mode='')

iter:  10 23:38:13  -312.451018c -3.64  -3.12
iter:  11 23:39:46  -312.450957c -3.94  -3.41
iter:  12 23:41:00  -312.450959c -4.24  -3.42
iter:  13 23:42:15  -312.450979c -4.33  -3.41
iter:  14 23:43:33  -312.450994c -4.72  -3.48
Writing to output.gpw (mode='')

iter:  15 23:44:53  -312.451068c -4.77  -3.52
iter:  16 23:46:07  -312.451102c -4.77  -3.96
iter:  17 23:47:27  -312.451095c -5.06  -4.04c
iter:  18 23:49:41  -312.451088c -5.28  -4.08c
iter:  19 23:50:57  -312.451076c -5.55  -4.27c
Writing to output.gpw (mode='')

iter:  20 23:52:11  -312.451072c -5.74  -4.37c
iter:  21 23:53:23  -312.451069c -5.61  -4.45c
iter:  22 23:54:40  -312.451071c -6.13  -4.50c
iter:  23 23:55:53  -312.451072c -6.21  -4.58c
iter:  24 23:57:11  -312.451074c -6.47  -4.64c
Writing to output.gpw (mode='')

iter:  25 23:58:19  -312.451075c -6.59  -4.72c
iter:  26 23:59:51  -312.451079c -6.61  -4.83c
iter:  27 00:01:02  -312.451078c -6.79  -4.92c
iter:  28 00:02:17  -312.451077c -6.77  -4.97c
iter:  29 00:03:32  -312.451076c -7.07  -5.06c
Writing to output.gpw (mode='')

iter:  30 00:04:49  -312.451075c -6.90  -5.33c
iter:  31 00:05:57  -312.451075c -7.29  -5.43c
iter:  32 00:07:18  -312.451077c -7.31  -5.42c
iter:  33 00:08:38  -312.451076c -7.55c -5.67c

Converged after 33 iterations.

Dipole moment: (-0.287536, -5.011911, -0.091441) |e|*Ang

Energy contributions relative to reference atoms: (reference = -14447.344205)

Kinetic:       +151.203399
Potential:     -143.381436
External:        +0.000000
XC:            -320.978588
Entropy (-ST):   -0.143044
Local:           +0.777070
[...]
iter:  21 21:48:06  -313.593392c -7.24  -4.95c
iter:  22 21:48:32  -313.593390c -7.35  -5.00c
iter:  23 21:48:58  -313.593390c -7.48c -5.04c

Converged after 23 iterations.

Dipole moment: (-1.315468, -2.872899, 0.288435) |e|*Ang

Energy contributions relative to reference atoms: (reference = -14447.344205)

Kinetic:       +151.652298
Potential:     -143.017843
External:        +0.000000
XC:            -322.938642
Entropy (-ST):   -0.151013
Local:           +0.786305
--------------------------
Free energy:   -313.668896
Extrapolated:  -313.593390

Dipole-layer corrected work functions: 3.397035, 2.842565 eV

Showing only first 2 kpts
 Kpt  Band  Eigenvalues  Occupancy
  0    31     -3.34619    1.97862
  0    32     -3.27620    1.91606
  0    33     -3.13703    1.17059
  0    34     -3.04161    0.34618

  1    31     -3.44670    1.99711
  1    32     -3.29419    1.94068
  1    33     -3.05938    0.45999
  1    34     -3.01968    0.23789


Fermi level: -3.11980

No gap
Writing to output.gpw (mode='')


Forces in eV/Ang:
  0 Li    0.00653   -0.00185   -0.27149
  1 Li    0.00759    0.00365   -0.29590
  2 Li   -0.00286    0.00284   -0.25027
  3 Li    0.00669    0.02475   -0.27484
  4 Li   -0.00346    0.00418   -0.28470
  5 Li   -0.00424   -0.00680   -0.29639
  6 Li    0.01049   -0.00978   -0.28386
  7 Li   -0.02430   -0.00661   -0.27667
  8 Li    0.00179   -0.00604   -0.27168
  9 Li   -0.01823    0.01688    0.24441
 10 Li   -0.06893    0.00373    0.28594
 11 Li    0.03831    0.05106    0.28351
 12 Li   -0.05225   -0.04199    0.27906
 13 Li   -0.05481   -0.03887    0.28136
 14 Li    0.01809   -0.02172    0.32893
 15 Li   -0.00279    0.06119    0.28082
 16 Li    0.00165   -0.00610    0.23985
 17 Li    0.03689    0.05139    0.28611
 18 Li    0.01390   -0.00894   -0.00536
 19 Li    0.01672   -0.00341    0.00174
 20 Li    0.00041    0.00682    0.00223
 21 Li    0.00090   -0.00293   -0.00014
 22 Li   -0.00529    0.00561   -0.01334
 23 Li    0.00396   -0.01447    0.00197
 24 Li   -0.00107    0.00294    0.01100
 25 Li    0.00540    0.00056    0.00040
 26 Li    0.01257   -0.02000   -0.01015
 27 Li    0.02094   -0.01463    0.01173
 28 Li    0.00443    0.00189   -0.00196
 29 Li   -0.01032    0.00220    0.00628
 30 Li   -0.00003    0.01335   -0.00026
 31 Li   -0.00049   -0.00657    0.00687
 32 Li    0.00909   -0.00247    0.00739
 33 Li   -0.00127    0.00094   -0.00325
 34 Li    0.00085   -0.00264    0.00113
 35 Li    0.00576    0.00115    0.00930
 36 O    -0.02992    0.03061    0.01596
 37 C    -0.00885   -0.00432   -0.00408
 38 C    -0.00903    0.00682   -0.00273
 39 H    -0.01094   -0.00255   -0.00617
 40 H     0.01073    0.00831   -0.01533
 41 H     0.01462   -0.02750   -0.01142
 42 H     0.01487   -0.00715   -0.00168
 43 H    -0.02142    0.01694   -0.00819
 44 H     0.05002   -0.02973    0.00382
 45 N     0.02142   -0.04466    0.00150
 46 N    -0.02881    0.02440    0.00368
 47 H     0.02102   -0.02340    0.00060

System changes: positions 

Initializing position-dependent things.

Density initialized from wave functions
       .-----------------------.  
      /|                       |  
     / |                       |  
    /  |                       |  
   /   |                       |  
  /    |                      H|  
 *     |                 H     |  
 |     |                       |  
 |     |             H         |  
 |     |            H C  H     |  
 |     |                       |  
 |     |              C        |  
 |     Li      Li     HO       |  
 |     |                       |  
 |   Li|     Li      Li        |  
 |     |  Li      Li H    Li   |  
 |     |   Li      LiN    Li   |  
 |     |Li      LiLi   NLi     |  
 |     |                       |  
 |   LLi     LLi     LLi       |  
 |     |  Li      Li      Li   |  
 | Li  |   Li      Li          |  
 |     |Li      Li      Li     |  
 Li    | Li      Li            |  
 |    Li      Li      Li       |  
 |     |                       |  
 |     |                       |  
 |     |                       |  
 |     |                       |  
 |     |                       |  
 |     |                       |  
 |     .-----------------------.  
 |    /                       /   
 |   /                       /    
 |  /                       /     
 | /                       /      
 |/                       /       
 *-----------------------*        

Positions:
   0 Li     1.617037    1.617037   10.000000    ( 0.0000,  0.0000,  0.0000)
   1 Li     4.851111    1.617037   10.000000    ( 0.0000,  0.0000,  0.0000)
   2 Li     8.085185    1.617037   10.000000    ( 0.0000,  0.0000,  0.0000)
   3 Li     1.617037    4.851111   10.000000    ( 0.0000,  0.0000,  0.0000)
   4 Li     4.851111    4.851111   10.000000    ( 0.0000,  0.0000,  0.0000)
   5 Li     8.085185    4.851111   10.000000    ( 0.0000,  0.0000,  0.0000)
   6 Li     1.617037    8.085185   10.000000    ( 0.0000,  0.0000,  0.0000)
   7 Li     4.851111    8.085185   10.000000    ( 0.0000,  0.0000,  0.0000)
   8 Li     8.085185    8.085185   10.000000    ( 0.0000,  0.0000,  0.0000)
   9 Li     0.000000    0.000000   11.617037    ( 0.0000,  0.0000,  0.0000)
  10 Li     3.234074    0.000000   11.617037    ( 0.0000,  0.0000,  0.0000)
  11 Li     6.468148    0.000000   11.617037    ( 0.0000,  0.0000,  0.0000)
  12 Li     0.000000    3.234074   11.617037    ( 0.0000,  0.0000,  0.0000)
  13 Li     3.234074    3.234074   11.617037    ( 0.0000,  0.0000,  0.0000)
  14 Li     6.468148    3.234074   11.617037    ( 0.0000,  0.0000,  0.0000)
  15 Li     0.000000    6.468148   11.617037    ( 0.0000,  0.0000,  0.0000)
  16 Li     3.234074    6.468148   11.617037    ( 0.0000,  0.0000,  0.0000)
  17 Li     6.468148    6.468148   11.617037    ( 0.0000,  0.0000,  0.0000)
  18 Li     1.510794    1.530546   13.592601    ( 0.0000,  0.0000,  0.0000)
  19 Li     4.752444    1.615816   13.454475    ( 0.0000,  0.0000,  0.0000)
  20 Li     8.013467    1.683251   13.718312    ( 0.0000,  0.0000,  0.0000)
  21 Li     1.565394    4.768893   13.475530    ( 0.0000,  0.0000,  0.0000)
  22 Li     4.785375    4.913117   13.448706    ( 0.0000,  0.0000,  0.0000)
  23 Li     8.089741    4.941243   13.449283    ( 0.0000,  0.0000,  0.0000)
  24 Li     1.699862    7.992568   13.492938    ( 0.0000,  0.0000,  0.0000)
  25 Li     4.923878    8.136534   13.472439    ( 0.0000,  0.0000,  0.0000)
  26 Li     8.171980    8.183149   13.587769    ( 0.0000,  0.0000,  0.0000)
  27 Li     0.191436   -0.217899   15.729383    ( 0.0000,  0.0000,  0.0000)
  28 Li     3.434320   -0.088824   15.444353    ( 0.0000,  0.0000,  0.0000)
  29 Li     6.850927    0.163456   15.557018    ( 0.0000,  0.0000,  0.0000)
  30 Li    -0.180738    2.819885   15.606137    ( 0.0000,  0.0000,  0.0000)
  31 Li     3.136455    3.319325   15.401293    ( 0.0000,  0.0000,  0.0000)
  32 Li     6.365047    3.338716   15.287892    ( 0.0000,  0.0000,  0.0000)
  33 Li     0.087311    6.242496   15.448595    ( 0.0000,  0.0000,  0.0000)
  34 Li     3.234809    6.471240   15.450694    ( 0.0000,  0.0000,  0.0000)
  35 Li     6.386689    6.557141   15.387270    ( 0.0000,  0.0000,  0.0000)
  36 O      8.688365    1.297808   19.197121    ( 0.0000,  0.0000,  0.0000)
  37 C      8.319401    0.578401   20.385346    ( 0.0000,  0.0000,  0.0000)
  38 C      8.114553    1.490833   21.584883    ( 0.0000,  0.0000,  0.0000)
  39 H      7.418102   -0.021542   20.201225    ( 0.0000,  0.0000,  0.0000)
  40 H      9.143715   -0.114776   20.562972    ( 0.0000,  0.0000,  0.0000)
  41 H      7.859328    0.910260   22.472658    ( 0.0000,  0.0000,  0.0000)
  42 H      9.015666    2.068903   21.792736    ( 0.0000,  0.0000,  0.0000)
  43 H      7.293511    2.189515   21.405799    ( 0.0000,  0.0000,  0.0000)
  44 H      8.004627    1.962225   19.037386    ( 0.0000,  0.0000,  0.0000)
  45 N      8.637534    1.042925   15.496298    ( 0.0000,  0.0000,  0.0000)
  46 N      7.654067    2.023582   15.734927    ( 0.0000,  0.0000,  0.0000)
  47 H      7.491412    2.133545   16.755469    ( 0.0000,  0.0000,  0.0000)

Unit cell:
           periodic     x           y           z      points  spacing
  1. axis:    yes    9.702222    0.000000    0.000000    60     0.1617
  2. axis:    yes    0.000000    9.702222    0.000000    60     0.1617
  3. axis:    no     0.000000    0.000000   24.851111   156     0.1593

  Lengths:   9.702222   9.702222  24.851111
  Angles:   90.000000  90.000000  90.000000

Effective grid spacing dv^(1/3) = 0.1609

     iter     time        total  log10-change:
                         energy  eigst   dens
iter:   1 21:49:33  -313.594168  -2.32
iter:   2 21:49:59  -313.594242  -3.04  -2.81
iter:   3 21:50:25  -313.594247c -3.49  -2.93
iter:   4 21:50:51  -313.594553c -3.41  -2.94
Writing to output.gpw (mode='')

iter:   5 21:51:17  -313.593793c -3.39  -2.83
iter:   6 21:51:43  -313.593785c -3.87  -3.24
iter:   7 21:52:09  -313.593780c -3.57  -3.40
iter:   8 21:52:35  -313.593767c -4.16  -3.49
iter:   9 21:53:01  -313.593782c -4.55  -3.58
Writing to output.gpw (mode='')

iter:  10 21:53:28  -313.593780c -5.05  -3.70
iter:  11 21:53:54  -313.593768c -5.01  -3.88
iter:  12 21:54:20  -313.593775c -5.42  -3.98
iter:  13 21:54:46  -313.593773c -5.91  -4.14c
iter:  14 21:55:12  -313.593778c -5.93  -4.17c
Writing to output.gpw (mode='')

iter:  15 21:55:38  -313.593783c -6.04  -4.35c
iter:  16 21:56:04  -313.593784c -6.37  -4.51c
iter:  17 21:56:30  -313.593782c -6.68  -4.56c
iter:  18 21:56:57  -313.593779c -6.58  -4.59c
iter:  19 21:57:23  -313.593781c -6.77  -4.73c
Writing to output.gpw (mode='')

iter:  20 21:57:49  -313.593780c -7.19  -4.78c
iter:  21 21:58:15  -313.593779c -7.05  -4.93c
iter:  22 21:58:41  -313.593781c -7.50c -4.98c

Converged after 22 iterations.

Dipole moment: (-1.331205, -2.833764, 0.290251) |e|*Ang

Energy contributions relative to reference atoms: (reference = -14447.344205)

Kinetic:       +151.730256
Potential:     -143.070422
External:        +0.000000
XC:            -322.964514
Entropy (-ST):   -0.151091
Local:           +0.786444
--------------------------
Free energy:   -313.669326
Extrapolated:  -313.593781

Dipole-layer corrected work functions: 3.396991, 2.839029 eV

Showing only first 2 kpts
 Kpt  Band  Eigenvalues  Occupancy
  0    31     -3.34421    1.97854
  0    32     -3.27423    1.91578
  0    33     -3.13550    1.17311
  0    34     -3.03974    0.34573

  1    31     -3.44471    1.99710
  1    32     -3.29197    1.94018
  1    33     -3.05774    0.46103
  1    34     -3.01814    0.23893


Fermi level: -3.11801

No gap
Writing to output.gpw (mode='')


Forces in eV/Ang:
  0 Li    0.00640   -0.00184   -0.27167
  1 Li    0.00773    0.00374   -0.29600
  2 Li   -0.00297    0.00296   -0.25031
  3 Li    0.00655    0.02481   -0.27496
  4 Li   -0.00355    0.00426   -0.28466
  5 Li   -0.00436   -0.00694   -0.29651
  6 Li    0.01022   -0.00951   -0.28365
  7 Li   -0.02438   -0.00646   -0.27677
  8 Li    0.00179   -0.00592   -0.27180
  9 Li   -0.01817    0.01693    0.24291
 10 Li   -0.06870    0.00377    0.28682
 11 Li    0.03905    0.05031    0.28316
 12 Li   -0.05153   -0.04269    0.27897
 13 Li   -0.05456   -0.04072    0.28253
 14 Li    0.01808   -0.02170    0.32874
 15 Li   -0.00269    0.06090    0.28155
 16 Li    0.00146   -0.00576    0.24009
 17 Li    0.03858    0.05132    0.28716
 18 Li    0.01332   -0.00794   -0.00496
 19 Li    0.01437   -0.00315   -0.00047
 20 Li    0.00291    0.00391    0.00409
 21 Li    0.00025   -0.00256    0.00016
 22 Li   -0.00435    0.00477   -0.01222
 23 Li    0.00419   -0.01202   -0.00033
 24 Li    0.00028    0.00180    0.01032
 25 Li    0.00499    0.00067    0.00060
 26 Li    0.01123   -0.01864   -0.00864
 27 Li    0.02199   -0.01587    0.01138
 28 Li    0.00456    0.00114   -0.00189
 29 Li   -0.01288   -0.00585    0.00537
 30 Li    0.00029    0.01461    0.00082
 31 Li   -0.00073   -0.00639    0.00702
 32 Li    0.00197    0.00356    0.00727
 33 Li   -0.00077    0.00053   -0.00318
 34 Li    0.00075   -0.00228    0.00120
 35 Li    0.00557    0.00164    0.00937
 36 O    -0.00811    0.00329    0.00664
 37 C     0.00114   -0.00172   -0.01433
 38 C    -0.01406    0.01167    0.00868
 39 H    -0.01216    0.00836   -0.00193
 40 H     0.01352    0.00276   -0.01072
 41 H     0.00903   -0.04610    0.00960
 42 H     0.02780   -0.00370   -0.01191
 43 H    -0.03439    0.02852   -0.01805
 44 H     0.02440   -0.01348    0.00196
 45 N     0.01750   -0.01519   -0.00760
 46 N     0.00376    0.00127   -0.00431
 47 H     0.01978   -0.02199    0.00393

Timing:                                      incl.     excl.
-------------------------------------------------------------------
Density initialized from wave functions:   126.950   126.947   0.1% |
 Symmetrize density:                         0.002     0.002   0.0% |
Forces:                                    210.268   210.268   0.2% |
Hamiltonian:                              2616.759     0.013   0.0% |
 Atomic:                                     5.832     0.066   0.0% |
  XC Correction:                             5.765     5.765   0.0% |
 Calculate atomic Hamiltonians:              4.175     4.175   0.0% |
 Communicate:                               38.385    38.385   0.0% |
 Hartree integrate/restrict:                 3.768     3.768   0.0% |
 Initialize Hamiltonian:                     0.000     0.000   0.0% |
 Poisson:                                  100.543    48.612   0.0% |
  Communicate from 1D:                       7.300     7.300   0.0% |
  Communicate from 2D:                      12.594    12.594   0.0% |
  Communicate to 1D:                         1.864     1.864   0.0% |
  Communicate to 2D:                        12.097    12.097   0.0% |
  FFT 1D:                                    9.030     9.030   0.0% |
  FFT 2D:                                    9.046     9.046   0.0% |
 XC 3D grid:                              2463.628   276.364   0.2% |
  VdW-DF integral:                        2187.264     5.747   0.0% |
   Convolution:                             76.160    76.160   0.1% |
   FFT:                                     28.948    28.948   0.0% |
   gather:                                1689.476  1689.476   1.3% ||
   hmm1:                                    23.522    23.522   0.0% |
   hmm2:                                    26.339    26.339   0.0% |
   iFFT:                                    30.349    30.349   0.0% |
   potential:                              297.378     3.353   0.0% |
    collect:                                33.174    33.174   0.0% |
    p1:                                     92.417    92.417   0.1% |
    p2:                                     36.371    36.371   0.0% |
    sum:                                   132.062   132.062   0.1% |
   splines:                                  9.346     9.346   0.0% |
 vbar:                                       0.414     0.414   0.0% |
LCAO initialization:                         3.625     0.515   0.0% |
 LCAO eigensolver:                           1.456     0.001   0.0% |
  Calculate projections:                     0.000     0.000   0.0% |
  DenseAtomicCorrection:                     0.000     0.000   0.0% |
  Distribute overlap matrix:                 1.436     1.436   0.0% |
  Orbital Layouts:                           0.017     0.017   0.0% |
  Potential matrix:                          0.001     0.001   0.0% |
  Sum over cells:                            0.001     0.001   0.0% |
 LCAO to grid:                               1.228     1.228   0.0% |
 Set positions (LCAO WFS):                   0.427     0.144   0.0% |
  Basic WFS set positions:                   0.003     0.003   0.0% |
  Basis functions set positions:             0.001     0.001   0.0% |
  P tci:                                     0.001     0.001   0.0% |
  ST tci:                                    0.125     0.125   0.0% |
  mktci:                                     0.154     0.154   0.0% |
Redistribute:                                0.087     0.087   0.0% |
SCF-cycle:                               122294.818  7692.477   6.1% |-|
 Davidson:                               24181.049  9370.091   7.5% |--|
  Apply hamiltonian:                      1944.821  1944.821   1.5% ||
  Subspace diag:                          3387.833     0.442   0.0% |
   calc_h_matrix:                         2179.991   354.206   0.3% |
    Apply hamiltonian:                    1825.785  1825.785   1.5% ||
   diagonalize:                            258.483   258.483   0.2% |
   rotate_psi:                             948.917   948.917   0.8% |
  calc. matrices:                         7624.217  3458.391   2.8% ||
   Apply hamiltonian:                     4165.826  4165.826   3.3% ||
  diagonalize:                              15.685    15.685   0.0% |
  rotate_psi:                             1838.402  1838.402   1.5% ||
 Density:                                  604.079     0.079   0.0% |
  Atomic density matrices:                 192.343   192.343   0.2% |
  Mix:                                     197.783   197.783   0.2% |
  Multipole moments:                         2.259     2.259   0.0% |
  Pseudo density:                          211.615   211.474   0.2% |
   Symmetrize density:                       0.141     0.141   0.0% |
 Hamiltonian:                            89775.513     0.398   0.0% |
  Atomic:                                  174.990     1.851   0.0% |
   XC Correction:                          173.139   173.139   0.1% |
  Calculate atomic Hamiltonians:           121.003   121.003   0.1% |
  Communicate:                            1198.672  1198.672   1.0% |
  Hartree integrate/restrict:              107.644   107.644   0.1% |
  Poisson:                                3074.800  1480.166   1.2% |
   Communicate from 1D:                    212.872   212.872   0.2% |
   Communicate from 2D:                    412.894   412.894   0.3% |
   Communicate to 1D:                       56.795    56.795   0.0% |
   Communicate to 2D:                      372.250   372.250   0.3% |
   FFT 1D:                                 269.720   269.720   0.2% |
   FFT 2D:                                 270.102   270.102   0.2% |
  XC 3D grid:                            85085.572  8528.651   6.8% |--|
   VdW-DF integral:                      76556.921   174.140   0.1% |
    Convolution:                          2281.924  2281.924   1.8% ||
    FFT:                                   871.549   871.549   0.7% |
    gather:                              60911.311 60911.311  48.5% |------------------|
    hmm1:                                  703.480   703.480   0.6% |
    hmm2:                                  794.952   794.952   0.6% |
    iFFT:                                  914.982   914.982   0.7% |
    potential:                            9904.546   102.741   0.1% |
     collect:                              868.163   868.163   0.7% |
     p1:                                  2844.167  2844.167   2.3% ||
     p2:                                  1112.819  1112.819   0.9% |
     sum:                                 4976.656  4976.656   4.0% |-|
    splines:                                 0.037     0.037   0.0% |
  vbar:                                     12.435    12.435   0.0% |
 Orthonormalize:                            41.699     0.034   0.0% |
  calc_s_matrix:                             6.258     6.258   0.0% |
  inverse-cholesky:                         18.464    18.464   0.0% |
  projections:                               0.005     0.005   0.0% |
  rotate_psi_s:                             16.939    16.939   0.0% |
Set symmetry:                                0.002     0.002   0.0% |
Other:                                     448.318   448.318   0.4% |
-------------------------------------------------------------------
Total:                                             125700.825 100.0%

Memory usage: 1.42 GiB
Date: Tue Feb 28 21:58:44 2023
