
  ___ ___ ___ _ _ _  
 |   |   |_  | | | | 
 | | | | | . | | | | 
 |__ |  _|___|_____|  22.8.0
 |___|_|             

User:   vazumah@f020
Date:   Tue Mar 14 21:24:26 2023
Arch:   x86_64
Pid:    739
CWD:    /home/vazumah/Research_Projects/LiMEAS/LiNRR_proton_donors/N2_with_proton_donor/Li_BCC_100/adsorbates/CH3CH2OH_z/bridge/8.085_1.617/N2_z/1H
Python: 3.10.6
gpaw:   /home/vazumah/anaconda3/envs/NAME/lib/python3.10/site-packages/gpaw
_gpaw:  /home/vazumah/anaconda3/envs/NAME/lib/python3.10/site-packages/
        _gpaw.cpython-310-x86_64-linux-gnu.so
ase:    /home/vazumah/anaconda3/envs/NAME/lib/python3.10/site-packages/ase (version 3.22.1)
numpy:  /home/vazumah/anaconda3/envs/NAME/lib/python3.10/site-packages/numpy (version 1.23.3)
scipy:  /home/vazumah/anaconda3/envs/NAME/lib/python3.10/site-packages/scipy (version 1.9.1)
libxc:  5.2.3
units:  Angstrom and eV
cores: 32
OpenMP: True
OMP_NUM_THREADS: 1

Input parameters:
  convergence: {bands: -10}
  h: 0.16
  kpts: {size: [4, 4, 1]}
  occupations: {name: fermi-dirac,
                width: 0.05}
  poissonsolver: {dipolelayer: xy}
  xc: BEEF-vdW

System changes: positions, numbers, cell, pbc, initial_charges, initial_magmoms 

Initialize ...

species:
  Li:
    name: Lithium
    id: 830b4218f175192f93f959cfc0aad614
    Z: 3.0
    valence: 1
    core: 2
    charge: 0.0
    file: /home/vazumah/anaconda3/envs/NAME/share/gpaw/Li.PBE.gz
    compensation charges: {type: gauss,
                           rc: 0.33,
                           lmax: 2}
    cutoffs: {filter: 1.91,
              core: 2.55}
    valence states:
      #              energy  rcut
      - 2s(1.00)    -2.874   1.058
      - 2p(0.00)    -1.090   1.058
      -  s          24.337   1.058
  
    # Using partial waves for Li as LCAO basis

  O:
    name: Oxygen
    id: 32ecd46bf208036f09c70b0ec9a88b78
    Z: 8.0
    valence: 6
    core: 2
    charge: 0.0
    file: /home/vazumah/anaconda3/envs/NAME/share/gpaw/O.PBE.gz
    compensation charges: {type: gauss,
                           rc: 0.21,
                           lmax: 2}
    cutoffs: {filter: 1.17,
              core: 0.83}
    valence states:
      #              energy  rcut
      - 2s(2.00)   -23.961   0.688
      - 2p(4.00)    -9.029   0.598
      -  s           3.251   0.688
      -  p          18.182   0.598
      -  d           0.000   0.619
  
    # Using partial waves for O as LCAO basis

  C:
    name: Carbon
    id: 4aa54d4b901d75f77cc0ea3eec22967b
    Z: 6.0
    valence: 4
    core: 2
    charge: 0.0
    file: /home/vazumah/anaconda3/envs/NAME/share/gpaw/C.PBE.gz
    compensation charges: {type: gauss,
                           rc: 0.20,
                           lmax: 2}
    cutoffs: {filter: 1.14,
              core: 1.14}
    valence states:
      #              energy  rcut
      - 2s(2.00)   -13.751   0.635
      - 2p(2.00)    -5.284   0.635
      -  s          13.461   0.635
      -  p          21.927   0.635
      -  d           0.000   0.635
  
    # Using partial waves for C as LCAO basis

  H:
    name: Hydrogen
    id: d65de229564ff8ea4db303e23b6d1ecf
    Z: 1.0
    valence: 1
    core: 0
    charge: 0.0
    file: /home/vazumah/anaconda3/envs/NAME/share/gpaw/H.PBE.gz
    compensation charges: {type: gauss,
                           rc: 0.15,
                           lmax: 2}
    cutoffs: {filter: 0.85,
              core: 0.53}
    valence states:
      #              energy  rcut
      - 1s(1.00)    -6.494   0.476
      -  s          20.717   0.476
      -  p           0.000   0.476
  
    # Using partial waves for H as LCAO basis

  N:
    name: Nitrogen
    id: f7500608b86eaa90eef8b1d9a670dc53
    Z: 7.0
    valence: 5
    core: 2
    charge: 0.0
    file: /home/vazumah/anaconda3/envs/NAME/share/gpaw/N.PBE.gz
    compensation charges: {type: gauss,
                           rc: 0.18,
                           lmax: 2}
    cutoffs: {filter: 1.11,
              core: 0.96}
    valence states:
      #              energy  rcut
      - 2s(2.00)   -18.583   0.603
      - 2p(3.00)    -7.089   0.529
      -  s           8.629   0.603
      -  p          20.123   0.529
      -  d           0.000   0.577
  
    # Using partial waves for N as LCAO basis

Reference energy: -14447.344205  # eV

Spin-paired calculation

Convergence criteria:
 Maximum [total energy] change in last 3 cyles: 0.0005 eV / electron
 Maximum integral of absolute [dens]ity change: 0.0001 electrons / valence electron
 Maximum integral of absolute [eigenst]ate change: 4e-08 eV^2 / valence electron
 Maximum number of scf [iter]ations: 333
 (Square brackets indicate name in SCF output, whereas a 'c' in
 the SCF output indicates the quantity has converged.)

Symmetries present (total): 1

  ( 1  0  0)
  ( 0  1  0)
  ( 0  0  1)

16 k-points: 4 x 4 x 1 Monkhorst-Pack grid
8 k-points in the irreducible part of the Brillouin zone
       k-points in crystal coordinates                weights
   0:     0.12500000   -0.37500000    0.00000000          2/16
   1:     0.12500000   -0.12500000    0.00000000          2/16
   2:     0.12500000    0.12500000    0.00000000          2/16
   3:     0.12500000    0.37500000    0.00000000          2/16
   4:     0.37500000   -0.37500000    0.00000000          2/16
   5:     0.37500000   -0.12500000    0.00000000          2/16
   6:     0.37500000    0.12500000    0.00000000          2/16
   7:     0.37500000    0.37500000    0.00000000          2/16

Wave functions: Uniform real-space grid
  Kinetic energy operator: 6*3+1=19 point O(h^6) finite-difference Laplacian
  ScaLapack parameters: grid=1x1, blocksize=None
  Wavefunction extrapolation:
    Improved wavefunction reuse through dual PAW basis 

Occupation numbers: Fermi-Dirac:
  width: 0.0500  # eV
 

Eigensolver
   Davidson(niter=2) 

Densities:
  Coarse grid: 60*60*156 grid
  Fine grid: 120*120*312 grid
  Total Charge: 0.000000 

Density mixing:
  Method: separate
  Backend: pulay
  Linear mixing parameter: 0.05
  old densities: 5
  Damping of long wavelength oscillations: 50 

Hamiltonian:
  XC and Coulomb potentials evaluated on a 120*120*312 grid
  Using the BEEF-vdW Exchange-Correlation functional
  Interpolation: tri-quintic (5. degree polynomial)
  Poisson solver: FastPoissonSolver using
    Stencil: 6*3+1=19 point O(h^6) finite-difference Laplacian
    FFT axes: [0, 1]
    FST axes: [2]

Dipole correction along z-axis 

XC parameters: BEEF-vdW with 2 nearest neighbor stencil

Memory estimate:
  Process memory now: 236.66 MiB
  Calculator: 311.68 MiB
    Density: 88.45 MiB
      Arrays: 27.47 MiB
      Localized functions: 50.55 MiB
      Mixer: 10.44 MiB
    Hamiltonian: 21.96 MiB
      Arrays: 17.96 MiB
      XC: 0.00 MiB
      Poisson: 0.00 MiB
      vbar: 4.00 MiB
    Wavefunctions: 201.27 MiB
      Arrays psit_nG: 93.93 MiB
      Eigensolver: 104.68 MiB
      Projections: 0.05 MiB
      Projectors: 2.61 MiB

Total number of cores used: 32
Parallelization over k-points: 8
Domain decomposition: 1 x 1 x 4

Number of atoms: 48
Number of atomic orbitals: 171
Number of bands in calculation: 45
Number of valence electrons: 67
Bands to converge: 35

... initialized

Initializing position-dependent things.

Density initialized from atomic densities
Creating initial wave functions:
  45 bands from LCAO basis set

       .-----------------------.  
      /|                       |  
     / |                       |  
    /  |                       |  
   /   |                       |  
  /    |                      H|  
 *     |                 H     |  
 |     |                       |  
 |     |             H         |  
 |     |            H C  H     |  
 |     |                       |  
 |     |              C        |  
 |     Li      Li     HO       |  
 |     |                       |  
 |   Li|     Li      Li        |  
 |     |  Li      Li H    Li   |  
 |     |   Li      LiN    Li   |  
 |     |Li      LiLi   NLi     |  
 |     |                       |  
 |   LLi     LLi     LLi       |  
 |     |  Li      Li      Li   |  
 | Li  |   Li      Li          |  
 |     |Li      Li      Li     |  
 Li    | Li      Li            |  
 |    Li      Li      Li       |  
 |     |                       |  
 |     |                       |  
 |     |                       |  
 |     |                       |  
 |     |                       |  
 |     |                       |  
 |     .-----------------------.  
 |    /                       /   
 |   /                       /    
 |  /                       /     
 | /                       /      
 |/                       /       
 *-----------------------*        

Positions:
   0 Li     1.617037    1.617037   10.000000    ( 0.0000,  0.0000,  0.0000)
   1 Li     4.851111    1.617037   10.000000    ( 0.0000,  0.0000,  0.0000)
   2 Li     8.085185    1.617037   10.000000    ( 0.0000,  0.0000,  0.0000)
   3 Li     1.617037    4.851111   10.000000    ( 0.0000,  0.0000,  0.0000)
   4 Li     4.851111    4.851111   10.000000    ( 0.0000,  0.0000,  0.0000)
   5 Li     8.085185    4.851111   10.000000    ( 0.0000,  0.0000,  0.0000)
   6 Li     1.617037    8.085185   10.000000    ( 0.0000,  0.0000,  0.0000)
   7 Li     4.851111    8.085185   10.000000    ( 0.0000,  0.0000,  0.0000)
   8 Li     8.085185    8.085185   10.000000    ( 0.0000,  0.0000,  0.0000)
   9 Li     0.000000    0.000000   11.617037    ( 0.0000,  0.0000,  0.0000)
  10 Li     3.234074    0.000000   11.617037    ( 0.0000,  0.0000,  0.0000)
  11 Li     6.468148    0.000000   11.617037    ( 0.0000,  0.0000,  0.0000)
  12 Li     0.000000    3.234074   11.617037    ( 0.0000,  0.0000,  0.0000)
  13 Li     3.234074    3.234074   11.617037    ( 0.0000,  0.0000,  0.0000)
  14 Li     6.468148    3.234074   11.617037    ( 0.0000,  0.0000,  0.0000)
  15 Li     0.000000    6.468148   11.617037    ( 0.0000,  0.0000,  0.0000)
  16 Li     3.234074    6.468148   11.617037    ( 0.0000,  0.0000,  0.0000)
  17 Li     6.468148    6.468148   11.617037    ( 0.0000,  0.0000,  0.0000)
  18 Li     1.510794    1.530546   13.592601    ( 0.0000,  0.0000,  0.0000)
  19 Li     4.752444    1.615816   13.454475    ( 0.0000,  0.0000,  0.0000)
  20 Li     8.013467    1.683251   13.718312    ( 0.0000,  0.0000,  0.0000)
  21 Li     1.565394    4.768893   13.475530    ( 0.0000,  0.0000,  0.0000)
  22 Li     4.785375    4.913117   13.448706    ( 0.0000,  0.0000,  0.0000)
  23 Li     8.089741    4.941243   13.449283    ( 0.0000,  0.0000,  0.0000)
  24 Li     1.699862    7.992568   13.492938    ( 0.0000,  0.0000,  0.0000)
  25 Li     4.923878    8.136534   13.472439    ( 0.0000,  0.0000,  0.0000)
  26 Li     8.171980    8.183149   13.587769    ( 0.0000,  0.0000,  0.0000)
  27 Li     0.191436   -0.217899   15.729383    ( 0.0000,  0.0000,  0.0000)
  28 Li     3.434320   -0.088824   15.444353    ( 0.0000,  0.0000,  0.0000)
  29 Li     6.850927    0.163456   15.557018    ( 0.0000,  0.0000,  0.0000)
  30 Li    -0.180738    2.819885   15.606137    ( 0.0000,  0.0000,  0.0000)
  31 Li     3.136455    3.319325   15.401293    ( 0.0000,  0.0000,  0.0000)
  32 Li     6.365047    3.338716   15.287892    ( 0.0000,  0.0000,  0.0000)
  33 Li     0.087311    6.242496   15.448595    ( 0.0000,  0.0000,  0.0000)
  34 Li     3.234809    6.471240   15.450694    ( 0.0000,  0.0000,  0.0000)
  35 Li     6.386689    6.557141   15.387270    ( 0.0000,  0.0000,  0.0000)
  36 O      8.688365    1.297808   19.197121    ( 0.0000,  0.0000,  0.0000)
  37 C      8.319401    0.578401   20.385346    ( 0.0000,  0.0000,  0.0000)
  38 C      8.114553    1.490833   21.584883    ( 0.0000,  0.0000,  0.0000)
  39 H      7.418102   -0.021542   20.201225    ( 0.0000,  0.0000,  0.0000)
  40 H      9.143715   -0.114776   20.562972    ( 0.0000,  0.0000,  0.0000)
  41 H      7.859328    0.910260   22.472658    ( 0.0000,  0.0000,  0.0000)
  42 H      9.015666    2.068903   21.792736    ( 0.0000,  0.0000,  0.0000)
  43 H      7.293511    2.189515   21.405799    ( 0.0000,  0.0000,  0.0000)
  44 H      8.004627    1.962225   19.037386    ( 0.0000,  0.0000,  0.0000)
  45 N      8.637534    1.042925   15.496298    ( 0.0000,  0.0000,  0.0000)
  46 N      7.654067    2.023582   15.734927    ( 0.0000,  0.0000,  0.0000)
  47 H      7.491412    2.133545   16.755469    ( 0.0000,  0.0000,  0.0000)

Unit cell:
           periodic     x           y           z      points  spacing
  1. axis:    yes    9.702222    0.000000    0.000000    60     0.1617
  2. axis:    yes    0.000000    9.702222    0.000000    60     0.1617
  3. axis:    no     0.000000    0.000000   24.851111   156     0.1593

  Lengths:   9.702222   9.702222  24.851111
  Angles:   90.000000  90.000000  90.000000

Effective grid spacing dv^(1/3) = 0.1609

     iter     time        total  log10-change:
                         energy  eigst   dens
iter:   1 21:25:44  -519.021824  +1.22
iter:   2 21:26:44  -144.689163  +2.38  -0.08
iter:   3 21:28:36   -84.474323  +3.19  -0.22
iter:   4 21:31:10  -139.068843  +2.77  -0.26
iter:   5 21:32:58  -200.647896  +2.80  -0.31
iter:   6 21:35:26  -269.651968  +2.78  -0.48
iter:   7 21:38:15  -352.004739  +2.67  -0.64
iter:   8 21:40:15  -365.991420  +2.24  -0.53
iter:   9 21:42:54  -368.190215  +2.00  -0.56
iter:  10 21:46:59  -378.218244  +1.84  -0.56
iter:  11 21:50:07  -425.622690  +2.07  -0.52
iter:  12 21:54:50  -386.240968  +1.59  -0.44
iter:  13 21:58:45  -317.864657  +1.62  -0.41
iter:  14 22:03:18  -319.229404  +1.20  -0.80
iter:  15 22:06:59  -319.489207  +0.90  -0.80
iter:  16 22:09:37  -317.873934  +0.39  -0.75
iter:  17 22:12:58  -315.729285  +0.44  -0.82
iter:  18 22:16:14  -315.374942  +0.40  -0.89
iter:  19 22:21:18  -315.096643  -0.08  -0.99
iter:  20 22:25:41  -314.081023  +0.44  -1.03
iter:  21 22:29:41  -313.855238  -0.23  -1.15
iter:  22 22:33:35  -313.647645  -0.02  -1.29
iter:  23 22:35:36  -313.708295  -0.24  -1.43
iter:  24 22:36:38  -313.677227  -0.40  -1.43
iter:  25 22:37:42  -313.638766  -0.49  -1.64
iter:  26 22:38:53  -313.627600  -0.80  -1.64
iter:  27 22:40:05  -313.604277  -1.18  -1.68
iter:  28 22:41:04  -313.581113  -1.08  -1.80
iter:  29 22:41:47  -313.584455c -1.21  -2.02
iter:  30 22:43:24  -313.583217c -1.62  -2.08
iter:  31 22:44:58  -313.587297c -1.61  -2.16
iter:  32 22:46:36  -313.586774c -1.90  -2.45
iter:  33 22:48:37  -313.588705c -1.89  -2.48
iter:  34 22:49:48  -313.589781c -1.98  -2.47
iter:  35 22:51:19  -313.590287c -2.12  -2.51
iter:  36 22:54:39  -313.590629c -2.23  -2.62
iter:  37 22:58:31  -313.591012c -2.47  -2.91
iter:  38 23:00:35  -313.591475c -2.40  -3.10
iter:  39 23:02:41  -313.591818c -2.65  -3.21
iter:  40 23:07:03  -313.592166c -2.56  -3.21
iter:  41 23:10:19  -313.592608c -2.48  -3.26
iter:  42 23:12:54  -313.592828c -2.74  -3.33
iter:  43 23:14:56  -313.592978c -2.79  -3.39
iter:  44 23:17:22  -313.593085c -3.05  -3.42
iter:  45 23:18:54  -313.593152c -3.18  -3.47
iter:  46 23:22:00  -313.593254c -3.18  -3.53
iter:  47 23:23:22  -313.593367c -3.34  -3.60
iter:  48 23:25:04  -313.593436c -3.39  -3.73
iter:  49 23:26:41  -313.593487c -3.53  -3.83
iter:  50 23:30:20  -313.593542c -3.60  -3.83
iter:  51 23:35:05  -313.593582c -3.62  -3.95
iter:  52 23:40:45  -313.593610c -3.62  -4.05c
iter:  53 23:45:59  -313.593634c -3.86  -4.08c
iter:  54 23:51:33  -313.593660c -3.65  -4.09c
iter:  55 23:56:34  -313.593675c -3.84  -4.19c
iter:  56 00:01:05  -313.593691c -3.93  -4.28c
iter:  57 00:05:38  -313.593701c -4.17  -4.26c
iter:  58 00:09:40  -313.593715c -4.13  -4.19c
iter:  59 00:13:26  -313.593726c -4.33  -4.26c
iter:  60 00:18:23  -313.593736c -4.30  -4.30c
iter:  61 00:23:35  -313.593746c -4.34  -4.37c
iter:  62 00:27:32  -313.593753c -4.46  -4.42c
iter:  63 00:30:56  -313.593756c -4.44  -4.47c
iter:  64 00:37:30  -313.593761c -4.59  -4.64c
iter:  65 00:42:56  -313.593764c -4.66  -4.84c
iter:  66 00:49:28  -313.593766c -4.84  -4.87c
iter:  67 00:54:47  -313.593768c -4.82  -4.98c
iter:  68 00:57:47  -313.593769c -4.95  -5.07c
iter:  69 01:01:13  -313.593771c -5.08  -5.07c
iter:  70 01:06:13  -313.593774c -5.07  -5.10c
iter:  71 01:10:05  -313.593775c -5.16  -5.12c
iter:  72 01:16:03  -313.593775c -5.27  -5.34c
iter:  73 01:18:18  -313.593776c -5.37  -5.29c
iter:  74 01:20:29  -313.593777c -5.27  -5.41c
iter:  75 01:22:44  -313.593777c -5.42  -5.46c
iter:  76 01:26:34  -313.593778c -5.60  -5.61c
iter:  77 01:30:14  -313.593778c -5.64  -5.60c
iter:  78 01:33:09  -313.593778c -5.75  -5.56c
iter:  79 01:36:54  -313.593778c -5.77  -5.23c
iter:  80 01:39:00  -313.593779c -5.79  -5.33c
iter:  81 01:42:05  -313.593779c -5.86  -5.38c
iter:  82 01:44:39  -313.593779c -5.89  -5.40c
iter:  83 01:47:45  -313.593780c -5.99  -5.49c
iter:  84 01:49:31  -313.593780c -6.22  -5.76c
iter:  85 01:51:46  -313.593780c -6.27  -5.66c
iter:  86 01:54:30  -313.593780c -6.37  -5.43c
iter:  87 01:57:09  -313.593780c -6.30  -5.41c
iter:  88 02:00:04  -313.593780c -6.41  -5.32c
iter:  89 02:02:45  -313.593781c -6.46  -5.78c
iter:  90 02:06:04  -313.593781c -6.47  -6.05c
iter:  91 02:10:03  -313.593781c -6.57  -6.09c
iter:  92 02:13:02  -313.593781c -6.69  -6.04c
iter:  93 02:15:11  -313.593781c -6.83  -6.17c
iter:  94 02:17:47  -313.593781c -6.83  -6.24c
iter:  95 02:19:53  -313.593781c -6.87  -6.26c
iter:  96 02:22:08  -313.593781c -6.93  -6.15c
iter:  97 02:25:35  -313.593781c -6.88  -6.14c
iter:  98 02:28:29  -313.593781c -7.04  -6.08c
iter:  99 02:30:43  -313.593781c -7.12  -5.98c
iter: 100 02:32:57  -313.593781c -7.17  -6.08c
iter: 101 02:36:14  -313.593781c -7.25  -6.46c
iter: 102 02:38:48  -313.593781c -7.25  -6.52c
iter: 103 02:42:18  -313.593781c -7.29  -6.50c
iter: 104 02:45:04  -313.593781c -7.44c -6.74c

Converged after 104 iterations.

Dipole moment: (-1.331145, -2.833883, 0.290182) |e|*Ang

Energy contributions relative to reference atoms: (reference = -14447.344205)

Kinetic:       +151.730865
Potential:     -143.070924
External:        +0.000000
XC:            -322.964550
Entropy (-ST):   -0.151091
Local:           +0.786374
--------------------------
Free energy:   -313.669326
Extrapolated:  -313.593781

Dipole-layer corrected work functions: 3.396969, 2.839139 eV

Showing only first 2 kpts
 Kpt  Band  Eigenvalues  Occupancy
  0    31     -3.34426    1.97854
  0    32     -3.27428    1.91578
  0    33     -3.13554    1.17311
  0    34     -3.03978    0.34574

  1    31     -3.44475    1.99710
  1    32     -3.29201    1.94018
  1    33     -3.05778    0.46103
  1    34     -3.01818    0.23893


Fermi level: -3.11805

No gap
Writing to top.gpw (mode='all')

Timing:                              incl.     excl.
-----------------------------------------------------------
Hamiltonian:                        41.692     0.000   0.0% |
 Atomic:                             0.076     0.001   0.0% |
  XC Correction:                     0.075     0.075   0.0% |
 Calculate atomic Hamiltonians:      0.157     0.157   0.0% |
 Communicate:                        0.281     0.281   0.0% |
 Hartree integrate/restrict:         0.033     0.033   0.0% |
 Initialize Hamiltonian:             0.000     0.000   0.0% |
 Poisson:                            2.485     0.785   0.0% |
  Communicate from 1D:               0.152     0.152   0.0% |
  Communicate from 2D:               0.197     0.197   0.0% |
  Communicate to 1D:                 0.021     0.021   0.0% |
  Communicate to 2D:                 0.155     0.155   0.0% |
  FFT 1D:                            1.016     1.016   0.0% |
  FFT 2D:                            0.158     0.158   0.0% |
 XC 3D grid:                        38.655     4.033   0.0% |
  VdW-DF integral:                  34.622     0.064   0.0% |
   Convolution:                      1.274     1.274   0.0% |
   FFT:                              0.318     0.318   0.0% |
   gather:                          21.806    21.806   0.1% |
   hmm1:                             0.302     0.302   0.0% |
   hmm2:                             0.266     0.266   0.0% |
   iFFT:                             0.432     0.432   0.0% |
   potential:                        3.576     0.056   0.0% |
    collect:                         0.509     0.509   0.0% |
    p1:                              1.266     1.266   0.0% |
    p2:                              0.556     0.556   0.0% |
    sum:                             1.188     1.188   0.0% |
   splines:                          6.586     6.586   0.0% |
 vbar:                               0.004     0.004   0.0% |
LCAO initialization:                11.467     0.396   0.0% |
 LCAO eigensolver:                   7.213     0.001   0.0% |
  Calculate projections:             0.000     0.000   0.0% |
  DenseAtomicCorrection:             0.000     0.000   0.0% |
  Distribute overlap matrix:         1.708     1.708   0.0% |
  Orbital Layouts:                   5.502     5.502   0.0% |
  Potential matrix:                  0.001     0.001   0.0% |
  Sum over cells:                    0.001     0.001   0.0% |
 LCAO to grid:                       2.262     2.262   0.0% |
 Set positions (LCAO WFS):           1.596     0.777   0.0% |
  Basic WFS set positions:           0.001     0.001   0.0% |
  Basis functions set positions:     0.000     0.000   0.0% |
  P tci:                             0.001     0.001   0.0% |
  ST tci:                            0.098     0.098   0.0% |
  mktci:                             0.719     0.719   0.0% |
SCF-cycle:                       19176.344   573.010   2.8% ||
 Davidson:                        2479.085  1143.643   5.6% |-|
  Apply hamiltonian:               189.140   189.140   0.9% |
  Subspace diag:                   279.725     0.024   0.0% |
   calc_h_matrix:                  197.346    18.491   0.1% |
    Apply hamiltonian:             178.855   178.855   0.9% |
   diagonalize:                     40.374    40.374   0.2% |
   rotate_psi:                      41.981    41.981   0.2% |
  calc. matrices:                  753.553   311.687   1.5% ||
   Apply hamiltonian:              441.866   441.866   2.2% ||
  diagonalize:                       0.818     0.818   0.0% |
  rotate_psi:                      112.207   112.207   0.6% |
 Density:                           72.343     0.003   0.0% |
  Atomic density matrices:          44.839    44.839   0.2% |
  Mix:                              17.885    17.885   0.1% |
  Multipole moments:                 0.366     0.366   0.0% |
  Pseudo density:                    9.250     9.246   0.0% |
   Symmetrize density:               0.004     0.004   0.0% |
 Hamiltonian:                    16050.592     0.017   0.0% |
  Atomic:                            9.805     0.123   0.0% |
   XC Correction:                    9.682     9.682   0.0% |
  Calculate atomic Hamiltonians:    20.646    20.646   0.1% |
  Communicate:                     106.409   106.409   0.5% |
  Hartree integrate/restrict:        5.618     5.618   0.0% |
  Poisson:                         299.887   122.971   0.6% |
   Communicate from 1D:             49.558    49.558   0.2% |
   Communicate from 2D:             67.198    67.198   0.3% |
   Communicate to 1D:                3.191     3.191   0.0% |
   Communicate to 2D:               30.791    30.791   0.2% |
   FFT 1D:                          14.058    14.058   0.1% |
   FFT 2D:                          12.119    12.119   0.1% |
  XC 3D grid:                    15607.717   893.274   4.4% |-|
   VdW-DF integral:              14714.442     8.288   0.0% |
    Convolution:                   106.805   106.805   0.5% |
    FFT:                            41.451    41.451   0.2% |
    gather:                      13375.168 13375.168  65.8% |-------------------------|
    hmm1:                           36.617    36.617   0.2% |
    hmm2:                           34.736    34.736   0.2% |
    iFFT:                           49.131    49.131   0.2% |
    potential:                    1062.246     4.606   0.0% |
     collect:                      177.054   177.054   0.9% |
     p1:                           162.847   162.847   0.8% |
     p2:                            52.079    52.079   0.3% |
     sum:                          665.661   665.661   3.3% ||
    splines:                         0.001     0.001   0.0% |
  vbar:                              0.494     0.494   0.0% |
 Orthonormalize:                     1.313     0.000   0.0% |
  calc_s_matrix:                     0.097     0.097   0.0% |
  inverse-cholesky:                  0.998     0.998   0.0% |
  projections:                       0.005     0.005   0.0% |
  rotate_psi_s:                      0.213     0.213   0.0% |
Set symmetry:                        0.002     0.002   0.0% |
Other:                            1104.559  1104.559   5.4% |-|
-----------------------------------------------------------
Total:                                     20334.063 100.0%

Memory usage: 1.44 GiB
Date: Wed Mar 15 03:03:20 2023
