
  ___ ___ ___ _ _ _  
 |   |   |_  | | | | 
 | | | | | . | | | | 
 |__ |  _|___|_____|  22.8.0
 |___|_|             

User:   vazumah@r119.ib.bridges2.psc.edu
Date:   Mon Apr  3 17:38:38 2023
Arch:   x86_64
Pid:    91725
CWD:    /jet/home/vazumah/Calcs/Herc_headaches/BH3_retest/bridge/8.085_1.617/N2_y
Python: 3.11.0
gpaw:   /jet/home/vazumah/.conda/envs/GPAW_mpich/lib/python3.11/site-packages/gpaw
_gpaw:  /jet/home/vazumah/.conda/envs/GPAW_mpich/lib/python3.11/site-packages/
        _gpaw.cpython-311-x86_64-linux-gnu.so
ase:    /jet/home/vazumah/.conda/envs/GPAW_mpich/lib/python3.11/site-packages/ase (version 3.22.1)
numpy:  /jet/home/vazumah/.conda/envs/GPAW_mpich/lib/python3.11/site-packages/numpy (version 1.24.2)
scipy:  /jet/home/vazumah/.conda/envs/GPAW_mpich/lib/python3.11/site-packages/scipy (version 1.10.1)
libxc:  5.2.3
units:  Angstrom and eV
cores: 128
OpenMP: True
OMP_NUM_THREADS: 1

Reading from output.gpw
Read dipole, energy, free_energy, magmom, magmoms
Reading input parameters:
  h: 0.16
  kpts: {size: [4, 4, 1]}
  occupations: {name: fermi-dirac,
                width: 0.05}
  poissonsolver: {dipolelayer: xy}
  xc: BEEF-vdW

Initialize ...

species:
  Li:
    name: Lithium
    id: 830b4218f175192f93f959cfc0aad614
    Z: 3.0
    valence: 1
    core: 2
    charge: 0.0
    file: /jet/home/vazumah/datasets/gpaw-setups-0.9.20000/Li.PBE.gz
    compensation charges: {type: gauss,
                           rc: 0.33,
                           lmax: 2}
    cutoffs: {filter: 1.91,
              core: 2.55}
    valence states:
      #              energy  rcut
      - 2s(1.00)    -2.874   1.058
      - 2p(0.00)    -1.090   1.058
      -  s          24.337   1.058
  
    # Using partial waves for Li as LCAO basis

  B:
    name: Boron
    id: 6e91439235a05fd7549e31636e8f777c
    Z: 5.0
    valence: 3
    core: 2
    charge: 0.0
    file: /jet/home/vazumah/datasets/gpaw-setups-0.9.20000/B.PBE.gz
    compensation charges: {type: gauss,
                           rc: 0.20,
                           lmax: 2}
    cutoffs: {filter: 1.14,
              core: 1.38}
    valence states:
      #              energy  rcut
      - 2s(2.00)    -9.443   0.635
      - 2p(1.00)    -3.606   0.635
      -  s          17.768   0.635
      -  p          23.605   0.635
      -  d           0.000   0.635
  
    # Using partial waves for B as LCAO basis

  H:
    name: Hydrogen
    id: d65de229564ff8ea4db303e23b6d1ecf
    Z: 1.0
    valence: 1
    core: 0
    charge: 0.0
    file: /jet/home/vazumah/datasets/gpaw-setups-0.9.20000/H.PBE.gz
    compensation charges: {type: gauss,
                           rc: 0.15,
                           lmax: 2}
    cutoffs: {filter: 0.85,
              core: 0.53}
    valence states:
      #              energy  rcut
      - 1s(1.00)    -6.494   0.476
      -  s          20.717   0.476
      -  p           0.000   0.476
  
    # Using partial waves for H as LCAO basis

  N:
    name: Nitrogen
    id: f7500608b86eaa90eef8b1d9a670dc53
    Z: 7.0
    valence: 5
    core: 2
    charge: 0.0
    file: /jet/home/vazumah/datasets/gpaw-setups-0.9.20000/N.PBE.gz
    compensation charges: {type: gauss,
                           rc: 0.18,
                           lmax: 2}
    cutoffs: {filter: 1.11,
              core: 0.96}
    valence states:
      #              energy  rcut
      - 2s(2.00)   -18.583   0.603
      - 2p(3.00)    -7.089   0.529
      -  s           8.629   0.603
      -  p          20.123   0.529
      -  d           0.000   0.577
  
    # Using partial waves for N as LCAO basis

Reference energy: -10970.764591  # eV

Spin-paired calculation

Convergence criteria:
 Maximum [total energy] change in last 3 cyles: 0.0005 eV / electron
 Maximum integral of absolute [dens]ity change: 0.0001 electrons / valence electron
 Maximum integral of absolute [eigenst]ate change: 4e-08 eV^2 / valence electron
 Maximum number of scf [iter]ations: 333
 (Square brackets indicate name in SCF output, whereas a 'c' in
 the SCF output indicates the quantity has converged.)

Symmetries present (total): 1

  ( 1  0  0)
  ( 0  1  0)
  ( 0  0  1)

16 k-points: 4 x 4 x 1 Monkhorst-Pack grid
8 k-points in the irreducible part of the Brillouin zone
       k-points in crystal coordinates                weights
   0:     0.12500000   -0.37500000    0.00000000          2/16
   1:     0.12500000   -0.12500000    0.00000000          2/16
   2:     0.12500000    0.12500000    0.00000000          2/16
   3:     0.12500000    0.37500000    0.00000000          2/16
   4:     0.37500000   -0.37500000    0.00000000          2/16
   5:     0.37500000   -0.12500000    0.00000000          2/16
   6:     0.37500000    0.12500000    0.00000000          2/16
   7:     0.37500000    0.37500000    0.00000000          2/16

Wave functions: Uniform real-space grid
  Kinetic energy operator: 6*3+1=19 point O(h^6) finite-difference Laplacian
  ScaLapack parameters: grid=1x1, blocksize=None
  Wavefunction extrapolation:
    Improved wavefunction reuse through dual PAW basis 

Occupation numbers: Fermi-Dirac:
  width: 0.0500  # eV
 

Eigensolver
   Davidson(niter=2) 

Densities:
  Coarse grid: 60*60*164 grid
  Fine grid: 120*120*328 grid
  Total Charge: 0.000000 

Density mixing:
  Method: separate
  Backend: pulay
  Linear mixing parameter: 0.05
  old densities: 5
  Damping of long wavelength oscillations: 50 

Hamiltonian:
  XC and Coulomb potentials evaluated on a 120*120*328 grid
  Using the BEEF-vdW Exchange-Correlation functional
  Interpolation: tri-quintic (5. degree polynomial)
  Poisson solver: FastPoissonSolver using
    Stencil: 6*3+1=19 point O(h^6) finite-difference Laplacian
    FFT axes: [0, 1]
    FST axes: [2]

Dipole correction along z-axis 

XC parameters: BEEF-vdW with 2 nearest neighbor stencil

Memory estimate:
  Process memory now: 114.21 MiB
  Calculator: 71.04 MiB
    Density: 22.22 MiB
      Arrays: 7.22 MiB
      Localized functions: 12.25 MiB
      Mixer: 2.75 MiB
    Hamiltonian: 5.69 MiB
      Arrays: 4.72 MiB
      XC: 0.00 MiB
      Poisson: 0.00 MiB
      vbar: 0.97 MiB
    Wavefunctions: 43.13 MiB
      Arrays psit_nG: 19.78 MiB
      Eigensolver: 22.72 MiB
      Projections: 0.01 MiB
      Projectors: 0.62 MiB

Total number of cores used: 128
Parallelization over k-points: 8
Domain decomposition: 2 x 2 x 4

Number of atoms: 42
Number of atomic orbitals: 159
Number of bands in calculation: 36
Number of valence electrons: 52
Bands to converge: occupied

... initialized

Initializing position-dependent things.

Creating initial wave functions:
  36 bands from LCAO basis set

       .-----------------------.  
      /|                       |  
     / |                       |  
    /  |                       |  
   /   |                       |  
  /    |                       |  
 *     |                       |  
 |     |                       |  
 |     |                       |  
 |     |                       |  
 |     |                       |  
 |     |                       |  
 |     |                       |  
 |     |       Li              |  
 |     |                       |  
 |   Li|     Li    H Li H      |  
 |     |              B   Li   |  
 |     |  LLi     LiLH    Li   |  
 |     |          Li  N  Li    |  
 |     |Li      Li      Li     |  
 |   LLi     Li      Li        |  
 |     |  Li  Li  Li  Li  Li   |  
 | Li  |   Li      Li          |  
 |     |Li      Li      Li     |  
 Li    | Li      Li            |  
 |    Li      Li      Li       |  
 |     |                       |  
 |     |                       |  
 |     |                       |  
 |     |                       |  
 |     |                       |  
 |     |                       |  
 |     .-----------------------.  
 |    /                       /   
 |   /                       /    
 |  /                       /     
 | /                       /      
 |/                       /       
 *-----------------------*        

Positions:
   0 Li     1.617037    1.617037   10.000000    ( 0.0000,  0.0000,  0.0000)
   1 Li     4.851111    1.617037   10.000000    ( 0.0000,  0.0000,  0.0000)
   2 Li     8.085185    1.617037   10.000000    ( 0.0000,  0.0000,  0.0000)
   3 Li     1.617037    4.851111   10.000000    ( 0.0000,  0.0000,  0.0000)
   4 Li     4.851111    4.851111   10.000000    ( 0.0000,  0.0000,  0.0000)
   5 Li     8.085185    4.851111   10.000000    ( 0.0000,  0.0000,  0.0000)
   6 Li     1.617037    8.085185   10.000000    ( 0.0000,  0.0000,  0.0000)
   7 Li     4.851111    8.085185   10.000000    ( 0.0000,  0.0000,  0.0000)
   8 Li     8.085185    8.085185   10.000000    ( 0.0000,  0.0000,  0.0000)
   9 Li     0.000000    0.000000   11.617037    ( 0.0000,  0.0000,  0.0000)
  10 Li     3.234074    0.000000   11.617037    ( 0.0000,  0.0000,  0.0000)
  11 Li     6.468148    0.000000   11.617037    ( 0.0000,  0.0000,  0.0000)
  12 Li     0.000000    3.234074   11.617037    ( 0.0000,  0.0000,  0.0000)
  13 Li     3.234074    3.234074   11.617037    ( 0.0000,  0.0000,  0.0000)
  14 Li     6.468148    3.234074   11.617037    ( 0.0000,  0.0000,  0.0000)
  15 Li     0.000000    6.468148   11.617037    ( 0.0000,  0.0000,  0.0000)
  16 Li     3.234074    6.468148   11.617037    ( 0.0000,  0.0000,  0.0000)
  17 Li     6.468148    6.468148   11.617037    ( 0.0000,  0.0000,  0.0000)
  18 Li     1.583979    1.610954   13.590824    ( 0.0000,  0.0000,  0.0000)
  19 Li     4.881308    1.608270   13.581104    ( 0.0000,  0.0000,  0.0000)
  20 Li     8.100689    1.637067   13.532698    ( 0.0000,  0.0000,  0.0000)
  21 Li     1.562614    4.866119   13.545881    ( 0.0000,  0.0000,  0.0000)
  22 Li     4.894768    4.870233   13.540178    ( 0.0000,  0.0000,  0.0000)
  23 Li     8.085641    5.029772   13.467295    ( 0.0000,  0.0000,  0.0000)
  24 Li     1.637712    8.151869   13.529748    ( 0.0000,  0.0000,  0.0000)
  25 Li     4.829445    8.156984   13.531242    ( 0.0000,  0.0000,  0.0000)
  26 Li     8.082661    8.208384   13.560472    ( 0.0000,  0.0000,  0.0000)
  27 Li    -0.264261    0.390406   16.007771    ( 0.0000,  0.0000,  0.0000)
  28 Li     3.230858   -0.023985   15.544626    ( 0.0000,  0.0000,  0.0000)
  29 Li     6.714729    0.411345   16.020656    ( 0.0000,  0.0000,  0.0000)
  30 Li    -0.241126    3.360561   15.589072    ( 0.0000,  0.0000,  0.0000)
  31 Li     3.228406    3.295258   15.468055    ( 0.0000,  0.0000,  0.0000)
  32 Li     6.684123    3.357648   15.560392    ( 0.0000,  0.0000,  0.0000)
  33 Li     0.121247    6.597963   15.523808    ( 0.0000,  0.0000,  0.0000)
  34 Li     3.234781    6.498933   15.506972    ( 0.0000,  0.0000,  0.0000)
  35 Li     6.350714    6.602976   15.524593    ( 0.0000,  0.0000,  0.0000)
  36 B      8.074806    1.310211   17.754041    ( 0.0000,  0.0000,  0.0000)
  37 H      9.108751    1.463212   18.387322    ( 0.0000,  0.0000,  0.0000)
  38 H      7.094670    1.459094   18.458426    ( 0.0000,  0.0000,  0.0000)
  39 H      8.080884    0.117318   17.286599    ( 0.0000,  0.0000,  0.0000)
  40 N      8.011499    2.300956   16.574114    ( 0.0000,  0.0000,  0.0000)
  41 N      8.101323    1.845587   15.338538    ( 0.0000,  0.0000,  0.0000)

Unit cell:
           periodic     x           y           z      points  spacing
  1. axis:    yes    9.702222    0.000000    0.000000    60     0.1617
  2. axis:    yes    0.000000    9.702222    0.000000    60     0.1617
  3. axis:    no     0.000000    0.000000   26.351111   164     0.1607

  Lengths:   9.702222   9.702222  26.351111
  Angles:   90.000000  90.000000  90.000000

Effective grid spacing dv^(1/3) = 0.1614

     iter     time        total  log10-change:
                         energy  eigst   dens
iter:   1 17:38:53  -256.760035  +0.98
iter:   2 17:39:00  -257.212524  +0.38  -1.73
iter:   3 17:39:07  -257.339218  -0.09  -2.00
iter:   4 17:39:14  -257.388231  -0.49  -2.25
Writing to output.gpw (mode='')

iter:   5 17:39:27  -257.409360  -0.85  -2.53
iter:   6 17:39:35  -257.419041  -1.19  -2.75
iter:   7 17:39:42  -257.423199c -1.52  -2.79
iter:   8 17:39:49  -257.425812c -1.78  -3.02
iter:   9 17:39:56  -257.427379c -2.00  -3.13
Writing to output.gpw (mode='')

iter:  10 17:40:03  -257.428348c -2.19  -3.13
iter:  11 17:40:10  -257.429017c -2.35  -3.11
iter:  12 17:40:17  -257.429471c -2.55  -3.14
iter:  13 17:40:24  -257.429817c -2.64  -3.09
iter:  14 17:40:31  -257.430057c -2.80  -2.91
Writing to output.gpw (mode='')

iter:  15 17:40:38  -257.430270c -2.90  -2.88
iter:  16 17:40:45  -257.430434c -2.98  -2.80
iter:  17 17:40:52  -257.430458c -3.19  -2.75
iter:  18 17:40:59  -257.430473c -3.22  -2.85
iter:  19 17:41:06  -257.430544c -3.25  -3.10
Writing to output.gpw (mode='')

iter:  20 17:41:13  -257.430542c -3.65  -3.37
iter:  21 17:41:20  -257.430609c -3.62  -3.37
iter:  22 17:41:27  -257.430603c -3.89  -3.55
iter:  23 17:41:34  -257.430615c -3.96  -3.67
iter:  24 17:41:43  -257.430634c -4.07  -3.69
Writing to output.gpw (mode='')

iter:  25 17:41:55  -257.430638c -4.11  -3.87
iter:  26 17:42:06  -257.430642c -4.14  -4.02c
iter:  27 17:42:14  -257.430654c -4.43  -4.02c
iter:  28 17:42:21  -257.430669c -4.44  -4.07c
iter:  29 17:42:28  -257.430674c -4.65  -4.17c
Writing to output.gpw (mode='')

iter:  30 17:42:35  -257.430680c -4.72  -4.24c
iter:  31 17:42:42  -257.430689c -4.67  -4.29c
iter:  32 17:42:49  -257.430690c -5.00  -4.31c
iter:  33 17:42:55  -257.430693c -5.03  -4.31c
iter:  34 17:43:02  -257.430698c -5.12  -4.31c
Writing to output.gpw (mode='')

iter:  35 17:43:09  -257.430699c -5.30  -4.41c
iter:  36 17:43:16  -257.430700c -5.31  -4.41c
iter:  37 17:43:23  -257.430701c -5.48  -4.49c
iter:  38 17:43:30  -257.430702c -5.50  -4.48c
iter:  39 17:43:36  -257.430700c -5.60  -4.47c
Writing to output.gpw (mode='')

iter:  40 17:43:43  -257.430703c -5.65  -4.32c
iter:  41 17:43:50  -257.430705c -5.72  -4.43c
iter:  42 17:43:57  -257.430707c -5.68  -4.55c
iter:  43 17:44:04  -257.430708c -5.87  -4.60c
iter:  44 17:44:11  -257.430709c -5.94  -4.66c
Writing to output.gpw (mode='')

iter:  45 17:44:17  -257.430709c -6.10  -4.69c
iter:  46 17:44:31  -257.430710c -6.08  -4.77c
iter:  47 17:44:38  -257.430709c -6.20  -4.99c
iter:  48 17:44:45  -257.430709c -6.27  -5.06c
iter:  49 17:44:51  -257.430709c -6.08  -5.08c
Writing to output.gpw (mode='')

iter:  50 17:44:58  -257.430709c -6.54  -5.19c
iter:  51 17:45:05  -257.430709c -6.53  -5.23c
iter:  52 17:45:12  -257.430710c -6.61  -5.22c
iter:  53 17:45:19  -257.430710c -6.66  -5.22c
iter:  54 17:45:26  -257.430709c -6.58  -5.20c
Writing to output.gpw (mode='')

iter:  55 17:45:32  -257.430709c -6.93  -5.10c
iter:  56 17:45:39  -257.430709c -7.02  -5.07c
iter:  57 17:45:46  -257.430710c -6.82  -5.13c
iter:  58 17:45:53  -257.430710c -7.13  -5.22c
iter:  59 17:46:00  -257.430711c -7.04  -5.19c
Writing to output.gpw (mode='')

iter:  60 17:46:07  -257.430710c -7.34  -5.25c
iter:  61 17:46:13  -257.430711c -7.39  -5.18c
iter:  62 17:46:20  -257.430711c -7.30  -5.32c
iter:  63 17:46:27  -257.430711c -7.23  -5.42c
iter:  64 17:46:34  -257.430711c -7.54c -5.47c

Converged after 64 iterations.

Dipole moment: (1.834696, -9.333145, -0.278579) |e|*Ang

Energy contributions relative to reference atoms: (reference = -10970.764591)

Kinetic:       +108.848540
Potential:      -98.274288
External:        +0.000000
XC:            -268.272602
Entropy (-ST):   -0.167324
Local:           +0.351300
--------------------------
Free energy:   -257.514373
Extrapolated:  -257.430711

Dipole-layer corrected work functions: 3.426210, 3.961735 eV

Showing only first 2 kpts
 Kpt  Band  Eigenvalues  Occupancy
  0    24     -3.86204    1.93295
  0    25     -3.78934    1.74144
  0    26     -3.64376    0.53621
  0    27     -3.49760    0.03863

  1    24     -3.96006    1.99028
  1    25     -3.66787    0.74471
  1    26     -3.61793    0.35870
  1    27     -3.60534    0.29041


Fermi level: -3.69397

No gap
Writing to output.gpw (mode='')


Forces in eV/Ang:
  0 Li   -0.00205   -0.00564   -0.29198
  1 Li   -0.00399   -0.00704   -0.29275
  2 Li    0.00236   -0.01450   -0.25625
  3 Li    0.01041   -0.00148   -0.28344
  4 Li   -0.00639   -0.00172   -0.28664
  5 Li    0.00320   -0.00425   -0.27618
  6 Li    0.01657   -0.00967   -0.28782
  7 Li   -0.01229   -0.01037   -0.28363
  8 Li    0.00257   -0.00241   -0.27361
  9 Li    0.00204    0.03279    0.22949
 10 Li   -0.00216    0.06683    0.27344
 11 Li    0.00870    0.03904    0.23874
 12 Li    0.00275   -0.00255    0.29427
 13 Li    0.00182   -0.01819    0.35535
 14 Li    0.00676   -0.00314    0.30851
 15 Li    0.01619    0.08300    0.27742
 16 Li   -0.00362    0.01764    0.32640
 17 Li   -0.02571    0.07906    0.27728
 18 Li    0.02563   -0.00037   -0.02003
 19 Li   -0.02939   -0.00122   -0.02784
 20 Li    0.02309   -0.01517   -0.01957
 21 Li    0.02782    0.00175    0.00204
 22 Li   -0.03291    0.00283    0.00129
 23 Li   -0.00326    0.00398    0.00300
 24 Li   -0.05415    0.01427    0.04346
 25 Li    0.05329    0.01936    0.04908
 26 Li   -0.00351   -0.03976    0.02619
 27 Li   -0.00116   -0.00831   -0.07860
 28 Li   -0.00280   -0.00841   -0.00013
 29 Li    0.05003    0.04897   -0.06031
 30 Li   -0.05175    0.03234    0.03310
 31 Li   -0.00001    0.00268    0.01308
 32 Li    0.03101    0.04445    0.00427
 33 Li   -0.05684   -0.02174   -0.02979
 34 Li   -0.00045   -0.03654   -0.02993
 35 Li    0.06072   -0.02159   -0.03036
 36 B    -0.00708    0.07055    0.13558
 37 H     0.00999   -0.09981    0.00600
 38 H     0.03525   -0.14100    0.11007
 39 H    -0.03725    0.07269   -0.00051
 40 N    -0.06067   -0.06298   -0.00167
 41 N    -0.01425   -0.13175   -0.15708

System changes: positions 

Initializing position-dependent things.

Density initialized from wave functions
       .-----------------------.  
      /|                       |  
     / |                       |  
    /  |                       |  
   /   |                       |  
  /    |                       |  
 *     |                       |  
 |     |                       |  
 |     |                       |  
 |     |                       |  
 |     |                       |  
 |     |                       |  
 |     |                       |  
 |     |       Li              |  
 |     |                       |  
 |   Li|     Li    H Li H      |  
 |     |              B   Li   |  
 |     |  LLi     LiLH    Li   |  
 |     |          Li  N  Li    |  
 |     |Li      Li      Li     |  
 |   LLi     Li      Li        |  
 |     |  Li  Li  Li  Li  Li   |  
 | Li  |   Li      Li          |  
 |     |Li      Li      Li     |  
 Li    | Li      Li            |  
 |    Li      Li      Li       |  
 |     |                       |  
 |     |                       |  
 |     |                       |  
 |     |                       |  
 |     |                       |  
 |     |                       |  
 |     .-----------------------.  
 |    /                       /   
 |   /                       /    
 |  /                       /     
 | /                       /      
 |/                       /       
 *-----------------------*        

Positions:
   0 Li     1.617037    1.617037   10.000000    ( 0.0000,  0.0000,  0.0000)
   1 Li     4.851111    1.617037   10.000000    ( 0.0000,  0.0000,  0.0000)
   2 Li     8.085185    1.617037   10.000000    ( 0.0000,  0.0000,  0.0000)
   3 Li     1.617037    4.851111   10.000000    ( 0.0000,  0.0000,  0.0000)
   4 Li     4.851111    4.851111   10.000000    ( 0.0000,  0.0000,  0.0000)
   5 Li     8.085185    4.851111   10.000000    ( 0.0000,  0.0000,  0.0000)
   6 Li     1.617037    8.085185   10.000000    ( 0.0000,  0.0000,  0.0000)
   7 Li     4.851111    8.085185   10.000000    ( 0.0000,  0.0000,  0.0000)
   8 Li     8.085185    8.085185   10.000000    ( 0.0000,  0.0000,  0.0000)
   9 Li     0.000000    0.000000   11.617037    ( 0.0000,  0.0000,  0.0000)
  10 Li     3.234074    0.000000   11.617037    ( 0.0000,  0.0000,  0.0000)
  11 Li     6.468148    0.000000   11.617037    ( 0.0000,  0.0000,  0.0000)
  12 Li     0.000000    3.234074   11.617037    ( 0.0000,  0.0000,  0.0000)
  13 Li     3.234074    3.234074   11.617037    ( 0.0000,  0.0000,  0.0000)
  14 Li     6.468148    3.234074   11.617037    ( 0.0000,  0.0000,  0.0000)
  15 Li     0.000000    6.468148   11.617037    ( 0.0000,  0.0000,  0.0000)
  16 Li     3.234074    6.468148   11.617037    ( 0.0000,  0.0000,  0.0000)
  17 Li     6.468148    6.468148   11.617037    ( 0.0000,  0.0000,  0.0000)
  18 Li     1.581941    1.614253   13.591115    ( 0.0000,  0.0000,  0.0000)
  19 Li     4.882321    1.611338   13.580173    ( 0.0000,  0.0000,  0.0000)
  20 Li     8.102724    1.654278   13.532824    ( 0.0000,  0.0000,  0.0000)
  21 Li     1.558893    4.866901   13.547671    ( 0.0000,  0.0000,  0.0000)
  22 Li     4.897247    4.871425   13.541454    ( 0.0000,  0.0000,  0.0000)
  23 Li     8.085620    5.026229   13.463804    ( 0.0000,  0.0000,  0.0000)
  24 Li     1.640287    8.149556   13.527826    ( 0.0000,  0.0000,  0.0000)
  25 Li     4.826675    8.155358   13.529544    ( 0.0000,  0.0000,  0.0000)
  26 Li     8.082385    8.224709   13.560141    ( 0.0000,  0.0000,  0.0000)
  27 Li    -0.263133    0.386696   15.984624    ( 0.0000,  0.0000,  0.0000)
  28 Li     3.230450   -0.024538   15.541024    ( 0.0000,  0.0000,  0.0000)
  29 Li     6.711656    0.410901   15.998732    ( 0.0000,  0.0000,  0.0000)
  30 Li    -0.249077    3.368976   15.598223    ( 0.0000,  0.0000,  0.0000)
  31 Li     3.227734    3.296070   15.469096    ( 0.0000,  0.0000,  0.0000)
  32 Li     6.689097    3.365976   15.566611    ( 0.0000,  0.0000,  0.0000)
  33 Li     0.124108    6.610721   15.527278    ( 0.0000,  0.0000,  0.0000)
  34 Li     3.234772    6.499451   15.514735    ( 0.0000,  0.0000,  0.0000)
  35 Li     6.348316    6.616257   15.527985    ( 0.0000,  0.0000,  0.0000)
  36 B      8.073392    1.282063   17.747692    ( 0.0000,  0.0000,  0.0000)
  37 H      9.110559    1.423970   18.379782    ( 0.0000,  0.0000,  0.0000)
  38 H      7.097403    1.421057   18.460270    ( 0.0000,  0.0000,  0.0000)
  39 H      8.081613    0.097245   17.259492    ( 0.0000,  0.0000,  0.0000)
  40 N      8.002561    2.288235   16.579473    ( 0.0000,  0.0000,  0.0000)
  41 N      8.104082    1.847881   15.338839    ( 0.0000,  0.0000,  0.0000)

Unit cell:
           periodic     x           y           z      points  spacing
  1. axis:    yes    9.702222    0.000000    0.000000    60     0.1617
  2. axis:    yes    0.000000    9.702222    0.000000    60     0.1617
  3. axis:    no     0.000000    0.000000   26.351111   164     0.1607

  Lengths:   9.702222   9.702222  26.351111
  Angles:   90.000000  90.000000  90.000000

Effective grid spacing dv^(1/3) = 0.1614

     iter     time        total  log10-change:
                         energy  eigst   dens
iter:   1 17:46:42  -257.442340  -0.84
iter:   2 17:46:49  -257.443155  -1.61  -2.10
iter:   3 17:46:56  -257.444308c -2.06  -2.16
iter:   4 17:47:03  -257.447527c -2.20  -2.15
Writing to output.gpw (mode='')

iter:   5 17:47:09  -257.438147c -2.28  -2.08
iter:   6 17:47:16  -257.436714c -2.06  -2.47
iter:   7 17:47:23  -257.436863c -2.50  -2.73
iter:   8 17:47:30  -257.437708c -2.20  -2.74
iter:   9 17:47:37  -257.437402c -3.02  -2.55
Writing to output.gpw (mode='')

iter:  10 17:47:44  -257.438561c -2.58  -2.60
iter:  11 17:47:51  -257.438873c -2.93  -2.48
iter:  12 17:47:57  -257.437151c -3.17  -2.43
iter:  13 17:48:04  -257.436803c -2.85  -2.69
iter:  14 17:48:11  -257.436774c -3.10  -2.90
Writing to output.gpw (mode='')

iter:  15 17:48:18  -257.436782c -3.90  -3.02
iter:  16 17:48:25  -257.436801c -3.32  -3.13
iter:  17 17:48:32  -257.436811c -3.87  -3.15
iter:  18 17:48:39  -257.436790c -4.48  -3.16
iter:  19 17:48:46  -257.436798c -4.47  -3.49
Writing to output.gpw (mode='')

iter:  20 17:48:52  -257.436793c -5.17  -3.60
iter:  21 17:48:59  -257.436786c -4.76  -3.65
iter:  22 17:49:06  -257.436801c -4.55  -3.58
iter:  23 17:49:13  -257.436785c -5.04  -3.55
iter:  24 17:49:20  -257.436782c -4.71  -3.86
Writing to output.gpw (mode='')

iter:  25 17:49:32  -257.436783c -5.40  -3.90
iter:  26 17:49:39  -257.436782c -6.07  -4.08c
iter:  27 17:49:46  -257.436781c -6.15  -4.17c
iter:  28 17:49:53  -257.436782c -6.16  -4.32c
iter:  29 17:50:00  -257.436782c -6.47  -4.41c
Writing to output.gpw (mode='')

iter:  30 17:50:07  -257.436782c -6.72  -4.43c
iter:  31 17:50:14  -257.436782c -6.62  -4.51c
iter:  32 17:50:21  -257.436783c -7.01  -4.57c
iter:  33 17:50:28  -257.436782c -6.69  -4.71c
iter:  34 17:50:34  -257.436782c -7.02  -4.77c
Writing to output.gpw (mode='')

iter:  35 17:50:41  -257.436782c -7.11  -4.80c
iter:  36 17:50:48  -257.436782c -7.33  -5.07c
iter:  37 17:50:55  -257.436782c -7.42c -5.13c

Converged after 37 iterations.

Dipole moment: (1.871641, -9.249783, -0.281426) |e|*Ang

Energy contributions relative to reference atoms: (reference = -10970.764591)

Kinetic:       +108.673611
Potential:      -98.145268
External:        +0.000000
XC:            -268.232623
Entropy (-ST):   -0.167241
Local:           +0.351119
--------------------------
Free energy:   -257.520403
Extrapolated:  -257.436782

Dipole-layer corrected work functions: 3.426417, 3.967414 eV

Showing only first 2 kpts
 Kpt  Band  Eigenvalues  Occupancy
  0    24     -3.86552    1.93364
  0    25     -3.79373    1.74788
  0    26     -3.64618    0.53214
  0    27     -3.50082    0.03884

  1    24     -3.96375    1.99042
  1    25     -3.67278    0.76322
  1    26     -3.62135    0.36149
  1    27     -3.60746    0.28636


Fermi level: -3.69692

No gap
Writing to output.gpw (mode='')


Forces in eV/Ang:
  0 Li   -0.00245   -0.00520   -0.29224
  1 Li   -0.00432   -0.00682   -0.29312
  2 Li    0.00270   -0.01385   -0.25520
  3 Li    0.01004   -0.00123   -0.28311
  4 Li   -0.00554   -0.00153   -0.28657
  5 Li    0.00361   -0.00547   -0.27597
  6 Li    0.01737   -0.01010   -0.28751
  7 Li   -0.01256   -0.01088   -0.28277
  8 Li    0.00292   -0.00279   -0.27405
  9 Li    0.00434    0.03680    0.23164
 10 Li   -0.00254    0.06862    0.27350
 11 Li    0.00759    0.04393    0.24219
 12 Li    0.00565   -0.00023    0.28711
 13 Li    0.00202   -0.01635    0.35635
 14 Li    0.00508   -0.00118    0.30343
 15 Li    0.01331    0.08592    0.27769
 16 Li   -0.00393    0.01432    0.32423
 17 Li   -0.02407    0.08163    0.27753
 18 Li    0.02776   -0.00210   -0.02148
 19 Li   -0.03112   -0.00293   -0.03011
 20 Li    0.02610   -0.02289   -0.03404
 21 Li    0.03051    0.00201    0.00551
 22 Li   -0.03634    0.00344    0.00445
 23 Li   -0.00369    0.01490    0.01336
 24 Li   -0.05586    0.01597    0.04327
 25 Li    0.05480    0.02156    0.04926
 26 Li   -0.00407   -0.05604    0.02339
 27 Li    0.00265   -0.01242   -0.06402
 28 Li   -0.00316   -0.00892    0.00040
 29 Li    0.05500    0.05072   -0.04183
 30 Li   -0.04885    0.01692    0.04172
 31 Li    0.00017    0.00270    0.01289
 32 Li    0.03068    0.02544    0.01571
 33 Li   -0.06157   -0.02858   -0.03501
 34 Li   -0.00033   -0.03700   -0.03508
 35 Li    0.06584   -0.02779   -0.03541
 36 B    -0.00477    0.06420    0.11875
 37 H     0.00188   -0.08341   -0.02269
 38 H     0.04038   -0.14319    0.09178
 39 H    -0.05410    0.07280    0.02408
 40 N    -0.05067   -0.01385   -0.04937
 41 N    -0.02710   -0.09597   -0.13495

System changes: positions 

Initializing position-dependent things.

Density initialized from wave functions
       .-----------------------.  
      /|                       |  
     / |                       |  
    /  |                       |  
   /   |                       |  
  /    |                       |  
 *     |                       |  
 |     |                       |  
 |     |                       |  
 |     |                       |  
 |     |                       |  
 |     |                       |  
 |     |                       |  
 |     |       Li              |  
 |     |                       |  
 |   Li|     Li    H Li H      |  
 |     |              B   Li   |  
 |     |  LLi     LiLH    Li   |  
 |     |          Li  N  Li    |  
 |     |Li      Li      Li     |  
 |   LLi     Li      Li        |  
 |     |  Li  Li  Li  Li  Li   |  
 | Li  |   Li      Li          |  
 |     |Li      Li      Li     |  
 Li    | Li      Li            |  
 |    Li      Li      Li       |  
 |     |                       |  
 |     |                       |  
 |     |                       |  
 |     |                       |  
 |     |                       |  
 |     |                       |  
 |     .-----------------------.  
 |    /                       /   
 |   /                       /    
 |  /                       /     
 | /                       /      
 |/                       /       
 *-----------------------*        

Positions:
   0 Li     1.617037    1.617037   10.000000    ( 0.0000,  0.0000,  0.0000)
   1 Li     4.851111    1.617037   10.000000    ( 0.0000,  0.0000,  0.0000)
   2 Li     8.085185    1.617037   10.000000    ( 0.0000,  0.0000,  0.0000)
   3 Li     1.617037    4.851111   10.000000    ( 0.0000,  0.0000,  0.0000)
   4 Li     4.851111    4.851111   10.000000    ( 0.0000,  0.0000,  0.0000)
   5 Li     8.085185    4.851111   10.000000    ( 0.0000,  0.0000,  0.0000)
   6 Li     1.617037    8.085185   10.000000    ( 0.0000,  0.0000,  0.0000)
   7 Li     4.851111    8.085185   10.000000    ( 0.0000,  0.0000,  0.0000)
   8 Li     8.085185    8.085185   10.000000    ( 0.0000,  0.0000,  0.0000)
   9 Li     0.000000    0.000000   11.617037    ( 0.0000,  0.0000,  0.0000)
  10 Li     3.234074    0.000000   11.617037    ( 0.0000,  0.0000,  0.0000)
  11 Li     6.468148    0.000000   11.617037    ( 0.0000,  0.0000,  0.0000)
  12 Li     0.000000    3.234074   11.617037    ( 0.0000,  0.0000,  0.0000)
  13 Li     3.234074    3.234074   11.617037    ( 0.0000,  0.0000,  0.0000)
  14 Li     6.468148    3.234074   11.617037    ( 0.0000,  0.0000,  0.0000)
  15 Li     0.000000    6.468148   11.617037    ( 0.0000,  0.0000,  0.0000)
  16 Li     3.234074    6.468148   11.617037    ( 0.0000,  0.0000,  0.0000)
  17 Li     6.468148    6.468148   11.617037    ( 0.0000,  0.0000,  0.0000)
  18 Li     1.581709    1.617591   13.590525    ( 0.0000,  0.0000,  0.0000)
  19 Li     4.881378    1.614424   13.578198    ( 0.0000,  0.0000,  0.0000)
  20 Li     8.105313    1.671497   13.531733    ( 0.0000,  0.0000,  0.0000)
  21 Li     1.557167    4.868868   13.547261    ( 0.0000,  0.0000,  0.0000)
  22 Li     4.897729    4.873788   13.540560    ( 0.0000,  0.0000,  0.0000)
  23 Li     8.085515    5.022969   13.455825    ( 0.0000,  0.0000,  0.0000)
  24 Li     1.638715    8.149741   13.530716    ( 0.0000,  0.0000,  0.0000)
  25 Li     4.828051    8.156294   13.532815    ( 0.0000,  0.0000,  0.0000)
  26 Li     8.082010    8.243419   13.565530    ( 0.0000,  0.0000,  0.0000)
  27 Li    -0.260818    0.389274   15.963077    ( 0.0000,  0.0000,  0.0000)
  28 Li     3.230019   -0.025331   15.540229    ( 0.0000,  0.0000,  0.0000)
  29 Li     6.709026    0.418497   15.978691    ( 0.0000,  0.0000,  0.0000)
  30 Li    -0.265522    3.379431   15.598288    ( 0.0000,  0.0000,  0.0000)
  31 Li     3.227215    3.296979   15.470462    ( 0.0000,  0.0000,  0.0000)
  32 Li     6.702020    3.376909   15.563220    ( 0.0000,  0.0000,  0.0000)
  33 Li     0.123738    6.621539   15.529833    ( 0.0000,  0.0000,  0.0000)
  34 Li     3.234721    6.496038   15.520257    ( 0.0000,  0.0000,  0.0000)
  35 Li     6.349241    6.627441   15.530470    ( 0.0000,  0.0000,  0.0000)
  36 B      8.071452    1.257913   17.744858    ( 0.0000,  0.0000,  0.0000)
  37 H      9.110801    1.384534   18.377125    ( 0.0000,  0.0000,  0.0000)
  38 H      7.102209    1.382392   18.469320    ( 0.0000,  0.0000,  0.0000)
  39 H      8.082324    0.082214   17.238675    ( 0.0000,  0.0000,  0.0000)
  40 N      7.993053    2.274093   16.580752    ( 0.0000,  0.0000,  0.0000)
  41 N      8.106572    1.842700   15.336898    ( 0.0000,  0.0000,  0.0000)

Unit cell:
           periodic     x           y           z      points  spacing
  1. axis:    yes    9.702222    0.000000    0.000000    60     0.1617
  2. axis:    yes    0.000000    9.702222    0.000000    60     0.1617
  3. axis:    no     0.000000    0.000000   26.351111   164     0.1607

  Lengths:   9.702222   9.702222  26.351111
  Angles:   90.000000  90.000000  90.000000

Effective grid spacing dv^(1/3) = 0.1614

     iter     time        total  log10-change:
                         energy  eigst   dens
iter:   1 17:51:03  -257.450027  -0.85
iter:   2 17:51:10  -257.451292  -1.64  -2.11
iter:   3 17:51:17  -257.448785c -2.19  -2.16
iter:   4 17:51:24  -257.445905c -2.17  -2.27
Writing to output.gpw (mode='')

iter:   5 17:51:31  -257.444864c -2.52  -2.44
iter:   6 17:51:38  -257.445046c -2.92  -2.61
iter:   7 17:51:45  -257.446237c -1.95  -2.60
iter:   8 17:51:52  -257.445042c -3.08  -2.41
iter:   9 17:51:59  -257.445219c -2.89  -2.61
Writing to output.gpw (mode='')

iter:  10 17:52:06  -257.445139c -3.44  -2.62
iter:  11 17:52:13  -257.444362c -2.86  -2.65
iter:  12 17:52:20  -257.444405c -3.72  -3.00
iter:  13 17:52:27  -257.444425c -4.08  -2.99
iter:  14 17:52:33  -257.444378c -3.82  -3.00
Writing to output.gpw (mode='')

iter:  15 17:52:41  -257.444394c -4.01  -3.23
iter:  16 17:52:48  -257.444398c -4.34  -3.27
iter:  17 17:52:54  -257.444406c -4.91  -3.32
iter:  18 17:53:01  -257.444402c -4.66  -3.39
iter:  19 17:53:08  -257.444391c -4.73  -3.60
Writing to output.gpw (mode='')

iter:  20 17:53:15  -257.444390c -5.01  -3.77
iter:  21 17:53:22  -257.444393c -5.40  -3.84
iter:  22 17:53:29  -257.444385c -5.13  -3.91
iter:  23 17:53:36  -257.444386c -5.58  -4.07c
iter:  24 17:53:43  -257.444388c -5.80  -4.07c
Writing to output.gpw (mode='')

iter:  25 17:53:50  -257.444391c -5.84  -4.13c
iter:  26 17:53:57  -257.444388c -5.87  -4.31c
iter:  27 17:54:04  -257.444389c -6.45  -4.34c
iter:  28 17:54:11  -257.444389c -6.38  -4.39c
iter:  29 17:54:18  -257.444389c -6.57  -4.60c
Writing to output.gpw (mode='')

iter:  30 17:54:31  -257.444390c -6.55  -4.73c
iter:  31 17:54:38  -257.444390c -6.84  -4.87c
iter:  32 17:54:45  -257.444390c -6.93  -4.90c
iter:  33 17:54:52  -257.444390c -7.04  -5.07c
iter:  34 17:54:59  -257.444390c -7.29  -5.13c
Writing to output.gpw (mode='')

iter:  35 17:55:06  -257.444390c -7.42c -5.22c

Converged after 35 iterations.

Dipole moment: (1.978338, -9.103599, -0.286422) |e|*Ang

Energy contributions relative to reference atoms: (reference = -10970.764591)

Kinetic:       +108.556398
Potential:      -98.041479
External:        +0.000000
XC:            -268.226873
Entropy (-ST):   -0.167230
Local:           +0.351179
--------------------------
Free energy:   -257.528005
Extrapolated:  -257.444390

Dipole-layer corrected work functions: 3.427016, 3.977618 eV

Showing only first 2 kpts
 Kpt  Band  Eigenvalues  Occupancy
  0    24     -3.87192    1.93491
  0    25     -3.80060    1.75429
  0    26     -3.65072    0.52541
  0    27     -3.50845    0.04057

  1    24     -3.96877    1.99035
  1    25     -3.68082    0.78832
  1    26     -3.62663    0.36076
  1    27     -3.61161    0.28026


Fermi level: -3.70232

No gap

Forces in eV/Ang:
  0 Li   -0.00284   -0.00528   -0.29236
  1 Li   -0.00465   -0.00707   -0.29349
  2 Li    0.00303   -0.01330   -0.25460
  3 Li    0.00966   -0.00109   -0.28261
  4 Li   -0.00464   -0.00148   -0.28632
  5 Li    0.00402   -0.00687   -0.27619
  6 Li    0.01803   -0.01062   -0.28789
  7 Li   -0.01265   -0.01148   -0.28263
  8 Li    0.00329   -0.00324   -0.27423
  9 Li    0.00642    0.03979    0.23365
 10 Li   -0.00290    0.06758    0.27534
 11 Li    0.00676    0.04788    0.24561
 12 Li    0.00920    0.00185    0.28031
 13 Li    0.00223   -0.01408    0.35556
 14 Li    0.00295    0.00036    0.29905
 15 Li    0.01104    0.09211    0.27838
 16 Li   -0.00431    0.01622    0.32415
 17 Li   -0.02313    0.08754    0.27818
 18 Li    0.02829   -0.00289   -0.02223
 19 Li   -0.03088   -0.00367   -0.03151
 20 Li    0.02886   -0.03686   -0.06445
 21 Li    0.02965    0.00085    0.01050
 22 Li   -0.03648    0.00289    0.00896
 23 Li   -0.00389    0.03196    0.02177
 24 Li   -0.05122    0.01629    0.03763
 25 Li    0.04987    0.02220    0.04356
 26 Li   -0.00456   -0.07084    0.01453
 27 Li    0.00717   -0.02927   -0.03623
 28 Li   -0.00348   -0.01004    0.00056
 29 Li    0.05567    0.03854   -0.01233
 30 Li   -0.03428   -0.00646    0.05401
 31 Li    0.00044    0.00137    0.01225
 32 Li    0.01864   -0.00332    0.03315
 33 Li   -0.06454   -0.03774   -0.03815
 34 Li   -0.00011   -0.03271   -0.03918
 35 Li    0.06914   -0.03599   -0.03823
 36 B     0.00285    0.04749    0.07671
 37 H     0.02103   -0.04889   -0.04125
 38 H     0.03850   -0.12517    0.05733
 39 H    -0.06947    0.04384    0.02885
 40 N    -0.05550   -0.01994    0.01093
 41 N    -0.00248   -0.05390   -0.11283

System changes: positions 

Initializing position-dependent things.

Density initialized from wave functions
       .-----------------------.  
      /|                       |  
     / |                       |  
    /  |                       |  
   /   |                       |  
  /    |                       |  
 *     |                       |  
 |     |                       |  
 |     |                       |  
 |     |                       |  
 |     |                       |  
 |     |                       |  
 |     |                       |  
 |     |       Li              |  
 |     |                       |  
 |   Li|     Li    H Li H      |  
 |     |              B   Li   |  
 |     |  LLi     LiLH    Li   |  
 |     |          Li  N  Li    |  
 |     |Li      Li      Li     |  
 |   LLi     Li      Li        |  
 |     |  Li  Li  Li  Li  Li   |  
 | Li  |   Li      Li          |  
 |     |Li      Li      Li     |  
 Li    | Li      Li            |  
 |    Li      Li      Li       |  
 |     |                       |  
 |     |                       |  
 |     |                       |  
 |     |                       |  
 |     |                       |  
 |     |                       |  
 |     .-----------------------.  
 |    /                       /   
 |   /                       /    
 |  /                       /     
 | /                       /      
 |/                       /       
 *-----------------------*        

Positions:
   0 Li     1.617037    1.617037   10.000000    ( 0.0000,  0.0000,  0.0000)
   1 Li     4.851111    1.617037   10.000000    ( 0.0000,  0.0000,  0.0000)
   2 Li     8.085185    1.617037   10.000000    ( 0.0000,  0.0000,  0.0000)
   3 Li     1.617037    4.851111   10.000000    ( 0.0000,  0.0000,  0.0000)
   4 Li     4.851111    4.851111   10.000000    ( 0.0000,  0.0000,  0.0000)
   5 Li     8.085185    4.851111   10.000000    ( 0.0000,  0.0000,  0.0000)
   6 Li     1.617037    8.085185   10.000000    ( 0.0000,  0.0000,  0.0000)
   7 Li     4.851111    8.085185   10.000000    ( 0.0000,  0.0000,  0.0000)
   8 Li     8.085185    8.085185   10.000000    ( 0.0000,  0.0000,  0.0000)
   9 Li     0.000000    0.000000   11.617037    ( 0.0000,  0.0000,  0.0000)
  10 Li     3.234074    0.000000   11.617037    ( 0.0000,  0.0000,  0.0000)
  11 Li     6.468148    0.000000   11.617037    ( 0.0000,  0.0000,  0.0000)
  12 Li     0.000000    3.234074   11.617037    ( 0.0000,  0.0000,  0.0000)
  13 Li     3.234074    3.234074   11.617037    ( 0.0000,  0.0000,  0.0000)
  14 Li     6.468148    3.234074   11.617037    ( 0.0000,  0.0000,  0.0000)
  15 Li     0.000000    6.468148   11.617037    ( 0.0000,  0.0000,  0.0000)
  16 Li     3.234074    6.468148   11.617037    ( 0.0000,  0.0000,  0.0000)
  17 Li     6.468148    6.468148   11.617037    ( 0.0000,  0.0000,  0.0000)
  18 Li     1.581588    1.620355   13.589708    ( 0.0000,  0.0000,  0.0000)
  19 Li     4.880365    1.616941   13.575919    ( 0.0000,  0.0000,  0.0000)
  20 Li     8.108293    1.689256   13.528039    ( 0.0000,  0.0000,  0.0000)
  21 Li     1.556498    4.870937   13.547658    ( 0.0000,  0.0000,  0.0000)
  22 Li     4.897071    4.876270   13.540458    ( 0.0000,  0.0000,  0.0000)
  23 Li     8.085327    5.019221   13.451703    ( 0.0000,  0.0000,  0.0000)
  24 Li     1.636680    8.149805   13.533152    ( 0.0000,  0.0000,  0.0000)
  25 Li     4.829858    8.157201   13.535733    ( 0.0000,  0.0000,  0.0000)
  26 Li     8.081565    8.257823   13.570008    ( 0.0000,  0.0000,  0.0000)
  27 Li    -0.259230    0.390334   15.939622    ( 0.0000,  0.0000,  0.0000)
  28 Li     3.229527   -0.025916   15.538360    ( 0.0000,  0.0000,  0.0000)
  29 Li     6.708496    0.425867   15.957053    ( 0.0000,  0.0000,  0.0000)
  30 Li    -0.281777    3.387718   15.601924    ( 0.0000,  0.0000,  0.0000)
  31 Li     3.226697    3.298121   15.471648    ( 0.0000,  0.0000,  0.0000)
  32 Li     6.714409    3.385865   15.563019    ( 0.0000,  0.0000,  0.0000)
  33 Li     0.122504    6.632227   15.530927    ( 0.0000,  0.0000,  0.0000)
  34 Li     3.234679    6.492141   15.525159    ( 0.0000,  0.0000,  0.0000)
  35 Li     6.351091    6.638532   15.531488    ( 0.0000,  0.0000,  0.0000)
  36 B      8.069508    1.235678   17.744680    ( 0.0000,  0.0000,  0.0000)
  37 H      9.112389    1.346983   18.375453    ( 0.0000,  0.0000,  0.0000)
  38 H      7.106654    1.344299   18.480686    ( 0.0000,  0.0000,  0.0000)
  39 H      8.081913    0.069041   17.221004    ( 0.0000,  0.0000,  0.0000)
  40 N      7.982824    2.256540   16.580858    ( 0.0000,  0.0000,  0.0000)
  41 N      8.109124    1.833103   15.332521    ( 0.0000,  0.0000,  0.0000)

Unit cell:
           periodic     x           y           z      points  spacing
  1. axis:    yes    9.702222    0.000000    0.000000    60     0.1617
  2. axis:    yes    0.000000    9.702222    0.000000    60     0.1617
  3. axis:    no     0.000000    0.000000   26.351111   164     0.1607

  Lengths:   9.702222   9.702222  26.351111
  Angles:   90.000000  90.000000  90.000000

Effective grid spacing dv^(1/3) = 0.1614

     iter     time        total  log10-change:
                         energy  eigst   dens
iter:   1 17:55:14  -257.456187  -0.86
iter:   2 17:55:24  -257.455591  -1.63  -2.07
iter:   3 17:55:31  -257.453820c -2.16  -2.14
iter:   4 17:55:38  -257.451484c -2.41  -2.23
Writing to output.gpw (mode='')

iter:   5 17:55:45  -257.449224c -2.20  -2.37
iter:   6 17:55:52  -257.449315c -2.46  -2.59
iter:   7 17:55:59  -257.449204c -3.18  -2.59
iter:   8 17:56:06  -257.449223c -2.51  -2.74
iter:   9 17:56:13  -257.449111c -3.24  -2.76
Writing to output.gpw (mode='')

iter:  10 17:56:20  -257.449081c -3.53  -2.86
iter:  11 17:56:27  -257.448891c -3.34  -2.91
iter:  12 17:56:34  -257.448885c -4.09  -3.18
iter:  13 17:56:41  -257.448899c -4.19  -3.26
iter:  14 17:56:48  -257.448902c -4.15  -3.37
Writing to output.gpw (mode='')

iter:  15 17:56:54  -257.448887c -4.33  -3.46
iter:  16 17:57:01  -257.448890c -4.91  -3.58
iter:  17 17:57:08  -257.448891c -4.80  -3.61
iter:  18 17:57:15  -257.448889c -5.30  -3.80
iter:  19 17:57:22  -257.448890c -5.31  -3.94
Writing to output.gpw (mode='')

iter:  20 17:57:29  -257.448893c -5.48  -4.19c
iter:  21 17:57:36  -257.448893c -5.79  -4.21c
iter:  22 17:57:43  -257.448894c -5.76  -4.29c
iter:  23 17:57:50  -257.448894c -5.94  -4.42c
iter:  24 17:57:57  -257.448894c -6.12  -4.47c
Writing to output.gpw (mode='')

iter:  25 17:58:04  -257.448894c -6.18  -4.60c
iter:  26 17:58:11  -257.448893c -6.36  -4.62c
iter:  27 17:58:18  -257.448893c -6.44  -4.82c
iter:  28 17:58:24  -257.448893c -6.63  -4.87c
iter:  29 17:58:31  -257.448893c -6.73  -4.94c
Writing to output.gpw (mode='')

iter:  30 17:58:38  -257.448893c -7.05  -5.02c
iter:  31 17:58:45  -257.448893c -7.00  -5.07c
iter:  32 17:58:52  -257.448893c -6.92  -5.24c
iter:  33 17:58:59  -257.448893c -7.06  -5.35c
iter:  34 17:59:06  -257.448893c -7.35  -5.43c
Writing to output.gpw (mode='')

iter:  35 17:59:12  -257.448893c -7.47c -5.48c

Converged after 35 iterations.

Dipole moment: (2.084330, -8.946660, -0.293094) |e|*Ang

Energy contributions relative to reference atoms: (reference = -10970.764591)

Kinetic:       +108.353583
Potential:      -97.863238
External:        +0.000000
XC:            -268.206937
Entropy (-ST):   -0.167264
Local:           +0.351331
--------------------------
Free energy:   -257.532525
Extrapolated:  -257.448893

Dipole-layer corrected work functions: 3.427891, 3.991319 eV

Showing only first 2 kpts
 Kpt  Band  Eigenvalues  Occupancy
  0    24     -3.88013    1.93607
  0    25     -3.80936    1.76057
  0    26     -3.65685    0.51648
  0    27     -3.51869    0.04299

  1    24     -3.97487    1.99012
  1    25     -3.69127    0.81871
  1    26     -3.63390    0.36068
  1    27     -3.61698    0.27115


Fermi level: -3.70960

No gap

Forces in eV/Ang:
  0 Li   -0.00329   -0.00536   -0.29232
  1 Li   -0.00493   -0.00731   -0.29378
  2 Li    0.00337   -0.01256   -0.25390
  3 Li    0.00941   -0.00085   -0.28234
  4 Li   -0.00381   -0.00132   -0.28632
  5 Li    0.00443   -0.00817   -0.27642
  6 Li    0.01869   -0.01123   -0.28835
  7 Li   -0.01267   -0.01218   -0.28256
  8 Li    0.00367   -0.00376   -0.27457
  9 Li    0.00842    0.04189    0.23520
 10 Li   -0.00328    0.06649    0.27713
 11 Li    0.00611    0.05098    0.24870
 12 Li    0.01327    0.00523    0.27309
 13 Li    0.00244   -0.01168    0.35485
 14 Li    0.00049    0.00300    0.29454
 15 Li    0.00837    0.09630    0.27984
 16 Li   -0.00473    0.01787    0.32393
 17 Li   -0.02197    0.09151    0.27951
 18 Li    0.02857   -0.00223   -0.02287
 19 Li   -0.03038   -0.00296   -0.03285
 20 Li    0.03107   -0.05246   -0.09175
 21 Li    0.02649   -0.00099    0.01445
 22 Li   -0.03441    0.00178    0.01244
 23 Li   -0.00397    0.04810    0.02525
 24 Li   -0.04549    0.01618    0.03176
 25 Li    0.04384    0.02230    0.03734
 26 Li   -0.00512   -0.08009    0.00456
 27 Li    0.01218   -0.04951   -0.00213
 28 Li   -0.00366   -0.01156    0.00160
 29 Li    0.05162    0.02244    0.02247
 30 Li   -0.02321   -0.03629    0.06383
 31 Li    0.00075   -0.00084    0.01219
 32 Li    0.00703   -0.03636    0.04786
 33 Li   -0.06637   -0.04747   -0.03885
 34 Li    0.00011   -0.02725   -0.04240
 35 Li    0.07136   -0.04450   -0.03850
 36 B     0.00474    0.00788   -0.00556
 37 H     0.01591   -0.00793   -0.08229
 38 H     0.04142   -0.09311    0.01862
 39 H    -0.07844    0.00045    0.02836
 40 N    -0.09468    0.01280   -0.00483
 41 N     0.00410    0.07587    0.01323

System changes: positions 

Initializing position-dependent things.

Density initialized from wave functions
       .-----------------------.  
      /|                       |  
     / |                       |  
    /  |                       |  
   /   |                       |  
  /    |                       |  
 *     |                       |  
 |     |                       |  
 |     |                       |  
 |     |                       |  
 |     |                       |  
 |     |                       |  
 |     |                       |  
 |     |       Li              |  
 |     |                       |  
 |   Li|     Li    H Li H      |  
 |     |              B   Li   |  
 |     |  LLi     LiLH    Li   |  
 |     |          Li  N  Li    |  
 |     |Li      Li      Li     |  
 |   LLi     Li      Li        |  
 |     |  Li  Li  Li  Li  Li   |  
 | Li  |   Li      Li          |  
 |     |Li      Li      Li     |  
 Li    | Li      Li            |  
 |    Li      Li      Li       |  
 |     |                       |  
 |     |                       |  
 |     |                       |  
 |     |                       |  
 |     |                       |  
 |     |                       |  
 |     .-----------------------.  
 |    /                       /   
 |   /                       /    
 |  /                       /     
 | /                       /      
 |/                       /       
 *-----------------------*        

Positions:
   0 Li     1.617037    1.617037   10.000000    ( 0.0000,  0.0000,  0.0000)
   1 Li     4.851111    1.617037   10.000000    ( 0.0000,  0.0000,  0.0000)
   2 Li     8.085185    1.617037   10.000000    ( 0.0000,  0.0000,  0.0000)
   3 Li     1.617037    4.851111   10.000000    ( 0.0000,  0.0000,  0.0000)
   4 Li     4.851111    4.851111   10.000000    ( 0.0000,  0.0000,  0.0000)
   5 Li     8.085185    4.851111   10.000000    ( 0.0000,  0.0000,  0.0000)
   6 Li     1.617037    8.085185   10.000000    ( 0.0000,  0.0000,  0.0000)
   7 Li     4.851111    8.085185   10.000000    ( 0.0000,  0.0000,  0.0000)
   8 Li     8.085185    8.085185   10.000000    ( 0.0000,  0.0000,  0.0000)
   9 Li     0.000000    0.000000   11.617037    ( 0.0000,  0.0000,  0.0000)
  10 Li     3.234074    0.000000   11.617037    ( 0.0000,  0.0000,  0.0000)
  11 Li     6.468148    0.000000   11.617037    ( 0.0000,  0.0000,  0.0000)
  12 Li     0.000000    3.234074   11.617037    ( 0.0000,  0.0000,  0.0000)
  13 Li     3.234074    3.234074   11.617037    ( 0.0000,  0.0000,  0.0000)
  14 Li     6.468148    3.234074   11.617037    ( 0.0000,  0.0000,  0.0000)
  15 Li     0.000000    6.468148   11.617037    ( 0.0000,  0.0000,  0.0000)
  16 Li     3.234074    6.468148   11.617037    ( 0.0000,  0.0000,  0.0000)
  17 Li     6.468148    6.468148   11.617037    ( 0.0000,  0.0000,  0.0000)
  18 Li     1.580513    1.621424   13.590031    ( 0.0000,  0.0000,  0.0000)
  19 Li     4.880926    1.617893   13.575479    ( 0.0000,  0.0000,  0.0000)
  20 Li     8.109902    1.696963   13.526387    ( 0.0000,  0.0000,  0.0000)
  21 Li     1.555430    4.870619   13.549412    ( 0.0000,  0.0000,  0.0000)
  22 Li     4.897405    4.876186   13.541927    ( 0.0000,  0.0000,  0.0000)
  23 Li     8.085221    5.016240   13.452252    ( 0.0000,  0.0000,  0.0000)
  24 Li     1.635900    8.148927   13.533076    ( 0.0000,  0.0000,  0.0000)
  25 Li     4.830505    8.156778   13.535894    ( 0.0000,  0.0000,  0.0000)
  26 Li     8.081322    8.259743   13.569030    ( 0.0000,  0.0000,  0.0000)
  27 Li    -0.260271    0.384022   15.928297    ( 0.0000,  0.0000,  0.0000)
  28 Li     3.229249   -0.026522   15.535465    ( 0.0000,  0.0000,  0.0000)
  29 Li     6.710347    0.422843   15.946834    ( 0.0000,  0.0000,  0.0000)
  30 Li    -0.284317    3.389446   15.609769    ( 0.0000,  0.0000,  0.0000)
  31 Li     3.226406    3.298944   15.472778    ( 0.0000,  0.0000,  0.0000)
  32 Li     6.715204    3.387542   15.569066    ( 0.0000,  0.0000,  0.0000)
  33 Li     0.121939    6.636122   15.530963    ( 0.0000,  0.0000,  0.0000)
  34 Li     3.234674    6.491503   15.527625    ( 0.0000,  0.0000,  0.0000)
  35 Li     6.351980    6.642710   15.531486    ( 0.0000,  0.0000,  0.0000)
  36 B      8.068961    1.226469   17.742536    ( 0.0000,  0.0000,  0.0000)
  37 H      9.113219    1.331226   18.372351    ( 0.0000,  0.0000,  0.0000)
  38 H      7.109252    1.326869   18.484157    ( 0.0000,  0.0000,  0.0000)
  39 H      8.080229    0.062739   17.210540    ( 0.0000,  0.0000,  0.0000)
  40 N      7.977247    2.252021   16.580738    ( 0.0000,  0.0000,  0.0000)
  41 N      8.110141    1.835508   15.329881    ( 0.0000,  0.0000,  0.0000)

Unit cell:
           periodic     x           y           z      points  spacing
  1. axis:    yes    9.702222    0.000000    0.000000    60     0.1617
  2. axis:    yes    0.000000    9.702222    0.000000    60     0.1617
  3. axis:    no     0.000000    0.000000   26.351111   164     0.1607

  Lengths:   9.702222   9.702222  26.351111
  Angles:   90.000000  90.000000  90.000000

Effective grid spacing dv^(1/3) = 0.1614

     iter     time        total  log10-change:
                         energy  eigst   dens
iter:   1 17:59:28  -257.451751  -1.58
iter:   2 17:59:35  -257.451817  -2.35  -2.45
iter:   3 17:59:42  -257.451483c -2.78  -2.57
iter:   4 17:59:49  -257.451424c -3.22  -2.70
Writing to output.gpw (mode='')

iter:   5 17:59:56  -257.450999c -3.03  -2.74
iter:   6 18:00:03  -257.451028c -2.96  -2.96
iter:   7 18:00:09  -257.451061c -3.68  -2.95
iter:   8 18:00:16  -257.451043c -3.64  -3.12
iter:   9 18:00:23  -257.451048c -4.17  -3.22
Writing to output.gpw (mode='')

iter:  10 18:00:30  -257.451011c -4.18  -3.30
iter:  11 18:00:37  -257.451019c -4.43  -3.46
iter:  12 18:00:44  -257.451019c -5.05  -3.60
iter:  13 18:00:50  -257.451023c -5.16  -3.67
iter:  14 18:00:57  -257.451022c -5.18  -3.84
Writing to output.gpw (mode='')

iter:  15 18:01:04  -257.451020c -5.41  -3.91
iter:  16 18:01:11  -257.451018c -5.54  -3.91
iter:  17 18:01:18  -257.451019c -5.46  -4.03c
iter:  18 18:01:25  -257.451019c -5.93  -4.04c
iter:  19 18:01:31  -257.451019c -5.81  -4.15c
Writing to output.gpw (mode='')

iter:  20 18:01:38  -257.451017c -6.41  -4.43c
iter:  21 18:01:45  -257.451016c -6.20  -4.52c
iter:  22 18:01:52  -257.451018c -6.22  -4.61c
iter:  23 18:01:59  -257.451018c -6.67  -4.64c
iter:  24 18:02:06  -257.451018c -7.16  -4.88c
Writing to output.gpw (mode='')

iter:  25 18:02:12  -257.451018c -6.85  -4.97c
iter:  26 18:02:19  -257.451018c -7.31  -5.05c
iter:  27 18:02:26  -257.451018c -7.35  -5.14c
iter:  28 18:02:33  -257.451017c -7.38  -5.20c
iter:  29 18:02:40  -257.451018c -7.50c -5.28c

Converged after 29 iterations.

Dipole moment: (2.114709, -8.885730, -0.294764) |e|*Ang

Energy contributions relative to reference atoms: (reference = -10970.764591)

Kinetic:       +108.211441
Potential:      -97.751381
External:        +0.000000
XC:            -268.178679
Entropy (-ST):   -0.167284
Local:           +0.351243
--------------------------
Free energy:   -257.534659
Extrapolated:  -257.451018

Dipole-layer corrected work functions: 3.428134, 3.994772 eV

Showing only first 2 kpts
 Kpt  Band  Eigenvalues  Occupancy
  0    24     -3.88230    1.93645
  0    25     -3.81186    1.76330
  0    26     -3.65808    0.51177
  0    27     -3.52101    0.04338

  1    24     -3.97652    1.99008
  1    25     -3.69488    0.83582
  1    26     -3.63613    0.36290
  1    27     -3.61790    0.26683


Fermi level: -3.71145

No gap
Writing to output.gpw (mode='')


Forces in eV/Ang:
  0 Li   -0.00357   -0.00510   -0.29229
  1 Li   -0.00504   -0.00717   -0.29388
  2 Li    0.00356   -0.01203   -0.25342
  3 Li    0.00940   -0.00064   -0.28240
  4 Li   -0.00352   -0.00114   -0.28647
  5 Li    0.00465   -0.00853   -0.27628
  6 Li    0.01888   -0.01142   -0.28836
  7 Li   -0.01254   -0.01242   -0.28229
  8 Li    0.00386   -0.00401   -0.27486
  9 Li    0.00895    0.04286    0.23607
 10 Li   -0.00349    0.06642    0.27858
 11 Li    0.00629    0.05245    0.25032
 12 Li    0.01535    0.00689    0.26892
 13 Li    0.00259   -0.01108    0.35533
 14 Li   -0.00076    0.00426    0.29167
 15 Li    0.00704    0.09552    0.28053
 16 Li   -0.00494    0.01672    0.32424
 17 Li   -0.02138    0.09063    0.28014
 18 Li    0.02942   -0.00186   -0.02317
 19 Li   -0.03089   -0.00262   -0.03356
 20 Li    0.03197   -0.05722   -0.09858
 21 Li    0.02627   -0.00093    0.01455
 22 Li   -0.03465    0.00236    0.01232
 23 Li   -0.00408    0.05047    0.02754
 24 Li   -0.04392    0.01613    0.03032
 25 Li    0.04207    0.02237    0.03570
 26 Li   -0.00533   -0.08215    0.00174
 27 Li    0.00989   -0.04117    0.00168
 28 Li   -0.00370   -0.01157    0.00315
 29 Li    0.05010    0.03009    0.02854
 30 Li   -0.01902   -0.03864    0.06251
 31 Li    0.00066   -0.00179    0.01217
 32 Li   -0.00126   -0.03560    0.04360
 33 Li   -0.06665   -0.05000   -0.03872
 34 Li    0.00013   -0.02617   -0.04364
 35 Li    0.07192   -0.04657   -0.03819
 36 B     0.00076   -0.00304   -0.03633
 37 H     0.01761    0.00212   -0.09827
 38 H     0.04603   -0.08342   -0.00019
 39 H    -0.07679   -0.00133    0.03488
 40 N    -0.06488    0.02461    0.02279
 41 N    -0.00799    0.06563    0.06806

System changes: positions 

Initializing position-dependent things.

Density initialized from wave functions
       .-----------------------.  
      /|                       |  
     / |                       |  
    /  |                       |  
   /   |                       |  
  /    |                       |  
 *     |                       |  
 |     |                       |  
 |     |                       |  
 |     |                       |  
 |     |                       |  
 |     |                       |  
 |     |                       |  
 |     |       Li              |  
 |     |                       |  
 |   Li|     Li    H Li H      |  
 |     |              B   Li   |  
 |     |  LLi     LiLH    Li   |  
 |     |          Li  N  Li    |  
 |     |Li      Li      Li     |  
 |   LLi     Li      Li        |  
 |     |  Li  Li  Li  Li  Li   |  
 | Li  |   Li      Li          |  
 |     |Li      Li      Li     |  
 Li    | Li      Li            |  
 |    Li      Li      Li       |  
 |     |                       |  
 |     |                       |  
 |     |                       |  
 |     |                       |  
 |     |                       |  
 |     |                       |  
 |     .-----------------------.  
 |    /                       /   
 |   /                       /    
 |  /                       /     
 | /                       /      
 |/                       /       
 *-----------------------*        

Positions:
   0 Li     1.617037    1.617037   10.000000    ( 0.0000,  0.0000,  0.0000)
   1 Li     4.851111    1.617037   10.000000    ( 0.0000,  0.0000,  0.0000)
   2 Li     8.085185    1.617037   10.000000    ( 0.0000,  0.0000,  0.0000)
   3 Li     1.617037    4.851111   10.000000    ( 0.0000,  0.0000,  0.0000)
   4 Li     4.851111    4.851111   10.000000    ( 0.0000,  0.0000,  0.0000)
   5 Li     8.085185    4.851111   10.000000    ( 0.0000,  0.0000,  0.0000)
   6 Li     1.617037    8.085185   10.000000    ( 0.0000,  0.0000,  0.0000)
   7 Li     4.851111    8.085185   10.000000    ( 0.0000,  0.0000,  0.0000)
   8 Li     8.085185    8.085185   10.000000    ( 0.0000,  0.0000,  0.0000)
   9 Li     0.000000    0.000000   11.617037    ( 0.0000,  0.0000,  0.0000)
  10 Li     3.234074    0.000000   11.617037    ( 0.0000,  0.0000,  0.0000)
  11 Li     6.468148    0.000000   11.617037    ( 0.0000,  0.0000,  0.0000)
  12 Li     0.000000    3.234074   11.617037    ( 0.0000,  0.0000,  0.0000)
  13 Li     3.234074    3.234074   11.617037    ( 0.0000,  0.0000,  0.0000)
  14 Li     6.468148    3.234074   11.617037    ( 0.0000,  0.0000,  0.0000)
  15 Li     0.000000    6.468148   11.617037    ( 0.0000,  0.0000,  0.0000)
  16 Li     3.234074    6.468148   11.617037    ( 0.0000,  0.0000,  0.0000)
  17 Li     6.468148    6.468148   11.617037    ( 0.0000,  0.0000,  0.0000)
  18 Li     1.580591    1.622565   13.589145    ( 0.0000,  0.0000,  0.0000)
  19 Li     4.879981    1.618829   13.572846    ( 0.0000,  0.0000,  0.0000)
  20 Li     8.114302    1.701943   13.520672    ( 0.0000,  0.0000,  0.0000)
  21 Li     1.555621    4.868567   13.553470    ( 0.0000,  0.0000,  0.0000)
  22 Li     4.895669    4.874647   13.545477    ( 0.0000,  0.0000,  0.0000)
  23 Li     8.084771    5.012607   13.455232    ( 0.0000,  0.0000,  0.0000)
  24 Li     1.630269    8.148190   13.535437    ( 0.0000,  0.0000,  0.0000)
  25 Li     4.835820    8.157094   13.539001    ( 0.0000,  0.0000,  0.0000)
  26 Li     8.080630    8.251739   13.566159    ( 0.0000,  0.0000,  0.0000)
  27 Li    -0.264912    0.366377   15.911197    ( 0.0000,  0.0000,  0.0000)
  28 Li     3.228605   -0.028636   15.529943    ( 0.0000,  0.0000,  0.0000)
  29 Li     6.720628    0.414896   15.933044    ( 0.0000,  0.0000,  0.0000)
  30 Li    -0.286529    3.387851   15.629516    ( 0.0000,  0.0000,  0.0000)
  31 Li     3.226079    3.300234   15.476081    ( 0.0000,  0.0000,  0.0000)
  32 Li     6.713691    3.386094   15.584878    ( 0.0000,  0.0000,  0.0000)
  33 Li     0.115343    6.635563   15.527613    ( 0.0000,  0.0000,  0.0000)
  34 Li     3.234664    6.488918   15.527317    ( 0.0000,  0.0000,  0.0000)
  35 Li     6.359384    6.642689   15.528088    ( 0.0000,  0.0000,  0.0000)
  36 B      8.068232    1.220437   17.740275    ( 0.0000,  0.0000,  0.0000)
  37 H      9.115061    1.313883   18.365395    ( 0.0000,  0.0000,  0.0000)
  38 H      7.116552    1.301307   18.493369    ( 0.0000,  0.0000,  0.0000)
  39 H      8.072593    0.059393   17.197564    ( 0.0000,  0.0000,  0.0000)
  40 N      7.965035    2.249235   16.578258    ( 0.0000,  0.0000,  0.0000)
  41 N      8.111041    1.842137   15.324417    ( 0.0000,  0.0000,  0.0000)

Unit cell:
           periodic     x           y           z      points  spacing
  1. axis:    yes    9.702222    0.000000    0.000000    60     0.1617
  2. axis:    yes    0.000000    9.702222    0.000000    60     0.1617
  3. axis:    no     0.000000    0.000000   26.351111   164     0.1607

  Lengths:   9.702222   9.702222  26.351111
  Angles:   90.000000  90.000000  90.000000

Effective grid spacing dv^(1/3) = 0.1614

     iter     time        total  log10-change:
                         energy  eigst   dens
iter:   1 18:02:48  -257.462750  -1.17
iter:   2 18:02:55  -257.461627  -1.90  -2.13
iter:   3 18:03:02  -257.460991c -2.35  -2.28
iter:   4 18:03:08  -257.459597c -2.55  -2.35
Writing to output.gpw (mode='')

iter:   5 18:03:15  -257.458753c -2.60  -2.51
iter:   6 18:03:22  -257.458777c -2.63  -2.74
iter:   7 18:03:29  -257.458887c -3.16  -2.76
iter:   8 18:03:36  -257.458943c -2.72  -2.88
iter:   9 18:03:43  -257.458846c -3.62  -2.86
Writing to output.gpw (mode='')

iter:  10 18:03:50  -257.458817c -3.67  -3.13
iter:  11 18:03:56  -257.458843c -3.78  -3.23
iter:  12 18:04:03  -257.458838c -4.28  -3.39
iter:  13 18:04:10  -257.458841c -4.51  -3.43
iter:  14 18:04:17  -257.458825c -4.48  -3.46
Writing to output.gpw (mode='')

iter:  15 18:04:30  -257.458827c -4.84  -3.63
iter:  16 18:04:37  -257.458826c -4.85  -3.69
iter:  17 18:04:44  -257.458823c -4.98  -3.69
iter:  18 18:04:51  -257.458823c -5.03  -3.76
iter:  19 18:04:57  -257.458826c -5.50  -4.08c
Writing to output.gpw (mode='')

iter:  20 18:05:04  -257.458829c -5.60  -4.15c
iter:  21 18:05:11  -257.458830c -5.62  -4.27c
iter:  22 18:05:18  -257.458831c -5.73  -4.36c
iter:  23 18:05:25  -257.458827c -6.07  -4.38c
iter:  24 18:05:32  -257.458828c -6.32  -4.50c
Writing to output.gpw (mode='')

iter:  25 18:05:39  -257.458830c -6.11  -4.60c
iter:  26 18:05:46  -257.458829c -6.53  -4.75c
iter:  27 18:05:52  -257.458829c -6.53  -4.84c
iter:  28 18:05:59  -257.458829c -6.67  -5.15c
iter:  29 18:06:06  -257.458829c -6.86  -5.19c
Writing to output.gpw (mode='')

iter:  30 18:06:13  -257.458829c -6.97  -5.23c
iter:  31 18:06:20  -257.458829c -7.00  -5.24c
iter:  32 18:06:27  -257.458829c -7.13  -5.35c
iter:  33 18:06:34  -257.458829c -7.34  -5.43c
iter:  34 18:06:41  -257.458829c -7.31  -5.47c
Writing to output.gpw (mode='')

iter:  35 18:06:48  -257.458829c -7.25  -5.57c
iter:  36 18:06:55  -257.458829c -7.55c -5.67c

Converged after 36 iterations.

Dipole moment: (2.232746, -8.861748, -0.296971) |e|*Ang

Energy contributions relative to reference atoms: (reference = -10970.764591)

Kinetic:       +108.099713
Potential:      -97.652862
External:        +0.000000
XC:            -268.173207
Entropy (-ST):   -0.167229
Local:           +0.351141
--------------------------
Free energy:   -257.542443
Extrapolated:  -257.458829

Dipole-layer corrected work functions: 3.428809, 3.999690 eV

Showing only first 2 kpts
 Kpt  Band  Eigenvalues  Occupancy
  0    24     -3.88592    1.93747
  0    25     -3.81573    1.76772
  0    26     -3.65957    0.50190
  0    27     -3.52412    0.04365

  1    24     -3.97831    1.98988
  1    25     -3.70120    0.87028
  1    26     -3.63877    0.36199
  1    27     -3.61954    0.26155


Fermi level: -3.71425

No gap
Writing to output.gpw (mode='')


Forces in eV/Ang:
  0 Li   -0.00406   -0.00480   -0.29166
  1 Li   -0.00537   -0.00705   -0.29358
  2 Li    0.00392   -0.01116   -0.25275
  3 Li    0.00975   -0.00022   -0.28273
  4 Li   -0.00321   -0.00077   -0.28699
  5 Li    0.00504   -0.00832   -0.27587
  6 Li    0.01881   -0.01168   -0.28894
  7 Li   -0.01175   -0.01281   -0.28237
  8 Li    0.00423   -0.00463   -0.27533
  9 Li    0.00912    0.04184    0.23653
 10 Li   -0.00387    0.06341    0.28279
 11 Li    0.00789    0.05260    0.25246
 12 Li    0.01867    0.01009    0.26228
 13 Li    0.00290   -0.00989    0.35449
 14 Li   -0.00216    0.00637    0.28771
 15 Li    0.00620    0.09113    0.28150
 16 Li   -0.00548    0.01670    0.32798
 17 Li   -0.02230    0.08613    0.28091
 18 Li    0.02853   -0.00005   -0.01980
 19 Li   -0.02863   -0.00105   -0.03076
 20 Li    0.03134   -0.05593   -0.07996
 21 Li    0.02252   -0.00112    0.01206
 22 Li   -0.03179    0.00367    0.00928
 23 Li   -0.00400    0.04344    0.03038
 24 Li   -0.03715    0.01484    0.02501
 25 Li    0.03477    0.02102    0.02922
 26 Li   -0.00526   -0.07620   -0.00470
 27 Li    0.00311   -0.01385    0.00177
 28 Li   -0.00372   -0.00999    0.00700
 29 Li    0.03182    0.04721    0.02958
 30 Li   -0.00848   -0.02947    0.04837
 31 Li   -0.00029   -0.00449    0.01197
 32 Li   -0.03102   -0.00789    0.01185
 33 Li   -0.06121   -0.05109   -0.03402
 34 Li    0.00009   -0.02292   -0.04172
 35 Li    0.06715   -0.04668   -0.03284
 36 B    -0.03108   -0.06182   -0.12047
 37 H     0.05508    0.02475   -0.11536
 38 H     0.03038   -0.03079   -0.02480
 39 H    -0.04185   -0.01186    0.04926
 40 N    -0.07078   -0.01182    0.13746
 41 N    -0.00563    0.02499    0.10227

System changes: positions 

Initializing position-dependent things.

Density initialized from wave functions
       .-----------------------.  
      /|                       |  
     / |                       |  
    /  |                       |  
   /   |                       |  
  /    |                       |  
 *     |                       |  
 |     |                       |  
 |     |                       |  
 |     |                       |  
 |     |                       |  
 |     |                       |  
 |     |                       |  
 |     |       Li              |  
 |     |                       |  
 |   Li|     Li    H Li H      |  
 |     |              B   Li   |  
 |     |  LLi     LiLH    Li   |  
 |     |          Li  N  Li    |  
 |     |Li      Li      Li     |  
 |   LLi     Li      Li        |  
 |     |  Li  Li  Li  Li  Li   |  
 | Li  |   Li      Li          |  
 |     |Li      Li      Li     |  
 Li    | Li      Li            |  
 |    Li      Li      Li       |  
 |     |                       |  
 |     |                       |  
 |     |                       |  
 |     |                       |  
 |     |                       |  
 |     |                       |  
 |     .-----------------------.  
 |    /                       /   
 |   /                       /    
 |  /                       /     
 | /                       /      
 |/                       /       
 *-----------------------*        

Positions:
   0 Li     1.617037    1.617037   10.000000    ( 0.0000,  0.0000,  0.0000)
   1 Li     4.851111    1.617037   10.000000    ( 0.0000,  0.0000,  0.0000)
   2 Li     8.085185    1.617037   10.000000    ( 0.0000,  0.0000,  0.0000)
   3 Li     1.617037    4.851111   10.000000    ( 0.0000,  0.0000,  0.0000)
   4 Li     4.851111    4.851111   10.000000    ( 0.0000,  0.0000,  0.0000)
   5 Li     8.085185    4.851111   10.000000    ( 0.0000,  0.0000,  0.0000)
   6 Li     1.617037    8.085185   10.000000    ( 0.0000,  0.0000,  0.0000)
   7 Li     4.851111    8.085185   10.000000    ( 0.0000,  0.0000,  0.0000)
   8 Li     8.085185    8.085185   10.000000    ( 0.0000,  0.0000,  0.0000)
   9 Li     0.000000    0.000000   11.617037    ( 0.0000,  0.0000,  0.0000)
  10 Li     3.234074    0.000000   11.617037    ( 0.0000,  0.0000,  0.0000)
  11 Li     6.468148    0.000000   11.617037    ( 0.0000,  0.0000,  0.0000)
  12 Li     0.000000    3.234074   11.617037    ( 0.0000,  0.0000,  0.0000)
  13 Li     3.234074    3.234074   11.617037    ( 0.0000,  0.0000,  0.0000)
  14 Li     6.468148    3.234074   11.617037    ( 0.0000,  0.0000,  0.0000)
  15 Li     0.000000    6.468148   11.617037    ( 0.0000,  0.0000,  0.0000)
  16 Li     3.234074    6.468148   11.617037    ( 0.0000,  0.0000,  0.0000)
  17 Li     6.468148    6.468148   11.617037    ( 0.0000,  0.0000,  0.0000)
  18 Li     1.584049    1.624411   13.585136    ( 0.0000,  0.0000,  0.0000)
  19 Li     4.875563    1.620397   13.566351    ( 0.0000,  0.0000,  0.0000)
  20 Li     8.120789    1.701276   13.510713    ( 0.0000,  0.0000,  0.0000)
  21 Li     1.557163    4.867320   13.558520    ( 0.0000,  0.0000,  0.0000)
  22 Li     4.891932    4.874188   13.549879    ( 0.0000,  0.0000,  0.0000)
  23 Li     8.084045    5.016650   13.459870    ( 0.0000,  0.0000,  0.0000)
  24 Li     1.625414    8.147342   13.537411    ( 0.0000,  0.0000,  0.0000)
  25 Li     4.840223    8.157750   13.542087    ( 0.0000,  0.0000,  0.0000)
  26 Li     8.079617    8.244847   13.562737    ( 0.0000,  0.0000,  0.0000)
  27 Li    -0.267948    0.352141   15.891018    ( 0.0000,  0.0000,  0.0000)
  28 Li     3.227691   -0.031072   15.525588    ( 0.0000,  0.0000,  0.0000)
  29 Li     6.732065    0.414644   15.917903    ( 0.0000,  0.0000,  0.0000)
  30 Li    -0.292401    3.386872   15.657209    ( 0.0000,  0.0000,  0.0000)
  31 Li     3.225662    3.300479   15.479240    ( 0.0000,  0.0000,  0.0000)
  32 Li     6.713789    3.386179   15.606606    ( 0.0000,  0.0000,  0.0000)
  33 Li     0.106415    6.635692   15.523337    ( 0.0000,  0.0000,  0.0000)
  34 Li     3.234678    6.486741   15.525492    ( 0.0000,  0.0000,  0.0000)
  35 Li     6.369487    6.643655   15.523785    ( 0.0000,  0.0000,  0.0000)
  36 B      8.066477    1.206091   17.734327    ( 0.0000,  0.0000,  0.0000)
  37 H      9.119620    1.287370   18.349873    ( 0.0000,  0.0000,  0.0000)
  38 H      7.125601    1.263183   18.501409    ( 0.0000,  0.0000,  0.0000)
  39 H      8.062034    0.049650   17.177523    ( 0.0000,  0.0000,  0.0000)
  40 N      7.946478    2.243008   16.578682    ( 0.0000,  0.0000,  0.0000)
  41 N      8.112406    1.848835   15.318527    ( 0.0000,  0.0000,  0.0000)

Unit cell:
           periodic     x           y           z      points  spacing
  1. axis:    yes    9.702222    0.000000    0.000000    60     0.1617
  2. axis:    yes    0.000000    9.702222    0.000000    60     0.1617
  3. axis:    no     0.000000    0.000000   26.351111   164     0.1607

  Lengths:   9.702222   9.702222  26.351111
  Angles:   90.000000  90.000000  90.000000

Effective grid spacing dv^(1/3) = 0.1614

     iter     time        total  log10-change:
                         energy  eigst   dens
iter:   1 18:07:03  -257.478642  -0.89
iter:   2 18:07:10  -257.473880  -1.61  -2.01
iter:   3 18:07:17  -257.471026c -2.03  -2.11
iter:   4 18:07:24  -257.469357c -2.21  -2.22
Writing to output.gpw (mode='')

iter:   5 18:07:31  -257.467556c -2.26  -2.37
iter:   6 18:07:38  -257.467712c -2.21  -2.58
iter:   7 18:07:45  -257.467727c -2.84  -2.56
iter:   8 18:07:52  -257.467594c -2.92  -2.74
iter:   9 18:07:59  -257.467553c -3.09  -2.85
Writing to output.gpw (mode='')

iter:  10 18:08:06  -257.467571c -3.41  -3.00
iter:  11 18:08:12  -257.467575c -3.90  -3.19
iter:  12 18:08:19  -257.467570c -4.17  -3.25
iter:  13 18:08:26  -257.467523c -4.05  -3.27
iter:  14 18:08:33  -257.467542c -4.49  -3.46
Writing to output.gpw (mode='')

iter:  15 18:08:40  -257.467550c -4.70  -3.47
iter:  16 18:08:47  -257.467542c -4.74  -3.56
iter:  17 18:08:54  -257.467545c -4.65  -3.70
iter:  18 18:09:01  -257.467558c -5.00  -3.81
iter:  19 18:09:08  -257.467557c -5.42  -3.99
Writing to output.gpw (mode='')

iter:  20 18:09:15  -257.467556c -5.65  -4.08c
iter:  21 18:09:29  -257.467553c -5.47  -4.16c
iter:  22 18:09:36  -257.467551c -5.44  -4.31c
iter:  23 18:09:43  -257.467552c -5.70  -4.38c
iter:  24 18:09:50  -257.467552c -5.91  -4.34c
Writing to output.gpw (mode='')

iter:  25 18:09:57  -257.467553c -6.17  -4.23c
iter:  26 18:10:04  -257.467553c -6.27  -4.49c
iter:  27 18:10:11  -257.467555c -6.04  -4.37c
iter:  28 18:10:18  -257.467554c -6.61  -4.39c
iter:  29 18:10:25  -257.467552c -6.22  -4.49c
Writing to output.gpw (mode='')

iter:  30 18:10:32  -257.467552c -6.75  -4.83c
iter:  31 18:10:39  -257.467552c -6.89  -4.95c
iter:  32 18:10:46  -257.467553c -6.78  -5.00c
iter:  33 18:10:52  -257.467553c -6.98  -5.16c
iter:  34 18:11:00  -257.467553c -6.82  -5.22c
Writing to output.gpw (mode='')

iter:  35 18:11:07  -257.467553c -7.11  -5.37c
iter:  36 18:11:13  -257.467553c -7.42c -5.46c

Converged after 36 iterations.

Dipole moment: (2.397444, -8.733907, -0.300047) |e|*Ang

Energy contributions relative to reference atoms: (reference = -10970.764591)

Kinetic:       +107.928263
Potential:      -97.493423
External:        +0.000000
XC:            -268.170028
Entropy (-ST):   -0.166992
Local:           +0.351132
--------------------------
Free energy:   -257.551049
Extrapolated:  -257.467553

Dipole-layer corrected work functions: 3.430017, 4.006811 eV

Showing only first 2 kpts
 Kpt  Band  Eigenvalues  Occupancy
  0    24     -3.89068    1.93818
  0    25     -3.82128    1.77337
  0    26     -3.66207    0.48947
  0    27     -3.52909    0.04434

  1    24     -3.97999    1.98937
  1    25     -3.71075    0.92352
  1    26     -3.64190    0.35590
  1    27     -3.62149    0.25162


Fermi level: -3.71841

No gap
Writing to output.gpw (mode='')


Forces in eV/Ang:
  0 Li   -0.00463   -0.00458   -0.29024
  1 Li   -0.00600   -0.00703   -0.29273
  2 Li    0.00446   -0.01059   -0.25166
  3 Li    0.01033    0.00011   -0.28305
  4 Li   -0.00275   -0.00042   -0.28762
  5 Li    0.00554   -0.00777   -0.27509
  6 Li    0.01909   -0.01222   -0.28989
  7 Li   -0.01092   -0.01357   -0.28258
  8 Li    0.00473   -0.00547   -0.27573
  9 Li    0.01141    0.03904    0.23490
 10 Li   -0.00440    0.05941    0.28439
 11 Li    0.00839    0.05163    0.25338
 12 Li    0.02155    0.01583    0.25521
 13 Li    0.00333   -0.00637    0.35161
 14 Li   -0.00219    0.01060    0.28455
 15 Li    0.00632    0.08729    0.28184
 16 Li   -0.00628    0.01684    0.33066
 17 Li   -0.02500    0.08214    0.28082
 18 Li    0.02424    0.00118   -0.01182
 19 Li   -0.02233   -0.00010   -0.02329
 20 Li    0.02927   -0.03912   -0.01819
 21 Li    0.01596   -0.00214    0.00916
 22 Li   -0.02646    0.00465    0.00552
 23 Li   -0.00378    0.02560    0.03588
 24 Li   -0.03148    0.01366    0.01922
 25 Li    0.02829    0.01962    0.02174
 26 Li   -0.00527   -0.07075   -0.01216
 27 Li   -0.00452    0.00975    0.00631
 28 Li   -0.00391   -0.00766    0.00955
 29 Li    0.00313    0.05754    0.02886
 30 Li    0.00220   -0.02532    0.02895
 31 Li   -0.00172   -0.00684    0.01291
 32 Li   -0.07061    0.02384   -0.03240
 33 Li   -0.05270   -0.05159   -0.02784
 34 Li    0.00009   -0.02027   -0.03730
 35 Li    0.05945   -0.04549   -0.02565
 36 B    -0.06048   -0.12805   -0.18659
 37 H     0.08547    0.03993   -0.13769
 38 H     0.01763    0.03115   -0.02712
 39 H     0.00226   -0.02280    0.05461
 40 N    -0.07835   -0.05167    0.08780
 41 N     0.02882    0.01375    0.16895

System changes: positions 

Initializing position-dependent things.

Density initialized from wave functions
       .-----------------------.  
      /|                       |  
     / |                       |  
    /  |                       |  
   /   |                       |  
  /    |                       |  
 *     |                       |  
 |     |                       |  
 |     |                       |  
 |     |                       |  
 |     |                       |  
 |     |                       |  
 |     |                       |  
 |     |       Li              |  
 |     |                       |  
 |   Li|     Li    H Li H      |  
 |     |              B   Li   |  
 |     |  LLi     LiLH    Li   |  
 |     |          Li  N        |  
 |     |Li      Li      LLi    |  
 |   Li|     Li      Li        |  
 |    Li  Li  Li  Li  Li  Li   |  
 | Li  |   Li      Li          |  
 |     |Li      Li      Li     |  
 Li    | Li      Li            |  
 |    Li      Li      Li       |  
 |     |                       |  
 |     |                       |  
 |     |                       |  
 |     |                       |  
 |     |                       |  
 |     |                       |  
 |     .-----------------------.  
 |    /                       /   
 |   /                       /    
 |  /                       /     
 | /                       /      
 |/                       /       
 *-----------------------*        

Positions:
   0 Li     1.617037    1.617037   10.000000    ( 0.0000,  0.0000,  0.0000)
   1 Li     4.851111    1.617037   10.000000    ( 0.0000,  0.0000,  0.0000)
   2 Li     8.085185    1.617037   10.000000    ( 0.0000,  0.0000,  0.0000)
   3 Li     1.617037    4.851111   10.000000    ( 0.0000,  0.0000,  0.0000)
   4 Li     4.851111    4.851111   10.000000    ( 0.0000,  0.0000,  0.0000)
   5 Li     8.085185    4.851111   10.000000    ( 0.0000,  0.0000,  0.0000)
   6 Li     1.617037    8.085185   10.000000    ( 0.0000,  0.0000,  0.0000)
   7 Li     4.851111    8.085185   10.000000    ( 0.0000,  0.0000,  0.0000)
   8 Li     8.085185    8.085185   10.000000    ( 0.0000,  0.0000,  0.0000)
   9 Li     0.000000    0.000000   11.617037    ( 0.0000,  0.0000,  0.0000)
  10 Li     3.234074    0.000000   11.617037    ( 0.0000,  0.0000,  0.0000)
  11 Li     6.468148    0.000000   11.617037    ( 0.0000,  0.0000,  0.0000)
  12 Li     0.000000    3.234074   11.617037    ( 0.0000,  0.0000,  0.0000)
  13 Li     3.234074    3.234074   11.617037    ( 0.0000,  0.0000,  0.0000)
  14 Li     6.468148    3.234074   11.617037    ( 0.0000,  0.0000,  0.0000)
  15 Li     0.000000    6.468148   11.617037    ( 0.0000,  0.0000,  0.0000)
  16 Li     3.234074    6.468148   11.617037    ( 0.0000,  0.0000,  0.0000)
  17 Li     6.468148    6.468148   11.617037    ( 0.0000,  0.0000,  0.0000)
  18 Li     1.590244    1.626191   13.578916    ( 0.0000,  0.0000,  0.0000)
  19 Li     4.868661    1.621908   13.557545    ( 0.0000,  0.0000,  0.0000)
  20 Li     8.127758    1.693204   13.500622    ( 0.0000,  0.0000,  0.0000)
  21 Li     1.559912    4.866921   13.563366    ( 0.0000,  0.0000,  0.0000)
  22 Li     4.886898    4.874686   13.554119    ( 0.0000,  0.0000,  0.0000)
  23 Li     8.083198    5.028064   13.465540    ( 0.0000,  0.0000,  0.0000)
  24 Li     1.622200    8.146699   13.538617    ( 0.0000,  0.0000,  0.0000)
  25 Li     4.842953    8.158674   13.544500    ( 0.0000,  0.0000,  0.0000)
  26 Li     8.078524    8.238206   13.558839    ( 0.0000,  0.0000,  0.0000)
  27 Li    -0.269959    0.344455   15.875006    ( 0.0000,  0.0000,  0.0000)
  28 Li     3.226737   -0.033357   15.523619    ( 0.0000,  0.0000,  0.0000)
  29 Li     6.743054    0.421719   15.907366    ( 0.0000,  0.0000,  0.0000)
  30 Li    -0.297919    3.386298   15.686091    ( 0.0000,  0.0000,  0.0000)
  31 Li     3.225289    3.299435   15.481669    ( 0.0000,  0.0000,  0.0000)
  32 Li     6.712575    3.387772   15.628694    ( 0.0000,  0.0000,  0.0000)
  33 Li     0.096681    6.634936   15.518777    ( 0.0000,  0.0000,  0.0000)
  34 Li     3.234715    6.485740   15.521700    ( 0.0000,  0.0000,  0.0000)
  35 Li     6.380485    6.643836   15.519246    ( 0.0000,  0.0000,  0.0000)
  36 B      8.063828    1.188500   17.724687    ( 0.0000,  0.0000,  0.0000)
  37 H      9.124673    1.260910   18.329528    ( 0.0000,  0.0000,  0.0000)
  38 H      7.135453    1.224804   18.506884    ( 0.0000,  0.0000,  0.0000)
  39 H      8.051371    0.037550   17.155625    ( 0.0000,  0.0000,  0.0000)
  40 N      7.926069    2.236713   16.579602    ( 0.0000,  0.0000,  0.0000)
  41 N      8.114510    1.853708   15.314687    ( 0.0000,  0.0000,  0.0000)

Unit cell:
           periodic     x           y           z      points  spacing
  1. axis:    yes    9.702222    0.000000    0.000000    60     0.1617
[...]

iter:  10 22:07:34  -257.825196c -4.02  -3.34
iter:  11 22:07:41  -257.825164c -4.53  -3.50
iter:  12 22:07:48  -257.825176c -4.96  -3.62
iter:  13 22:07:55  -257.825178c -5.00  -3.68
iter:  14 22:08:02  -257.825174c -5.16  -3.91
Writing to output.gpw (mode='')

iter:  15 22:08:09  -257.825176c -5.38  -4.00c
iter:  16 22:08:16  -257.825176c -5.68  -4.09c
iter:  17 22:08:22  -257.825171c -5.70  -4.10c
iter:  18 22:08:29  -257.825169c -5.79  -4.22c
iter:  19 22:08:36  -257.825174c -5.93  -4.29c
Writing to output.gpw (mode='')

iter:  20 22:08:43  -257.825174c -6.40  -4.42c
iter:  21 22:08:50  -257.825173c -6.25  -4.51c
iter:  22 22:08:57  -257.825173c -6.87  -4.70c
iter:  23 22:09:04  -257.825174c -6.70  -4.74c
iter:  24 22:09:10  -257.825173c -6.91  -4.82c
Writing to output.gpw (mode='')

iter:  25 22:09:17  -257.825173c -7.28  -5.01c
iter:  26 22:09:30  -257.825173c -7.34  -5.03c
iter:  27 22:09:37  -257.825173c -7.25  -5.09c
iter:  28 22:09:44  -257.825173c -7.68c -5.14c

Converged after 28 iterations.

Dipole moment: (5.383714, -3.317466, -0.243666) |e|*Ang

Energy contributions relative to reference atoms: (reference = -10970.764591)

Kinetic:       +108.117794
Potential:      -97.455030
External:        +0.000000
XC:            -268.759264
Entropy (-ST):   -0.162362
Local:           +0.352508
--------------------------
Free energy:   -257.906354
Extrapolated:  -257.825173

Dipole-layer corrected work functions: 3.434012, 3.902422 eV

Showing only first 2 kpts
 Kpt  Band  Eigenvalues  Occupancy
  0    24     -3.86485    1.96157
  0    25     -3.78298    1.81697
  0    26     -3.59230    0.35942
  0    27     -3.49716    0.06329

  1    24     -3.90525    1.98268
  1    25     -3.78804    1.83312
  1    26     -3.57780    0.28166
  1    27     -3.56979    0.24508


Fermi level: -3.66822

No gap
Writing to output.gpw (mode='')


Forces in eV/Ang:
  0 Li    0.00305    0.00075   -0.28590
  1 Li   -0.00603   -0.00943   -0.27996
  2 Li    0.00971   -0.00350   -0.24675
  3 Li    0.02007    0.00308   -0.27841
  4 Li   -0.00219    0.00541   -0.29772
  5 Li    0.01190    0.00908   -0.27608
  6 Li    0.01742   -0.01613   -0.29881
  7 Li    0.00374   -0.01612   -0.27009
  8 Li    0.00269   -0.00306   -0.28482
  9 Li   -0.00110   -0.00345    0.26983
 10 Li   -0.03912    0.02933    0.31871
 11 Li   -0.00410   -0.00527    0.22636
 12 Li   -0.00440   -0.01285    0.21084
 13 Li   -0.02492   -0.00853    0.34158
 14 Li   -0.01508   -0.00030    0.28101
 15 Li   -0.03559   -0.01906    0.30427
 16 Li   -0.02303    0.01168    0.31565
 17 Li   -0.02134   -0.02531    0.31464
 18 Li    0.02071   -0.00141   -0.02219
 19 Li    0.02285    0.00793    0.01372
 20 Li   -0.04044    0.00528    0.02241
 21 Li    0.01314    0.00342   -0.00733
 22 Li   -0.00184    0.00872    0.00250
 23 Li   -0.00234   -0.01146   -0.01169
 24 Li   -0.01330    0.00692    0.00817
 25 Li   -0.00683    0.00234    0.00113
 26 Li    0.01358   -0.00066    0.02089
 27 Li    0.01157    0.01073   -0.00026
 28 Li   -0.01948    0.00836    0.00163
 29 Li    0.01515   -0.00131   -0.00390
 30 Li    0.03986    0.02523   -0.01020
 31 Li    0.00084    0.00744   -0.00138
 32 Li    0.01121   -0.01495    0.03316
 33 Li   -0.00420    0.01414   -0.00424
 34 Li    0.00494   -0.01242   -0.00112
 35 Li   -0.00396    0.00545   -0.00591
 36 B     0.00938    0.02590    0.01574
 37 H    -0.01721    0.02235   -0.01927
 38 H     0.02185   -0.00134    0.00163
 39 H     0.00775   -0.05018   -0.00142
 40 N    -0.01889   -0.00223   -0.04091
 41 N     0.05081   -0.04534   -0.03873

System changes: positions 

Initializing position-dependent things.

Density initialized from wave functions
       .-----------------------.  
      /|                       |  
     / |                       |  
    /  |                       |  
   /   |                       |  
  /    |                       |  
 *     |                       |  
 |     |                       |  
 |     |                       |  
 |     |                       |  
 |     |                       |  
 |     |                   H   |  
 |     |                       |  
 |     |       Li              |  
 |     |                       |  
 |   Li|     Li      LH        |  
 |     |          Li  B  H     |  
 |     |  LLi      LiN    Li   |  
 |     |         Li  N         |  
 |     |Li      Li      Li     |  
 |   LLi     Li      Li        |  
 |     |  Li  Li  Li  Li  Li   |  
 | Li  |   Li      Li          |  
 |     |Li      Li      Li     |  
 Li    | Li      Li            |  
 |    Li      Li      Li       |  
 |     |                       |  
 |     |                       |  
 |     |                       |  
 |     |                       |  
 |     |                       |  
 |     |                       |  
 |     .-----------------------.  
 |    /                       /   
 |   /                       /    
 |  /                       /     
 | /                       /      
 |/                       /       
 *-----------------------*        

Positions:
   0 Li     1.617037    1.617037   10.000000    ( 0.0000,  0.0000,  0.0000)
   1 Li     4.851111    1.617037   10.000000    ( 0.0000,  0.0000,  0.0000)
   2 Li     8.085185    1.617037   10.000000    ( 0.0000,  0.0000,  0.0000)
   3 Li     1.617037    4.851111   10.000000    ( 0.0000,  0.0000,  0.0000)
   4 Li     4.851111    4.851111   10.000000    ( 0.0000,  0.0000,  0.0000)
   5 Li     8.085185    4.851111   10.000000    ( 0.0000,  0.0000,  0.0000)
   6 Li     1.617037    8.085185   10.000000    ( 0.0000,  0.0000,  0.0000)
   7 Li     4.851111    8.085185   10.000000    ( 0.0000,  0.0000,  0.0000)
   8 Li     8.085185    8.085185   10.000000    ( 0.0000,  0.0000,  0.0000)
   9 Li     0.000000    0.000000   11.617037    ( 0.0000,  0.0000,  0.0000)
  10 Li     3.234074    0.000000   11.617037    ( 0.0000,  0.0000,  0.0000)
  11 Li     6.468148    0.000000   11.617037    ( 0.0000,  0.0000,  0.0000)
  12 Li     0.000000    3.234074   11.617037    ( 0.0000,  0.0000,  0.0000)
  13 Li     3.234074    3.234074   11.617037    ( 0.0000,  0.0000,  0.0000)
  14 Li     6.468148    3.234074   11.617037    ( 0.0000,  0.0000,  0.0000)
  15 Li     0.000000    6.468148   11.617037    ( 0.0000,  0.0000,  0.0000)
  16 Li     3.234074    6.468148   11.617037    ( 0.0000,  0.0000,  0.0000)
  17 Li     6.468148    6.468148   11.617037    ( 0.0000,  0.0000,  0.0000)
  18 Li     1.538922    1.627188   13.607516    ( 0.0000,  0.0000,  0.0000)
  19 Li     4.790055    1.596909   13.545737    ( 0.0000,  0.0000,  0.0000)
  20 Li     8.089223    1.594726   13.493263    ( 0.0000,  0.0000,  0.0000)
  21 Li     1.541886    4.823562   13.576245    ( 0.0000,  0.0000,  0.0000)
  22 Li     4.824399    4.869404   13.535431    ( 0.0000,  0.0000,  0.0000)
  23 Li     8.090058    4.836041   13.576844    ( 0.0000,  0.0000,  0.0000)
  24 Li     1.575462    8.078465   13.535398    ( 0.0000,  0.0000,  0.0000)
  25 Li     4.846335    8.148560   13.583335    ( 0.0000,  0.0000,  0.0000)
  26 Li     8.039908    8.046149   13.518887    ( 0.0000,  0.0000,  0.0000)
  27 Li    -0.458923    0.136428   15.626419    ( 0.0000,  0.0000,  0.0000)
  28 Li     3.119200   -0.075696   15.547695    ( 0.0000,  0.0000,  0.0000)
  29 Li     6.535283    0.246355   16.000059    ( 0.0000,  0.0000,  0.0000)
  30 Li    -0.424607    2.791748   16.162182    ( 0.0000,  0.0000,  0.0000)
  31 Li     3.146504    3.297119   15.541563    ( 0.0000,  0.0000,  0.0000)
  32 Li     6.450041    3.154382   15.571408    ( 0.0000,  0.0000,  0.0000)
  33 Li     0.070142    6.423754   15.552990    ( 0.0000,  0.0000,  0.0000)
  34 Li     3.256522    6.468727   15.489570    ( 0.0000,  0.0000,  0.0000)
  35 Li     6.419201    6.497868   15.533544    ( 0.0000,  0.0000,  0.0000)
  36 B      8.262189    1.020293   17.525770    ( 0.0000,  0.0000,  0.0000)
  37 H      9.517879    1.142088   17.276526    ( 0.0000,  0.0000,  0.0000)
  38 H      8.034857    1.164701   18.696204    ( 0.0000,  0.0000,  0.0000)
  39 H      8.054923   -0.193782   17.159580    ( 0.0000,  0.0000,  0.0000)
  40 N      7.501559    1.929391   16.568655    ( 0.0000,  0.0000,  0.0000)
  41 N      7.819462    1.675927   15.260100    ( 0.0000,  0.0000,  0.0000)

Unit cell:
           periodic     x           y           z      points  spacing
  1. axis:    yes    9.702222    0.000000    0.000000    60     0.1617
  2. axis:    yes    0.000000    9.702222    0.000000    60     0.1617
  3. axis:    no     0.000000    0.000000   26.351111   164     0.1607

  Lengths:   9.702222   9.702222  26.351111
  Angles:   90.000000  90.000000  90.000000

Effective grid spacing dv^(1/3) = 0.1614

     iter     time        total  log10-change:
                         energy  eigst   dens
iter:   1 22:09:52  -257.825887  -2.12
iter:   2 22:09:59  -257.825971  -2.87  -2.76
iter:   3 22:10:06  -257.825879c -3.37  -2.85
iter:   4 22:10:12  -257.825833c -3.50  -3.04
Writing to output.gpw (mode='')

iter:   5 22:10:19  -257.825785c -3.69  -3.17
iter:   6 22:10:26  -257.825785c -3.78  -3.34
iter:   7 22:10:33  -257.825781c -4.13  -3.35
iter:   8 22:10:40  -257.825791c -4.16  -3.48
iter:   9 22:10:47  -257.825778c -4.66  -3.52
Writing to output.gpw (mode='')

iter:  10 22:10:54  -257.825779c -5.00  -3.62
iter:  11 22:11:00  -257.825779c -5.16  -3.62
iter:  12 22:11:07  -257.825783c -4.69  -3.69
iter:  13 22:11:14  -257.825779c -5.04  -3.70
iter:  14 22:11:21  -257.825780c -5.71  -3.97
Writing to output.gpw (mode='')

iter:  15 22:11:28  -257.825780c -5.64  -3.95
iter:  16 22:11:35  -257.825779c -5.58  -4.00c
iter:  17 22:11:44  -257.825778c -6.06  -4.28c
iter:  18 22:11:57  -257.825778c -6.63  -4.41c
iter:  19 22:12:07  -257.825778c -6.59  -4.49c
Writing to output.gpw (mode='')

iter:  20 22:12:16  -257.825778c -6.73  -4.61c
iter:  21 22:12:23  -257.825778c -6.94  -4.71c
iter:  22 22:12:29  -257.825778c -7.02  -4.74c
iter:  23 22:12:36  -257.825778c -7.35  -4.82c
iter:  24 22:12:43  -257.825778c -7.34  -4.95c
Writing to output.gpw (mode='')

iter:  25 22:12:50  -257.825778c -7.89c -5.17c

Converged after 25 iterations.

Dipole moment: (5.392415, -3.315966, -0.244543) |e|*Ang

Energy contributions relative to reference atoms: (reference = -10970.764591)

Kinetic:       +108.148955
Potential:      -97.481903
External:        +0.000000
XC:            -268.764328
Entropy (-ST):   -0.162302
Local:           +0.352648
--------------------------
Free energy:   -257.906929
Extrapolated:  -257.825778

Dipole-layer corrected work functions: 3.434083, 3.904178 eV

Showing only first 2 kpts
 Kpt  Band  Eigenvalues  Occupancy
  0    24     -3.86568    1.96150
  0    25     -3.78389    1.81697
  0    26     -3.59328    0.35981
  0    27     -3.49850    0.06380

  1    24     -3.90604    1.98264
  1    25     -3.78903    1.83335
  1    26     -3.57836    0.27998
  1    27     -3.57058    0.24458


Fermi level: -3.66913

No gap

Forces in eV/Ang:
  0 Li    0.00306    0.00065   -0.28576
  1 Li   -0.00599   -0.00954   -0.28002
  2 Li    0.00964   -0.00360   -0.24682
  3 Li    0.02015    0.00302   -0.27825
  4 Li   -0.00225    0.00543   -0.29770
  5 Li    0.01193    0.00922   -0.27603
  6 Li    0.01735   -0.01610   -0.29890
  7 Li    0.00380   -0.01613   -0.27036
  8 Li    0.00271   -0.00295   -0.28474
  9 Li   -0.00150   -0.00380    0.26923
 10 Li   -0.03880    0.02912    0.31891
 11 Li   -0.00393   -0.00620    0.22576
 12 Li   -0.00462   -0.01398    0.21176
 13 Li   -0.02455   -0.00916    0.34095
 14 Li   -0.01519   -0.00098    0.28139
 15 Li   -0.03535   -0.01864    0.30419
 16 Li   -0.02329    0.01286    0.31629
 17 Li   -0.02118   -0.02477    0.31463
 18 Li    0.01949   -0.00065   -0.02111
 19 Li    0.02151    0.00773    0.01252
 20 Li   -0.03508    0.00292    0.01125
 21 Li    0.01195    0.00349   -0.00598
 22 Li   -0.00117    0.00806    0.00286
 23 Li   -0.00178   -0.01061   -0.01173
 24 Li   -0.01181    0.00603    0.00696
 25 Li   -0.00750    0.00207    0.00138
 26 Li    0.01279    0.00099    0.02025
 27 Li    0.01759    0.00421    0.00017
 28 Li   -0.01932    0.00826    0.00174
 29 Li    0.01552   -0.00183   -0.00406
 30 Li    0.03085    0.02009   -0.00883
 31 Li    0.00083    0.00686   -0.00188
 32 Li    0.01129   -0.01153    0.02742
 33 Li   -0.00371    0.01388   -0.00392
 34 Li    0.00441   -0.01125   -0.00088
 35 Li   -0.00376    0.00535   -0.00534
 36 B     0.01408    0.02205    0.01735
 37 H    -0.00477    0.01305   -0.01980
 38 H     0.01801    0.00108    0.00118
 39 H     0.01240   -0.03034   -0.00619
 40 N    -0.02050   -0.02647   -0.00631
 41 N     0.01845   -0.01350   -0.04037

Timing:                                      incl.     excl.
-------------------------------------------------------------------
Density initialized from wave functions:     3.255     3.254   0.0% |
 Symmetrize density:                         0.001     0.001   0.0% |
Forces:                                     23.217    23.217   0.1% |
Hamiltonian:                               379.871     0.009   0.0% |
 Atomic:                                     0.016     0.016   0.0% |
  XC Correction:                             0.000     0.000   0.0% |
 Calculate atomic Hamiltonians:              0.023     0.023   0.0% |
 Communicate:                                3.783     3.783   0.0% |
 Hartree integrate/restrict:                 1.302     1.302   0.0% |
 Poisson:                                   18.300     6.944   0.0% |
  Communicate from 1D:                       1.750     1.750   0.0% |
  Communicate from 2D:                       1.782     1.782   0.0% |
  Communicate to 1D:                         0.993     0.993   0.0% |
  Communicate to 2D:                         2.229     2.229   0.0% |
  FFT 1D:                                    2.313     2.313   0.0% |
  FFT 2D:                                    2.289     2.289   0.0% |
 XC 3D grid:                               356.126    54.627   0.3% |
  VdW-DF integral:                         301.499     2.478   0.0% |
   Convolution:                             28.129    28.129   0.2% |
   FFT:                                     11.742    11.742   0.1% |
   gather:                                 102.322   102.322   0.6% |
   hmm1:                                     9.728     9.728   0.1% |
   hmm2:                                    12.594    12.594   0.1% |
   iFFT:                                    12.188    12.188   0.1% |
   potential:                              118.409     3.302   0.0% |
    collect:                                19.332    19.332   0.1% |
    p1:                                     52.403    52.403   0.3% |
    p2:                                     19.547    19.547   0.1% |
    sum:                                    23.825    23.825   0.1% |
   splines:                                  3.908     3.908   0.0% |
 vbar:                                       0.310     0.310   0.0% |
LCAO initialization:                         1.065     0.112   0.0% |
 LCAO eigensolver:                           0.398     0.000   0.0% |
  Calculate projections:                     0.000     0.000   0.0% |
  DenseAtomicCorrection:                     0.000     0.000   0.0% |
  Distribute overlap matrix:                 0.182     0.182   0.0% |
  Orbital Layouts:                           0.044     0.044   0.0% |
  Potential matrix:                          0.170     0.170   0.0% |
  Sum over cells:                            0.001     0.001   0.0% |
 LCAO to grid:                               0.447     0.447   0.0% |
 Set positions (LCAO WFS):                   0.108     0.068   0.0% |
  Basic WFS set positions:                   0.001     0.001   0.0% |
  Basis functions set positions:             0.000     0.000   0.0% |
  P tci:                                     0.000     0.000   0.0% |
  ST tci:                                    0.011     0.011   0.0% |
  mktci:                                     0.027     0.027   0.0% |
Redistribute:                                0.035     0.035   0.0% |
SCF-cycle:                               15983.104   229.995   1.4% ||
 Davidson:                                3418.841  1033.882   6.3% |--|
  Apply hamiltonian:                       216.677   216.677   1.3% ||
  Subspace diag:                           658.677     0.259   0.0% |
   calc_h_matrix:                          312.567    87.330   0.5% |
    Apply hamiltonian:                     225.237   225.237   1.4% ||
   diagonalize:                             53.468    53.468   0.3% |
   rotate_psi:                             292.383   292.383   1.8% ||
  calc. matrices:                         1050.832   514.955   3.1% ||
   Apply hamiltonian:                      535.877   535.877   3.3% ||
  diagonalize:                               7.809     7.809   0.0% |
  rotate_psi:                              450.964   450.964   2.7% ||
 Density:                                   77.481     0.053   0.0% |
  Atomic density matrices:                   7.331     7.331   0.0% |
  Mix:                                      36.307    36.307   0.2% |
  Multipole moments:                         5.978     5.978   0.0% |
  Pseudo density:                           27.812    27.770   0.2% |
   Symmetrize density:                       0.041     0.041   0.0% |
 Hamiltonian:                            12246.835     0.288   0.0% |
  Atomic:                                    0.525     0.519   0.0% |
   XC Correction:                            0.006     0.006   0.0% |
  Calculate atomic Hamiltonians:             0.839     0.839   0.0% |
  Communicate:                             171.209   171.209   1.0% |
  Hartree integrate/restrict:               43.106    43.106   0.3% |
  Poisson:                                 584.303   215.534   1.3% ||
   Communicate from 1D:                     58.565    58.565   0.4% |
   Communicate from 2D:                     61.175    61.175   0.4% |
   Communicate to 1D:                       31.857    31.857   0.2% |
   Communicate to 2D:                       68.098    68.098   0.4% |
   FFT 1D:                                  75.477    75.477   0.5% |
   FFT 2D:                                  73.596    73.596   0.4% |
  XC 3D grid:                            11436.015  1770.489  10.8% |---|
   VdW-DF integral:                       9665.526    80.489   0.5% |
    Convolution:                           903.923   903.923   5.5% |-|
    FFT:                                   381.600   381.600   2.3% ||
    gather:                               3341.494  3341.494  20.3% |-------|
    hmm1:                                  315.775   315.775   1.9% ||
    hmm2:                                  413.346   413.346   2.5% ||
    iFFT:                                  399.391   399.391   2.4% ||
    potential:                            3829.487   107.390   0.7% |
     collect:                              592.613   592.613   3.6% ||
     p1:                                  1704.528  1704.528  10.4% |---|
     p2:                                   628.266   628.266   3.8% |-|
     sum:                                  796.690   796.690   4.8% |-|
    splines:                                 0.020     0.020   0.0% |
  vbar:                                     10.550    10.550   0.1% |
 Orthonormalize:                             9.952     0.009   0.0% |
  calc_s_matrix:                             1.266     1.266   0.0% |
  inverse-cholesky:                          3.358     3.358   0.0% |
  projections:                               0.001     0.001   0.0% |
  rotate_psi_s:                              5.318     5.318   0.0% |
Set symmetry:                                0.002     0.002   0.0% |
Other:                                      62.862    62.862   0.4% |
-------------------------------------------------------------------
Total:                                             16453.410 100.0%

Memory usage: 1.09 GiB
Date: Mon Apr  3 22:12:52 2023
