
  ___ ___ ___ _ _ _  
 |   |   |_  | | | | 
 | | | | | . | | | | 
 |__ |  _|___|_____|  22.8.0
 |___|_|             

User:   vazumah@c12.hercules
Date:   Thu Mar  9 01:08:58 2023
Arch:   x86_64
Pid:    12330
CWD:    /home/vazumah/Python_projects/LiNRR/Li_adsorb_studies/proton_donors/N2_with_proton_donor/Li_BCC_100/adsorbates/BH3_retest/bridge/8.085_1.617/N2_y
Python: 3.10.8
gpaw:   /home/vazumah/.conda/envs/GPAW/lib/python3.10/site-packages/gpaw
_gpaw:  /home/vazumah/.conda/envs/GPAW/lib/python3.10/site-packages/
        _gpaw.cpython-310-x86_64-linux-gnu.so
ase:    /home/vazumah/.conda/envs/GPAW/lib/python3.10/site-packages/ase (version 3.22.1)
numpy:  /home/vazumah/.conda/envs/GPAW/lib/python3.10/site-packages/numpy (version 1.24.1)
scipy:  /home/vazumah/.conda/envs/GPAW/lib/python3.10/site-packages/scipy (version 1.10.0)
libxc:  5.2.3
units:  Angstrom and eV
cores: 24
OpenMP: True
OMP_NUM_THREADS: 1

Input parameters:
  h: 0.16
  kpts: {size: [4, 4, 1]}
  occupations: {name: fermi-dirac,
                width: 0.05}
  poissonsolver: {dipolelayer: xy}
  xc: BEEF-vdW

System changes: positions, numbers, cell, pbc, initial_charges, initial_magmoms 

Initialize ...

species:
  Li:
    name: Lithium
    id: 830b4218f175192f93f959cfc0aad614
    Z: 3.0
    valence: 1
    core: 2
    charge: 0.0
    file: /home/vazumah/.conda/envs/GPAW/share/gpaw/Li.PBE.gz
    compensation charges: {type: gauss,
                           rc: 0.33,
                           lmax: 2}
    cutoffs: {filter: 1.91,
              core: 2.55}
    valence states:
      #              energy  rcut
      - 2s(1.00)    -2.874   1.058
      - 2p(0.00)    -1.090   1.058
      -  s          24.337   1.058
  
    # Using partial waves for Li as LCAO basis

  B:
    name: Boron
    id: 6e91439235a05fd7549e31636e8f777c
    Z: 5.0
    valence: 3
    core: 2
    charge: 0.0
    file: /home/vazumah/.conda/envs/GPAW/share/gpaw/B.PBE.gz
    compensation charges: {type: gauss,
                           rc: 0.20,
                           lmax: 2}
    cutoffs: {filter: 1.14,
              core: 1.38}
    valence states:
      #              energy  rcut
      - 2s(2.00)    -9.443   0.635
      - 2p(1.00)    -3.606   0.635
      -  s          17.768   0.635
      -  p          23.605   0.635
      -  d           0.000   0.635
  
    # Using partial waves for B as LCAO basis

  H:
    name: Hydrogen
    id: d65de229564ff8ea4db303e23b6d1ecf
    Z: 1.0
    valence: 1
    core: 0
    charge: 0.0
    file: /home/vazumah/.conda/envs/GPAW/share/gpaw/H.PBE.gz
    compensation charges: {type: gauss,
                           rc: 0.15,
                           lmax: 2}
    cutoffs: {filter: 0.85,
              core: 0.53}
    valence states:
      #              energy  rcut
      - 1s(1.00)    -6.494   0.476
      -  s          20.717   0.476
      -  p           0.000   0.476
  
    # Using partial waves for H as LCAO basis

  N:
    name: Nitrogen
    id: f7500608b86eaa90eef8b1d9a670dc53
    Z: 7.0
    valence: 5
    core: 2
    charge: 0.0
    file: /home/vazumah/.conda/envs/GPAW/share/gpaw/N.PBE.gz
    compensation charges: {type: gauss,
                           rc: 0.18,
                           lmax: 2}
    cutoffs: {filter: 1.11,
              core: 0.96}
    valence states:
      #              energy  rcut
      - 2s(2.00)   -18.583   0.603
      - 2p(3.00)    -7.089   0.529
      -  s           8.629   0.603
      -  p          20.123   0.529
      -  d           0.000   0.577
  
    # Using partial waves for N as LCAO basis

Reference energy: -10970.764591  # eV

Spin-paired calculation

Convergence criteria:
 Maximum [total energy] change in last 3 cyles: 0.0005 eV / electron
 Maximum integral of absolute [dens]ity change: 0.0001 electrons / valence electron
 Maximum integral of absolute [eigenst]ate change: 4e-08 eV^2 / valence electron
 Maximum number of scf [iter]ations: 333
 (Square brackets indicate name in SCF output, whereas a 'c' in
 the SCF output indicates the quantity has converged.)

Symmetries present (total): 1

  ( 1  0  0)
  ( 0  1  0)
  ( 0  0  1)

16 k-points: 4 x 4 x 1 Monkhorst-Pack grid
8 k-points in the irreducible part of the Brillouin zone
       k-points in crystal coordinates                weights
   0:     0.12500000   -0.37500000    0.00000000          2/16
   1:     0.12500000   -0.12500000    0.00000000          2/16
   2:     0.12500000    0.12500000    0.00000000          2/16
   3:     0.12500000    0.37500000    0.00000000          2/16
   4:     0.37500000   -0.37500000    0.00000000          2/16
   5:     0.37500000   -0.12500000    0.00000000          2/16
   6:     0.37500000    0.12500000    0.00000000          2/16
   7:     0.37500000    0.37500000    0.00000000          2/16

Wave functions: Uniform real-space grid
  Kinetic energy operator: 6*3+1=19 point O(h^6) finite-difference Laplacian
  ScaLapack parameters: grid=1x1, blocksize=None
  Wavefunction extrapolation:
    Improved wavefunction reuse through dual PAW basis 

Occupation numbers: Fermi-Dirac:
  width: 0.0500  # eV
 

Eigensolver
   Davidson(niter=2) 

Densities:
  Coarse grid: 60*60*164 grid
  Fine grid: 120*120*328 grid
  Total Charge: 0.000000 

Density mixing:
  Method: separate
  Backend: pulay
  Linear mixing parameter: 0.05
  old densities: 5
  Damping of long wavelength oscillations: 50 

Hamiltonian:
  XC and Coulomb potentials evaluated on a 120*120*328 grid
  Using the BEEF-vdW Exchange-Correlation functional
  Interpolation: tri-quintic (5. degree polynomial)
  Poisson solver: FastPoissonSolver using
    Stencil: 6*3+1=19 point O(h^6) finite-difference Laplacian
    FFT axes: [0, 1]
    FST axes: [2]

Dipole correction along z-axis 

XC parameters: BEEF-vdW with 2 nearest neighbor stencil

Memory estimate:
  Process memory now: 225.30 MiB
  Calculator: 381.63 MiB
    Density: 119.06 MiB
      Arrays: 38.89 MiB
      Localized functions: 65.34 MiB
      Mixer: 14.83 MiB
    Hamiltonian: 30.60 MiB
      Arrays: 25.43 MiB
      XC: 0.00 MiB
      Poisson: 0.00 MiB
      vbar: 5.17 MiB
    Wavefunctions: 231.97 MiB
      Arrays psit_nG: 106.79 MiB
      Eigensolver: 121.82 MiB
      Projections: 0.04 MiB
      Projectors: 3.32 MiB

Total number of cores used: 24
Parallelization over k-points: 8
Domain decomposition: 1 x 1 x 3

Number of atoms: 42
Number of atomic orbitals: 159
Number of bands in calculation: 36
Number of valence electrons: 52
Bands to converge: occupied

... initialized

Initializing position-dependent things.

Density initialized from atomic densities
Creating initial wave functions:
  36 bands from LCAO basis set

       .-----------------------.  
      /|                       |  
     / |                       |  
    /  |                       |  
   /   |                       |  
  /    |                       |  
 *     |                       |  
 |     |                       |  
 |     |                       |  
 |     |                       |  
 |     |                       |  
 |     |                       |  
 |     |                       |  
 |     |                       |  
 |     |            H    H     |  
 |   Li|     Li      HB        |  
 |     |              N        |  
 | Li  |  LLi     LLiN    Li   |  
 |     |                       |  
 Li    |LLi     LLi     Li     |  
 |   Li|     Li      Li        |  
 |    Li  Li  Li  Li  Li  Li   |  
 | Li  |   Li      Li          |  
 |     |Li      Li      Li     |  
 Li    | Li      Li            |  
 |    Li      Li      Li       |  
 |     |                       |  
 |     |                       |  
 |     |                       |  
 |     |                       |  
 |     |                       |  
 |     |                       |  
 |     .-----------------------.  
 |    /                       /   
 |   /                       /    
 |  /                       /     
 | /                       /      
 |/                       /       
 *-----------------------*        

Positions:
   0 Li     1.617037    1.617037   10.000000    ( 0.0000,  0.0000,  0.0000)
   1 Li     4.851111    1.617037   10.000000    ( 0.0000,  0.0000,  0.0000)
   2 Li     8.085185    1.617037   10.000000    ( 0.0000,  0.0000,  0.0000)
   3 Li     1.617037    4.851111   10.000000    ( 0.0000,  0.0000,  0.0000)
   4 Li     4.851111    4.851111   10.000000    ( 0.0000,  0.0000,  0.0000)
   5 Li     8.085185    4.851111   10.000000    ( 0.0000,  0.0000,  0.0000)
   6 Li     1.617037    8.085185   10.000000    ( 0.0000,  0.0000,  0.0000)
   7 Li     4.851111    8.085185   10.000000    ( 0.0000,  0.0000,  0.0000)
   8 Li     8.085185    8.085185   10.000000    ( 0.0000,  0.0000,  0.0000)
   9 Li     0.000000    0.000000   11.617037    ( 0.0000,  0.0000,  0.0000)
  10 Li     3.234074    0.000000   11.617037    ( 0.0000,  0.0000,  0.0000)
  11 Li     6.468148    0.000000   11.617037    ( 0.0000,  0.0000,  0.0000)
  12 Li     0.000000    3.234074   11.617037    ( 0.0000,  0.0000,  0.0000)
  13 Li     3.234074    3.234074   11.617037    ( 0.0000,  0.0000,  0.0000)
  14 Li     6.468148    3.234074   11.617037    ( 0.0000,  0.0000,  0.0000)
  15 Li     0.000000    6.468148   11.617037    ( 0.0000,  0.0000,  0.0000)
  16 Li     3.234074    6.468148   11.617037    ( 0.0000,  0.0000,  0.0000)
  17 Li     6.468148    6.468148   11.617037    ( 0.0000,  0.0000,  0.0000)
  18 Li     1.617038    1.617038   13.469728    ( 0.0000,  0.0000,  0.0000)
  19 Li     4.851111    1.617038   13.469729    ( 0.0000,  0.0000,  0.0000)
  20 Li     8.085184    1.617038   13.469728    ( 0.0000,  0.0000,  0.0000)
  21 Li     1.617038    4.851111   13.469729    ( 0.0000,  0.0000,  0.0000)
  22 Li     4.851111    4.851111   13.469730    ( 0.0000,  0.0000,  0.0000)
  23 Li     8.085184    4.851111   13.469729    ( 0.0000,  0.0000,  0.0000)
  24 Li     1.617038    8.085184   13.469728    ( 0.0000,  0.0000,  0.0000)
  25 Li     4.851111    8.085184   13.469729    ( 0.0000,  0.0000,  0.0000)
  26 Li     8.085184    8.085184   13.469728    ( 0.0000,  0.0000,  0.0000)
  27 Li    -0.000000   -0.000000   15.445939    ( 0.0000,  0.0000,  0.0000)
  28 Li     3.234074    0.000000   15.445939    ( 0.0000,  0.0000,  0.0000)
  29 Li     6.468148    0.000000   15.445939    ( 0.0000,  0.0000,  0.0000)
  30 Li     0.000000    3.234074   15.445939    ( 0.0000,  0.0000,  0.0000)
  31 Li     3.234076    3.234076   15.445938    ( 0.0000,  0.0000,  0.0000)
  32 Li     6.468146    3.234076   15.445938    ( 0.0000,  0.0000,  0.0000)
  33 Li     0.000000    6.468148   15.445939    ( 0.0000,  0.0000,  0.0000)
  34 Li     3.234076    6.468146   15.445938    ( 0.0000,  0.0000,  0.0000)
  35 Li     6.468146    6.468146   15.445938    ( 0.0000,  0.0000,  0.0000)
  36 B      8.085185    1.617037   18.445939    ( 0.0000,  0.0000,  0.0000)
  37 H      9.117754    2.209323   18.445939    ( 0.0000,  0.0000,  0.0000)
  38 H      7.055276    2.213996   18.445939    ( 0.0000,  0.0000,  0.0000)
  39 H      8.085271    0.428437   18.445939    ( 0.0000,  0.0000,  0.0000)
  40 N      8.085000    1.617000   16.945939    ( 0.0000,  0.0000,  0.0000)
  41 N      8.085000    0.520378   16.945939    ( 0.0000,  0.0000,  0.0000)

Unit cell:
           periodic     x           y           z      points  spacing
  1. axis:    yes    9.702222    0.000000    0.000000    60     0.1617
  2. axis:    yes    0.000000    9.702222    0.000000    60     0.1617
  3. axis:    no     0.000000    0.000000   26.351111   164     0.1607

  Lengths:   9.702222   9.702222  26.351111
  Angles:   90.000000  90.000000  90.000000

Effective grid spacing dv^(1/3) = 0.1614

     iter     time        total  log10-change:
                         energy  eigst   dens
iter:   1 01:12:13  -328.272394
iter:   2 01:14:45  -219.893793  +2.22  -0.14
iter:   3 01:17:23  -189.782693  +2.58  -0.36
iter:   4 01:19:55  -210.471651  +2.81  -0.40
Writing to output.gpw (mode='')

iter:   5 01:22:22  -225.341745  +2.25  -0.46
iter:   6 01:24:48  -241.445106  +2.06  -0.64
iter:   7 01:27:17  -281.751318  +2.54  -0.70
iter:   8 01:29:50  -264.831249  +1.63  -0.40
iter:   9 01:32:26  -277.566833  +1.61  -0.52
Writing to output.gpw (mode='')

iter:  10 01:35:02  -256.317302  +1.16  -0.42
iter:  11 01:37:26  -263.267771  +1.18  -0.82
iter:  12 01:39:51  -269.676146  +1.44  -0.70
iter:  13 01:42:24  -256.218707  +1.05  -0.64
iter:  14 01:44:50  -254.383277  +1.09  -0.86
Writing to output.gpw (mode='')

iter:  15 01:47:22  -253.555472  +0.49  -0.81
iter:  16 01:49:43  -253.047449  +0.66  -0.92
iter:  17 01:52:18  -252.972929  +0.66  -1.04
iter:  18 01:54:43  -252.919806  +0.03  -1.02
iter:  19 01:57:17  -252.367579  -0.02  -1.04
Writing to output.gpw (mode='')

iter:  20 01:59:50  -252.373735  -0.39  -1.32
iter:  21 02:02:16  -252.408761  -0.37  -1.38
iter:  22 02:04:41  -252.394270  -0.55  -1.36
iter:  23 02:07:16  -252.352588  -0.86  -1.39
iter:  24 02:09:46  -252.319598  -0.71  -1.44
Writing to output.gpw (mode='')

iter:  25 02:12:27  -252.316641  -0.62  -1.61
iter:  26 02:14:55  -252.316596c -1.31  -1.66
iter:  27 02:17:19  -252.315115c -1.38  -1.73
iter:  28 02:19:48  -252.317662c -1.22  -1.78
iter:  29 02:22:17  -252.317562c -1.48  -1.95
Writing to output.gpw (mode='')

iter:  30 02:24:52  -252.311201c -1.70  -1.93
iter:  31 02:27:20  -252.313291c -1.59  -2.25
iter:  32 02:29:51  -252.314109c -1.99  -2.36
iter:  33 02:32:29  -252.314186c -1.90  -2.39
iter:  34 02:35:05  -252.315356c -2.17  -2.65
Writing to output.gpw (mode='')

iter:  35 02:37:32  -252.315744c -2.17  -2.64
iter:  36 02:39:56  -252.316511c -2.30  -2.69
iter:  37 02:42:30  -252.316652c -2.42  -2.61
iter:  38 02:45:06  -252.316963c -2.50  -2.81
iter:  39 02:47:49  -252.317305c -2.63  -2.83
Writing to output.gpw (mode='')

iter:  40 02:50:22  -252.317844c -2.28  -2.78
iter:  41 02:52:48  -252.318112c -2.63  -2.86
iter:  42 02:55:14  -252.318339c -2.77  -2.83
iter:  43 02:57:46  -252.318666c -2.60  -2.77
iter:  44 03:00:16  -252.318733c -2.67  -2.73
Writing to output.gpw (mode='')

iter:  45 03:02:50  -252.319015c -2.41  -2.82
iter:  46 03:05:12  -252.319152c -2.71  -2.86
iter:  47 03:07:28  -252.319263c -2.99  -2.71
iter:  48 03:09:57  -252.319336c -2.96  -2.81
iter:  49 03:12:25  -252.319336c -3.18  -2.75
Writing to output.gpw (mode='')

iter:  50 03:14:57  -252.319523c -2.99  -2.79
iter:  51 03:17:35  -252.319625c -2.93  -2.82
iter:  52 03:19:59  -252.320050c -2.88  -2.64
iter:  53 03:22:34  -252.320308c -2.82  -2.67
iter:  54 03:24:58  -252.320436c -3.05  -2.64
Writing to output.gpw (mode='')

iter:  55 03:27:39  -252.320352c -3.21  -2.65
iter:  56 03:30:08  -252.320294c -3.47  -2.64
iter:  57 03:32:32  -252.320368c -3.53  -2.68
iter:  58 03:35:05  -252.320631c -3.14  -2.69
iter:  59 03:37:37  -252.319948c -2.97  -2.77
Writing to output.gpw (mode='')

iter:  60 03:40:04  -252.320343c -3.27  -2.75
iter:  61 03:42:33  -252.320263c -3.29  -2.99
iter:  62 03:45:04  -252.320547c -3.39  -3.01
iter:  63 03:47:29  -252.320415c -3.58  -3.03
iter:  64 03:49:56  -252.320404c -3.79  -3.15
Writing to output.gpw (mode='')

iter:  65 03:52:24  -252.320391c -3.60  -3.22
iter:  66 03:54:58  -252.320419c -3.52  -3.27
iter:  67 03:57:27  -252.320441c -3.72  -3.40
iter:  68 03:59:48  -252.320436c -3.74  -3.61
iter:  69 04:02:17  -252.320457c -3.94  -3.70
Writing to output.gpw (mode='')

iter:  70 04:04:46  -252.320468c -3.94  -3.75
iter:  71 04:07:11  -252.320485c -4.06  -3.78
iter:  72 04:09:43  -252.320482c -3.94  -3.78
iter:  73 04:12:15  -252.320489c -4.12  -3.80
iter:  74 04:14:49  -252.320492c -4.09  -3.89
Writing to output.gpw (mode='')

iter:  75 04:17:16  -252.320496c -4.19  -4.04c
iter:  76 04:19:34  -252.320494c -4.28  -4.05c
iter:  77 04:22:02  -252.320487c -4.30  -4.03c
iter:  78 04:24:38  -252.320481c -4.23  -4.04c
iter:  79 04:27:04  -252.320486c -4.34  -3.97
Writing to output.gpw (mode='')

iter:  80 04:29:31  -252.320490c -4.39  -4.00
iter:  81 04:32:03  -252.320494c -4.31  -4.01c
iter:  82 04:34:31  -252.320489c -4.57  -4.01c
iter:  83 04:36:53  -252.320512c -4.34  -3.97
iter:  84 04:39:21  -252.320512c -4.64  -3.90
Writing to output.gpw (mode='')

iter:  85 04:41:53  -252.320497c -4.77  -3.90
iter:  86 04:44:19  -252.320518c -4.62  -3.82
iter:  87 04:46:42  -252.320511c -4.78  -4.05c
iter:  88 04:49:07  -252.320537c -4.71  -3.94
iter:  89 04:51:40  -252.320539c -4.94  -4.02c
Writing to output.gpw (mode='')

iter:  90 04:54:11  -252.320556c -4.66  -4.02c
iter:  91 04:56:40  -252.320550c -4.80  -4.07c
iter:  92 04:59:03  -252.320567c -4.75  -4.11c
iter:  93 05:01:31  -252.320557c -5.03  -4.41c
iter:  94 05:04:05  -252.320559c -5.16  -4.55c
Writing to output.gpw (mode='')

iter:  95 05:06:40  -252.320564c -5.08  -4.66c
iter:  96 05:09:08  -252.320565c -4.98  -4.75c
iter:  97 05:11:26  -252.320564c -5.10  -4.80c
iter:  98 05:13:51  -252.320567c -5.24  -4.82c
iter:  99 05:16:19  -252.320564c -5.39  -4.96c
Writing to output.gpw (mode='')

iter: 100 05:18:41  -252.320564c -5.49  -5.18c
iter: 101 05:20:57  -252.320564c -5.39  -5.24c
iter: 102 05:23:24  -252.320562c -5.44  -5.19c
iter: 103 05:25:45  -252.320562c -5.28  -5.09c
iter: 104 05:28:12  -252.320562c -5.05  -5.07c
Writing to output.gpw (mode='')

iter: 105 05:30:46  -252.320563c -5.38  -5.05c
iter: 106 05:33:11  -252.320563c -5.55  -5.11c
iter: 107 05:35:31  -252.320563c -5.54  -5.04c
iter: 108 05:37:53  -252.320565c -5.50  -4.92c
iter: 109 05:40:21  -252.320570c -5.53  -5.18c
Writing to output.gpw (mode='')

iter: 110 05:42:54  -252.320566c -5.85  -5.06c
iter: 111 05:45:22  -252.320566c -5.77  -5.16c
iter: 112 05:47:51  -252.320564c -5.90  -5.13c
iter: 113 05:50:12  -252.320562c -5.82  -5.07c
iter: 114 05:52:39  -252.320566c -5.91  -4.92c
Writing to output.gpw (mode='')

iter: 115 05:55:03  -252.320561c -5.85  -5.11c
iter: 116 05:57:29  -252.320564c -5.93  -4.89c
iter: 117 05:59:54  -252.320567c -5.75  -5.00c
iter: 118 06:02:17  -252.320567c -6.03  -5.07c
iter: 119 06:04:37  -252.320566c -6.06  -5.08c
Writing to output.gpw (mode='')

iter: 120 06:07:09  -252.320568c -6.13  -5.02c
iter: 121 06:09:44  -252.320570c -6.19  -5.11c
iter: 122 06:12:14  -252.320569c -6.30  -5.12c
iter: 123 06:14:41  -252.320569c -6.19  -5.18c
iter: 124 06:17:10  -252.320568c -6.29  -5.20c
Writing to output.gpw (mode='')

iter: 125 06:19:36  -252.320569c -6.33  -5.35c
iter: 126 06:22:12  -252.320568c -6.38  -5.53c
iter: 127 06:24:42  -252.320568c -6.38  -5.63c
iter: 128 06:27:13  -252.320568c -6.29  -5.69c
iter: 129 06:29:38  -252.320568c -6.41  -5.72c
Writing to output.gpw (mode='')

iter: 130 06:32:11  -252.320569c -6.33  -5.87c
iter: 131 06:34:52  -252.320568c -6.59  -6.06c
iter: 132 06:37:19  -252.320568c -6.64  -6.07c
iter: 133 06:39:45  -252.320569c -6.38  -6.05c
iter: 134 06:42:20  -252.320568c -6.43  -6.14c
Writing to output.gpw (mode='')

iter: 135 06:44:58  -252.320568c -6.32  -6.24c
iter: 136 06:47:35  -252.320568c -6.56  -6.32c
iter: 137 06:50:00  -252.320568c -6.53  -6.26c
iter: 138 06:52:29  -252.320568c -6.68  -6.01c
iter: 139 06:54:59  -252.320568c -6.57  -5.98c
Writing to output.gpw (mode='')

iter: 140 06:57:26  -252.320568c -6.68  -6.00c
iter: 141 07:00:02  -252.320568c -6.82  -5.87c
iter: 142 07:02:35  -252.320568c -6.75  -5.97c
iter: 143 07:05:02  -252.320568c -6.84  -6.14c
iter: 144 07:07:34  -252.320568c -6.87  -6.18c
Writing to output.gpw (mode='')

iter: 145 07:10:14  -252.320568c -7.06  -6.39c
iter: 146 07:12:38  -252.320568c -6.91  -6.43c
iter: 147 07:14:59  -252.320568c -6.90  -6.51c
iter: 148 07:17:20  -252.320568c -7.07  -6.55c
iter: 149 07:19:44  -252.320568c -6.98  -6.42c
Writing to output.gpw (mode='')

iter: 150 07:22:09  -252.320568c -7.17  -6.79c
iter: 151 07:24:38  -252.320568c -7.21  -6.81c
iter: 152 07:27:04  -252.320568c -7.13  -6.73c
iter: 153 07:29:27  -252.320568c -7.16  -6.62c
iter: 154 07:32:01  -252.320568c -7.28  -6.54c
Writing to output.gpw (mode='')

iter: 155 07:34:40  -252.320568c -7.26  -6.45c
iter: 156 07:37:10  -252.320568c -7.34  -6.43c
iter: 157 07:39:35  -252.320568c -7.40c -6.49c

Converged after 157 iterations.

Dipole moment: (-1.463841, -9.175662, -0.188686) |e|*Ang

Energy contributions relative to reference atoms: (reference = -10970.764591)

Kinetic:       +136.193511
Potential:     -119.632080
External:        +0.000000
XC:            -269.120964
Entropy (-ST):   -0.159477
Local:           +0.318704
--------------------------
Free energy:   -252.400306
Extrapolated:  -252.320568

Dipole-layer corrected work functions: 3.408306, 3.771025 eV

Showing only first 2 kpts
 Kpt  Band  Eigenvalues  Occupancy
  0    24     -3.83146    1.98425
  0    25     -3.72413    1.87278
  0    26     -3.45569    0.12839
  0    27     -3.39701    0.04154

  1    24     -3.67137    1.67347
  1    25     -3.58759    0.97922
  1    26     -3.54631    0.59169
  1    27     -3.46215    0.14481


Fermi level: -3.58967

No gap
Writing to output.gpw (mode='')


Forces in eV/Ang:
  0 Li    0.03229   -0.00498   -0.27587
  1 Li   -0.03229   -0.00498   -0.27586
  2 Li   -0.00000    0.00675   -0.28119
  3 Li   -0.00206   -0.00051   -0.27932
  4 Li    0.00206   -0.00051   -0.27931
  5 Li   -0.00000    0.02154   -0.27578
  6 Li    0.00932    0.00154   -0.27675
  7 Li   -0.00933    0.00154   -0.27676
  8 Li   -0.00000   -0.02876   -0.26484
  9 Li   -0.00328    0.00160    0.30766
 10 Li    0.00000    0.00658    0.23062
 11 Li    0.00328    0.00160    0.30768
 12 Li   -0.00488    0.00110    0.29360
 13 Li   -0.00001   -0.00654    0.23841
 14 Li    0.00488    0.00111    0.29359
 15 Li   -0.01032   -0.00414    0.24591
 16 Li    0.00000    0.00510    0.25690
 17 Li    0.01031   -0.00413    0.24591
 18 Li   -0.00480   -0.00135    0.03902
 19 Li    0.00479   -0.00134    0.03904
 20 Li    0.00000   -0.00413   -0.18850
 21 Li   -0.00268   -0.01166    0.04400
 22 Li    0.00269   -0.01169    0.04404
 23 Li   -0.00000    0.01239    0.02949
 24 Li   -0.02243    0.01898    0.05473
 25 Li    0.02242    0.01897    0.05471
 26 Li    0.00002    0.01046    0.00606
 27 Li    0.05366   -0.12778   -0.01980
 28 Li   -0.00000    0.00889   -0.01966
 29 Li   -0.05345   -0.12791   -0.01957
 30 Li   -0.00358    0.07990    0.03012
 31 Li    0.00002   -0.02981   -0.01598
 32 Li    0.00369    0.07990    0.02999
 33 Li    0.01649   -0.02725   -0.02997
 34 Li    0.00001    0.01744   -0.01444
 35 Li   -0.01650   -0.02730   -0.02998
 36 B     0.00748    2.05442    1.60687
 37 H     0.55889    0.01978    1.35546
 38 H    -0.55988    0.01550    1.35988
 39 H    -0.00390   -1.30896    3.32529
 40 N     0.00318   10.50125   -4.52917
 41 N    -0.00384  -11.10801   -3.05294

System changes: positions 

Initializing position-dependent things.

Density initialized from wave functions
       .-----------------------.  
      /|                       |  
     / |                       |  
    /  |                       |  
   /   |                       |  
  /    |                       |  
 *     |                       |  
 |     |                       |  
 |     |                       |  
 |     |                       |  
 |     |                       |  
 |     |                       |  
 |     |                       |  
 |     Li              Li      |  
 |     |            H    H     |  
 |   Li|     Li      HB        |  
 |     |              N        |  
 |     |  LLi     LLiN    LLi  |  
 |     |                       |  
 |     |LLi     Li      Li     |  
 |   Li|     Li      Li        |  
 |    Li  Li  Li  Li  Li  Li   |  
 | Li  |   Li      Li          |  
 |     |Li      Li      Li     |  
 Li    | Li      Li            |  
 |    Li      Li      Li       |  
 |     |                       |  
 |     |                       |  
 |     |                       |  
 |     |                       |  
 |     |                       |  
 |     |                       |  
 |     .-----------------------.  
 |    /                       /   
 |   /                       /    
 |  /                       /     
 | /                       /      
 |/                       /       
 *-----------------------*        

Positions:
   0 Li     1.617037    1.617037   10.000000    ( 0.0000,  0.0000,  0.0000)
   1 Li     4.851111    1.617037   10.000000    ( 0.0000,  0.0000,  0.0000)
   2 Li     8.085185    1.617037   10.000000    ( 0.0000,  0.0000,  0.0000)
   3 Li     1.617037    4.851111   10.000000    ( 0.0000,  0.0000,  0.0000)
   4 Li     4.851111    4.851111   10.000000    ( 0.0000,  0.0000,  0.0000)
   5 Li     8.085185    4.851111   10.000000    ( 0.0000,  0.0000,  0.0000)
   6 Li     1.617037    8.085185   10.000000    ( 0.0000,  0.0000,  0.0000)
   7 Li     4.851111    8.085185   10.000000    ( 0.0000,  0.0000,  0.0000)
   8 Li     8.085185    8.085185   10.000000    ( 0.0000,  0.0000,  0.0000)
   9 Li     0.000000    0.000000   11.617037    ( 0.0000,  0.0000,  0.0000)
  10 Li     3.234074    0.000000   11.617037    ( 0.0000,  0.0000,  0.0000)
  11 Li     6.468148    0.000000   11.617037    ( 0.0000,  0.0000,  0.0000)
  12 Li     0.000000    3.234074   11.617037    ( 0.0000,  0.0000,  0.0000)
  13 Li     3.234074    3.234074   11.617037    ( 0.0000,  0.0000,  0.0000)
  14 Li     6.468148    3.234074   11.617037    ( 0.0000,  0.0000,  0.0000)
  15 Li     0.000000    6.468148   11.617037    ( 0.0000,  0.0000,  0.0000)
  16 Li     3.234074    6.468148   11.617037    ( 0.0000,  0.0000,  0.0000)
  17 Li     6.468148    6.468148   11.617037    ( 0.0000,  0.0000,  0.0000)
  18 Li     1.617021    1.617033   13.469863    ( 0.0000,  0.0000,  0.0000)
  19 Li     4.851128    1.617034   13.469865    ( 0.0000,  0.0000,  0.0000)
  20 Li     8.085184    1.617024   13.469073    ( 0.0000,  0.0000,  0.0000)
  21 Li     1.617029    4.851071   13.469882    ( 0.0000,  0.0000,  0.0000)
  22 Li     4.851120    4.851070   13.469883    ( 0.0000,  0.0000,  0.0000)
  23 Li     8.085184    4.851154   13.469832    ( 0.0000,  0.0000,  0.0000)
  24 Li     1.616960    8.085250   13.469918    ( 0.0000,  0.0000,  0.0000)
  25 Li     4.851189    8.085249   13.469919    ( 0.0000,  0.0000,  0.0000)
  26 Li     8.085184    8.085220   13.469749    ( 0.0000,  0.0000,  0.0000)
  27 Li     0.000186   -0.000444   15.445871    ( 0.0000,  0.0000,  0.0000)
  28 Li     3.234074    0.000031   15.445871    ( 0.0000,  0.0000,  0.0000)
  29 Li     6.467963   -0.000444   15.445871    ( 0.0000,  0.0000,  0.0000)
  30 Li    -0.000012    3.234351   15.446043    ( 0.0000,  0.0000,  0.0000)
  31 Li     3.234077    3.233973   15.445883    ( 0.0000,  0.0000,  0.0000)
  32 Li     6.468158    3.234354   15.446042    ( 0.0000,  0.0000,  0.0000)
  33 Li     0.000057    6.468054   15.445835    ( 0.0000,  0.0000,  0.0000)
  34 Li     3.234076    6.468206   15.445888    ( 0.0000,  0.0000,  0.0000)
  35 Li     6.468088    6.468051   15.445834    ( 0.0000,  0.0000,  0.0000)
  36 B      8.085211    1.624170   18.451519    ( 0.0000,  0.0000,  0.0000)
  37 H      9.119695    2.209392   18.450646    ( 0.0000,  0.0000,  0.0000)
  38 H      7.053332    2.214050   18.450661    ( 0.0000,  0.0000,  0.0000)
  39 H      8.085257    0.423892   18.457486    ( 0.0000,  0.0000,  0.0000)
  40 N      8.085011    1.653463   16.930213    ( 0.0000,  0.0000,  0.0000)
  41 N      8.084987    0.481808   16.935339    ( 0.0000,  0.0000,  0.0000)

Unit cell:
           periodic     x           y           z      points  spacing
  1. axis:    yes    9.702222    0.000000    0.000000    60     0.1617
  2. axis:    yes    0.000000    9.702222    0.000000    60     0.1617
  3. axis:    no     0.000000    0.000000   26.351111   164     0.1607

  Lengths:   9.702222   9.702222  26.351111
  Angles:   90.000000  90.000000  90.000000

Effective grid spacing dv^(1/3) = 0.1614

     iter     time        total  log10-change:
                         energy  eigst   dens
iter:   1 07:42:34  -259.139714  +0.32
iter:   2 07:45:02  -254.411207  +0.57  -0.82
iter:   3 07:47:31  -253.506527  -0.31  -0.96
iter:   4 07:50:09  -253.854228  -0.82  -1.12
Writing to output.gpw (mode='')

iter:   5 07:52:44  -255.086689  -0.49  -1.05
iter:   6 07:55:11  -254.808861  -0.88  -0.96
iter:   7 07:57:41  -253.117014  -0.26  -0.99
iter:   8 08:00:09  -253.051466  -0.96  -1.62
iter:   9 08:02:41  -253.005164  -0.90  -1.73
Writing to output.gpw (mode='')

iter:  10 08:05:06  -252.992470  -1.38  -1.93
iter:  11 08:07:30  -252.984260c -1.31  -2.09
iter:  12 08:09:53  -252.989059c -1.67  -2.21
iter:  13 08:12:20  -252.989054c -1.83  -2.21
iter:  14 08:14:46  -252.988022c -2.03  -2.29
Writing to output.gpw (mode='')

iter:  15 08:17:07  -252.984791c -2.30  -2.38
iter:  16 08:19:27  -252.985779c -2.78  -2.47
iter:  17 08:21:56  -252.985968c -2.90  -2.71
iter:  18 08:24:30  -252.985609c -2.84  -2.74
iter:  19 08:26:55  -252.985907c -3.10  -2.79
Writing to output.gpw (mode='')

iter:  20 08:29:23  -252.986664c -3.13  -2.95
iter:  21 08:31:50  -252.986191c -3.25  -2.90
iter:  22 08:34:26  -252.986205c -3.41  -3.12
iter:  23 08:36:50  -252.986224c -3.38  -3.18
iter:  24 08:39:25  -252.986290c -3.73  -3.35
Writing to output.gpw (mode='')

iter:  25 08:42:00  -252.986280c -3.99  -3.37
iter:  26 08:44:27  -252.986325c -3.96  -3.48
iter:  27 08:46:51  -252.986275c -3.80  -3.58
iter:  28 08:49:20  -252.986310c -4.22  -3.74
iter:  29 08:51:49  -252.986328c -4.31  -3.80
Writing to output.gpw (mode='')

iter:  30 08:54:17  -252.986328c -4.40  -3.84
iter:  31 08:56:40  -252.986295c -4.48  -3.86
iter:  32 08:59:12  -252.986319c -4.68  -4.14c
iter:  33 09:01:45  -252.986334c -4.62  -4.23c
iter:  34 09:04:23  -252.986312c -4.76  -4.25c
Writing to output.gpw (mode='')

iter:  35 09:07:06  -252.986316c -4.76  -4.24c
iter:  36 09:09:33  -252.986325c -4.67  -4.42c
iter:  37 09:12:03  -252.986327c -4.85  -4.49c
iter:  38 09:14:40  -252.986324c -5.04  -4.48c
iter:  39 09:17:03  -252.986325c -4.91  -4.51c
Writing to output.gpw (mode='')

iter:  40 09:19:33  -252.986324c -4.96  -4.58c
iter:  41 09:22:01  -252.986327c -5.33  -4.59c
iter:  42 09:24:31  -252.986324c -5.12  -4.65c
iter:  43 09:27:10  -252.986324c -5.23  -4.68c
iter:  44 09:29:35  -252.986325c -5.54  -4.67c
Writing to output.gpw (mode='')

iter:  45 09:32:02  -252.986324c -5.52  -4.64c
iter:  46 09:34:24  -252.986324c -5.66  -4.76c
iter:  47 09:36:51  -252.986323c -5.44  -4.85c
iter:  48 09:39:17  -252.986323c -5.85  -4.91c
iter:  49 09:41:52  -252.986320c -5.90  -5.04c
Writing to output.gpw (mode='')

iter:  50 09:44:17  -252.986319c -5.76  -4.99c
iter:  51 09:46:46  -252.986319c -6.10  -4.94c
iter:  52 09:49:16  -252.986320c -6.16  -5.21c
iter:  53 09:51:52  -252.986318c -6.02  -5.27c
iter:  54 09:54:25  -252.986319c -5.81  -5.34c
Writing to output.gpw (mode='')

iter:  55 09:56:48  -252.986319c -6.18  -5.43c
iter:  56 09:59:17  -252.986318c -6.39  -5.53c
iter:  57 10:01:39  -252.986319c -6.25  -5.54c
iter:  58 10:04:11  -252.986319c -6.33  -5.46c
iter:  59 10:06:44  -252.986319c -6.10  -5.35c
Writing to output.gpw (mode='')

iter:  60 10:09:24  -252.986320c -6.65  -5.26c
iter:  61 10:11:50  -252.986319c -6.78  -5.18c
iter:  62 10:14:26  -252.986318c -6.57  -5.23c
iter:  63 10:17:00  -252.986319c -6.80  -5.22c
iter:  64 10:19:34  -252.986318c -6.79  -5.10c
Writing to output.gpw (mode='')

iter:  65 10:21:56  -252.986317c -6.64  -5.29c
iter:  66 10:24:19  -252.986318c -6.86  -5.40c
iter:  67 10:26:48  -252.986316c -6.97  -5.37c
iter:  68 10:29:21  -252.986316c -6.99  -5.55c
iter:  69 10:31:49  -252.986315c -6.97  -5.66c
Writing to output.gpw (mode='')

iter:  70 10:34:18  -252.986315c -7.27  -5.85c
iter:  71 10:36:48  -252.986315c -7.16  -5.92c
iter:  72 10:39:16  -252.986315c -7.15  -5.91c
iter:  73 10:41:54  -252.986315c -7.48c -5.92c

Converged after 73 iterations.

Dipole moment: (-1.686311, -9.829757, -0.243295) |e|*Ang

Energy contributions relative to reference atoms: (reference = -10970.764591)

Kinetic:       +124.527886
Potential:     -110.612225
External:        +0.000000
XC:            -267.133551
Entropy (-ST):   -0.173327
Local:           +0.318239
--------------------------
Free energy:   -253.072978
Extrapolated:  -252.986315

Dipole-layer corrected work functions: 3.413443, 3.881140 eV

Showing only first 2 kpts
 Kpt  Band  Eigenvalues  Occupancy
  0    24     -3.87916    1.98082
  0    25     -3.76644    1.83104
  0    26     -3.55118    0.25521
  0    27     -3.46868    0.05465

  1    24     -3.72986    1.67817
  1    25     -3.63640    0.89156
  1    26     -3.59950    0.55540
  1    27     -3.51571    0.13427


Fermi level: -3.64729

No gap
Writing to output.gpw (mode='')


Forces in eV/Ang:
  0 Li    0.03204   -0.00458   -0.27693
  1 Li   -0.03204   -0.00458   -0.27693
  2 Li    0.00000    0.00584   -0.28256
  3 Li   -0.00045    0.00033   -0.28019
  4 Li    0.00045    0.00033   -0.28018
  5 Li   -0.00000    0.02133   -0.27737
  6 Li    0.01062    0.00036   -0.27817
  7 Li   -0.01063    0.00036   -0.27818
  8 Li   -0.00000   -0.02765   -0.26647
  9 Li   -0.00211    0.00198    0.31123
 10 Li    0.00001    0.00712    0.23173
 11 Li    0.00211    0.00197    0.31125
 12 Li   -0.00696   -0.00110    0.29946
 13 Li   -0.00001   -0.00447    0.23495
 14 Li    0.00696   -0.00110    0.29945
 15 Li   -0.01054   -0.00229    0.24588
 16 Li    0.00001    0.00211    0.25585
 17 Li    0.01053   -0.00228    0.24587
 18 Li    0.00350    0.00056    0.02517
 19 Li   -0.00350    0.00057    0.02518
 20 Li   -0.00000   -0.00969   -0.17375
 21 Li   -0.00744   -0.01417    0.04681
 22 Li    0.00746   -0.01420    0.04685
 23 Li   -0.00000    0.02219    0.01722
 24 Li   -0.02135    0.01951    0.05029
 25 Li    0.02134    0.01950    0.05027
 26 Li    0.00002    0.00629   -0.00670
 27 Li   -0.02663   -0.05734    0.11915
 28 Li    0.00000    0.00301   -0.02474
 29 Li    0.02680   -0.05753    0.11941
 30 Li   -0.05773    0.01970    0.10220
 31 Li    0.00002   -0.02140   -0.02072
 32 Li    0.05784    0.01970    0.10207
 33 Li    0.02232   -0.02514   -0.02918
 34 Li    0.00001    0.01517   -0.01501
 35 Li   -0.02233   -0.02519   -0.02919
 36 B     0.00617    1.65283    0.58716
 37 H     0.61676    0.02320    1.38894
 38 H    -0.61743    0.01982    1.39232
 39 H    -0.00345   -1.13185    2.76793
 40 N     0.00498    2.98257   -4.09222
 41 N    -0.00460   -3.44694   -2.36407

System changes: positions 

Initializing position-dependent things.

Density initialized from wave functions
       .-----------------------.  
      /|                       |  
     / |                       |  
    /  |                       |  
   /   |                       |  
  /    |                       |  
 *     |                       |  
 |     |                       |  
 |     |                       |  
 |     |                       |  
 |     |                       |  
 |     |                       |  
 |     |                       |  
 |     |               Li      Li 
 |     |            H    H     |  
 |   Li|     Li      HB        |  
 |     |              N        |  
 |     |  LLi     LLiN    LLi  |  
 |     |                       |  
 |     |LLi     Li      Li     |  
 |   Li|     Li      Li        |  
 |    Li  Li  Li  Li  Li  Li   |  
 | Li  |   Li      Li          |  
 |     |Li      Li      Li     |  
 Li    | Li      Li            |  
 |    Li      Li      Li       |  
 |     |                       |  
 |     |                       |  
 |     |                       |  
 |     |                       |  
 |     |                       |  
 |     |                       |  
 |     .-----------------------.  
 |    /                       /   
 |   /                       /    
 |  /                       /     
 | /                       /      
 |/                       /       
 *-----------------------*        

Positions:
   0 Li     1.617037    1.617037   10.000000    ( 0.0000,  0.0000,  0.0000)
   1 Li     4.851111    1.617037   10.000000    ( 0.0000,  0.0000,  0.0000)
   2 Li     8.085185    1.617037   10.000000    ( 0.0000,  0.0000,  0.0000)
   3 Li     1.617037    4.851111   10.000000    ( 0.0000,  0.0000,  0.0000)
   4 Li     4.851111    4.851111   10.000000    ( 0.0000,  0.0000,  0.0000)
   5 Li     8.085185    4.851111   10.000000    ( 0.0000,  0.0000,  0.0000)
   6 Li     1.617037    8.085185   10.000000    ( 0.0000,  0.0000,  0.0000)
   7 Li     4.851111    8.085185   10.000000    ( 0.0000,  0.0000,  0.0000)
   8 Li     8.085185    8.085185   10.000000    ( 0.0000,  0.0000,  0.0000)
   9 Li     0.000000    0.000000   11.617037    ( 0.0000,  0.0000,  0.0000)
  10 Li     3.234074    0.000000   11.617037    ( 0.0000,  0.0000,  0.0000)
  11 Li     6.468148    0.000000   11.617037    ( 0.0000,  0.0000,  0.0000)
  12 Li     0.000000    3.234074   11.617037    ( 0.0000,  0.0000,  0.0000)
  13 Li     3.234074    3.234074   11.617037    ( 0.0000,  0.0000,  0.0000)
  14 Li     6.468148    3.234074   11.617037    ( 0.0000,  0.0000,  0.0000)
  15 Li     0.000000    6.468148   11.617037    ( 0.0000,  0.0000,  0.0000)
  16 Li     3.234074    6.468148   11.617037    ( 0.0000,  0.0000,  0.0000)
  17 Li     6.468148    6.468148   11.617037    ( 0.0000,  0.0000,  0.0000)
  18 Li     1.617079    1.617044   13.470073    ( 0.0000,  0.0000,  0.0000)
  19 Li     4.851070    1.617045   13.470074    ( 0.0000,  0.0000,  0.0000)
  20 Li     8.085184    1.616913   13.467401    ( 0.0000,  0.0000,  0.0000)
  21 Li     1.616942    4.850924   13.470352    ( 0.0000,  0.0000,  0.0000)
  22 Li     4.851207    4.850923   13.470353    ( 0.0000,  0.0000,  0.0000)
  23 Li     8.085184    4.851400   13.469967    ( 0.0000,  0.0000,  0.0000)
  24 Li     1.616753    8.085444   13.470401    ( 0.0000,  0.0000,  0.0000)
  25 Li     4.851396    8.085443   13.470403    ( 0.0000,  0.0000,  0.0000)
  26 Li     8.085184    8.085271   13.469647    ( 0.0000,  0.0000,  0.0000)
  27 Li    -0.000302   -0.000811   15.447436    ( 0.0000,  0.0000,  0.0000)
  28 Li     3.234074    0.000044   15.445612    ( 0.0000,  0.0000,  0.0000)
  29 Li     6.468453   -0.000814   15.447439    ( 0.0000,  0.0000,  0.0000)
  30 Li    -0.000734    3.234376   15.447254    ( 0.0000,  0.0000,  0.0000)
  31 Li     3.234077    3.233785   15.445665    ( 0.0000,  0.0000,  0.0000)
  32 Li     6.468881    3.234379   15.447252    ( 0.0000,  0.0000,  0.0000)
  33 Li     0.000294    6.467812   15.445549    ( 0.0000,  0.0000,  0.0000)
  34 Li     3.234077    6.468349   15.445738    ( 0.0000,  0.0000,  0.0000)
  35 Li     6.467852    6.467808   15.445548    ( 0.0000,  0.0000,  0.0000)
  36 B      8.085268    1.639343   18.454443    ( 0.0000,  0.0000,  0.0000)
  37 H      9.125941    2.209630   18.464439    ( 0.0000,  0.0000,  0.0000)
  38 H      7.047080    2.214257   18.464485    ( 0.0000,  0.0000,  0.0000)
  39 H      8.085225    0.413227   18.483219    ( 0.0000,  0.0000,  0.0000)
  40 N      8.085065    1.661742   16.891079    ( 0.0000,  0.0000,  0.0000)
  41 N      8.084939    0.469349   16.913958    ( 0.0000,  0.0000,  0.0000)

Unit cell:
           periodic     x           y           z      points  spacing
  1. axis:    yes    9.702222    0.000000    0.000000    60     0.1617
  2. axis:    yes    0.000000    9.702222    0.000000    60     0.1617
  3. axis:    no     0.000000    0.000000   26.351111   164     0.1607

  Lengths:   9.702222   9.702222  26.351111
  Angles:   90.000000  90.000000  90.000000

Effective grid spacing dv^(1/3) = 0.1614

     iter     time        total  log10-change:
                         energy  eigst   dens
iter:   1 10:45:01  -254.490640  -0.38
iter:   2 10:47:31  -254.602918  +0.21  -1.03
iter:   3 10:50:00  -253.377170  -0.48  -1.03
iter:   4 10:52:24  -253.362709  -0.88  -1.71
Writing to output.gpw (mode='')

iter:   5 10:54:53  -253.382265c -0.70  -1.87
iter:   6 10:57:13  -253.371304c -1.39  -1.71
iter:   7 10:59:38  -253.367539c -1.63  -1.86
iter:   8 11:02:13  -253.363646c -1.63  -2.14
iter:   9 11:04:47  -253.364422c -1.90  -2.25
Writing to output.gpw (mode='')

iter:  10 11:07:17  -253.364166c -2.02  -2.43
iter:  11 11:09:46  -253.363984c -2.51  -2.57
iter:  12 11:12:10  -253.363557c -2.68  -2.61
iter:  13 11:14:38  -253.364327c -3.05  -2.65
iter:  14 11:17:02  -253.364495c -3.04  -2.69
Writing to output.gpw (mode='')

iter:  15 11:19:41  -253.364478c -3.05  -2.75
iter:  16 11:22:16  -253.364590c -3.31  -2.91
iter:  17 11:24:43  -253.364492c -3.50  -3.01
iter:  18 11:27:10  -253.364411c -3.72  -3.08
iter:  19 11:29:38  -253.364799c -3.75  -3.14
Writing to output.gpw (mode='')

iter:  20 11:32:11  -253.364469c -3.67  -3.12
iter:  21 11:34:46  -253.364435c -4.14  -3.32
iter:  22 11:37:13  -253.364621c -4.12  -3.39
iter:  23 11:39:39  -253.364602c -4.38  -3.65
iter:  24 11:42:15  -253.364622c -4.35  -3.80
Writing to output.gpw (mode='')

iter:  25 11:44:46  -253.364616c -4.40  -3.89
iter:  26 11:47:25  -253.364623c -4.63  -3.94
iter:  27 11:49:45  -253.364605c -4.74  -4.00
iter:  28 11:52:16  -253.364607c -5.01  -4.21c
iter:  29 11:54:44  -253.364620c -5.11  -4.21c
Writing to output.gpw (mode='')

iter:  30 11:57:08  -253.364623c -5.02  -4.25c
iter:  31 11:59:34  -253.364623c -5.25  -4.47c
iter:  32 12:02:09  -253.364620c -5.41  -4.58c
iter:  33 12:04:39  -253.364628c -5.41  -4.64c
iter:  34 12:07:14  -253.364630c -5.51  -4.67c
Writing to output.gpw (mode='')

iter:  35 12:09:44  -253.364627c -5.65  -4.76c
iter:  36 12:12:13  -253.364628c -5.80  -4.87c
iter:  37 12:14:47  -253.364628c -5.86  -4.83c
iter:  38 12:17:09  -253.364626c -5.96  -4.78c
iter:  39 12:19:35  -253.364625c -5.92  -4.67c
Writing to output.gpw (mode='')

iter:  40 12:22:04  -253.364626c -5.84  -4.64c
iter:  41 12:24:27  -253.364626c -6.19  -4.62c
iter:  42 12:27:00  -253.364631c -6.12  -4.61c
iter:  43 12:29:30  -253.364634c -6.13  -4.67c
iter:  44 12:31:55  -253.364634c -6.40  -4.64c
Writing to output.gpw (mode='')

iter:  45 12:34:22  -253.364629c -6.41  -4.63c
iter:  46 12:36:54  -253.364630c -6.50  -4.62c
iter:  47 12:39:24  -253.364630c -6.57  -4.69c
iter:  48 12:41:54  -253.364632c -6.44  -4.70c
iter:  49 12:44:31  -253.364630c -6.65  -4.73c
Writing to output.gpw (mode='')

iter:  50 12:47:07  -253.364629c -6.81  -4.78c
iter:  51 12:49:30  -253.364630c -7.00  -4.82c
iter:  52 12:51:55  -253.364629c -7.15  -5.23c
iter:  53 12:54:24  -253.364630c -7.06  -5.32c
iter:  54 12:56:56  -253.364629c -7.05  -5.37c
Writing to output.gpw (mode='')

iter:  55 12:59:17  -253.364629c -7.15  -5.43c
iter:  56 13:01:44  -253.364629c -7.10  -5.44c
iter:  57 13:04:06  -253.364629c -7.27  -5.51c
iter:  58 13:06:27  -253.364630c -7.29  -5.60c
iter:  59 13:08:45  -253.364630c -7.30  -5.72c
Writing to output.gpw (mode='')

iter:  60 13:11:09  -253.364629c -7.22  -5.80c
iter:  61 13:13:33  -253.364630c -7.43c -5.79c

Converged after 61 iterations.

Dipole moment: (-1.742854, -10.100474, -0.261267) |e|*Ang

Energy contributions relative to reference atoms: (reference = -10970.764591)

Kinetic:       +119.768127
Potential:     -107.134525
External:        +0.000000
XC:            -266.227347
Entropy (-ST):   -0.178587
Local:           +0.318410
--------------------------
Free energy:   -253.453923
Extrapolated:  -253.364630

Dipole-layer corrected work functions: 3.414632, 3.916877 eV

Showing only first 2 kpts
 Kpt  Band  Eigenvalues  Occupancy
  0    24     -3.89140    1.97831
  0    25     -3.77900    1.81184
  0    26     -3.58506    0.33212
  0    27     -3.48544    0.05287

  1    24     -3.74871    1.68022
  1    25     -3.64966    0.84043
  1    26     -3.61707    0.54832
  1    27     -3.53407    0.13400


Fermi level: -3.66575

No gap
Writing to output.gpw (mode='')


Forces in eV/Ang:
  0 Li    0.03176   -0.00449   -0.27750
  1 Li   -0.03176   -0.00449   -0.27749
  2 Li    0.00000    0.00607   -0.28303
  3 Li    0.00044    0.00041   -0.28095
  4 Li   -0.00044    0.00042   -0.28093
  5 Li    0.00000    0.02120   -0.27755
  6 Li    0.01133   -0.00079   -0.27862
  7 Li   -0.01133   -0.00079   -0.27863
  8 Li    0.00000   -0.02723   -0.26805
  9 Li   -0.00329    0.00267    0.31500
 10 Li    0.00001    0.00721    0.23179
 11 Li    0.00329    0.00266    0.31502
 12 Li   -0.00743   -0.00160    0.30035
 13 Li   -0.00001   -0.00454    0.23528
 14 Li    0.00744   -0.00160    0.30034
 15 Li   -0.00996   -0.00358    0.24577
 16 Li    0.00001    0.00347    0.25505
 17 Li    0.00995   -0.00356    0.24577
 18 Li    0.00562    0.00044    0.02038
 19 Li   -0.00563    0.00045    0.02038
 20 Li    0.00001   -0.00782   -0.16173
 21 Li   -0.00877   -0.01439    0.04710
 22 Li    0.00878   -0.01442    0.04715
 23 Li   -0.00000    0.02413    0.01292
 24 Li   -0.02175    0.02120    0.04906
 25 Li    0.02173    0.02118    0.04904
 26 Li    0.00002    0.00172   -0.01397
 27 Li   -0.04524   -0.02921    0.16203
 28 Li   -0.00000    0.00053   -0.02657
 29 Li    0.04529   -0.02949    0.16221
 30 Li   -0.07510   -0.00198    0.12730
 31 Li    0.00001   -0.01813   -0.02204
 32 Li    0.07515   -0.00192    0.12714
 33 Li    0.02395   -0.02253   -0.02889
 34 Li    0.00000    0.01347   -0.01543
 35 Li   -0.02396   -0.02260   -0.02890
 36 B     0.00530    0.89083   -0.04843
 37 H     0.56927    0.01697    1.26713
 38 H    -0.57133    0.01200    1.27046
 39 H    -0.00355   -0.45478    2.35187
 40 N     0.00444    1.41833   -3.29698
 41 N    -0.00351   -1.80982   -1.99491

System changes: positions 

Initializing position-dependent things.

Density initialized from wave functions
       .-----------------------.  
      /|                       |  
     / |                       |  
    /  |                       |  
   /   |                       |  
  /    |                       |  
 *     |                       |  
 |     |                       |  
 |     |                       |  
 |     |                       |  
 |     |                       |  
 |     |                       |  
 |     |                       |  
 |     |               Li      Li 
 |     |            H    H     |  
 |   Li|     Li      HB        |  
 |     |                       |  
 |     |  LLi     LLiNN   LLi  |  
 |     |                       |  
 |     |LLi     Li      Li     |  
 |   Li|     Li      Li        |  
 |    Li  Li  Li  Li  Li  Li   |  
 | Li  |   Li      Li          |  
 |     |Li      Li      Li     |  
 Li    | Li      Li            |  
 |    Li      Li      Li       |  
 |     |                       |  
 |     |                       |  
 |     |                       |  
 |     |                       |  
 |     |                       |  
 |     |                       |  
 |     .-----------------------.  
 |    /                       /   
 |   /                       /    
 |  /                       /     
 | /                       /      
 |/                       /       
 *-----------------------*        

Positions:
   0 Li     1.617037    1.617037   10.000000    ( 0.0000,  0.0000,  0.0000)
   1 Li     4.851111    1.617037   10.000000    ( 0.0000,  0.0000,  0.0000)
   2 Li     8.085185    1.617037   10.000000    ( 0.0000,  0.0000,  0.0000)
   3 Li     1.617037    4.851111   10.000000    ( 0.0000,  0.0000,  0.0000)
   4 Li     4.851111    4.851111   10.000000    ( 0.0000,  0.0000,  0.0000)
   5 Li     8.085185    4.851111   10.000000    ( 0.0000,  0.0000,  0.0000)
   6 Li     1.617037    8.085185   10.000000    ( 0.0000,  0.0000,  0.0000)
   7 Li     4.851111    8.085185   10.000000    ( 0.0000,  0.0000,  0.0000)
   8 Li     8.085185    8.085185   10.000000    ( 0.0000,  0.0000,  0.0000)
   9 Li     0.000000    0.000000   11.617037    ( 0.0000,  0.0000,  0.0000)
  10 Li     3.234074    0.000000   11.617037    ( 0.0000,  0.0000,  0.0000)
  11 Li     6.468148    0.000000   11.617037    ( 0.0000,  0.0000,  0.0000)
  12 Li     0.000000    3.234074   11.617037    ( 0.0000,  0.0000,  0.0000)
  13 Li     3.234074    3.234074   11.617037    ( 0.0000,  0.0000,  0.0000)
  14 Li     6.468148    3.234074   11.617037    ( 0.0000,  0.0000,  0.0000)
  15 Li     0.000000    6.468148   11.617037    ( 0.0000,  0.0000,  0.0000)
  16 Li     3.234074    6.468148   11.617037    ( 0.0000,  0.0000,  0.0000)
  17 Li     6.468148    6.468148   11.617037    ( 0.0000,  0.0000,  0.0000)
  18 Li     1.617168    1.617053   13.470303    ( 0.0000,  0.0000,  0.0000)
  19 Li     4.850981    1.617053   13.470304    ( 0.0000,  0.0000,  0.0000)
  20 Li     8.085184    1.616808   13.465382    ( 0.0000,  0.0000,  0.0000)
  21 Li     1.616821    4.850736   13.470958    ( 0.0000,  0.0000,  0.0000)
  22 Li     4.851329    4.850735   13.470960    ( 0.0000,  0.0000,  0.0000)
  23 Li     8.085184    4.851727   13.470105    ( 0.0000,  0.0000,  0.0000)
  24 Li     1.616476    8.085719   13.471019    ( 0.0000,  0.0000,  0.0000)
  25 Li     4.851673    8.085718   13.471020    ( 0.0000,  0.0000,  0.0000)
  26 Li     8.085184    8.085277   13.469435    ( 0.0000,  0.0000,  0.0000)
  27 Li    -0.001036   -0.001023   15.449797    ( 0.0000,  0.0000,  0.0000)
  28 Li     3.234074    0.000037   15.445262    ( 0.0000,  0.0000,  0.0000)
  29 Li     6.469187   -0.001029   15.449802    ( 0.0000,  0.0000,  0.0000)
  30 Li    -0.001808    3.234218   15.449037    ( 0.0000,  0.0000,  0.0000)
  31 Li     3.234077    3.233573   15.445374    ( 0.0000,  0.0000,  0.0000)
  32 Li     6.469956    3.234222   15.449032    ( 0.0000,  0.0000,  0.0000)
  33 Li     0.000612    6.467533   15.445182    ( 0.0000,  0.0000,  0.0000)
  34 Li     3.234077    6.468515   15.445540    ( 0.0000,  0.0000,  0.0000)
  35 Li     6.467534    6.467528   15.445181    ( 0.0000,  0.0000,  0.0000)
  36 B      8.085332    1.648550   18.451016    ( 0.0000,  0.0000,  0.0000)
  37 H      9.133196    2.209839   18.480416    ( 0.0000,  0.0000,  0.0000)
  38 H      7.039797    2.214401   18.480502    ( 0.0000,  0.0000,  0.0000)
  39 H      8.085180    0.409084   18.511573    ( 0.0000,  0.0000,  0.0000)
  40 N      8.085123    1.665628   16.851268    ( 0.0000,  0.0000,  0.0000)
  41 N      8.084896    0.460823   16.890257    ( 0.0000,  0.0000,  0.0000)

Unit cell:
           periodic     x           y           z      points  spacing
  1. axis:    yes    9.702222    0.000000    0.000000    60     0.1617
  2. axis:    yes    0.000000    9.702222    0.000000    60     0.1617
  3. axis:    no     0.000000    0.000000   26.351111   164     0.1607

  Lengths:   9.702222   9.702222  26.351111
  Angles:   90.000000  90.000000  90.000000

Effective grid spacing dv^(1/3) = 0.1614

     iter     time        total  log10-change:
                         energy  eigst   dens
iter:   1 13:16:35  -254.127175  -0.67
iter:   2 13:19:04  -254.529096  -0.17  -1.15
iter:   3 13:21:25  -253.662266  -0.57  -1.09
iter:   4 13:24:01  -253.655452  -0.96  -1.76
Writing to output.gpw (mode='')

iter:   5 13:26:32  -253.687015  -0.73  -1.90
iter:   6 13:29:03  -253.670339  -1.41  -1.65
iter:   7 13:31:21  -253.659919  -1.71  -1.81
iter:   8 13:33:45  -253.659301c -1.90  -2.21
iter:   9 13:36:25  -253.659617c -2.08  -2.30
Writing to output.gpw (mode='')

iter:  10 13:38:57  -253.657813c -2.50  -2.38
iter:  11 13:41:29  -253.658631c -2.32  -2.60
iter:  12 13:43:55  -253.658915c -2.66  -2.67
iter:  13 13:46:20  -253.658769c -2.95  -2.69
iter:  14 13:49:00  -253.658884c -2.66  -2.75
Writing to output.gpw (mode='')

iter:  15 13:51:30  -253.659133c -3.06  -2.69
iter:  16 13:53:54  -253.658905c -3.38  -2.81
iter:  17 13:56:19  -253.659035c -3.58  -3.11
iter:  18 13:58:44  -253.659129c -3.68  -3.14
iter:  19 14:01:20  -253.659069c -3.63  -3.12
Writing to output.gpw (mode='')

iter:  20 14:03:56  -253.659133c -3.87  -3.20
iter:  21 14:06:24  -253.659173c -4.00  -3.18
iter:  22 14:08:53  -253.659128c -4.06  -3.19
iter:  23 14:11:27  -253.659385c -4.14  -3.23
iter:  24 14:14:05  -253.659063c -4.20  -3.11
Writing to output.gpw (mode='')

iter:  25 14:16:33  -253.659040c -4.29  -3.67
iter:  26 14:18:59  -253.659119c -4.47  -3.58
iter:  27 14:21:24  -253.659093c -4.34  -3.73
iter:  28 14:23:47  -253.659098c -4.41  -3.78
iter:  29 14:26:09  -253.659119c -4.56  -3.85
Writing to output.gpw (mode='')

iter:  30 14:28:46  -253.659105c -4.89  -4.15c
iter:  31 14:31:14  -253.659133c -4.87  -4.09c
iter:  32 14:33:36  -253.659136c -5.05  -4.20c
iter:  33 14:36:05  -253.659127c -5.03  -4.26c
iter:  34 14:38:38  -253.659130c -4.99  -4.28c
Writing to output.gpw (mode='')

iter:  35 14:41:11  -253.659136c -5.18  -4.41c
iter:  36 14:43:46  -253.659141c -5.40  -4.50c
iter:  37 14:46:18  -253.659144c -5.45  -4.52c
iter:  38 14:48:54  -253.659134c -5.64  -4.57c
iter:  39 14:51:22  -253.659143c -5.64  -4.53c
Writing to output.gpw (mode='')

iter:  40 14:53:53  -253.659140c -5.66  -4.83c
iter:  41 14:56:22  -253.659145c -5.86  -4.77c
iter:  42 14:58:52  -253.659144c -5.97  -5.04c
iter:  43 15:01:16  -253.659145c -5.94  -5.12c
iter:  44 15:03:47  -253.659145c -6.03  -5.22c
Writing to output.gpw (mode='')

iter:  45 15:06:24  -253.659146c -6.06  -5.28c
iter:  46 15:08:50  -253.659146c -6.24  -5.33c
iter:  47 15:11:16  -253.659147c -6.42  -5.40c
iter:  48 15:13:44  -253.659147c -6.44  -5.50c
iter:  49 15:16:12  -253.659147c -6.48  -5.51c
Writing to output.gpw (mode='')

iter:  50 15:18:54  -253.659146c -6.69  -5.47c
iter:  51 15:21:20  -253.659147c -6.66  -5.31c
iter:  52 15:23:42  -253.659147c -6.83  -5.24c
iter:  53 15:26:03  -253.659147c -6.80  -5.25c
iter:  54 15:28:33  -253.659147c -6.85  -5.22c
Writing to output.gpw (mode='')

iter:  55 15:30:57  -253.659147c -6.91  -5.29c
iter:  56 15:33:28  -253.659147c -7.10  -5.24c
iter:  57 15:35:51  -253.659147c -7.08  -5.21c
iter:  58 15:38:19  -253.659147c -7.01  -5.16c
iter:  59 15:40:43  -253.659148c -7.18  -5.13c
Writing to output.gpw (mode='')

iter:  60 15:43:18  -253.659147c -7.28  -5.23c
iter:  61 15:45:48  -253.659148c -7.20  -5.17c
iter:  62 15:48:14  -253.659148c -7.21  -5.19c
iter:  63 15:50:42  -253.659149c -7.39  -5.21c
iter:  64 15:53:10  -253.659149c -7.56c -5.41c

Converged after 64 iterations.

Dipole moment: (-1.767439, -10.273894, -0.276902) |e|*Ang

Energy contributions relative to reference atoms: (reference = -10970.764591)

Kinetic:       +116.524097
Potential:     -104.794990
External:        +0.000000
XC:            -265.614866
Entropy (-ST):   -0.181923
Local:           +0.317571
--------------------------
Free energy:   -253.750110
Extrapolated:  -253.659149

Dipole-layer corrected work functions: 3.415481, 3.947782 eV

Showing only first 2 kpts
 Kpt  Band  Eigenvalues  Occupancy
  0    24     -3.90188    1.97586
  0    25     -3.79063    1.79686
  0    26     -3.61062    0.38926
  0    27     -3.50104    0.05259

  1    24     -3.76587    1.68709
  1    25     -3.66109    0.79747
  1    26     -3.63273    0.54654
  1    27     -3.54967    0.13330


Fermi level: -3.68163

No gap
Writing to output.gpw (mode='')


Forces in eV/Ang:
  0 Li    0.03139   -0.00450   -0.27804
  1 Li   -0.03139   -0.00450   -0.27803
  2 Li    0.00000    0.00624   -0.28326
  3 Li    0.00124    0.00038   -0.28158
  4 Li   -0.00124    0.00039   -0.28157
  5 Li    0.00000    0.02099   -0.27754
  6 Li    0.01191   -0.00180   -0.27898
  7 Li   -0.01191   -0.00180   -0.27899
  8 Li    0.00000   -0.02665   -0.26945
  9 Li   -0.00442    0.00315    0.31787
 10 Li    0.00001    0.00726    0.23182
 11 Li    0.00442    0.00315    0.31789
 12 Li   -0.00769   -0.00185    0.30054
 13 Li   -0.00000   -0.00461    0.23618
 14 Li    0.00769   -0.00185    0.30053
 15 Li   -0.00922   -0.00498    0.24586
 16 Li    0.00000    0.00508    0.25445
 17 Li    0.00921   -0.00496    0.24587
 18 Li    0.00666    0.00019    0.01709
 19 Li   -0.00667    0.00020    0.01707
 20 Li    0.00001   -0.00594   -0.14837
 21 Li   -0.00959   -0.01436    0.04697
 22 Li    0.00960   -0.01439    0.04702
 23 Li   -0.00000    0.02473    0.00992
 24 Li   -0.02200    0.02280    0.04802
 25 Li    0.02198    0.02279    0.04800
 26 Li    0.00002   -0.00201   -0.01943
 27 Li   -0.05524   -0.00907    0.18727
 28 Li   -0.00000   -0.00152   -0.02767
 29 Li    0.05517   -0.00944    0.18737
 30 Li   -0.08693   -0.01753    0.14509
 31 Li    0.00000   -0.01567   -0.02251
 32 Li    0.08691   -0.01741    0.14491
 33 Li    0.02519   -0.02034   -0.02857
 34 Li    0.00000    0.01207   -0.01564
 35 Li   -0.02519   -0.02042   -0.02857
 36 B     0.00372    0.47512   -0.35575
 37 H     0.43770   -0.01243    1.10719
 38 H    -0.43829   -0.02017    1.11071
 39 H    -0.00357   -0.00517    2.03229
 40 N     0.00364    0.55040   -2.69707
 41 N    -0.00428   -0.92782   -1.72746

System changes: positions 

Initializing position-dependent things.

Density initialized from wave functions
       .-----------------------.  
      /|                       |  
     / |                       |  
    /  |                       |  
   /   |                       |  
  /    |                       |  
 *     |                       |  
 |     |                       |  
 |     |                       |  
 |     |                       |  
 |     |                       |  
 |     |                       |  
 |     |                       |  
 |     |               Li      Li 
 |     |            H    H     |  
 |   Li|     Li      HB        |  
 |     |                       |  
 |     |  LLi     LLiNN   LLi  |  
 |     |                       |  
 |     |LLi     Li      Li     |  
 |   Li|     Li      Li        |  
 |    Li  Li  Li  Li  Li  Li   |  
 | Li  |   Li      Li          |  
 |     |Li      Li      Li     |  
 Li    | Li      Li            |  
 |    Li      Li      Li       |  
 |     |                       |  
 |     |                       |  
 |     |                       |  
 |     |                       |  
 |     |                       |  
 |     |                       |  
 |     .-----------------------.  
 |    /                       /   
 |   /                       /    
 |  /                       /     
 | /                       /      
 |/                       /       
 *-----------------------*        

Positions:
   0 Li     1.617037    1.617037   10.000000    ( 0.0000,  0.0000,  0.0000)
   1 Li     4.851111    1.617037   10.000000    ( 0.0000,  0.0000,  0.0000)
   2 Li     8.085185    1.617037   10.000000    ( 0.0000,  0.0000,  0.0000)
   3 Li     1.617037    4.851111   10.000000    ( 0.0000,  0.0000,  0.0000)
   4 Li     4.851111    4.851111   10.000000    ( 0.0000,  0.0000,  0.0000)
   5 Li     8.085185    4.851111   10.000000    ( 0.0000,  0.0000,  0.0000)
   6 Li     1.617037    8.085185   10.000000    ( 0.0000,  0.0000,  0.0000)
   7 Li     4.851111    8.085185   10.000000    ( 0.0000,  0.0000,  0.0000)
   8 Li     8.085185    8.085185   10.000000    ( 0.0000,  0.0000,  0.0000)
   9 Li     0.000000    0.000000   11.617037    ( 0.0000,  0.0000,  0.0000)
  10 Li     3.234074    0.000000   11.617037    ( 0.0000,  0.0000,  0.0000)
  11 Li     6.468148    0.000000   11.617037    ( 0.0000,  0.0000,  0.0000)
  12 Li     0.000000    3.234074   11.617037    ( 0.0000,  0.0000,  0.0000)
  13 Li     3.234074    3.234074   11.617037    ( 0.0000,  0.0000,  0.0000)
  14 Li     6.468148    3.234074   11.617037    ( 0.0000,  0.0000,  0.0000)
  15 Li     0.000000    6.468148   11.617037    ( 0.0000,  0.0000,  0.0000)
  16 Li     3.234074    6.468148   11.617037    ( 0.0000,  0.0000,  0.0000)
  17 Li     6.468148    6.468148   11.617037    ( 0.0000,  0.0000,  0.0000)
  18 Li     1.617277    1.617057   13.470548    ( 0.0000,  0.0000,  0.0000)
  19 Li     4.850872    1.617057   13.470549    ( 0.0000,  0.0000,  0.0000)
  20 Li     8.085184    1.616716   13.463145    ( 0.0000,  0.0000,  0.0000)
  21 Li     1.616670    4.850515   13.471676    ( 0.0000,  0.0000,  0.0000)
  22 Li     4.851480    4.850514   13.471679    ( 0.0000,  0.0000,  0.0000)
  23 Li     8.085183    4.852113   13.470243    ( 0.0000,  0.0000,  0.0000)
  24 Li     1.616141    8.086068   13.471746    ( 0.0000,  0.0000,  0.0000)
  25 Li     4.852008    8.086068   13.471747    ( 0.0000,  0.0000,  0.0000)
  26 Li     8.085185    8.085238   13.469122    ( 0.0000,  0.0000,  0.0000)
  27 Li    -0.001956   -0.001080   15.452798    ( 0.0000,  0.0000,  0.0000)
  28 Li     3.234074    0.000007   15.444835    ( 0.0000,  0.0000,  0.0000)
  29 Li     6.470106   -0.001092   15.452804    ( 0.0000,  0.0000,  0.0000)
  30 Li    -0.003191    3.233884   15.451328    ( 0.0000,  0.0000,  0.0000)
  31 Li     3.234077    3.233344   15.445026    ( 0.0000,  0.0000,  0.0000)
  32 Li     6.471338    3.233889   15.451320    ( 0.0000,  0.0000,  0.0000)
  33 Li     0.001002    6.467227   15.444747    ( 0.0000,  0.0000,  0.0000)
  34 Li     3.234077    6.468695   15.445300    ( 0.0000,  0.0000,  0.0000)
  35 Li     6.467144    6.467221   15.444747    ( 0.0000,  0.0000,  0.0000)
  36 B      8.085387    1.654775   18.444238    ( 0.0000,  0.0000,  0.0000)
  37 H      9.139834    2.209638   18.497174    ( 0.0000,  0.0000,  0.0000)
  38 H      7.033149    2.214081   18.497313    ( 0.0000,  0.0000,  0.0000)
  39 H      8.085126    0.409797   18.541708    ( 0.0000,  0.0000,  0.0000)
  40 N      8.085179    1.666839   16.811287    ( 0.0000,  0.0000,  0.0000)
  41 N      8.084830    0.454029   16.864816    ( 0.0000,  0.0000,  0.0000)

Unit cell:
           periodic     x           y           z      points  spacing
  1. axis:    yes    9.702222    0.000000    0.000000    60     0.1617
  2. axis:    yes    0.000000    9.702222    0.000000    60     0.1617
  3. axis:    no     0.000000    0.000000   26.351111   164     0.1607

  Lengths:   9.702222   9.702222  26.351111
  Angles:   90.000000  90.000000  90.000000

Effective grid spacing dv^(1/3) = 0.1614

     iter     time        total  log10-change:
                         energy  eigst   dens
iter:   1 15:56:15  -254.110983  -0.86
iter:   2 15:58:42  -254.423682  -0.63  -1.30
iter:   3 16:01:13  -253.899956  -0.71  -1.19
iter:   4 16:03:36  -253.902069  -1.14  -1.90
Writing to output.gpw (mode='')

iter:   5 16:06:04  -253.912058c -0.97  -1.99
iter:   6 16:08:35  -253.904429c -1.60  -1.88
iter:   7 16:11:02  -253.906596c -1.80  -2.10
iter:   8 16:13:26  -253.906618c -1.81  -2.26
iter:   9 16:15:50  -253.906613c -2.26  -2.41
Writing to output.gpw (mode='')

iter:  10 16:18:18  -253.905054c -2.66  -2.42
iter:  11 16:20:46  -253.905445c -2.85  -2.71
iter:  12 16:23:24  -253.905766c -2.87  -2.71
iter:  13 16:25:49  -253.905636c -2.75  -2.73
iter:  14 16:28:16  -253.905621c -3.05  -2.79
Writing to output.gpw (mode='')

iter:  15 16:30:51  -253.906005c -3.21  -2.74
iter:  16 16:33:18  -253.905877c -3.26  -2.79
iter:  17 16:35:43  -253.906039c -3.76  -2.75
iter:  18 16:38:05  -253.906308c -3.75  -2.75
iter:  19 16:40:32  -253.906263c -3.88  -2.74
Writing to output.gpw (mode='')

iter:  20 16:42:54  -253.905800c -3.71  -2.75
iter:  21 16:45:19  -253.905881c -3.58  -2.86
iter:  22 16:47:48  -253.905935c -4.17  -3.03
iter:  23 16:50:11  -253.905880c -4.21  -3.02
iter:  24 16:52:30  -253.905989c -4.35  -3.09
Writing to output.gpw (mode='')

iter:  25 16:54:52  -253.906007c -4.29  -3.14
iter:  26 16:57:12  -253.905773c -3.93  -3.25
iter:  27 16:59:36  -253.905799c -4.54  -3.59
iter:  28 17:01:56  -253.905737c -4.71  -3.64
iter:  29 17:04:20  -253.905803c -5.00  -3.68
Writing to output.gpw (mode='')

iter:  30 17:06:38  -253.905804c -4.91  -3.80
iter:  31 17:09:13  -253.905758c -5.00  -3.89
iter:  32 17:11:39  -253.905784c -5.17  -4.00
iter:  33 17:14:01  -253.905784c -5.42  -4.18c
iter:  34 17:16:21  -253.905799c -5.34  -4.19c
Writing to output.gpw (mode='')

iter:  35 17:18:50  -253.905781c -5.45  -4.33c
iter:  36 17:21:13  -253.905789c -5.74  -4.37c
iter:  37 17:23:49  -253.905792c -5.74  -4.48c
iter:  38 17:26:12  -253.905795c -5.61  -4.51c
iter:  39 17:28:40  -253.905799c -5.81  -4.56c
Writing to output.gpw (mode='')

iter:  40 17:31:01  -253.905797c -5.97  -4.71c
iter:  41 17:33:27  -253.905800c -5.95  -4.80c
iter:  42 17:35:51  -253.905798c -5.93  -4.75c
iter:  43 17:38:19  -253.905800c -6.32  -4.92c
iter:  44 17:40:44  -253.905799c -6.38  -4.89c
Writing to output.gpw (mode='')

iter:  45 17:43:13  -253.905800c -6.31  -4.89c
iter:  46 17:45:44  -253.905799c -6.35  -4.88c
iter:  47 17:48:16  -253.905796c -6.43  -4.84c
iter:  48 17:50:45  -253.905796c -6.67  -4.84c
iter:  49 17:53:07  -253.905798c -6.56  -4.86c
Writing to output.gpw (mode='')

iter:  50 17:55:35  -253.905799c -6.58  -4.97c
iter:  51 17:58:04  -253.905800c -6.63  -5.10c
iter:  52 18:00:35  -253.905801c -6.70  -5.25c
iter:  53 18:03:10  -253.905801c -6.86  -5.35c
iter:  54 18:05:36  -253.905801c -7.13  -5.46c
Writing to output.gpw (mode='')

iter:  55 18:08:02  -253.905801c -7.08  -5.59c
iter:  56 18:10:22  -253.905802c -7.30  -5.80c
iter:  57 18:12:52  -253.905802c -7.26  -5.82c
iter:  58 18:15:22  -253.905801c -7.38  -5.92c
iter:  59 18:17:45  -253.905802c -7.35  -5.75c
Writing to output.gpw (mode='')

iter:  60 18:20:10  -253.905802c -7.40c -5.89c

Converged after 60 iterations.

Dipole moment: (-1.777157, -10.396419, -0.291973) |e|*Ang

Energy contributions relative to reference atoms: (reference = -10970.764591)

Kinetic:       +114.140678
Potential:     -103.092616
External:        +0.000000
XC:            -265.178794
Entropy (-ST):   -0.184271
Local:           +0.317066
--------------------------
Free energy:   -253.997937
Extrapolated:  -253.905802

Dipole-layer corrected work functions: 3.416145, 3.977418 eV

Showing only first 2 kpts
 Kpt  Band  Eigenvalues  Occupancy
  0    24     -3.91216    1.97343
  0    25     -3.80250    1.78458
  0    26     -3.63226    0.43159
  0    27     -3.51772    0.05418

  1    24     -3.78281    1.69641
  1    25     -3.67246    0.76150
  1    26     -3.64801    0.54759
  1    27     -3.56425    0.13190


Fermi level: -3.69678

No gap

Forces in eV/Ang:
  0 Li    0.03097   -0.00460   -0.27854
  1 Li   -0.03098   -0.00460   -0.27854
  2 Li    0.00000    0.00631   -0.28321
  3 Li    0.00199    0.00026   -0.28213
  4 Li   -0.00199    0.00026   -0.28212
  5 Li    0.00000    0.02070   -0.27738
  6 Li    0.01242   -0.00271   -0.27931
  7 Li   -0.01242   -0.00271   -0.27932
  8 Li    0.00001   -0.02592   -0.27067
  9 Li   -0.00543    0.00347    0.31995
 10 Li    0.00001    0.00734    0.23187
 11 Li    0.00543    0.00346    0.31996
 12 Li   -0.00789   -0.00201    0.30031
 13 Li    0.00000   -0.00457    0.23731
 14 Li    0.00789   -0.00201    0.30030
 15 Li   -0.00842   -0.00632    0.24611
 16 Li   -0.00000    0.00669    0.25393
 17 Li    0.00840   -0.00630    0.24611
 18 Li    0.00705   -0.00006    0.01471
 19 Li   -0.00707   -0.00005    0.01468
 20 Li    0.00002   -0.00424   -0.13353
 21 Li   -0.01021   -0.01425    0.04665
 22 Li    0.01021   -0.01428    0.04670
 23 Li   -0.00000    0.02460    0.00767
 24 Li   -0.02212    0.02434    0.04698
 25 Li    0.02209    0.02433    0.04695
 26 Li    0.00002   -0.00508   -0.02362
 27 Li   -0.05971    0.00640    0.20140
 28 Li   -0.00001   -0.00330   -0.02830
 29 Li    0.05948    0.00592    0.20139
 30 Li   -0.09596   -0.02980    0.15849
 31 Li   -0.00001   -0.01365   -0.02243
 32 Li    0.09587   -0.02960    0.15827
 33 Li    0.02622   -0.01859   -0.02809
 34 Li    0.00000    0.01081   -0.01561
 35 Li   -0.02622   -0.01868   -0.02809
 36 B     0.00289    0.20585   -0.47144
 37 H     0.29648   -0.04238    0.93167
 38 H    -0.29669   -0.04838    0.93450
 39 H    -0.00344    0.30643    1.75391
 40 N     0.00318    0.01685   -2.07632
 41 N    -0.00084   -0.39797   -1.64199

System changes: positions 

Initializing position-dependent things.

Density initialized from wave functions
       .-----------------------.  
      /|                       |  
     / |                       |  
    /  |                       |  
   /   |                       |  
  /    |                       |  
 *     |                       |  
 |     |                       |  
 |     |                       |  
 |     |                       |  
 |     |                       |  
 |     |                       |  
 |     |                       |  
 |     |       Li      Li      Li 
 |     |            H    H     |  
 |   Li|     Li      HB        |  
 |     |                       |  
 |     |  LLi     LLiNN   LLi  |  
 |     |                       |  
 |     |Li      Li      Li     |  
 |   Li|     Li      Li        |  
 |    Li  Li  Li  Li  Li  Li   |  
 | Li  |   Li      Li          |  
 |     |Li      Li      Li     |  
 Li    | Li      Li            |  
 |    Li      Li      Li       |  
 |     |                       |  
 |     |                       |  
 |     |                       |  
 |     |                       |  
 |     |                       |  
 |     |                       |  
 |     .-----------------------.  
 |    /                       /   
 |   /                       /    
 |  /                       /     
 | /                       /      
 |/                       /       
 *-----------------------*        

Positions:
   0 Li     1.617037    1.617037   10.000000    ( 0.0000,  0.0000,  0.0000)
   1 Li     4.851111    1.617037   10.000000    ( 0.0000,  0.0000,  0.0000)
   2 Li     8.085185    1.617037   10.000000    ( 0.0000,  0.0000,  0.0000)
   3 Li     1.617037    4.851111   10.000000    ( 0.0000,  0.0000,  0.0000)
   4 Li     4.851111    4.851111   10.000000    ( 0.0000,  0.0000,  0.0000)
   5 Li     8.085185    4.851111   10.000000    ( 0.0000,  0.0000,  0.0000)
   6 Li     1.617037    8.085185   10.000000    ( 0.0000,  0.0000,  0.0000)
   7 Li     4.851111    8.085185   10.000000    ( 0.0000,  0.0000,  0.0000)
   8 Li     8.085185    8.085185   10.000000    ( 0.0000,  0.0000,  0.0000)
   9 Li     0.000000    0.000000   11.617037    ( 0.0000,  0.0000,  0.0000)
  10 Li     3.234074    0.000000   11.617037    ( 0.0000,  0.0000,  0.0000)
  11 Li     6.468148    0.000000   11.617037    ( 0.0000,  0.0000,  0.0000)
  12 Li     0.000000    3.234074   11.617037    ( 0.0000,  0.0000,  0.0000)
  13 Li     3.234074    3.234074   11.617037    ( 0.0000,  0.0000,  0.0000)
  14 Li     6.468148    3.234074   11.617037    ( 0.0000,  0.0000,  0.0000)
  15 Li     0.000000    6.468148   11.617037    ( 0.0000,  0.0000,  0.0000)
  16 Li     3.234074    6.468148   11.617037    ( 0.0000,  0.0000,  0.0000)
  17 Li     6.468148    6.468148   11.617037    ( 0.0000,  0.0000,  0.0000)
  18 Li     1.617410    1.617057   13.470823    ( 0.0000,  0.0000,  0.0000)
  19 Li     4.850739    1.617058   13.470824    ( 0.0000,  0.0000,  0.0000)
  20 Li     8.085185    1.616630   13.460636    ( 0.0000,  0.0000,  0.0000)
  21 Li     1.616480    4.850249   13.472543    ( 0.0000,  0.0000,  0.0000)
  22 Li     4.851670    4.850247   13.472547    ( 0.0000,  0.0000,  0.0000)
  23 Li     8.085183    4.852573   13.470387    ( 0.0000,  0.0000,  0.0000)
  24 Li     1.615731    8.086516   13.472619    ( 0.0000,  0.0000,  0.0000)
  25 Li     4.852416    8.086515   13.472619    ( 0.0000,  0.0000,  0.0000)
  26 Li     8.085185    8.085151   13.468691    ( 0.0000,  0.0000,  0.0000)
  27 Li    -0.003077   -0.000980   15.456539    ( 0.0000,  0.0000,  0.0000)
  28 Li     3.234074   -0.000052   15.444310    ( 0.0000,  0.0000,  0.0000)
  29 Li     6.471223   -0.001000   15.456545    ( 0.0000,  0.0000,  0.0000)
  30 Li    -0.004965    3.233344   15.454256    ( 0.0000,  0.0000,  0.0000)
  31 Li     3.234077    3.233088   15.444608    ( 0.0000,  0.0000,  0.0000)
  32 Li     6.473111    3.233353   15.454244    ( 0.0000,  0.0000,  0.0000)
  33 Li     0.001487    6.466878   15.444226    ( 0.0000,  0.0000,  0.0000)
  34 Li     3.234077    6.468898   15.445011    ( 0.0000,  0.0000,  0.0000)
  35 Li     6.466658    6.466870   15.444225    ( 0.0000,  0.0000,  0.0000)
  36 B      8.085442    1.659297   18.435590    ( 0.0000,  0.0000,  0.0000)
  37 H      9.145710    2.208929   18.514914    ( 0.0000,  0.0000,  0.0000)
  38 H      7.027268    2.213259   18.515107    ( 0.0000,  0.0000,  0.0000)
  39 H      8.085062    0.414602   18.574806    ( 0.0000,  0.0000,  0.0000)
  40 N      8.085241    1.666051   16.771295    ( 0.0000,  0.0000,  0.0000)
  41 N      8.084808    0.447791   16.834251    ( 0.0000,  0.0000,  0.0000)

Unit cell:
           periodic     x           y           z      points  spacing
  1. axis:    yes    9.702222    0.000000    0.000000    60     0.1617
  2. axis:    yes    0.000000    9.702222    0.000000    60     0.1617
  3. axis:    no     0.000000    0.000000   26.351111   164     0.1607

  Lengths:   9.702222   9.702222  26.351111
  Angles:   90.000000  90.000000  90.000000

Effective grid spacing dv^(1/3) = 0.1614

     iter     time        total  log10-change:
                         energy  eigst   dens
iter:   1 18:23:15  -254.219997  -0.90
iter:   2 18:25:43  -254.402739  -0.87  -1.46
iter:   3 18:28:04  -254.127511  -1.05  -1.31
iter:   4 18:30:28  -254.128252  -1.48  -1.98
Writing to output.gpw (mode='')

iter:   5 18:32:55  -254.127095c -1.38  -2.06
iter:   6 18:35:22  -254.125441c -1.63  -2.10
iter:   7 18:37:51  -254.125991c -2.12  -2.12
iter:   8 18:40:18  -254.125582c -1.96  -2.37
iter:   9 18:42:48  -254.125599c -2.43  -2.59
Writing to output.gpw (mode='')

iter:  10 18:45:20  -254.125512c -2.79  -2.69
iter:  11 18:47:56  -254.125946c -2.94  -2.78
iter:  12 18:50:22  -254.126153c -2.98  -2.81
iter:  13 18:52:55  -254.126309c -3.21  -2.81
iter:  14 18:55:31  -254.126286c -3.25  -2.77
Writing to output.gpw (mode='')

iter:  15 18:58:05  -254.126173c -3.49  -2.91
iter:  16 19:00:28  -254.125918c -3.44  -3.01
iter:  17 19:02:53  -254.125729c -3.64  -3.20
iter:  18 19:05:22  -254.125975c -3.88  -3.18
iter:  19 19:07:48  -254.126020c -4.15  -3.38
Writing to output.gpw (mode='')

iter:  20 19:10:16  -254.125904c -4.15  -3.40
iter:  21 19:12:41  -254.125948c -4.13  -3.54
iter:  22 19:15:09  -254.125951c -4.19  -3.72
iter:  23 19:17:37  -254.125963c -4.54  -3.76
iter:  24 19:20:08  -254.125961c -4.67  -3.83
Writing to output.gpw (mode='')

iter:  25 19:22:36  -254.125997c -4.85  -3.79
iter:  26 19:25:01  -254.125998c -4.84  -3.89
iter:  27 19:27:21  -254.125989c -5.17  -3.84
iter:  28 19:29:46  -254.126021c -4.96  -3.84
iter:  29 19:32:10  -254.126014c -5.29  -3.92
Writing to output.gpw (mode='')

iter:  30 19:34:40  -254.126021c -5.10  -3.90
iter:  31 19:37:15  -254.126036c -5.20  -3.97
iter:  32 19:39:43  -254.126017c -5.32  -4.06c
iter:  33 19:42:10  -254.126016c -5.56  -4.09c
iter:  34 19:44:43  -254.126020c -5.74  -4.11c
Writing to output.gpw (mode='')

iter:  35 19:47:22  -254.126021c -5.78  -4.19c
iter:  36 19:49:50  -254.126028c -5.54  -4.20c
iter:  37 19:52:27  -254.126026c -5.66  -4.24c
iter:  38 19:54:52  -254.126038c -5.72  -4.26c
iter:  39 19:57:12  -254.126033c -6.21  -4.40c
Writing to output.gpw (mode='')

iter:  40 19:59:41  -254.126026c -5.92  -4.47c
iter:  41 20:02:06  -254.126027c -6.10  -4.51c
iter:  42 20:04:32  -254.126035c -6.25  -4.57c
iter:  43 20:06:52  -254.126033c -6.38  -4.71c
iter:  44 20:09:07  -254.126033c -6.70  -5.00c
Writing to output.gpw (mode='')

iter:  45 20:11:39  -254.126036c -6.70  -5.04c
iter:  46 20:14:01  -254.126034c -6.69  -5.08c
iter:  47 20:16:28  -254.126034c -6.78  -5.24c
iter:  48 20:18:54  -254.126035c -6.87  -5.28c
iter:  49 20:21:15  -254.126033c -6.94  -5.37c
Writing to output.gpw (mode='')

iter:  50 20:23:41  -254.126036c -6.78  -5.33c
iter:  51 20:26:00  -254.126036c -7.04  -5.49c
iter:  52 20:28:34  -254.126036c -7.00  -5.57c
iter:  53 20:31:04  -254.126035c -7.13  -5.69c
iter:  54 20:33:33  -254.126036c -7.14  -5.73c
Writing to output.gpw (mode='')

iter:  55 20:35:58  -254.126036c -7.33  -5.82c
iter:  56 20:38:21  -254.126036c -7.26  -5.85c
iter:  57 20:40:44  -254.126036c -7.38  -5.89c
iter:  58 20:43:14  -254.126036c -7.55c -6.08c

Converged after 58 iterations.

Dipole moment: (-1.779125, -10.488755, -0.310197) |e|*Ang

Energy contributions relative to reference atoms: (reference = -10970.764591)

Kinetic:       +112.311453
Potential:     -101.795766
External:        +0.000000
XC:            -264.865318
Entropy (-ST):   -0.186042
Local:           +0.316616
--------------------------
Free energy:   -254.219057
Extrapolated:  -254.126036

Dipole-layer corrected work functions: 3.416803, 4.013107 eV

Showing only first 2 kpts
 Kpt  Band  Eigenvalues  Occupancy
  0    24     -3.92565    1.97086
  0    25     -3.81785    1.77350
  0    26     -3.65383    0.45498
  0    27     -3.54146    0.06036

  1    24     -3.80365    1.70986
  1    25     -3.68754    0.73249
  1    26     -3.66660    0.55095
  1    27     -3.58155    0.12976


Fermi level: -3.71495

No gap
Writing to output.gpw (mode='')


Forces in eV/Ang:
  0 Li    0.03056   -0.00484   -0.27914
  1 Li   -0.03057   -0.00484   -0.27914
  2 Li    0.00000    0.00627   -0.28300
  3 Li    0.00273    0.00007   -0.28258
  4 Li   -0.00273    0.00006   -0.28257
  5 Li    0.00001    0.02032   -0.27723
  6 Li    0.01296   -0.00356   -0.27968
  7 Li   -0.01295   -0.00355   -0.27969
  8 Li    0.00001   -0.02513   -0.27170
  9 Li   -0.00617    0.00363    0.32126
 10 Li    0.00001    0.00749    0.23192
 11 Li    0.00617    0.00362    0.32128
 12 Li   -0.00806   -0.00217    0.29987
 13 Li    0.00000   -0.00419    0.23865
 14 Li    0.00806   -0.00217    0.29987
 15 Li   -0.00756   -0.00746    0.24662
 16 Li   -0.00001    0.00819    0.25338
 17 Li    0.00755   -0.00744    0.24663
 18 Li    0.00714   -0.00016    0.01281
 19 Li   -0.00715   -0.00015    0.01277
 20 Li    0.00003   -0.00305   -0.11620
 21 Li   -0.01065   -0.01409    0.04620
 22 Li    0.01064   -0.01412    0.04624
 23 Li   -0.00000    0.02391    0.00605
 24 Li   -0.02185    0.02577    0.04572
 25 Li    0.02182    0.02576    0.04569
 26 Li    0.00002   -0.00696   -0.02649
 27 Li   -0.05934    0.01698    0.20422
 28 Li   -0.00001   -0.00498   -0.02855
 29 Li    0.05899    0.01642    0.20410
 30 Li   -0.10346   -0.03931    0.16848
 31 Li   -0.00001   -0.01191   -0.02185
 32 Li    0.10329   -0.03904    0.16825
 33 Li    0.02746   -0.01772   -0.02746
 34 Li    0.00000    0.00969   -0.01532
 35 Li   -0.02745   -0.01782   -0.02745
 36 B     0.00181    0.02305   -0.45542
 37 H     0.16450   -0.05549    0.76400
 38 H    -0.16461   -0.06256    0.76556
 39 H    -0.00330    0.53802    1.47774
 40 N     0.00275   -0.36649   -1.60363
 41 N    -0.00387    0.03608   -1.58638

System changes: positions 

Initializing position-dependent things.

Density initialized from wave functions
       .-----------------------.  
      /|                       |  
     / |                       |  
    /  |                       |  
   /   |                       |  
  /    |                       |  
 *     |                       |  
 |     |                       |  
 |     |                       |  
 |     |                       |  
 |     |                       |  
 |     |                       |  
 |     |                       |  
 |     |       Li      Li      Li 
 |     |            H    H     |  
 |   Li|     Li      HB        |  
 |     |                       |  
 |     |  LLi     LLiNN   LLi  |  
 |     |                       |  
 |     |Li      Li      Li     |  
 |   Li|     Li      Li        |  
 |    Li  Li  Li  Li  Li  Li   |  
 | Li  |   Li      Li          |  
 |     |Li      Li      Li     |  
 Li    | Li      Li            |  
 |    Li      Li      Li       |  
 |     |                       |  
 |     |                       |  
 |     |                       |  
 |     |                       |  
 |     |                       |  
 |     |                       |  
 |     .-----------------------.  
 |    /                       /   
 |   /                       /    
 |  /                       /     
 | /                       /      
 |/                       /       
 *-----------------------*        

Positions:
   0 Li     1.617037    1.617037   10.000000    ( 0.0000,  0.0000,  0.0000)
   1 Li     4.851111    1.617037   10.000000    ( 0.0000,  0.0000,  0.0000)
   2 Li     8.085185    1.617037   10.000000    ( 0.0000,  0.0000,  0.0000)
   3 Li     1.617037    4.851111   10.000000    ( 0.0000,  0.0000,  0.0000)
[...]
  41 N      8.097692    1.843546   15.334011    ( 0.0000,  0.0000,  0.0000)

Unit cell:
           periodic     x           y           z      points  spacing
  1. axis:    yes    9.702222    0.000000    0.000000    60     0.1617
  2. axis:    yes    0.000000    9.702222    0.000000    60     0.1617
  3. axis:    no     0.000000    0.000000   26.351111   164     0.1607

  Lengths:   9.702222   9.702222  26.351111
  Angles:   90.000000  90.000000  90.000000

Effective grid spacing dv^(1/3) = 0.1614

     iter     time        total  log10-change:
                         energy  eigst   dens
iter:   1 22:47:27  -257.429540  -0.78
iter:   2 22:49:45  -257.428246  -1.52  -1.98
iter:   3 22:52:02  -257.427553c -2.04  -2.07
iter:   4 22:54:33  -257.427138c -2.44  -2.15
Writing to output.gpw (mode='')

iter:   5 22:58:13  -257.421677c -2.34  -2.17
iter:   6 23:00:36  -257.420655c -1.86  -2.41
iter:   7 23:03:06  -257.420566c -2.77  -2.58
iter:   8 23:05:36  -257.420596c -2.88  -2.71
iter:   9 23:08:01  -257.420670c -2.89  -2.75
Writing to output.gpw (mode='')

iter:  10 23:12:01  -257.420503c -3.70  -2.93
iter:  11 23:14:29  -257.420441c -3.83  -3.04
iter:  12 23:17:03  -257.420425c -3.80  -3.11
iter:  13 23:19:25  -257.420418c -4.10  -3.30
iter:  14 23:21:56  -257.420425c -4.43  -3.38
Writing to output.gpw (mode='')

iter:  15 23:25:35  -257.420456c -4.41  -3.47
iter:  16 23:28:04  -257.420448c -4.75  -3.75
iter:  17 23:30:46  -257.420444c -5.14  -3.78
iter:  18 23:33:17  -257.420446c -5.22  -3.84
iter:  19 23:35:49  -257.420445c -5.31  -3.92
Writing to output.gpw (mode='')

iter:  20 23:39:43  -257.420444c -5.59  -3.99
iter:  21 23:42:13  -257.420440c -5.65  -4.03c
iter:  22 23:44:44  -257.420435c -5.56  -4.13c
iter:  23 23:47:07  -257.420441c -5.81  -4.11c
iter:  24 23:49:31  -257.420443c -6.13  -4.21c
Writing to output.gpw (mode='')

iter:  25 23:53:33  -257.420442c -6.07  -4.48c
iter:  26 23:55:59  -257.420440c -6.55  -4.65c
iter:  27 23:58:28  -257.420440c -6.40  -4.72c
iter:  28 00:00:52  -257.420441c -6.50  -4.84c
iter:  29 00:03:12  -257.420442c -6.67  -4.97c
Writing to output.gpw (mode='')

iter:  30 00:06:56  -257.420441c -6.95  -5.10c
iter:  31 00:09:25  -257.420441c -6.92  -5.14c
iter:  32 00:11:59  -257.420441c -7.16  -5.21c
iter:  33 00:14:37  -257.420441c -7.24  -5.40c
iter:  34 00:17:06  -257.420441c -7.38  -5.45c
Writing to output.gpw (mode='')

iter:  35 00:21:00  -257.420441c -7.45c -5.44c

Converged after 35 iterations.

Dipole moment: (1.737624, -9.378915, -0.275128) |e|*Ang

Energy contributions relative to reference atoms: (reference = -10970.764591)

Kinetic:       +108.851345
Potential:      -98.261474
External:        +0.000000
XC:            -268.278072
Entropy (-ST):   -0.167609
Local:           +0.351565
--------------------------
Free energy:   -257.504245
Extrapolated:  -257.420441

Dipole-layer corrected work functions: 3.425998, 3.954888 eV

Showing only first 2 kpts
 Kpt  Band  Eigenvalues  Occupancy
  0    24     -3.85733    1.93140
  0    25     -3.78379    1.73221
  0    26     -3.64055    0.53869
  0    27     -3.49480    0.03919

  1    24     -3.95481    1.98994
  1    25     -3.66294    0.73169
  1    26     -3.61455    0.35955
  1    27     -3.60157    0.28924


Fermi level: -3.69044

No gap

Forces in eV/Ang:
  0 Li   -0.00178   -0.00595   -0.29170
  1 Li   -0.00339   -0.00711   -0.29237
  2 Li    0.00199   -0.01487   -0.25699
  3 Li    0.01093   -0.00167   -0.28433
  4 Li   -0.00745   -0.00184   -0.28722
  5 Li    0.00270   -0.00312   -0.27635
  6 Li    0.01580   -0.00925   -0.28790
  7 Li   -0.01210   -0.00986   -0.28431
  8 Li    0.00218   -0.00195   -0.27343
  9 Li   -0.00020    0.02768    0.22620
 10 Li   -0.00178    0.06679    0.27180
 11 Li    0.00959    0.03294    0.23388
 12 Li    0.00104   -0.00188    0.30141
 13 Li    0.00160   -0.02055    0.35616
 14 Li    0.00719   -0.00218    0.31341
 15 Li    0.01813    0.07733    0.27881
 16 Li   -0.00327    0.01957    0.32684
 17 Li   -0.02627    0.07384    0.27866
 18 Li    0.02408    0.00357   -0.02014
 19 Li   -0.02862    0.00270   -0.02711
 20 Li    0.01904   -0.00884    0.01867
 21 Li    0.02262    0.00026   -0.00357
 22 Li   -0.02701    0.00107   -0.00398
 23 Li   -0.00271   -0.00916   -0.01749
 24 Li   -0.05359    0.01166    0.04585
 25 Li    0.05290    0.01604    0.05091
 26 Li   -0.00286   -0.01546    0.02985
 27 Li   -0.01442    0.00025   -0.09679
 28 Li   -0.00230   -0.00933    0.00006
 29 Li    0.05003    0.04906   -0.08305
 30 Li   -0.05741    0.04815    0.02255
 31 Li   -0.00011    0.00131    0.01482
 32 Li    0.03337    0.06455   -0.00769
 33 Li   -0.05193   -0.01578   -0.02163
 34 Li   -0.00059   -0.03484   -0.02412
 35 Li    0.05536   -0.01611   -0.02237
 36 B     0.00155    0.06186    0.12173
 37 H     0.02220   -0.11058    0.02906
 38 H     0.00721   -0.13614    0.12663
 39 H    -0.02343    0.10443   -0.01086
 40 N    -0.04851   -0.03485   -0.06709
 41 N     0.00449   -0.16527   -0.10950

System changes: positions 

Initializing position-dependent things.

Density initialized from wave functions
       .-----------------------.  
      /|                       |  
     / |                       |  
    /  |                       |  
   /   |                       |  
  /    |                       |  
 *     |                       |  
 |     |                       |  
 |     |                       |  
 |     |                       |  
 |     |                       |  
 |     |                       |  
 |     |                       |  
 |     |       Li              |  
 |     |                       |  
 |   Li|     Li    H Li H      |  
 |     |              B   Li   |  
 |     |  LLi     LiLH    Li   |  
 |     |          Li  N  Li    |  
 |     |Li      Li      Li     |  
 |   LLi     Li      Li        |  
 |     |  Li  Li  Li  Li  Li   |  
 | Li  |   Li      Li          |  
 |     |Li      Li      Li     |  
 Li    | Li      Li            |  
 |    Li      Li      Li       |  
 |     |                       |  
 |     |                       |  
 |     |                       |  
 |     |                       |  
 |     |                       |  
 |     |                       |  
 |     .-----------------------.  
 |    /                       /   
 |   /                       /    
 |  /                       /     
 | /                       /      
 |/                       /       
 *-----------------------*        

Positions:
   0 Li     1.617037    1.617037   10.000000    ( 0.0000,  0.0000,  0.0000)
   1 Li     4.851111    1.617037   10.000000    ( 0.0000,  0.0000,  0.0000)
   2 Li     8.085185    1.617037   10.000000    ( 0.0000,  0.0000,  0.0000)
   3 Li     1.617037    4.851111   10.000000    ( 0.0000,  0.0000,  0.0000)
   4 Li     4.851111    4.851111   10.000000    ( 0.0000,  0.0000,  0.0000)
   5 Li     8.085185    4.851111   10.000000    ( 0.0000,  0.0000,  0.0000)
   6 Li     1.617037    8.085185   10.000000    ( 0.0000,  0.0000,  0.0000)
   7 Li     4.851111    8.085185   10.000000    ( 0.0000,  0.0000,  0.0000)
   8 Li     8.085185    8.085185   10.000000    ( 0.0000,  0.0000,  0.0000)
   9 Li     0.000000    0.000000   11.617037    ( 0.0000,  0.0000,  0.0000)
  10 Li     3.234074    0.000000   11.617037    ( 0.0000,  0.0000,  0.0000)
  11 Li     6.468148    0.000000   11.617037    ( 0.0000,  0.0000,  0.0000)
  12 Li     0.000000    3.234074   11.617037    ( 0.0000,  0.0000,  0.0000)
  13 Li     3.234074    3.234074   11.617037    ( 0.0000,  0.0000,  0.0000)
  14 Li     6.468148    3.234074   11.617037    ( 0.0000,  0.0000,  0.0000)
  15 Li     0.000000    6.468148   11.617037    ( 0.0000,  0.0000,  0.0000)
  16 Li     3.234074    6.468148   11.617037    ( 0.0000,  0.0000,  0.0000)
  17 Li     6.468148    6.468148   11.617037    ( 0.0000,  0.0000,  0.0000)
  18 Li     1.583979    1.610954   13.590824    ( 0.0000,  0.0000,  0.0000)
  19 Li     4.881308    1.608270   13.581104    ( 0.0000,  0.0000,  0.0000)
  20 Li     8.100689    1.637067   13.532698    ( 0.0000,  0.0000,  0.0000)
  21 Li     1.562614    4.866119   13.545881    ( 0.0000,  0.0000,  0.0000)
  22 Li     4.894768    4.870233   13.540178    ( 0.0000,  0.0000,  0.0000)
  23 Li     8.085641    5.029772   13.467295    ( 0.0000,  0.0000,  0.0000)
  24 Li     1.637712    8.151869   13.529748    ( 0.0000,  0.0000,  0.0000)
  25 Li     4.829445    8.156984   13.531242    ( 0.0000,  0.0000,  0.0000)
  26 Li     8.082661    8.208384   13.560472    ( 0.0000,  0.0000,  0.0000)
  27 Li    -0.264261    0.390406   16.007771    ( 0.0000,  0.0000,  0.0000)
  28 Li     3.230858   -0.023985   15.544626    ( 0.0000,  0.0000,  0.0000)
  29 Li     6.714729    0.411345   16.020656    ( 0.0000,  0.0000,  0.0000)
  30 Li    -0.241126    3.360561   15.589072    ( 0.0000,  0.0000,  0.0000)
  31 Li     3.228406    3.295258   15.468055    ( 0.0000,  0.0000,  0.0000)
  32 Li     6.684123    3.357648   15.560392    ( 0.0000,  0.0000,  0.0000)
  33 Li     0.121247    6.597963   15.523808    ( 0.0000,  0.0000,  0.0000)
  34 Li     3.234781    6.498933   15.506972    ( 0.0000,  0.0000,  0.0000)
  35 Li     6.350714    6.602976   15.524593    ( 0.0000,  0.0000,  0.0000)
  36 B      8.074806    1.310211   17.754041    ( 0.0000,  0.0000,  0.0000)
  37 H      9.108751    1.463212   18.387322    ( 0.0000,  0.0000,  0.0000)
  38 H      7.094670    1.459094   18.458426    ( 0.0000,  0.0000,  0.0000)
  39 H      8.080884    0.117318   17.286599    ( 0.0000,  0.0000,  0.0000)
  40 N      8.011499    2.300956   16.574114    ( 0.0000,  0.0000,  0.0000)
  41 N      8.101323    1.845587   15.338538    ( 0.0000,  0.0000,  0.0000)

Unit cell:
           periodic     x           y           z      points  spacing
  1. axis:    yes    9.702222    0.000000    0.000000    60     0.1617
  2. axis:    yes    0.000000    9.702222    0.000000    60     0.1617
  3. axis:    no     0.000000    0.000000   26.351111   164     0.1607

  Lengths:   9.702222   9.702222  26.351111
  Angles:   90.000000  90.000000  90.000000

Effective grid spacing dv^(1/3) = 0.1614

     iter     time        total  log10-change:
                         energy  eigst   dens
iter:   1 00:24:07  -257.438085  -0.82
iter:   2 00:26:29  -257.438265  -1.56  -2.06
iter:   3 00:29:03  -257.437622c -2.09  -2.13
iter:   4 00:31:35  -257.436225c -2.50  -2.19
Writing to output.gpw (mode='')

iter:   5 00:35:16  -257.431326c -2.15  -2.24
iter:   6 00:37:46  -257.431452c -2.58  -2.57
iter:   7 00:40:11  -257.431127c -2.47  -2.60
iter:   8 00:42:41  -257.431822c -2.12  -2.69
iter:   9 00:45:12  -257.431669c -2.91  -2.57
Writing to output.gpw (mode='')

iter:  10 00:48:42  -257.431021c -3.34  -2.59
iter:  11 00:51:14  -257.430870c -3.56  -2.85
iter:  12 00:53:53  -257.430666c -3.21  -2.93
iter:  13 00:56:22  -257.430688c -3.92  -3.12
iter:  14 00:58:55  -257.430680c -4.06  -3.17
Writing to output.gpw (mode='')

iter:  15 01:02:32  -257.430724c -3.99  -3.26
iter:  16 01:04:50  -257.430687c -4.43  -3.20
iter:  17 01:07:18  -257.430708c -4.54  -3.53
iter:  18 01:09:41  -257.430725c -4.90  -3.67
iter:  19 01:12:10  -257.430715c -5.13  -3.70
Writing to output.gpw (mode='')

iter:  20 01:15:48  -257.430715c -5.17  -3.91
iter:  21 01:18:14  -257.430713c -5.38  -3.97
iter:  22 01:20:40  -257.430711c -5.65  -4.00c
iter:  23 01:23:10  -257.430711c -5.85  -4.11c
iter:  24 01:25:50  -257.430712c -6.07  -4.13c
Writing to output.gpw (mode='')

iter:  25 01:29:38  -257.430710c -5.97  -4.29c
iter:  26 01:32:08  -257.430711c -6.19  -4.44c
iter:  27 01:34:38  -257.430711c -6.30  -4.55c
iter:  28 01:37:03  -257.430712c -6.59  -4.59c
iter:  29 01:39:42  -257.430711c -6.60  -4.72c
Writing to output.gpw (mode='')

iter:  30 01:43:19  -257.430711c -6.61  -4.89c
iter:  31 01:45:46  -257.430712c -6.90  -5.06c
iter:  32 01:48:12  -257.430711c -7.01  -5.09c
iter:  33 01:50:40  -257.430711c -7.08  -5.13c
iter:  34 01:53:04  -257.430711c -7.27  -5.30c
Writing to output.gpw (mode='')

iter:  35 01:56:41  -257.430711c -7.23  -5.44c
iter:  36 01:59:11  -257.430712c -7.36  -5.52c
iter:  37 02:01:40  -257.430712c -7.64c -5.57c

Converged after 37 iterations.

Dipole moment: (1.834665, -9.333135, -0.278616) |e|*Ang

Energy contributions relative to reference atoms: (reference = -10970.764591)

Kinetic:       +108.849267
Potential:      -98.274880
External:        +0.000000
XC:            -268.272740
Entropy (-ST):   -0.167324
Local:           +0.351303
--------------------------
Free energy:   -257.514373
Extrapolated:  -257.430712

Dipole-layer corrected work functions: 3.426144, 3.961739 eV

Showing only first 2 kpts
 Kpt  Band  Eigenvalues  Occupancy
  0    24     -3.86201    1.93295
  0    25     -3.78931    1.74144
  0    26     -3.64373    0.53622
  0    27     -3.49756    0.03862

  1    24     -3.96003    1.99028
  1    25     -3.66783    0.74468
  1    26     -3.61790    0.35870
  1    27     -3.60531    0.29041


Fermi level: -3.69394

No gap
Writing to output.gpw (mode='')


Forces in eV/Ang:
  0 Li   -0.00205   -0.00566   -0.29199
  1 Li   -0.00399   -0.00705   -0.29276
  2 Li    0.00236   -0.01451   -0.25625
  3 Li    0.01041   -0.00147   -0.28345
  4 Li   -0.00638   -0.00171   -0.28665
  5 Li    0.00320   -0.00424   -0.27619
  6 Li    0.01657   -0.00967   -0.28782
  7 Li   -0.01229   -0.01036   -0.28364
  8 Li    0.00257   -0.00241   -0.27362
  9 Li    0.00204    0.03279    0.22948
 10 Li   -0.00216    0.06683    0.27343
 11 Li    0.00871    0.03904    0.23873
 12 Li    0.00275   -0.00255    0.29427
 13 Li    0.00181   -0.01820    0.35538
 14 Li    0.00676   -0.00315    0.30851
 15 Li    0.01618    0.08300    0.27742
 16 Li   -0.00362    0.01764    0.32641
 17 Li   -0.02571    0.07906    0.27728
 18 Li    0.02562   -0.00036   -0.02004
 19 Li   -0.02938   -0.00122   -0.02785
 20 Li    0.02308   -0.01516   -0.01957
 21 Li    0.02782    0.00176    0.00204
 22 Li   -0.03292    0.00284    0.00128
 23 Li   -0.00325    0.00399    0.00298
 24 Li   -0.05415    0.01427    0.04345
 25 Li    0.05329    0.01935    0.04906
 26 Li   -0.00350   -0.03976    0.02618
 27 Li   -0.00115   -0.00832   -0.07860
 28 Li   -0.00280   -0.00840   -0.00010
 29 Li    0.05003    0.04897   -0.06032
 30 Li   -0.05175    0.03234    0.03311
 31 Li   -0.00001    0.00268    0.01310
 32 Li    0.03099    0.04444    0.00428
 33 Li   -0.05683   -0.02175   -0.02979
 34 Li   -0.00045   -0.03656   -0.02991
 35 Li    0.06071   -0.02161   -0.03036
 36 B    -0.00708    0.07051    0.13558
 37 H     0.00999   -0.09981    0.00601
 38 H     0.03522   -0.14101    0.11007
 39 H    -0.03726    0.07269   -0.00051
 40 N    -0.06063   -0.06304   -0.00161
 41 N    -0.01431   -0.13173   -0.15717

System changes: positions 

Initializing position-dependent things.

Density initialized from wave functions
       .-----------------------.  
      /|                       |  
     / |                       |  
    /  |                       |  
   /   |                       |  
  /    |                       |  
 *     |                       |  
 |     |                       |  
 |     |                       |  
 |     |                       |  
 |     |                       |  
 |     |                       |  
 |     |                       |  
 |     |       Li              |  
 |     |                       |  
 |   Li|     Li    H Li H      |  
 |     |              B   Li   |  
 |     |  LLi     LiLH    Li   |  
 |     |          Li  N  Li    |  
 |     |Li      Li      Li     |  
 |   LLi     Li      Li        |  
 |     |  Li  Li  Li  Li  Li   |  
 | Li  |   Li      Li          |  
 |     |Li      Li      Li     |  
 Li    | Li      Li            |  
 |    Li      Li      Li       |  
 |     |                       |  
 |     |                       |  
 |     |                       |  
 |     |                       |  
 |     |                       |  
 |     |                       |  
 |     .-----------------------.  
 |    /                       /   
 |   /                       /    
 |  /                       /     
 | /                       /      
 |/                       /       
 *-----------------------*        

Positions:
   0 Li     1.617037    1.617037   10.000000    ( 0.0000,  0.0000,  0.0000)
   1 Li     4.851111    1.617037   10.000000    ( 0.0000,  0.0000,  0.0000)
   2 Li     8.085185    1.617037   10.000000    ( 0.0000,  0.0000,  0.0000)
   3 Li     1.617037    4.851111   10.000000    ( 0.0000,  0.0000,  0.0000)
   4 Li     4.851111    4.851111   10.000000    ( 0.0000,  0.0000,  0.0000)
   5 Li     8.085185    4.851111   10.000000    ( 0.0000,  0.0000,  0.0000)
   6 Li     1.617037    8.085185   10.000000    ( 0.0000,  0.0000,  0.0000)
   7 Li     4.851111    8.085185   10.000000    ( 0.0000,  0.0000,  0.0000)
   8 Li     8.085185    8.085185   10.000000    ( 0.0000,  0.0000,  0.0000)
   9 Li     0.000000    0.000000   11.617037    ( 0.0000,  0.0000,  0.0000)
  10 Li     3.234074    0.000000   11.617037    ( 0.0000,  0.0000,  0.0000)
  11 Li     6.468148    0.000000   11.617037    ( 0.0000,  0.0000,  0.0000)
  12 Li     0.000000    3.234074   11.617037    ( 0.0000,  0.0000,  0.0000)
  13 Li     3.234074    3.234074   11.617037    ( 0.0000,  0.0000,  0.0000)
  14 Li     6.468148    3.234074   11.617037    ( 0.0000,  0.0000,  0.0000)
  15 Li     0.000000    6.468148   11.617037    ( 0.0000,  0.0000,  0.0000)
  16 Li     3.234074    6.468148   11.617037    ( 0.0000,  0.0000,  0.0000)
  17 Li     6.468148    6.468148   11.617037    ( 0.0000,  0.0000,  0.0000)
  18 Li     1.581941    1.614252   13.591115    ( 0.0000,  0.0000,  0.0000)
  19 Li     4.882321    1.611338   13.580173    ( 0.0000,  0.0000,  0.0000)
  20 Li     8.102724    1.654278   13.532823    ( 0.0000,  0.0000,  0.0000)
  21 Li     1.558893    4.866901   13.547672    ( 0.0000,  0.0000,  0.0000)
  22 Li     4.897247    4.871426   13.541454    ( 0.0000,  0.0000,  0.0000)
  23 Li     8.085620    5.026230   13.463805    ( 0.0000,  0.0000,  0.0000)
  24 Li     1.640288    8.149556   13.527826    ( 0.0000,  0.0000,  0.0000)
  25 Li     4.826674    8.155357   13.529543    ( 0.0000,  0.0000,  0.0000)
  26 Li     8.082385    8.224708   13.560140    ( 0.0000,  0.0000,  0.0000)
  27 Li    -0.263133    0.386696   15.984625    ( 0.0000,  0.0000,  0.0000)
  28 Li     3.230450   -0.024538   15.541024    ( 0.0000,  0.0000,  0.0000)
  29 Li     6.711656    0.410901   15.998733    ( 0.0000,  0.0000,  0.0000)
  30 Li    -0.249076    3.368976   15.598224    ( 0.0000,  0.0000,  0.0000)
  31 Li     3.227734    3.296070   15.469096    ( 0.0000,  0.0000,  0.0000)
  32 Li     6.689096    3.365976   15.566612    ( 0.0000,  0.0000,  0.0000)
  33 Li     0.124108    6.610722   15.527278    ( 0.0000,  0.0000,  0.0000)
  34 Li     3.234772    6.499451   15.514735    ( 0.0000,  0.0000,  0.0000)
  35 Li     6.348316    6.616257   15.527985    ( 0.0000,  0.0000,  0.0000)
  36 B      8.073392    1.282062   17.747692    ( 0.0000,  0.0000,  0.0000)
  37 H      9.110560    1.423970   18.379782    ( 0.0000,  0.0000,  0.0000)
  38 H      7.097403    1.421057   18.460269    ( 0.0000,  0.0000,  0.0000)
  39 H      8.081613    0.097245   17.259492    ( 0.0000,  0.0000,  0.0000)
  40 N      8.002562    2.288235   16.579473    ( 0.0000,  0.0000,  0.0000)
  41 N      8.104082    1.847882   15.338839    ( 0.0000,  0.0000,  0.0000)

Unit cell:
           periodic     x           y           z      points  spacing
  1. axis:    yes    9.702222    0.000000    0.000000    60     0.1617
  2. axis:    yes    0.000000    9.702222    0.000000    60     0.1617
  3. axis:    no     0.000000    0.000000   26.351111   164     0.1607

  Lengths:   9.702222   9.702222  26.351111
  Angles:   90.000000  90.000000  90.000000

Effective grid spacing dv^(1/3) = 0.1614

     iter     time        total  log10-change:
                         energy  eigst   dens
iter:   1 02:05:44  -257.442358  -0.84
iter:   2 02:08:10  -257.443185  -1.61  -2.10
