
  ___ ___ ___ _ _ _  
 |   |   |_  | | | | 
 | | | | | . | | | | 
 |__ |  _|___|_____|  22.8.0
 |___|_|             

User:   vazumah@r349.ib.bridges2.psc.edu
Date:   Fri Mar 10 19:26:20 2023
Arch:   x86_64
Pid:    96117
CWD:    /jet/home/vazumah/Calcs/LiMEAS/proton_donors/propan_1_ol_x/ontop/9.702_9.702/N2_x
Python: 3.11.0
gpaw:   /jet/home/vazumah/.conda/envs/GPAW_mpich/lib/python3.11/site-packages/gpaw
_gpaw:  /jet/home/vazumah/.conda/envs/GPAW_mpich/lib/python3.11/site-packages/
        _gpaw.cpython-311-x86_64-linux-gnu.so
ase:    /jet/home/vazumah/.conda/envs/GPAW_mpich/lib/python3.11/site-packages/ase (version 3.22.1)
numpy:  /jet/home/vazumah/.conda/envs/GPAW_mpich/lib/python3.11/site-packages/numpy (version 1.24.2)
scipy:  /jet/home/vazumah/.conda/envs/GPAW_mpich/lib/python3.11/site-packages/scipy (version 1.10.1)
libxc:  5.2.3
units:  Angstrom and eV
cores: 128
OpenMP: True
OMP_NUM_THREADS: 1

Input parameters:
  h: 0.16
  kpts: {size: [4, 4, 1]}
  occupations: {name: fermi-dirac,
                width: 0.05}
  poissonsolver: {dipolelayer: xy}
  xc: BEEF-vdW

System changes: positions, numbers, cell, pbc, initial_charges, initial_magmoms 

Initialize ...

species:
  Li:
    name: Lithium
    id: 830b4218f175192f93f959cfc0aad614
    Z: 3.0
    valence: 1
    core: 2
    charge: 0.0
    file: /jet/home/vazumah/datasets/gpaw-setups-0.9.20000/Li.PBE.gz
    compensation charges: {type: gauss,
                           rc: 0.33,
                           lmax: 2}
    cutoffs: {filter: 1.91,
              core: 2.55}
    valence states:
      #              energy  rcut
      - 2s(1.00)    -2.874   1.058
      - 2p(0.00)    -1.090   1.058
      -  s          24.337   1.058
  
    # Using partial waves for Li as LCAO basis

  O:
    name: Oxygen
    id: 32ecd46bf208036f09c70b0ec9a88b78
    Z: 8.0
    valence: 6
    core: 2
    charge: 0.0
    file: /jet/home/vazumah/datasets/gpaw-setups-0.9.20000/O.PBE.gz
    compensation charges: {type: gauss,
                           rc: 0.21,
                           lmax: 2}
    cutoffs: {filter: 1.17,
              core: 0.83}
    valence states:
      #              energy  rcut
      - 2s(2.00)   -23.961   0.688
      - 2p(4.00)    -9.029   0.598
      -  s           3.251   0.688
      -  p          18.182   0.598
      -  d           0.000   0.619
  
    # Using partial waves for O as LCAO basis

  C:
    name: Carbon
    id: 4aa54d4b901d75f77cc0ea3eec22967b
    Z: 6.0
    valence: 4
    core: 2
    charge: 0.0
    file: /jet/home/vazumah/datasets/gpaw-setups-0.9.20000/C.PBE.gz
    compensation charges: {type: gauss,
                           rc: 0.20,
                           lmax: 2}
    cutoffs: {filter: 1.14,
              core: 1.14}
    valence states:
      #              energy  rcut
      - 2s(2.00)   -13.751   0.635
      - 2p(2.00)    -5.284   0.635
      -  s          13.461   0.635
      -  p          21.927   0.635
      -  d           0.000   0.635
  
    # Using partial waves for C as LCAO basis

  H:
    name: Hydrogen
    id: d65de229564ff8ea4db303e23b6d1ecf
    Z: 1.0
    valence: 1
    core: 0
    charge: 0.0
    file: /jet/home/vazumah/datasets/gpaw-setups-0.9.20000/H.PBE.gz
    compensation charges: {type: gauss,
                           rc: 0.15,
                           lmax: 2}
    cutoffs: {filter: 0.85,
              core: 0.53}
    valence states:
      #              energy  rcut
      - 1s(1.00)    -6.494   0.476
      -  s          20.717   0.476
      -  p           0.000   0.476
  
    # Using partial waves for H as LCAO basis

  N:
    name: Nitrogen
    id: f7500608b86eaa90eef8b1d9a670dc53
    Z: 7.0
    valence: 5
    core: 2
    charge: 0.0
    file: /jet/home/vazumah/datasets/gpaw-setups-0.9.20000/N.PBE.gz
    compensation charges: {type: gauss,
                           rc: 0.18,
                           lmax: 2}
    cutoffs: {filter: 1.11,
              core: 0.96}
    valence states:
      #              energy  rcut
      - 2s(2.00)   -18.583   0.603
      - 2p(3.00)    -7.089   0.529
      -  s           8.629   0.603
      -  p          20.123   0.529
      -  d           0.000   0.577
  
    # Using partial waves for N as LCAO basis

Reference energy: -15487.462483  # eV

Spin-paired calculation

Convergence criteria:
 Maximum [total energy] change in last 3 cyles: 0.0005 eV / electron
 Maximum integral of absolute [dens]ity change: 0.0001 electrons / valence electron
 Maximum integral of absolute [eigenst]ate change: 4e-08 eV^2 / valence electron
 Maximum number of scf [iter]ations: 333
 (Square brackets indicate name in SCF output, whereas a 'c' in
 the SCF output indicates the quantity has converged.)

Symmetries present (total): 1

  ( 1  0  0)
  ( 0  1  0)
  ( 0  0  1)

16 k-points: 4 x 4 x 1 Monkhorst-Pack grid
8 k-points in the irreducible part of the Brillouin zone
       k-points in crystal coordinates                weights
   0:     0.12500000   -0.37500000    0.00000000          2/16
   1:     0.12500000   -0.12500000    0.00000000          2/16
   2:     0.12500000    0.12500000    0.00000000          2/16
   3:     0.12500000    0.37500000    0.00000000          2/16
   4:     0.37500000   -0.37500000    0.00000000          2/16
   5:     0.37500000   -0.12500000    0.00000000          2/16
   6:     0.37500000    0.12500000    0.00000000          2/16
   7:     0.37500000    0.37500000    0.00000000          2/16

Wave functions: Uniform real-space grid
  Kinetic energy operator: 6*3+1=19 point O(h^6) finite-difference Laplacian
  ScaLapack parameters: grid=1x1, blocksize=None
  Wavefunction extrapolation:
    Improved wavefunction reuse through dual PAW basis 

Occupation numbers: Fermi-Dirac:
  width: 0.0500  # eV
 

Eigensolver
   Davidson(niter=2) 

Densities:
  Coarse grid: 60*60*164 grid
  Fine grid: 120*120*328 grid
  Total Charge: 0.000000 

Density mixing:
  Method: separate
  Backend: pulay
  Linear mixing parameter: 0.05
  old densities: 5
  Damping of long wavelength oscillations: 50 

Hamiltonian:
  XC and Coulomb potentials evaluated on a 120*120*328 grid
  Using the BEEF-vdW Exchange-Correlation functional
  Interpolation: tri-quintic (5. degree polynomial)
  Poisson solver: FastPoissonSolver using
    Stencil: 6*3+1=19 point O(h^6) finite-difference Laplacian
    FFT axes: [0, 1]
    FST axes: [2]

Dipole correction along z-axis 

XC parameters: BEEF-vdW with 2 nearest neighbor stencil

Memory estimate:
  Process memory now: 125.59 MiB
  Calculator: 84.83 MiB
    Density: 22.60 MiB
      Arrays: 7.22 MiB
      Localized functions: 12.63 MiB
      Mixer: 2.75 MiB
    Hamiltonian: 5.72 MiB
      Arrays: 4.72 MiB
      XC: 0.00 MiB
      Poisson: 0.00 MiB
      vbar: 1.00 MiB
    Wavefunctions: 56.51 MiB
      Arrays psit_nG: 26.37 MiB
      Eigensolver: 29.47 MiB
      Projections: 0.01 MiB
      Projectors: 0.66 MiB

Total number of cores used: 128
Parallelization over k-points: 8
Domain decomposition: 2 x 2 x 4

Number of atoms: 50
Number of atomic orbitals: 176
Number of bands in calculation: 48
Number of valence electrons: 72
Bands to converge: occupied

... initialized

Initializing position-dependent things.

Density initialized from atomic densities
Creating initial wave functions:
  48 bands from LCAO basis set

       .-----------------------.  
      /|                       |  
     / |                       |  
    /  |                       |  
   /   |                       |  
  /    |                       |  
 *     |                       |  
 |     |                       |  
 |     |                       |  
 |     |    H                  |  
 |     |     C    H            |  
 |     |    H               N  H  
 |     |                       |  
 |     |                       |  
 |   H |   H                   |  
 |   Ci|   C Li      Li        |  
 O   H |   H                   |  
 | Li  |  LLi     LLi     Li   |  
 |     |                       |  
 Li    |LLi     LLi     Li     |  
 |   Li|     Li      Li        |  
 |    Li  Li  Li  Li  Li  Li   |  
 | Li  |   Li      Li          |  
 |     |Li      Li      Li     |  
 Li    | Li      Li            |  
 |    Li      Li      Li       |  
 |     |                       |  
 |     |                       |  
 |     |                       |  
 |     |                       |  
 |     |                       |  
 |     |                       |  
 |     .-----------------------.  
 |    /                       /   
 |   /                       /    
 |  /                       /     
 | /                       /      
 |/                       /       
 *-----------------------*        

Positions:
   0 Li     1.617037    1.617037   10.000000    ( 0.0000,  0.0000,  0.0000)
   1 Li     4.851111    1.617037   10.000000    ( 0.0000,  0.0000,  0.0000)
   2 Li     8.085185    1.617037   10.000000    ( 0.0000,  0.0000,  0.0000)
   3 Li     1.617037    4.851111   10.000000    ( 0.0000,  0.0000,  0.0000)
   4 Li     4.851111    4.851111   10.000000    ( 0.0000,  0.0000,  0.0000)
   5 Li     8.085185    4.851111   10.000000    ( 0.0000,  0.0000,  0.0000)
   6 Li     1.617037    8.085185   10.000000    ( 0.0000,  0.0000,  0.0000)
   7 Li     4.851111    8.085185   10.000000    ( 0.0000,  0.0000,  0.0000)
   8 Li     8.085185    8.085185   10.000000    ( 0.0000,  0.0000,  0.0000)
   9 Li     0.000000    0.000000   11.617037    ( 0.0000,  0.0000,  0.0000)
  10 Li     3.234074    0.000000   11.617037    ( 0.0000,  0.0000,  0.0000)
  11 Li     6.468148    0.000000   11.617037    ( 0.0000,  0.0000,  0.0000)
  12 Li     0.000000    3.234074   11.617037    ( 0.0000,  0.0000,  0.0000)
  13 Li     3.234074    3.234074   11.617037    ( 0.0000,  0.0000,  0.0000)
  14 Li     6.468148    3.234074   11.617037    ( 0.0000,  0.0000,  0.0000)
  15 Li     0.000000    6.468148   11.617037    ( 0.0000,  0.0000,  0.0000)
  16 Li     3.234074    6.468148   11.617037    ( 0.0000,  0.0000,  0.0000)
  17 Li     6.468148    6.468148   11.617037    ( 0.0000,  0.0000,  0.0000)
  18 Li     1.617038    1.617038   13.469728    ( 0.0000,  0.0000,  0.0000)
  19 Li     4.851111    1.617038   13.469729    ( 0.0000,  0.0000,  0.0000)
  20 Li     8.085184    1.617038   13.469728    ( 0.0000,  0.0000,  0.0000)
  21 Li     1.617038    4.851111   13.469729    ( 0.0000,  0.0000,  0.0000)
  22 Li     4.851111    4.851111   13.469730    ( 0.0000,  0.0000,  0.0000)
  23 Li     8.085184    4.851111   13.469729    ( 0.0000,  0.0000,  0.0000)
  24 Li     1.617038    8.085184   13.469728    ( 0.0000,  0.0000,  0.0000)
  25 Li     4.851111    8.085184   13.469729    ( 0.0000,  0.0000,  0.0000)
  26 Li     8.085184    8.085184   13.469728    ( 0.0000,  0.0000,  0.0000)
  27 Li    -0.000000   -0.000000   15.445939    ( 0.0000,  0.0000,  0.0000)
  28 Li     3.234074    0.000000   15.445939    ( 0.0000,  0.0000,  0.0000)
  29 Li     6.468148    0.000000   15.445939    ( 0.0000,  0.0000,  0.0000)
  30 Li     0.000000    3.234074   15.445939    ( 0.0000,  0.0000,  0.0000)
  31 Li     3.234076    3.234076   15.445938    ( 0.0000,  0.0000,  0.0000)
  32 Li     6.468146    3.234076   15.445938    ( 0.0000,  0.0000,  0.0000)
  33 Li     0.000000    6.468148   15.445939    ( 0.0000,  0.0000,  0.0000)
  34 Li     3.234076    6.468146   15.445938    ( 0.0000,  0.0000,  0.0000)
  35 Li     6.468146    6.468146   15.445938    ( 0.0000,  0.0000,  0.0000)
  36 O      9.702222    9.702222   18.445939    ( 0.0000,  0.0000,  0.0000)
  37 C     12.136471    9.314601   18.445810    ( 0.0000,  0.0000,  0.0000)
  38 C     10.994282   10.325011   18.435257    ( 0.0000,  0.0000,  0.0000)
  39 C     13.516806    9.977014   18.452171    ( 0.0000,  0.0000,  0.0000)
  40 H     12.017858    8.671752   19.323111    ( 0.0000,  0.0000,  0.0000)
  41 H     12.042557    8.672843   17.560130    ( 0.0000,  0.0000,  0.0000)
  42 H     11.018090   10.944954   19.335148    ( 0.0000,  0.0000,  0.0000)
  43 H     11.087864   10.991914   17.567482    ( 0.0000,  0.0000,  0.0000)
  44 H     13.650343   10.603094   19.337849    ( 0.0000,  0.0000,  0.0000)
  45 H     14.314087    9.232239   18.452977    ( 0.0000,  0.0000,  0.0000)
  46 H     13.658355   10.612530   17.573910    ( 0.0000,  0.0000,  0.0000)
  47 H      9.653460    9.124664   17.674628    ( 0.0000,  0.0000,  0.0000)
  48 N      9.702000    9.702000   16.945939    ( 0.0000,  0.0000,  0.0000)
  49 N      8.605378    9.702000   16.945939    ( 0.0000,  0.0000,  0.0000)

Unit cell:
           periodic     x           y           z      points  spacing
  1. axis:    yes    9.702222    0.000000    0.000000    60     0.1617
  2. axis:    yes    0.000000    9.702222    0.000000    60     0.1617
  3. axis:    no     0.000000    0.000000   26.351111   164     0.1607

  Lengths:   9.702222   9.702222  26.351111
  Angles:   90.000000  90.000000  90.000000

Effective grid spacing dv^(1/3) = 0.1614

     iter     time        total  log10-change:
                         energy  eigst   dens
iter:   1 19:26:35  -571.884699
iter:   2 19:26:42  -145.955195  +2.61  -0.02
iter:   3 19:26:50  -164.022282  +3.11  -0.25
iter:   4 19:26:57  -242.853204  +2.88  -0.37
Writing to output.gpw (mode='')

iter:   5 19:27:05  -281.382597  +2.58  -0.46
iter:   6 19:27:12  -317.005045  +2.30  -0.68
iter:   7 19:27:19  -332.939906  +1.99  -0.65
iter:   8 19:27:26  -339.687733  +1.67  -0.62
iter:   9 19:27:34  -343.300564  +1.62  -0.61
Writing to output.gpw (mode='')

iter:  10 19:27:41  -394.867079  +2.29  -0.71
iter:  11 19:27:48  -524.505572  +2.86  -0.51
iter:  12 19:27:56  -572.153528  +2.53  -0.23
iter:  13 19:28:03  -330.778258  +1.55  -0.16
iter:  14 19:28:10  -329.728077  +1.17  -0.70
Writing to output.gpw (mode='')

iter:  15 19:28:17  -334.216860  +0.73  -0.72
iter:  16 19:28:25  -344.478660  +1.29  -0.74
iter:  17 19:28:32  -330.923693  +1.22  -0.53
iter:  18 19:28:39  -324.423078  +0.80  -0.76
iter:  19 19:28:47  -324.140539  +0.72  -0.90
Writing to output.gpw (mode='')

iter:  20 19:28:54  -322.847943  +0.90  -0.99
iter:  21 19:29:01  -322.485022  +0.85  -1.09
iter:  22 19:29:08  -322.673515  +0.61  -1.06
iter:  23 19:29:16  -322.205308  +0.13  -1.04
iter:  24 19:29:23  -322.537347  +0.42  -1.12
Writing to output.gpw (mode='')

iter:  25 19:29:30  -322.503543  -0.19  -1.18
iter:  26 19:29:37  -322.108881  -0.58  -1.19
iter:  27 19:29:45  -322.304536  -0.31  -1.31
iter:  28 19:29:52  -321.947948  +0.13  -1.29
iter:  29 19:29:59  -322.044285  -0.22  -1.54
Writing to output.gpw (mode='')

iter:  30 19:30:07  -321.916264  -0.80  -1.41
iter:  31 19:30:14  -321.958947  -0.61  -1.70
iter:  32 19:30:21  -321.912852  -0.98  -1.68
iter:  33 19:30:29  -321.914571  -1.21  -1.90
iter:  34 19:30:36  -321.910939c -1.32  -1.95
Writing to output.gpw (mode='')

iter:  35 19:30:52  -321.911560c -1.65  -2.08
iter:  36 19:30:59  -321.918606c -1.45  -2.19
iter:  37 19:31:07  -321.916888c -1.84  -2.22
iter:  38 19:31:14  -321.917439c -2.10  -2.32
iter:  39 19:31:21  -321.921158c -1.88  -2.49
Writing to output.gpw (mode='')

iter:  40 19:31:29  -321.920541c -2.36  -2.49
iter:  41 19:31:36  -321.921100c -2.24  -2.62
iter:  42 19:31:43  -321.922055c -2.56  -2.80
iter:  43 19:31:51  -321.922486c -2.50  -2.83
iter:  44 19:31:58  -321.923159c -2.54  -2.84
Writing to output.gpw (mode='')

iter:  45 19:32:05  -321.923326c -2.91  -2.99
iter:  46 19:32:12  -321.923653c -2.92  -3.26
iter:  47 19:32:20  -321.923797c -3.10  -3.38
iter:  48 19:32:27  -321.923985c -3.00  -3.42
iter:  49 19:32:34  -321.924107c -3.08  -3.44
Writing to output.gpw (mode='')

iter:  50 19:32:42  -321.924181c -3.34  -3.48
iter:  51 19:32:49  -321.924300c -3.34  -3.64
iter:  52 19:32:56  -321.924404c -3.31  -3.72
iter:  53 19:33:04  -321.924473c -3.39  -3.79
iter:  54 19:33:11  -321.924540c -3.47  -3.85
Writing to output.gpw (mode='')

iter:  55 19:33:18  -321.924566c -3.73  -3.91
iter:  56 19:33:25  -321.924604c -3.80  -3.98
iter:  57 19:33:33  -321.924640c -3.84  -4.02c
iter:  58 19:33:40  -321.924668c -3.98  -4.12c
iter:  59 19:33:47  -321.924688c -4.16  -4.44c
Writing to output.gpw (mode='')

iter:  60 19:33:55  -321.924705c -4.14  -4.48c
iter:  61 19:34:02  -321.924720c -4.18  -4.44c
iter:  62 19:34:09  -321.924734c -4.12  -4.39c
iter:  63 19:34:16  -321.924744c -4.31  -4.33c
iter:  64 19:34:24  -321.924756c -4.44  -4.31c
Writing to output.gpw (mode='')

iter:  65 19:34:31  -321.924764c -4.44  -4.20c
iter:  66 19:34:38  -321.924770c -4.55  -4.27c
iter:  67 19:34:46  -321.924776c -4.54  -4.27c
iter:  68 19:34:53  -321.924778c -4.63  -4.19c
iter:  69 19:35:00  -321.924780c -4.71  -4.23c
Writing to output.gpw (mode='')

iter:  70 19:35:07  -321.924776c -4.73  -4.28c
iter:  71 19:35:15  -321.924783c -4.57  -4.27c
iter:  72 19:35:22  -321.924789c -4.88  -4.22c
iter:  73 19:35:29  -321.924793c -4.81  -4.20c
iter:  74 19:35:37  -321.924787c -4.92  -4.17c
Writing to output.gpw (mode='')

iter:  75 19:35:52  -321.924791c -5.18  -4.20c
iter:  76 19:35:59  -321.924777c -5.23  -4.15c
iter:  77 19:36:07  -321.924798c -5.17  -4.21c
iter:  78 19:36:14  -321.924784c -5.26  -4.16c
iter:  79 19:36:21  -321.924775c -5.08  -4.29c
Writing to output.gpw (mode='')

iter:  80 19:36:28  -321.924789c -5.52  -4.36c
iter:  81 19:36:36  -321.924780c -5.42  -4.45c
iter:  82 19:36:43  -321.924781c -5.54  -4.61c
iter:  83 19:36:50  -321.924781c -5.77  -4.77c
iter:  84 19:36:58  -321.924781c -5.85  -4.78c
Writing to output.gpw (mode='')

iter:  85 19:37:05  -321.924781c -5.83  -4.77c
iter:  86 19:37:12  -321.924781c -5.63  -4.73c
iter:  87 19:37:19  -321.924782c -5.85  -4.71c
iter:  88 19:37:27  -321.924782c -5.92  -4.72c
iter:  89 19:37:34  -321.924782c -6.02  -4.67c
Writing to output.gpw (mode='')

iter:  90 19:37:41  -321.924781c -6.02  -4.78c
iter:  91 19:37:49  -321.924781c -6.22  -4.94c
iter:  92 19:37:56  -321.924781c -6.19  -4.98c
iter:  93 19:38:03  -321.924781c -6.42  -5.01c
iter:  94 19:38:10  -321.924780c -6.35  -5.07c
Writing to output.gpw (mode='')

iter:  95 19:38:18  -321.924780c -6.65  -5.27c
iter:  96 19:38:25  -321.924780c -6.69  -5.29c
iter:  97 19:38:32  -321.924781c -6.66  -5.31c
iter:  98 19:38:40  -321.924780c -6.62  -5.49c
iter:  99 19:38:47  -321.924780c -6.54  -5.53c
Writing to output.gpw (mode='')

iter: 100 19:38:54  -321.924780c -6.88  -5.58c
iter: 101 19:39:02  -321.924780c -6.81  -5.63c
iter: 102 19:39:09  -321.924780c -7.02  -5.73c
iter: 103 19:39:16  -321.924780c -7.07  -5.71c
iter: 104 19:39:24  -321.924780c -6.96  -5.68c
Writing to output.gpw (mode='')

iter: 105 19:39:31  -321.924780c -7.16  -5.71c
iter: 106 19:39:38  -321.924780c -7.21  -5.93c
iter: 107 19:39:46  -321.924780c -7.27  -6.03c
iter: 108 19:39:55  -321.924780c -7.17  -5.99c
iter: 109 19:40:02  -321.924780c -7.29  -5.91c
Writing to output.gpw (mode='')

iter: 110 19:40:09  -321.924780c -7.33  -5.90c
iter: 111 19:40:17  -321.924780c -7.51c -5.91c

Converged after 111 iterations.

Dipole moment: (-10.957658, -16.788924, 0.210174) |e|*Ang

Energy contributions relative to reference atoms: (reference = -15487.462483)

Kinetic:       +230.902676
Potential:     -202.499288
External:        +0.000000
XC:            -351.062754
Entropy (-ST):   -0.159474
Local:           +0.814323
--------------------------
Free energy:   -322.004517
Extrapolated:  -321.924780

Dipole-layer corrected work functions: 3.407023, 3.002996 eV

Showing only first 2 kpts
 Kpt  Band  Eigenvalues  Occupancy
  0    34     -3.44170    1.98257
  0    35     -3.35542    1.90589
  0    36     -3.11709    0.29397
  0    37     -2.95523    0.01344

  1    34     -3.29810    1.73100
  1    35     -3.19885    0.93849
  1    36     -3.14055    0.43195
  1    37     -3.08713    0.17292


Fermi level: -3.20501

No gap
Writing to output.gpw (mode='')


Forces in eV/Ang:
  0 Li    0.01023    0.00776   -0.27835
  1 Li   -0.00337   -0.00169   -0.26411
  2 Li   -0.00542    0.01273   -0.27759
  3 Li   -0.00146    0.00066   -0.26856
  4 Li   -0.00367    0.00272   -0.28544
  5 Li    0.00067   -0.00511   -0.26827
  6 Li    0.01802   -0.00646   -0.27847
  7 Li   -0.00809    0.00040   -0.26888
  8 Li   -0.00717   -0.00908   -0.27741
  9 Li   -0.00878    0.00105    0.33600
 10 Li    0.00241   -0.00077    0.24428
 11 Li   -0.00064   -0.00094    0.27873
 12 Li   -0.00055    0.01168    0.26157
 13 Li    0.00602   -0.00683    0.25137
 14 Li   -0.00077    0.00978    0.25975
 15 Li    0.00274   -0.01165    0.25586
 16 Li    0.00171    0.00558    0.25307
 17 Li   -0.00146   -0.00493    0.26382
 18 Li    0.01286    0.00499   -0.01143
 19 Li    0.00417   -0.02235    0.06313
 20 Li   -0.01317    0.03385   -0.05550
 21 Li   -0.00587   -0.00142    0.06878
 22 Li   -0.00376   -0.00708    0.01095
 23 Li    0.00711    0.00548    0.05938
 24 Li    0.00552   -0.00560   -0.01121
 25 Li    0.00439    0.02455    0.07528
 26 Li   -0.00398   -0.03511   -0.07901
 27 Li    0.64249    0.14600   -7.31766
 28 Li    0.07470   -0.01959   -0.20789
 29 Li    0.40382    0.01038    0.26900
 30 Li   -0.01010    0.11571   -0.07223
 31 Li    0.01136    0.05900   -0.08916
 32 Li   -0.01166    0.02781   -0.02061
 33 Li    0.01463   -0.15585   -0.09874
 34 Li    0.01804   -0.04300   -0.06271
 35 Li   -0.04380   -0.04735   -0.02483
 36 O     6.36610    4.07615   16.94173
 37 C     0.11264    0.10012    0.11268
 38 C     1.89219    0.73222    2.78443
 39 C    -0.10128   -0.05944    0.21604
 40 H     0.02361   -0.06668   -0.05815
 41 H     0.00667   -0.15489    0.02901
 42 H     0.14755   -0.00066    0.06335
 43 H    -0.01185    0.11932    0.27655
 44 H    -0.00726    0.05792   -0.00521
 45 H     0.00490   -0.05170   -0.03682
 46 H     0.07559    0.10692   -0.02029
 47 H     1.65051  -11.69035    6.32708
 48 N     5.90585    5.45095  -10.13140
 49 N   -17.12896    1.25528   -8.89385

System changes: positions 

Initializing position-dependent things.

Density initialized from wave functions
       .-----------------------.  
      /|                       |  
     / |                       |  
    /  |                       |  
   /   |                       |  
  /    |                       |  
 *     |                       |  
 |     |                       |  
 |     |                       |  
 |     |    H                  |  
 |     |     C    H            |  
 |     |    H                  H  
 |     |                       |  
 |     |       Li              |  
 |   H |   H                   |  
 |   Ci|   C Li      Li        |  
 O   H |   H                   |  
 N     |  LLi     LLi N   LLi  |  
 |     |                       |  
 Li    |Li      LLi     Li     |  
 |   Li|     Li      Li        |  
 |    Li  Li  Li  Li  Li  Li   |  
 | Li  |   Li      Li          |  
 |     |Li      Li      Li     |  
 Li    | Li      Li            |  
 |    Li      Li      Li       |  
 |     |                       |  
 |     |                       |  
 |     |                       |  
 |     |                       |  
 |     |                       |  
 |     |                       |  
 |     .-----------------------.  
 |    /                       /   
 |   /                       /    
 |  /                       /     
 | /                       /      
 |/                       /       
 *-----------------------*        

Positions:
   0 Li     1.617037    1.617037   10.000000    ( 0.0000,  0.0000,  0.0000)
   1 Li     4.851111    1.617037   10.000000    ( 0.0000,  0.0000,  0.0000)
   2 Li     8.085185    1.617037   10.000000    ( 0.0000,  0.0000,  0.0000)
   3 Li     1.617037    4.851111   10.000000    ( 0.0000,  0.0000,  0.0000)
   4 Li     4.851111    4.851111   10.000000    ( 0.0000,  0.0000,  0.0000)
   5 Li     8.085185    4.851111   10.000000    ( 0.0000,  0.0000,  0.0000)
   6 Li     1.617037    8.085185   10.000000    ( 0.0000,  0.0000,  0.0000)
   7 Li     4.851111    8.085185   10.000000    ( 0.0000,  0.0000,  0.0000)
   8 Li     8.085185    8.085185   10.000000    ( 0.0000,  0.0000,  0.0000)
   9 Li     0.000000    0.000000   11.617037    ( 0.0000,  0.0000,  0.0000)
  10 Li     3.234074    0.000000   11.617037    ( 0.0000,  0.0000,  0.0000)
  11 Li     6.468148    0.000000   11.617037    ( 0.0000,  0.0000,  0.0000)
  12 Li     0.000000    3.234074   11.617037    ( 0.0000,  0.0000,  0.0000)
  13 Li     3.234074    3.234074   11.617037    ( 0.0000,  0.0000,  0.0000)
  14 Li     6.468148    3.234074   11.617037    ( 0.0000,  0.0000,  0.0000)
  15 Li     0.000000    6.468148   11.617037    ( 0.0000,  0.0000,  0.0000)
  16 Li     3.234074    6.468148   11.617037    ( 0.0000,  0.0000,  0.0000)
  17 Li     6.468148    6.468148   11.617037    ( 0.0000,  0.0000,  0.0000)
  18 Li     1.617065    1.617048   13.469704    ( 0.0000,  0.0000,  0.0000)
  19 Li     4.851120    1.616992   13.469860    ( 0.0000,  0.0000,  0.0000)
  20 Li     8.085157    1.617108   13.469613    ( 0.0000,  0.0000,  0.0000)
  21 Li     1.617026    4.851108   13.469872    ( 0.0000,  0.0000,  0.0000)
  22 Li     4.851103    4.851096   13.469753    ( 0.0000,  0.0000,  0.0000)
  23 Li     8.085198    4.851122   13.469852    ( 0.0000,  0.0000,  0.0000)
  24 Li     1.617050    8.085172   13.469705    ( 0.0000,  0.0000,  0.0000)
  25 Li     4.851120    8.085234   13.469885    ( 0.0000,  0.0000,  0.0000)
  26 Li     8.085176    8.085111   13.469564    ( 0.0000,  0.0000,  0.0000)
  27 Li     0.001329    0.000302   15.430805    ( 0.0000,  0.0000,  0.0000)
  28 Li     3.234228   -0.000041   15.445509    ( 0.0000,  0.0000,  0.0000)
  29 Li     6.468983    0.000021   15.446495    ( 0.0000,  0.0000,  0.0000)
  30 Li    -0.000021    3.234313   15.445789    ( 0.0000,  0.0000,  0.0000)
  31 Li     3.234100    3.234198   15.445754    ( 0.0000,  0.0000,  0.0000)
  32 Li     6.468121    3.234134   15.445895    ( 0.0000,  0.0000,  0.0000)
  33 Li     0.000030    6.467826   15.445735    ( 0.0000,  0.0000,  0.0000)
  34 Li     3.234114    6.468057   15.445808    ( 0.0000,  0.0000,  0.0000)
  35 Li     6.468055    6.468048   15.445887    ( 0.0000,  0.0000,  0.0000)
  36 O      9.715388    9.710652   18.480977    ( 0.0000,  0.0000,  0.0000)
  37 C     12.136704    9.314808   18.446043    ( 0.0000,  0.0000,  0.0000)
  38 C     10.998195   10.326525   18.441015    ( 0.0000,  0.0000,  0.0000)
  39 C     13.516596    9.976891   18.452618    ( 0.0000,  0.0000,  0.0000)
  40 H     12.017907    8.671614   19.322990    ( 0.0000,  0.0000,  0.0000)
  41 H     12.042570    8.672523   17.560190    ( 0.0000,  0.0000,  0.0000)
  42 H     11.018395   10.944953   19.335279    ( 0.0000,  0.0000,  0.0000)
  43 H     11.087840   10.992161   17.568054    ( 0.0000,  0.0000,  0.0000)
  44 H     13.650328   10.603214   19.337838    ( 0.0000,  0.0000,  0.0000)
  45 H     14.314098    9.232132   18.452901    ( 0.0000,  0.0000,  0.0000)
  46 H     13.658511   10.612752   17.573868    ( 0.0000,  0.0000,  0.0000)
  47 H      9.656874    9.100487   17.687713    ( 0.0000,  0.0000,  0.0000)
  48 N      9.714214    9.713273   16.924986    ( 0.0000,  0.0000,  0.0000)
  49 N      8.569953    9.704596   16.927546    ( 0.0000,  0.0000,  0.0000)

Unit cell:
           periodic     x           y           z      points  spacing
  1. axis:    yes    9.702222    0.000000    0.000000    60     0.1617
  2. axis:    yes    0.000000    9.702222    0.000000    60     0.1617
  3. axis:    no     0.000000    0.000000   26.351111   164     0.1607

  Lengths:   9.702222   9.702222  26.351111
  Angles:   90.000000  90.000000  90.000000

Effective grid spacing dv^(1/3) = 0.1614

     iter     time        total  log10-change:
                         energy  eigst   dens
iter:   1 19:40:26  -325.601060  -0.27
iter:   2 19:40:34  -324.338139  -0.45  -1.28
iter:   3 19:40:41  -324.058039  -0.67  -1.30
iter:   4 19:40:54  -324.136329  -0.69  -1.58
Writing to output.gpw (mode='')

iter:   5 19:41:01  -323.996463  -1.21  -1.66
iter:   6 19:41:08  -324.013388  -1.29  -1.74
iter:   7 19:41:16  -323.960732  -1.23  -1.68
iter:   8 19:41:23  -323.917163  -2.03  -1.91
iter:   9 19:41:30  -323.899269  -1.94  -2.07
Writing to output.gpw (mode='')

iter:  10 19:41:38  -323.915506c -2.11  -2.32
iter:  11 19:41:45  -323.899103c -2.33  -2.12
iter:  12 19:41:53  -323.896482c -2.49  -2.43
iter:  13 19:42:00  -323.895528c -2.79  -2.60
iter:  14 19:42:07  -323.895674c -3.55  -2.91
Writing to output.gpw (mode='')

iter:  15 19:42:15  -323.895733c -3.79  -2.99
iter:  16 19:42:22  -323.895915c -3.20  -3.03
iter:  17 19:42:29  -323.895777c -3.80  -3.05
iter:  18 19:42:37  -323.895941c -4.15  -3.16
iter:  19 19:42:44  -323.895823c -3.75  -3.21
Writing to output.gpw (mode='')

iter:  20 19:42:51  -323.895822c -4.57  -3.44
iter:  21 19:42:59  -323.895830c -4.84  -3.59
iter:  22 19:43:06  -323.895823c -4.49  -3.68
iter:  23 19:43:14  -323.895819c -4.98  -3.92
iter:  24 19:43:21  -323.895835c -5.05  -4.02c
Writing to output.gpw (mode='')

iter:  25 19:43:28  -323.895833c -4.99  -4.01c
iter:  26 19:43:36  -323.895834c -5.47  -4.05c
iter:  27 19:43:43  -323.895835c -5.53  -4.14c
iter:  28 19:43:50  -323.895837c -5.52  -4.24c
iter:  29 19:43:58  -323.895834c -5.80  -4.54c
Writing to output.gpw (mode='')

iter:  30 19:44:05  -323.895834c -5.57  -4.57c
iter:  31 19:44:13  -323.895835c -5.78  -4.75c
iter:  32 19:44:20  -323.895834c -5.95  -4.86c
iter:  33 19:44:27  -323.895834c -6.03  -4.93c
iter:  34 19:44:35  -323.895833c -6.07  -4.95c
Writing to output.gpw (mode='')

iter:  35 19:44:43  -323.895833c -6.42  -5.00c
iter:  36 19:44:53  -323.895833c -6.51  -5.17c
iter:  37 19:45:05  -323.895834c -6.45  -5.25c
iter:  38 19:45:13  -323.895833c -6.56  -5.25c
iter:  39 19:45:21  -323.895833c -6.58  -5.17c
Writing to output.gpw (mode='')

iter:  40 19:45:28  -323.895833c -6.65  -5.20c
iter:  41 19:45:36  -323.895834c -6.82  -5.23c
iter:  42 19:45:47  -323.895834c -6.85  -5.24c
iter:  43 19:45:58  -323.895834c -7.06  -5.19c
iter:  44 19:46:06  -323.895834c -7.24  -5.30c
Writing to output.gpw (mode='')

iter:  45 19:46:13  -323.895834c -7.20  -5.31c
iter:  46 19:46:20  -323.895833c -7.35  -5.33c
iter:  47 19:46:28  -323.895833c -7.53c -5.49c

Converged after 47 iterations.

Dipole moment: (-13.407232, -18.906253, 0.146876) |e|*Ang

Energy contributions relative to reference atoms: (reference = -15487.462483)

Kinetic:       +217.946538
Potential:     -193.615405
External:        +0.000000
XC:            -348.964575
Entropy (-ST):   -0.161312
Local:           +0.818265
--------------------------
Free energy:   -323.976489
Extrapolated:  -323.895833

Dipole-layer corrected work functions: 3.410709, 3.128363 eV

Showing only first 2 kpts
 Kpt  Band  Eigenvalues  Occupancy
  0    34     -3.49707    1.97910
  0    35     -3.41296    1.89253
  0    36     -3.19738    0.38213
  0    37     -3.01580    0.01243

  1    34     -3.37224    1.77273
  1    35     -3.25793    0.88450
  1    36     -3.19267    0.35383
  1    37     -3.14514    0.15342


Fermi level: -3.26954

No gap
Writing to output.gpw (mode='')


Forces in eV/Ang:
  0 Li    0.01115    0.00806   -0.28038
  1 Li   -0.00363   -0.00141   -0.26411
  2 Li   -0.00605    0.01281   -0.27919
  3 Li   -0.00122    0.00090   -0.26786
  4 Li   -0.00356    0.00279   -0.28636
  5 Li    0.00048   -0.00480   -0.26825
  6 Li    0.01876   -0.00684   -0.28044
  7 Li   -0.00830    0.00028   -0.26882
  8 Li   -0.00742   -0.00942   -0.27921
  9 Li   -0.00828    0.00113    0.34158
 10 Li    0.00253   -0.00070    0.24609
 11 Li   -0.00171   -0.00078    0.27963
 12 Li   -0.00112    0.00988    0.26465
 13 Li    0.00626   -0.00496    0.25081
 14 Li    0.00005    0.01027    0.26057
 15 Li    0.00201   -0.01012    0.25795
 16 Li    0.00213    0.00333    0.25191
 17 Li   -0.00156   -0.00553    0.26430
 18 Li    0.01869    0.00938   -0.02790
 19 Li    0.00263   -0.02225    0.05984
 20 Li   -0.01748    0.03287   -0.06367
 21 Li   -0.00903   -0.00158    0.07182
 22 Li   -0.00276   -0.00787    0.01290
 23 Li    0.00823    0.00507    0.06140
 24 Li    0.01073   -0.00990   -0.02547
 25 Li    0.00297    0.02452    0.07281
 26 Li   -0.00744   -0.03480   -0.08733
 27 Li    0.57325    0.10754   -7.38707
 28 Li    0.06925   -0.01893   -0.18267
 29 Li    0.45108    0.01248    0.31900
 30 Li   -0.01133    0.10136   -0.05517
 31 Li    0.01340    0.06093   -0.08679
 32 Li   -0.01313    0.02729   -0.01767
 33 Li    0.01241   -0.14223   -0.08547
 34 Li    0.01950   -0.04492   -0.06256
 35 Li   -0.04389   -0.04725   -0.02229
 36 O     4.97729    2.79664   13.06423
 37 C     0.18425    0.11592    0.13119
 38 C     1.75317    0.75154    2.51415
 39 C    -0.06940   -0.08608    0.18797
 40 H     0.03093   -0.07074   -0.05351
 41 H    -0.00886   -0.13424    0.03697
 42 H     0.30905    0.14996    0.22151
 43 H     0.03292    0.09235    0.37128
 44 H    -0.00685    0.05702   -0.00394
 45 H     0.01500   -0.04110   -0.03297
 46 H     0.07242    0.10229   -0.01116
 47 H     1.48000   -8.28162    4.86008
 48 N     0.49299    3.40440   -6.36335
 49 N   -10.34554    1.05365   -7.33028

System changes: positions 

Initializing position-dependent things.

Density initialized from wave functions
       .-----------------------.  
      /|                       |  
     / |                       |  
    /  |                       |  
   /   |                       |  
  /    |                       |  
 *     |                       |  
 |     |                       |  
 |     |                       |  
 |     |    H                  |  
 |     |     C    H            |  
 |     |    H                  H  
 |     |                       |  
 |     |       Li              |  
 |   H |   H                   |  
 |   Ci|   C Li      Li        |  
 O   H |   H                   |  
 |     |  LLi     LLi N  NLLi  |  
 |     |                       |  
 Li    |Li      LLi     Li     |  
 |   Li|     Li      Li        |  
 |    Li  Li  Li  Li  Li  Li   |  
 | Li  |   Li      Li          |  
 |     |Li      Li      Li     |  
 Li    | Li      Li            |  
 |    Li      Li      Li       |  
 |     |                       |  
 |     |                       |  
 |     |                       |  
 |     |                       |  
 |     |                       |  
 |     |                       |  
 |     .-----------------------.  
 |    /                       /   
 |   /                       /    
 |  /                       /     
 | /                       /      
 |/                       /       
 *-----------------------*        

Positions:
   0 Li     1.617037    1.617037   10.000000    ( 0.0000,  0.0000,  0.0000)
   1 Li     4.851111    1.617037   10.000000    ( 0.0000,  0.0000,  0.0000)
   2 Li     8.085185    1.617037   10.000000    ( 0.0000,  0.0000,  0.0000)
   3 Li     1.617037    4.851111   10.000000    ( 0.0000,  0.0000,  0.0000)
   4 Li     4.851111    4.851111   10.000000    ( 0.0000,  0.0000,  0.0000)
   5 Li     8.085185    4.851111   10.000000    ( 0.0000,  0.0000,  0.0000)
   6 Li     1.617037    8.085185   10.000000    ( 0.0000,  0.0000,  0.0000)
   7 Li     4.851111    8.085185   10.000000    ( 0.0000,  0.0000,  0.0000)
   8 Li     8.085185    8.085185   10.000000    ( 0.0000,  0.0000,  0.0000)
   9 Li     0.000000    0.000000   11.617037    ( 0.0000,  0.0000,  0.0000)
  10 Li     3.234074    0.000000   11.617037    ( 0.0000,  0.0000,  0.0000)
  11 Li     6.468148    0.000000   11.617037    ( 0.0000,  0.0000,  0.0000)
  12 Li     0.000000    3.234074   11.617037    ( 0.0000,  0.0000,  0.0000)
  13 Li     3.234074    3.234074   11.617037    ( 0.0000,  0.0000,  0.0000)
  14 Li     6.468148    3.234074   11.617037    ( 0.0000,  0.0000,  0.0000)
  15 Li     0.000000    6.468148   11.617037    ( 0.0000,  0.0000,  0.0000)
  16 Li     3.234074    6.468148   11.617037    ( 0.0000,  0.0000,  0.0000)
  17 Li     6.468148    6.468148   11.617037    ( 0.0000,  0.0000,  0.0000)
  18 Li     1.617169    1.617107   13.469513    ( 0.0000,  0.0000,  0.0000)
  19 Li     4.851124    1.616900   13.470095    ( 0.0000,  0.0000,  0.0000)
  20 Li     8.085064    1.617241   13.469311    ( 0.0000,  0.0000,  0.0000)
  21 Li     1.616974    4.851101   13.470185    ( 0.0000,  0.0000,  0.0000)
  22 Li     4.851096    4.851060   13.469816    ( 0.0000,  0.0000,  0.0000)
  23 Li     8.085238    4.851142   13.470117    ( 0.0000,  0.0000,  0.0000)
  24 Li     1.617118    8.085112   13.469534    ( 0.0000,  0.0000,  0.0000)
  25 Li     4.851126    8.085336   13.470177    ( 0.0000,  0.0000,  0.0000)
  26 Li     8.085129    8.084968   13.469163    ( 0.0000,  0.0000,  0.0000)
  27 Li     0.003404    0.000576   15.399696    ( 0.0000,  0.0000,  0.0000)
  28 Li     3.234492   -0.000116   15.444862    ( 0.0000,  0.0000,  0.0000)
  29 Li     6.471078    0.000083   15.448052    ( 0.0000,  0.0000,  0.0000)
  30 Li    -0.000074    3.234670   15.445637    ( 0.0000,  0.0000,  0.0000)
  31 Li     3.234165    3.234461   15.445403    ( 0.0000,  0.0000,  0.0000)
  32 Li     6.468060    3.234245   15.445835    ( 0.0000,  0.0000,  0.0000)
  33 Li     0.000072    6.467295   15.445439    ( 0.0000,  0.0000,  0.0000)
  34 Li     3.234202    6.467861   15.445548    ( 0.0000,  0.0000,  0.0000)
  35 Li     6.467872    6.467851   15.445805    ( 0.0000,  0.0000,  0.0000)
  36 O      9.729826    9.716497   18.517820    ( 0.0000,  0.0000,  0.0000)
  37 C     12.137797    9.315363   18.446674    ( 0.0000,  0.0000,  0.0000)
  38 C     11.004872   10.329746   18.450268    ( 0.0000,  0.0000,  0.0000)
  39 C     13.516452    9.976411   18.453274    ( 0.0000,  0.0000,  0.0000)
  40 H     12.018069    8.671300   19.322788    ( 0.0000,  0.0000,  0.0000)
  41 H     12.042463    8.672057   17.560381    ( 0.0000,  0.0000,  0.0000)
  42 H     11.020417   10.946262   19.336921    ( 0.0000,  0.0000,  0.0000)
  43 H     11.088180   10.992423   17.570033    ( 0.0000,  0.0000,  0.0000)
  44 H     13.650301   10.603447   19.337828    ( 0.0000,  0.0000,  0.0000)
  45 H     14.314206    9.232009   18.452781    ( 0.0000,  0.0000,  0.0000)
  46 H     13.658799   10.613157   17.573863    ( 0.0000,  0.0000,  0.0000)
  47 H      9.662269    9.081451   17.701308    ( 0.0000,  0.0000,  0.0000)
  48 N      9.691676    9.718167   16.915580    ( 0.0000,  0.0000,  0.0000)
  49 N      8.557647    9.708072   16.904093    ( 0.0000,  0.0000,  0.0000)

Unit cell:
           periodic     x           y           z      points  spacing
  1. axis:    yes    9.702222    0.000000    0.000000    60     0.1617
  2. axis:    yes    0.000000    9.702222    0.000000    60     0.1617
  3. axis:    no     0.000000    0.000000   26.351111   164     0.1607

  Lengths:   9.702222   9.702222  26.351111
  Angles:   90.000000  90.000000  90.000000

Effective grid spacing dv^(1/3) = 0.1614

     iter     time        total  log10-change:
                         energy  eigst   dens
iter:   1 19:46:37  -325.292202  -0.69
iter:   2 19:46:44  -325.267995  -1.07  -1.86
iter:   3 19:46:52  -325.254641  -1.56  -1.85
iter:   4 19:46:59  -325.228359  -1.53  -2.02
Writing to output.gpw (mode='')

iter:   5 19:47:06  -325.240048c -1.85  -2.13
iter:   6 19:47:14  -325.230286c -2.14  -2.11
iter:   7 19:47:21  -325.217089c -1.89  -2.21
iter:   8 19:47:28  -325.216469c -2.35  -2.45
iter:   9 19:47:36  -325.216205c -2.50  -2.60
Writing to output.gpw (mode='')

iter:  10 19:47:43  -325.216325c -2.83  -2.72
iter:  11 19:47:50  -325.215998c -3.32  -2.95
iter:  12 19:47:58  -325.216148c -3.40  -3.12
iter:  13 19:48:05  -325.215998c -3.69  -3.11
iter:  14 19:48:12  -325.216205c -3.64  -3.19
Writing to output.gpw (mode='')

iter:  15 19:48:19  -325.216116c -4.12  -3.27
iter:  16 19:48:27  -325.216104c -4.42  -3.41
iter:  17 19:48:34  -325.216086c -4.22  -3.48
iter:  18 19:48:42  -325.216084c -4.59  -3.73
iter:  19 19:48:49  -325.216087c -4.65  -3.71
Writing to output.gpw (mode='')

iter:  20 19:48:56  -325.216100c -5.09  -3.73
iter:  21 19:49:04  -325.216117c -4.80  -3.83
iter:  22 19:49:11  -325.216100c -5.32  -4.00
iter:  23 19:49:18  -325.216106c -5.13  -4.21c
iter:  24 19:49:26  -325.216114c -5.39  -4.28c
Writing to output.gpw (mode='')

iter:  25 19:49:33  -325.216107c -5.63  -4.23c
iter:  26 19:49:40  -325.216123c -5.53  -4.32c
iter:  27 19:49:47  -325.216111c -5.67  -4.35c
iter:  28 19:49:55  -325.216110c -5.57  -4.56c
iter:  29 19:50:02  -325.216119c -5.86  -4.58c
Writing to output.gpw (mode='')

iter:  30 19:50:09  -325.216112c -5.98  -4.64c
iter:  31 19:50:17  -325.216115c -6.13  -4.85c
iter:  32 19:50:24  -325.216115c -6.31  -4.91c
iter:  33 19:50:32  -325.216114c -6.20  -4.91c
iter:  34 19:50:39  -325.216116c -6.40  -4.83c
Writing to output.gpw (mode='')

iter:  35 19:50:53  -325.216114c -6.43  -4.94c
iter:  36 19:51:00  -325.216115c -6.71  -5.01c
iter:  37 19:51:07  -325.216116c -6.76  -5.08c
iter:  38 19:51:15  -325.216117c -6.50  -5.21c
iter:  39 19:51:22  -325.216117c -6.78  -5.36c
Writing to output.gpw (mode='')

iter:  40 19:51:29  -325.216117c -6.79  -5.41c
iter:  41 19:51:37  -325.216117c -6.91  -5.47c
iter:  42 19:51:44  -325.216117c -6.98  -5.69c
iter:  43 19:51:52  -325.216117c -7.17  -5.68c
iter:  44 19:51:59  -325.216117c -7.20  -5.84c
Writing to output.gpw (mode='')

iter:  45 19:52:06  -325.216117c -7.51c -5.83c

Converged after 45 iterations.

Dipole moment: (-12.405382, -20.156531, 0.121912) |e|*Ang

Energy contributions relative to reference atoms: (reference = -15487.462483)

Kinetic:       +213.652354
Potential:     -191.334781
External:        +0.000000
XC:            -348.268366
Entropy (-ST):   -0.160214
Local:           +0.814783
--------------------------
Free energy:   -325.296224
Extrapolated:  -325.216117

Dipole-layer corrected work functions: 3.411136, 3.176778 eV

Showing only first 2 kpts
 Kpt  Band  Eigenvalues  Occupancy
  0    34     -3.52458    1.98034
  0    35     -3.43943    1.89662
  0    36     -3.21725    0.35480
  0    37     -3.04029    0.01244

  1    34     -3.39734    1.77543
  1    35     -3.28179    0.87896
  1    36     -3.21522    0.34311
  1    37     -3.17688    0.17548


Fermi level: -3.29396

No gap

Forces in eV/Ang:
  0 Li    0.01095    0.00769   -0.28076
  1 Li   -0.00333   -0.00171   -0.26303
  2 Li   -0.00626    0.01343   -0.27955
  3 Li   -0.00205    0.00126   -0.26711
  4 Li   -0.00301    0.00291   -0.28691
  5 Li    0.00049   -0.00497   -0.26806
  6 Li    0.01891   -0.00660   -0.28087
  7 Li   -0.00838    0.00071   -0.26819
  8 Li   -0.00719   -0.00988   -0.27987
  9 Li   -0.00864    0.00151    0.34558
 10 Li    0.00282   -0.00085    0.24709
 11 Li   -0.00231   -0.00072    0.27874
 12 Li   -0.00088    0.01007    0.26507
 13 Li    0.00728   -0.00442    0.25044
 14 Li   -0.00064    0.01166    0.25883
 15 Li    0.00236   -0.01071    0.25684
 16 Li    0.00200    0.00250    0.25156
 17 Li   -0.00208   -0.00673    0.26313
 18 Li    0.02318    0.01425   -0.03585
 19 Li    0.00401   -0.02168    0.05991
 20 Li   -0.02312    0.03613   -0.06773
 21 Li   -0.00817   -0.00207    0.07129
 22 Li   -0.00372   -0.00858    0.01270
 23 Li    0.00858    0.00478    0.06154
 24 Li    0.01309   -0.01468   -0.02952
 25 Li    0.00450    0.02414    0.07362
 26 Li   -0.01189   -0.03939   -0.09461
 27 Li    0.64285    0.09361   -6.70602
 28 Li    0.06830   -0.01848   -0.17195
 29 Li    0.42391    0.01553    0.30264
 30 Li   -0.01059    0.10063   -0.05494
 31 Li    0.01270    0.05968   -0.08454
 32 Li   -0.01342    0.02732   -0.02060
 33 Li    0.01479   -0.14621   -0.08961
 34 Li    0.01778   -0.04323   -0.06093
 35 Li   -0.04432   -0.04836   -0.02451
 36 O     3.92868    1.64206   10.55774
 37 C     0.24398    0.11529    0.17079
 38 C     1.47826    0.57790    2.03406
 39 C    -0.01408   -0.08200    0.14902
 40 H     0.04096   -0.07630   -0.04806
 41 H    -0.03102   -0.09689    0.04738
 42 H     0.44739    0.34194    0.39815
 43 H     0.03015    0.04846    0.41104
 44 H    -0.00598    0.05354    0.00020
 45 H     0.02558   -0.03760   -0.03017
 46 H     0.06695    0.08552    0.01005
 47 H     1.71687   -6.06971    4.62358
 48 N     0.91237    2.38597   -5.19846
 49 N    -9.91090    1.04063   -6.18108

System changes: positions 

Initializing position-dependent things.

Density initialized from wave functions
       .-----------------------.  
      /|                       |  
     / |                       |  
    /  |                       |  
   /   |                       |  
  /    |                       |  
 *     |                       |  
 |     |                       |  
 |     |                       |  
 |     |    H                  |  
 |     |     C    H            |  
 |     |    H                  H  
 |     |                       |  
 |     |       Li              |  
 |   H |   H                   |  
 O   Ci|   C Li      Li        |  
 |   H |   H                   |  
 |     |  LLi     LLi N  NLLi  |  
 |     |                       |  
 Li    |Li      LLi     Li     |  
 |   Li|     Li      Li        |  
 |    Li  Li  Li  Li  Li  Li   |  
 | Li  |   Li      Li          |  
 |     |Li      Li      Li     |  
 Li    | Li      Li            |  
 |    Li      Li      Li       |  
 |     |                       |  
 |     |                       |  
 |     |                       |  
 |     |                       |  
 |     |                       |  
 |     |                       |  
 |     .-----------------------.  
 |    /                       /   
 |   /                       /    
 |  /                       /     
 | /                       /      
 |/                       /       
 *-----------------------*        

Positions:
   0 Li     1.617037    1.617037   10.000000    ( 0.0000,  0.0000,  0.0000)
   1 Li     4.851111    1.617037   10.000000    ( 0.0000,  0.0000,  0.0000)
   2 Li     8.085185    1.617037   10.000000    ( 0.0000,  0.0000,  0.0000)
   3 Li     1.617037    4.851111   10.000000    ( 0.0000,  0.0000,  0.0000)
   4 Li     4.851111    4.851111   10.000000    ( 0.0000,  0.0000,  0.0000)
   5 Li     8.085185    4.851111   10.000000    ( 0.0000,  0.0000,  0.0000)
   6 Li     1.617037    8.085185   10.000000    ( 0.0000,  0.0000,  0.0000)
   7 Li     4.851111    8.085185   10.000000    ( 0.0000,  0.0000,  0.0000)
   8 Li     8.085185    8.085185   10.000000    ( 0.0000,  0.0000,  0.0000)
   9 Li     0.000000    0.000000   11.617037    ( 0.0000,  0.0000,  0.0000)
  10 Li     3.234074    0.000000   11.617037    ( 0.0000,  0.0000,  0.0000)
  11 Li     6.468148    0.000000   11.617037    ( 0.0000,  0.0000,  0.0000)
  12 Li     0.000000    3.234074   11.617037    ( 0.0000,  0.0000,  0.0000)
  13 Li     3.234074    3.234074   11.617037    ( 0.0000,  0.0000,  0.0000)
  14 Li     6.468148    3.234074   11.617037    ( 0.0000,  0.0000,  0.0000)
  15 Li     0.000000    6.468148   11.617037    ( 0.0000,  0.0000,  0.0000)
  16 Li     3.234074    6.468148   11.617037    ( 0.0000,  0.0000,  0.0000)
  17 Li     6.468148    6.468148   11.617037    ( 0.0000,  0.0000,  0.0000)
  18 Li     1.617383    1.617257   13.469137    ( 0.0000,  0.0000,  0.0000)
  19 Li     4.851152    1.616762   13.470472    ( 0.0000,  0.0000,  0.0000)
  20 Li     8.084851    1.617496   13.468795    ( 0.0000,  0.0000,  0.0000)
  21 Li     1.616910    4.851083   13.470666    ( 0.0000,  0.0000,  0.0000)
  22 Li     4.851070    4.850995   13.469908    ( 0.0000,  0.0000,  0.0000)
  23 Li     8.085302    4.851169   13.470534    ( 0.0000,  0.0000,  0.0000)
  24 Li     1.617247    8.084960   13.469238    ( 0.0000,  0.0000,  0.0000)
  25 Li     4.851159    8.085492   13.470655    ( 0.0000,  0.0000,  0.0000)
  26 Li     8.085002    8.084678   13.468447    ( 0.0000,  0.0000,  0.0000)
  27 Li     0.007757    0.000897   15.359935    ( 0.0000,  0.0000,  0.0000)
  28 Li     3.234907   -0.000231   15.443935    ( 0.0000,  0.0000,  0.0000)
  29 Li     6.473923    0.000217   15.450187    ( 0.0000,  0.0000,  0.0000)
  30 Li    -0.000145    3.235253   15.445365    ( 0.0000,  0.0000,  0.0000)
  31 Li     3.234254    3.234855   15.444874    ( 0.0000,  0.0000,  0.0000)
  32 Li     6.467962    3.234423   15.445695    ( 0.0000,  0.0000,  0.0000)
  33 Li     0.000174    6.466376   15.444889    ( 0.0000,  0.0000,  0.0000)
  34 Li     3.234314    6.467578   15.445160    ( 0.0000,  0.0000,  0.0000)
  35 Li     6.467577    6.467526   15.445642    ( 0.0000,  0.0000,  0.0000)
  36 O      9.741262    9.712721   18.549956    ( 0.0000,  0.0000,  0.0000)
  37 C     12.140184    9.316199   18.448166    ( 0.0000,  0.0000,  0.0000)
  38 C     11.011979   10.332446   18.458936    ( 0.0000,  0.0000,  0.0000)
  39 C     13.516906    9.975763   18.453840    ( 0.0000,  0.0000,  0.0000)
  40 H     12.018445    8.670739   19.322534    ( 0.0000,  0.0000,  0.0000)
  41 H     12.042026    8.671784   17.560805    ( 0.0000,  0.0000,  0.0000)
  42 H     11.025149   10.950615   19.341577    ( 0.0000,  0.0000,  0.0000)
  43 H     11.088590   10.992299   17.573500    ( 0.0000,  0.0000,  0.0000)
  44 H     13.650270   10.603771   19.337864    ( 0.0000,  0.0000,  0.0000)
  45 H     14.314499    9.231841   18.452621    ( 0.0000,  0.0000,  0.0000)
  46 H     13.659185   10.613580   17.574123    ( 0.0000,  0.0000,  0.0000)
  47 H      9.674322    9.074385   17.722527    ( 0.0000,  0.0000,  0.0000)
  48 N      9.672684    9.716273   16.908857    ( 0.0000,  0.0000,  0.0000)
  49 N      8.530414    9.713789   16.879437    ( 0.0000,  0.0000,  0.0000)

Unit cell:
           periodic     x           y           z      points  spacing
  1. axis:    yes    9.702222    0.000000    0.000000    60     0.1617
  2. axis:    yes    0.000000    9.702222    0.000000    60     0.1617
  3. axis:    no     0.000000    0.000000   26.351111   164     0.1607

  Lengths:   9.702222   9.702222  26.351111
  Angles:   90.000000  90.000000  90.000000

Effective grid spacing dv^(1/3) = 0.1614

     iter     time        total  log10-change:
                         energy  eigst   dens
iter:   1 19:52:15  -326.454882  -0.76
iter:   2 19:52:23  -326.471463  -1.18  -1.85
iter:   3 19:52:30  -326.421996  -1.77  -1.75
iter:   4 19:52:37  -326.418359  -2.04  -2.23
Writing to output.gpw (mode='')

iter:   5 19:52:45  -326.412829c -1.69  -2.37
iter:   6 19:52:52  -326.412962c -2.40  -2.48
iter:   7 19:53:00  -326.414178c -2.34  -2.48
iter:   8 19:53:07  -326.412405c -2.66  -2.47
iter:   9 19:53:14  -326.412153c -2.94  -2.65
Writing to output.gpw (mode='')

iter:  10 19:53:22  -326.412254c -3.08  -2.77
iter:  11 19:53:29  -326.412162c -3.59  -3.15
iter:  12 19:53:37  -326.412200c -3.61  -3.29
iter:  13 19:53:44  -326.412195c -3.94  -3.47
iter:  14 19:53:52  -326.412220c -4.15  -3.48
Writing to output.gpw (mode='')

iter:  15 19:53:59  -326.412165c -4.08  -3.49
iter:  16 19:54:06  -326.412183c -4.30  -3.64
iter:  17 19:54:14  -326.412217c -4.67  -3.79
iter:  18 19:54:21  -326.412213c -4.84  -3.83
iter:  19 19:54:29  -326.412219c -4.96  -3.90
Writing to output.gpw (mode='')

iter:  20 19:54:36  -326.412215c -5.06  -3.91
iter:  21 19:54:43  -326.412226c -5.24  -4.00
iter:  22 19:54:51  -326.412226c -5.19  -4.21c
iter:  23 19:54:58  -326.412226c -5.21  -4.21c
iter:  24 19:55:06  -326.412224c -5.52  -4.23c
Writing to output.gpw (mode='')

iter:  25 19:55:13  -326.412230c -5.57  -4.33c
iter:  26 19:55:20  -326.412227c -5.58  -4.45c
iter:  27 19:55:28  -326.412225c -5.71  -4.45c
iter:  28 19:55:35  -326.412226c -5.99  -4.60c
iter:  29 19:55:50  -326.412223c -5.93  -4.67c
Writing to output.gpw (mode='')

iter:  30 19:55:59  -326.412226c -6.25  -4.80c
iter:  31 19:56:06  -326.412225c -6.23  -4.87c
iter:  32 19:56:14  -326.412225c -6.46  -4.91c
iter:  33 19:56:21  -326.412226c -6.15  -4.95c
iter:  34 19:56:28  -326.412226c -6.72  -5.03c
Writing to output.gpw (mode='')

iter:  35 19:56:36  -326.412226c -6.74  -5.11c
iter:  36 19:56:43  -326.412226c -6.40  -5.29c
iter:  37 19:56:51  -326.412226c -7.03  -5.45c
iter:  38 19:56:58  -326.412226c -6.57  -5.53c
iter:  39 19:57:05  -326.412226c -6.72  -5.43c
Writing to output.gpw (mode='')

iter:  40 19:57:13  -326.412226c -7.30  -5.48c
iter:  41 19:57:20  -326.412226c -7.16  -5.45c
iter:  42 19:57:27  -326.412226c -7.40  -5.45c
iter:  43 19:57:35  -326.412226c -7.33  -5.45c
iter:  44 19:57:42  -326.412226c -7.07  -5.41c
Writing to output.gpw (mode='')

iter:  45 19:57:49  -326.412226c -7.61c -5.32c

Converged after 45 iterations.

Dipole moment: (-11.600867, -20.182035, 0.098031) |e|*Ang

Energy contributions relative to reference atoms: (reference = -15487.462483)

Kinetic:       +207.728289
Potential:     -187.577213
External:        +0.000000
XC:            -347.292952
Entropy (-ST):   -0.159817
Local:           +0.809558
--------------------------
Free energy:   -326.492135
Extrapolated:  -326.412226

Dipole-layer corrected work functions: 3.411837, 3.223387 eV

Showing only first 2 kpts
 Kpt  Band  Eigenvalues  Occupancy
  0    34     -3.54436    1.97877
  0    35     -3.46337    1.89719
  0    36     -3.24037    0.35166
  0    37     -3.06372    0.01239

  1    34     -3.42290    1.78294
  1    35     -3.30445    0.86916
  1    36     -3.23458    0.31936
  1    37     -3.20275    0.18269


Fermi level: -3.31761

No gap

Forces in eV/Ang:
  0 Li    0.01115    0.00737   -0.28208
  1 Li   -0.00360   -0.00186   -0.26230
  2 Li   -0.00627    0.01376   -0.28071
  3 Li   -0.00252    0.00130   -0.26661
  4 Li   -0.00279    0.00283   -0.28787
  5 Li    0.00049   -0.00514   -0.26758
  6 Li    0.01917   -0.00624   -0.28219
  7 Li   -0.00870    0.00108   -0.26758
  8 Li   -0.00702   -0.01008   -0.28116
  9 Li   -0.00890    0.00161    0.35144
 10 Li    0.00296   -0.00098    0.24767
 11 Li   -0.00281   -0.00071    0.27970
 12 Li   -0.00078    0.00971    0.26627
 13 Li    0.00807   -0.00351    0.24980
 14 Li   -0.00106    0.01318    0.25797
 15 Li    0.00243   -0.01044    0.25783
 16 Li    0.00259    0.00153    0.25118
 17 Li   -0.00282   -0.00816    0.26259
 18 Li    0.03076    0.02086   -0.04714
 19 Li    0.00501   -0.02133    0.05906
 20 Li   -0.03005    0.04121   -0.07638
 21 Li   -0.00828   -0.00213    0.07110
 22 Li   -0.00376   -0.00916    0.01274
 23 Li    0.00882    0.00448    0.06189
 24 Li    0.01973   -0.02138   -0.03988
 25 Li    0.00578    0.02404    0.07341
 26 Li   -0.01874   -0.04521   -0.10510
 27 Li    0.62606    0.10403   -5.67768
 28 Li    0.06664   -0.01772   -0.16198
 29 Li    0.42869    0.01842    0.31245
 30 Li   -0.01014    0.09543   -0.05060
 31 Li    0.01233    0.05850   -0.08287
 32 Li   -0.01411    0.02822   -0.02193
 33 Li    0.01565   -0.14278   -0.08620
 34 Li    0.01701   -0.04244   -0.05988
 35 Li   -0.04483   -0.04842   -0.02467
 36 O     3.10274    1.19658    8.94687
 37 C     0.26473    0.09237    0.16780
 38 C     1.19950    0.43915    1.72354
 39 C     0.04121   -0.06045    0.12892
 40 H     0.05757   -0.08217   -0.03320
 41 H    -0.04148   -0.04904    0.07437
 42 H     0.51584    0.40866    0.44919
 43 H    -0.00147    0.00463    0.43478
 44 H     0.00077    0.04697    0.00018
 45 H     0.04598   -0.04000   -0.02685
 46 H     0.06298    0.07108    0.02432
 47 H     1.69212   -4.83478    4.13923
 48 N    -0.31174    1.70817   -4.98894
 49 N    -7.73836    0.94677   -5.14183

System changes: positions 

Initializing position-dependent things.

Density initialized from wave functions
       .-----------------------.  
      /|                       |  
     / |                       |  
    /  |                       |  
   /   |                       |  
  /    |                       |  
 *     |                       |  
 |     |                       |  
 |     |                       |  
 |     |    H                  |  
 |     |     C    H            |  
 |     |    H                  H  
 |     |                       |  
 |     |       Li              |  
 |   H |   H                   |  
 O   Ci|   C Li      Li        |  
 |   H |   H                   |  
 |     |  LLi     LLi    NLLi  |  
 |     |              N        |  
 Li    |Li      LLi     Li     |  
 |   Li|     Li      Li        |  
 |    Li  Li  Li  Li  Li  Li   |  
 | Li  |   Li      Li          |  
 |     |Li      Li      Li     |  
 Li    | Li      Li            |  
 |    Li      Li      Li       |  
 |     |                       |  
 |     |                       |  
 |     |                       |  
 |     |                       |  
 |     |                       |  
 |     |                       |  
 |     .-----------------------.  
 |    /                       /   
 |   /                       /    
 |  /                       /     
 | /                       /      
 |/                       /       
 *-----------------------*        

Positions:
   0 Li     1.617037    1.617037   10.000000    ( 0.0000,  0.0000,  0.0000)
   1 Li     4.851111    1.617037   10.000000    ( 0.0000,  0.0000,  0.0000)
   2 Li     8.085185    1.617037   10.000000    ( 0.0000,  0.0000,  0.0000)
   3 Li     1.617037    4.851111   10.000000    ( 0.0000,  0.0000,  0.0000)
   4 Li     4.851111    4.851111   10.000000    ( 0.0000,  0.0000,  0.0000)
   5 Li     8.085185    4.851111   10.000000    ( 0.0000,  0.0000,  0.0000)
   6 Li     1.617037    8.085185   10.000000    ( 0.0000,  0.0000,  0.0000)
   7 Li     4.851111    8.085185   10.000000    ( 0.0000,  0.0000,  0.0000)
   8 Li     8.085185    8.085185   10.000000    ( 0.0000,  0.0000,  0.0000)
   9 Li     0.000000    0.000000   11.617037    ( 0.0000,  0.0000,  0.0000)
  10 Li     3.234074    0.000000   11.617037    ( 0.0000,  0.0000,  0.0000)
  11 Li     6.468148    0.000000   11.617037    ( 0.0000,  0.0000,  0.0000)
  12 Li     0.000000    3.234074   11.617037    ( 0.0000,  0.0000,  0.0000)
  13 Li     3.234074    3.234074   11.617037    ( 0.0000,  0.0000,  0.0000)
  14 Li     6.468148    3.234074   11.617037    ( 0.0000,  0.0000,  0.0000)
  15 Li     0.000000    6.468148   11.617037    ( 0.0000,  0.0000,  0.0000)
  16 Li     3.234074    6.468148   11.617037    ( 0.0000,  0.0000,  0.0000)
  17 Li     6.468148    6.468148   11.617037    ( 0.0000,  0.0000,  0.0000)
  18 Li     1.617758    1.617536   13.468524    ( 0.0000,  0.0000,  0.0000)
  19 Li     4.851206    1.616579   13.470978    ( 0.0000,  0.0000,  0.0000)
  20 Li     8.084484    1.617911   13.468001    ( 0.0000,  0.0000,  0.0000)
  21 Li     1.616829    4.851059   13.471305    ( 0.0000,  0.0000,  0.0000)
  22 Li     4.851034    4.850901   13.470028    ( 0.0000,  0.0000,  0.0000)
  23 Li     8.085389    4.851203   13.471094    ( 0.0000,  0.0000,  0.0000)
  24 Li     1.617501    8.084677   13.468732    ( 0.0000,  0.0000,  0.0000)
  25 Li     4.851223    8.085702   13.471300    ( 0.0000,  0.0000,  0.0000)
  26 Li     8.084748    8.084211   13.467363    ( 0.0000,  0.0000,  0.0000)
  27 Li     0.013427    0.001615   15.320345    ( 0.0000,  0.0000,  0.0000)
  28 Li     3.235458   -0.000378   15.442743    ( 0.0000,  0.0000,  0.0000)
  29 Li     6.477757    0.000429   15.453111    ( 0.0000,  0.0000,  0.0000)
  30 Li    -0.000232    3.236003   15.445016    ( 0.0000,  0.0000,  0.0000)
  31 Li     3.234365    3.235366   15.444175    ( 0.0000,  0.0000,  0.0000)
  32 Li     6.467824    3.234676   15.445483    ( 0.0000,  0.0000,  0.0000)
  33 Li     0.000326    6.465158   15.444170    ( 0.0000,  0.0000,  0.0000)
  34 Li     3.234454    6.467210   15.444647    ( 0.0000,  0.0000,  0.0000)
  35 Li     6.467172    6.467088   15.445417    ( 0.0000,  0.0000,  0.0000)
  36 O      9.750282    9.706771   18.584868    ( 0.0000,  0.0000,  0.0000)
  37 C     12.143400    9.316945   18.450007    ( 0.0000,  0.0000,  0.0000)
  38 C     11.018361   10.334330   18.467715    ( 0.0000,  0.0000,  0.0000)
  39 C     13.518141    9.975270   18.454459    ( 0.0000,  0.0000,  0.0000)
  40 H     12.019159    8.669917   19.322387    ( 0.0000,  0.0000,  0.0000)
  41 H     12.041367    8.671995   17.561735    ( 0.0000,  0.0000,  0.0000)
  42 H     11.031835   10.956687   19.347835    ( 0.0000,  0.0000,  0.0000)
  43 H     11.088561   10.991644   17.578194    ( 0.0000,  0.0000,  0.0000)
  44 H     13.650325   10.604119   19.337901    ( 0.0000,  0.0000,  0.0000)
  45 H     14.315149    9.231543   18.452440    ( 0.0000,  0.0000,  0.0000)
  46 H     13.659667   10.613982   17.574617    ( 0.0000,  0.0000,  0.0000)
  47 H      9.690199    9.069572   17.748389    ( 0.0000,  0.0000,  0.0000)
  48 N      9.642637    9.711211   16.890457    ( 0.0000,  0.0000,  0.0000)
  49 N      8.506762    9.720677   16.855070    ( 0.0000,  0.0000,  0.0000)

Unit cell:
           periodic     x           y           z      points  spacing
  1. axis:    yes    9.702222    0.000000    0.000000    60     0.1617
  2. axis:    yes    0.000000    9.702222    0.000000    60     0.1617
  3. axis:    no     0.000000    0.000000   26.351111   164     0.1607

  Lengths:   9.702222   9.702222  26.351111
  Angles:   90.000000  90.000000  90.000000

Effective grid spacing dv^(1/3) = 0.1614

     iter     time        total  log10-change:
                         energy  eigst   dens
iter:   1 19:57:58  -327.546117  -0.67
iter:   2 19:58:05  -327.531692  -1.13  -1.92
iter:   3 19:58:13  -327.524235c -1.65  -1.94
iter:   4 19:58:20  -327.506747c -1.56  -2.08
Writing to output.gpw (mode='')

iter:   5 19:58:27  -327.509155c -2.04  -2.19
iter:   6 19:58:35  -327.506309c -2.24  -2.29
iter:   7 19:58:42  -327.500007c -2.32  -2.36
iter:   8 19:58:49  -327.500239c -2.41  -2.56
iter:   9 19:58:57  -327.500336c -2.68  -2.66
Writing to output.gpw (mode='')

iter:  10 19:59:04  -327.499840c -3.01  -2.80
iter:  11 19:59:11  -327.500159c -3.26  -3.02
iter:  12 19:59:19  -327.500027c -3.50  -3.05
iter:  13 19:59:26  -327.499978c -3.62  -3.14
iter:  14 19:59:33  -327.499993c -3.92  -3.32
Writing to output.gpw (mode='')

iter:  15 19:59:41  -327.499988c -3.90  -3.42
iter:  16 19:59:48  -327.499995c -4.25  -3.54
iter:  17 19:59:56  -327.500001c -4.19  -3.59
iter:  18 20:00:03  -327.500029c -4.50  -3.59
iter:  19 20:00:10  -327.500028c -4.38  -3.62
Writing to output.gpw (mode='')

iter:  20 20:00:17  -327.500040c -4.56  -3.99
iter:  21 20:00:25  -327.500034c -4.93  -3.91
iter:  22 20:00:32  -327.500033c -4.75  -4.00c
iter:  23 20:00:39  -327.500042c -5.09  -4.00
iter:  24 20:00:53  -327.500035c -5.05  -4.24c
Writing to output.gpw (mode='')

iter:  25 20:01:00  -327.500038c -5.31  -4.39c
iter:  26 20:01:08  -327.500038c -5.28  -4.46c
iter:  27 20:01:15  -327.500037c -5.52  -4.49c
iter:  28 20:01:22  -327.500038c -5.42  -4.47c
iter:  29 20:01:30  -327.500043c -5.45  -4.45c
Writing to output.gpw (mode='')

iter:  30 20:01:37  -327.500039c -5.87  -4.30c
iter:  31 20:01:44  -327.500043c -5.99  -4.28c
iter:  32 20:01:52  -327.500040c -5.78  -4.40c
iter:  33 20:01:59  -327.500044c -6.02  -4.47c
iter:  34 20:02:06  -327.500044c -6.46  -4.57c
Writing to output.gpw (mode='')

iter:  35 20:02:14  -327.500044c -5.89  -4.53c
iter:  36 20:02:21  -327.500044c -6.46  -4.55c
iter:  37 20:02:28  -327.500044c -6.24  -4.63c
iter:  38 20:02:36  -327.500044c -6.44  -4.53c
iter:  39 20:02:43  -327.500045c -6.52  -4.55c
Writing to output.gpw (mode='')

iter:  40 20:02:50  -327.500045c -6.64  -4.48c
iter:  41 20:02:57  -327.500044c -6.72  -4.66c
iter:  42 20:03:05  -327.500045c -6.32  -4.75c
iter:  43 20:03:12  -327.500043c -6.88  -4.58c
iter:  44 20:03:19  -327.500045c -6.78  -4.69c
Writing to output.gpw (mode='')

iter:  45 20:03:27  -327.500045c -6.65  -4.82c
iter:  46 20:03:34  -327.500045c -7.04  -5.06c
iter:  47 20:03:41  -327.500045c -7.07  -5.13c
iter:  48 20:03:49  -327.500045c -7.27  -5.27c
iter:  49 20:03:56  -327.500045c -7.23  -5.41c
Writing to output.gpw (mode='')

iter:  50 20:04:03  -327.500045c -7.26  -5.36c
iter:  51 20:04:11  -327.500045c -7.45c -5.48c

Converged after 51 iterations.

Dipole moment: (-9.415096, -19.803277, 0.074897) |e|*Ang

Energy contributions relative to reference atoms: (reference = -15487.462483)

Kinetic:       +203.664735
Potential:     -185.306420
External:        +0.000000
XC:            -346.587430
Entropy (-ST):   -0.159122
Local:           +0.808631
--------------------------
Free energy:   -327.579606
Extrapolated:  -327.500045

Dipole-layer corrected work functions: 3.411939, 3.267961 eV

Showing only first 2 kpts
 Kpt  Band  Eigenvalues  Occupancy
  0    34     -3.56662    1.97874
  0    35     -3.48587    1.89750
  0    36     -3.25830    0.32681
  0    37     -3.08774    0.01281

  1    34     -3.44643    1.78749
  1    35     -3.32648    0.86612
  1    36     -3.25318    0.29978
  1    37     -3.23234    0.20826


Fermi level: -3.33995

No gap
Writing to output.gpw (mode='')


Forces in eV/Ang:
  0 Li    0.01147    0.00650   -0.28273
  1 Li   -0.00391   -0.00256   -0.26122
  2 Li   -0.00633    0.01430   -0.28147
  3 Li   -0.00369    0.00141   -0.26554
  4 Li   -0.00203    0.00279   -0.28854
  5 Li    0.00045   -0.00518   -0.26751
  6 Li    0.01940   -0.00544   -0.28293
  7 Li   -0.00899    0.00201   -0.26669
  8 Li   -0.00680   -0.01057   -0.28213
  9 Li   -0.00909    0.00192    0.35581
 10 Li    0.00332   -0.00115    0.24858
 11 Li   -0.00403   -0.00074    0.27873
 12 Li   -0.00049    0.00979    0.26700
 13 Li    0.00916   -0.00196    0.24882
 14 Li   -0.00170    0.01483    0.25663
 15 Li    0.00251   -0.01079    0.25790
 16 Li    0.00320    0.00003    0.25070
 17 Li   -0.00343   -0.00981    0.26165
 18 Li    0.03755    0.02826   -0.05535
 19 Li    0.00697   -0.02046    0.05886
 20 Li   -0.03695    0.04452   -0.08283
 21 Li   -0.00722   -0.00216    0.06961
 22 Li   -0.00492   -0.00971    0.01225
 23 Li    0.00917    0.00389    0.06213
 24 Li    0.02518   -0.02870   -0.04707
 25 Li    0.00818    0.02336    0.07397
 26 Li   -0.02525   -0.04905   -0.11269
 27 Li    0.65376    0.11553   -5.05677
 28 Li    0.06539   -0.01700   -0.15310
 29 Li    0.40318    0.02212    0.29806
 30 Li   -0.00721    0.09303   -0.05034
 31 Li    0.01091    0.05560   -0.08074
 32 Li   -0.01629    0.03115   -0.02561
 33 Li    0.01871   -0.14163   -0.08566
 34 Li    0.01497   -0.04007   -0.05798
 35 Li   -0.04642   -0.04981   -0.02661
 36 O     2.54400    0.67268    7.35446
 37 C     0.24901    0.07528    0.16475
 38 C     0.83884    0.30357    1.49306
 39 C     0.08080   -0.04424    0.11116
 40 H     0.07710   -0.08691   -0.01795
 41 H    -0.04629   -0.01213    0.09047
 42 H     0.56096    0.42088    0.41323
 43 H    -0.05573   -0.03899    0.41396
 44 H     0.01159    0.04311    0.00505
 45 H     0.07026   -0.04318   -0.02351
 46 H     0.06299    0.06188    0.03142
 47 H     1.64246   -3.47057    3.85957
 48 N    -0.17711    1.11758   -4.31575
 49 N    -6.97499    0.91968   -4.23165

System changes: positions 

Initializing position-dependent things.

Density initialized from wave functions
       .-----------------------.  
      /|                       |  
     / |                       |  
    /  |                       |  
   /   |                       |  
  /    |                       |  
 *     |                       |  
 |     |                       |  
 |     |                       |  
 |     O    H                  |  
 |     |     C    H            |  
 |     H    H                  |  
 |     |                       |  
 |     |       Li              |  
 |   H |   H                   |  
 |   Ci|   C Li      Li        |  
 |   H |   H                   |  
 |     |  LLi     LLi     LLi  |  
 |     |              N  N     |  
 Li    |Li      LLi     Li     |  
 |   Li|     Li      Li        |  
 |    Li  Li  Li  Li  Li  Li   |  
 | Li  |   Li      Li          |  
 |     |Li      Li      Li     |  
 Li    | Li      Li            |  
 |    Li      Li      Li       |  
 |     |                       |  
 |     |                       |  
 |     |                       |  
 |     |                       |  
 |     |                       |  
 |     |                       |  
 |     .-----------------------.  
 |    /                       /   
 |   /                       /    
 |  /                       /     
 | /                       /      
 |/                       /       
 *-----------------------*        

Positions:
   0 Li     1.617037    1.617037   10.000000    ( 0.0000,  0.0000,  0.0000)
   1 Li     4.851111    1.617037   10.000000    ( 0.0000,  0.0000,  0.0000)
   2 Li     8.085185    1.617037   10.000000    ( 0.0000,  0.0000,  0.0000)
   3 Li     1.617037    4.851111   10.000000    ( 0.0000,  0.0000,  0.0000)
   4 Li     4.851111    4.851111   10.000000    ( 0.0000,  0.0000,  0.0000)
   5 Li     8.085185    4.851111   10.000000    ( 0.0000,  0.0000,  0.0000)
   6 Li     1.617037    8.085185   10.000000    ( 0.0000,  0.0000,  0.0000)
   7 Li     4.851111    8.085185   10.000000    ( 0.0000,  0.0000,  0.0000)
   8 Li     8.085185    8.085185   10.000000    ( 0.0000,  0.0000,  0.0000)
   9 Li     0.000000    0.000000   11.617037    ( 0.0000,  0.0000,  0.0000)
  10 Li     3.234074    0.000000   11.617037    ( 0.0000,  0.0000,  0.0000)
  11 Li     6.468148    0.000000   11.617037    ( 0.0000,  0.0000,  0.0000)
  12 Li     0.000000    3.234074   11.617037    ( 0.0000,  0.0000,  0.0000)
  13 Li     3.234074    3.234074   11.617037    ( 0.0000,  0.0000,  0.0000)
  14 Li     6.468148    3.234074   11.617037    ( 0.0000,  0.0000,  0.0000)
  15 Li     0.000000    6.468148   11.617037    ( 0.0000,  0.0000,  0.0000)
  16 Li     3.234074    6.468148   11.617037    ( 0.0000,  0.0000,  0.0000)
  17 Li     6.468148    6.468148   11.617037    ( 0.0000,  0.0000,  0.0000)
  18 Li     1.618249    1.617927   13.467769    ( 0.0000,  0.0000,  0.0000)
  19 Li     4.851290    1.616383   13.471550    ( 0.0000,  0.0000,  0.0000)
  20 Li     8.084002    1.618411   13.467046    ( 0.0000,  0.0000,  0.0000)
  21 Li     1.616752    4.851034   13.472005    ( 0.0000,  0.0000,  0.0000)
  22 Li     4.850979    4.850792   13.470156    ( 0.0000,  0.0000,  0.0000)
  23 Li     8.085490    4.851235   13.471729    ( 0.0000,  0.0000,  0.0000)
  24 Li     1.617843    8.084282   13.468099    ( 0.0000,  0.0000,  0.0000)
  25 Li     4.851324    8.085931   13.472037    ( 0.0000,  0.0000,  0.0000)
  26 Li     8.084395    8.083650   13.466076    ( 0.0000,  0.0000,  0.0000)
  27 Li     0.020098    0.002648   15.280919    ( 0.0000,  0.0000,  0.0000)
  28 Li     3.236073   -0.000537   15.441453    ( 0.0000,  0.0000,  0.0000)
  29 Li     6.481766    0.000705   15.456205    ( 0.0000,  0.0000,  0.0000)
  30 Li    -0.000291    3.236838   15.444604    ( 0.0000,  0.0000,  0.0000)
  31 Li     3.234471    3.235907   15.443405    ( 0.0000,  0.0000,  0.0000)
  32 Li     6.467642    3.235003   15.445201    ( 0.0000,  0.0000,  0.0000)
  33 Li     0.000534    6.463794   15.443362    ( 0.0000,  0.0000,  0.0000)
  34 Li     3.234589    6.466824   15.444088    ( 0.0000,  0.0000,  0.0000)
  35 Li     6.466695    6.466577   15.445140    ( 0.0000,  0.0000,  0.0000)
  36 O      9.758117    9.697874   18.615081    ( 0.0000,  0.0000,  0.0000)
  37 C     12.146546    9.317570   18.451915    ( 0.0000,  0.0000,  0.0000)
  38 C     11.021856   10.335253   18.476497    ( 0.0000,  0.0000,  0.0000)
  39 C     13.519821    9.974922   18.455078    ( 0.0000,  0.0000,  0.0000)
  40 H     12.020180    8.668950   19.322393    ( 0.0000,  0.0000,  0.0000)
  41 H     12.040649    8.672553   17.562936    ( 0.0000,  0.0000,  0.0000)
  42 H     11.039375   10.962928   19.353675    ( 0.0000,  0.0000,  0.0000)
  43 H     11.087783   10.990508   17.582975    ( 0.0000,  0.0000,  0.0000)
  44 H     13.650526   10.604479   19.337998    ( 0.0000,  0.0000,  0.0000)
  45 H     14.316153    9.231145   18.452265    ( 0.0000,  0.0000,  0.0000)
  46 H     13.660235   10.614382   17.575185    ( 0.0000,  0.0000,  0.0000)
  47 H      9.706925    9.071974   17.776345    ( 0.0000,  0.0000,  0.0000)
  48 N      9.615721    9.702970   16.872058    ( 0.0000,  0.0000,  0.0000)
  49 N      8.480525    9.728424   16.834060    ( 0.0000,  0.0000,  0.0000)

Unit cell:
           periodic     x           y           z      points  spacing
  1. axis:    yes    9.702222    0.000000    0.000000    60     0.1617
  2. axis:    yes    0.000000    9.702222    0.000000    60     0.1617
  3. axis:    no     0.000000    0.000000   26.351111   164     0.1607

  Lengths:   9.702222   9.702222  26.351111
  Angles:   90.000000  90.000000  90.000000

Effective grid spacing dv^(1/3) = 0.1614

     iter     time        total  log10-change:
                         energy  eigst   dens
iter:   1 20:04:20  -328.408487  -0.74
iter:   2 20:04:27  -328.408338  -1.44  -2.14
iter:   3 20:04:35  -328.407349c -1.82  -2.24
iter:   4 20:04:42  -328.400761c -1.70  -2.23
Writing to output.gpw (mode='')

iter:   5 20:04:49  -328.400266c -2.16  -2.32
iter:   6 20:04:57  -328.400638c -2.43  -2.56
iter:   7 20:05:04  -328.398980c -2.55  -2.53
iter:   8 20:05:12  -328.399178c -2.85  -2.66
iter:   9 20:05:19  -328.399138c -2.73  -2.76
Writing to output.gpw (mode='')

iter:  10 20:05:27  -328.399080c -3.44  -2.99
iter:  11 20:05:34  -328.398851c -3.42  -3.01
iter:  12 20:05:41  -328.398922c -3.75  -3.18
iter:  13 20:05:54  -328.398883c -3.75  -3.18
iter:  14 20:06:02  -328.398885c -3.89  -3.38
Writing to output.gpw (mode='')

iter:  15 20:06:09  -328.398882c -4.25  -3.48
iter:  16 20:06:16  -328.398919c -4.10  -3.49
iter:  17 20:06:24  -328.398889c -4.37  -3.45
iter:  18 20:06:31  -328.398897c -4.23  -3.49
iter:  19 20:06:39  -328.398888c -4.79  -3.65
Writing to output.gpw (mode='')

iter:  20 20:06:46  -328.398894c -4.60  -3.68
iter:  21 20:06:53  -328.398892c -4.81  -3.98
iter:  22 20:07:01  -328.398895c -5.48  -4.18c
iter:  23 20:07:08  -328.398895c -5.60  -4.21c
iter:  24 20:07:15  -328.398897c -5.59  -4.25c
Writing to output.gpw (mode='')

iter:  25 20:07:23  -328.398893c -5.38  -4.23c
iter:  26 20:07:30  -328.398898c -5.64  -4.32c
iter:  27 20:07:37  -328.398900c -5.51  -4.29c
iter:  28 20:07:45  -328.398899c -5.77  -4.35c
iter:  29 20:07:52  -328.398897c -5.93  -4.44c
Writing to output.gpw (mode='')

iter:  30 20:08:00  -328.398899c -6.16  -4.81c
iter:  31 20:08:07  -328.398898c -6.31  -4.84c
iter:  32 20:08:14  -328.398899c -6.35  -4.88c
iter:  33 20:08:22  -328.398899c -6.18  -4.97c
iter:  34 20:08:29  -328.398899c -6.68  -5.04c
Writing to output.gpw (mode='')

iter:  35 20:08:37  -328.398899c -6.61  -5.21c
iter:  36 20:08:44  -328.398899c -6.38  -5.23c
iter:  37 20:08:52  -328.398899c -6.71  -5.27c
iter:  38 20:08:59  -328.398899c -7.06  -5.27c
iter:  39 20:09:06  -328.398899c -6.81  -5.28c
Writing to output.gpw (mode='')

iter:  40 20:09:14  -328.398899c -7.23  -5.31c
iter:  41 20:09:21  -328.398899c -7.24  -5.27c
iter:  42 20:09:28  -328.398900c -7.55c -5.23c

Converged after 42 iterations.

Dipole moment: (-7.608400, -18.900309, 0.054039) |e|*Ang

Energy contributions relative to reference atoms: (reference = -15487.462483)

Kinetic:       +199.876823
Potential:     -183.056789
External:        +0.000000
XC:            -345.944079
Entropy (-ST):   -0.158680
Local:           +0.804486
--------------------------
Free energy:   -328.478239
Extrapolated:  -328.398900

Dipole-layer corrected work functions: 3.412121, 3.308240 eV

Showing only first 2 kpts
 Kpt  Band  Eigenvalues  Occupancy
  0    34     -3.58436    1.97767
  0    35     -3.50546    1.89625
  0    36     -3.27476    0.30675
  0    37     -3.11054    0.01348

  1    34     -3.46797    1.79241
  1    35     -3.34624    0.86153
  1    36     -3.26963    0.28101
  1    37     -3.25716    0.22601


Fermi level: -3.36018

No gap
Writing to output.gpw (mode='')


Forces in eV/Ang:
  0 Li    0.01199    0.00556   -0.28351
  1 Li   -0.00443   -0.00326   -0.26038
  2 Li   -0.00636    0.01472   -0.28242
  3 Li   -0.00472    0.00143   -0.26455
  4 Li   -0.00126    0.00274   -0.28930
  5 Li    0.00036   -0.00519   -0.26755
  6 Li    0.01963   -0.00462   -0.28387
  7 Li   -0.00941    0.00297   -0.26582
  8 Li   -0.00665   -0.01099   -0.28320
  9 Li   -0.00907    0.00215    0.35989
 10 Li    0.00365   -0.00131    0.24950
 11 Li   -0.00526   -0.00085    0.27814
 12 Li   -0.00026    0.00971    0.26797
 13 Li    0.01012   -0.00014    0.24770
 14 Li   -0.00228    0.01638    0.25564
 15 Li    0.00239   -0.01074    0.25876
 16 Li    0.00419   -0.00162    0.25015
 17 Li   -0.00407   -0.01144    0.26092
 18 Li    0.04509    0.03632   -0.06393
 19 Li    0.00869   -0.01957    0.05819
 20 Li   -0.04374    0.04784   -0.08953
 21 Li   -0.00634   -0.00194    0.06805
 22 Li   -0.00582   -0.01008    0.01204
 23 Li    0.00937    0.00335    0.06217
 24 Li    0.03211   -0.03672   -0.05578
 25 Li    0.01055    0.02256    0.07406
 26 Li   -0.03195   -0.05227   -0.11957
 27 Li    0.64321    0.12967   -4.45945
 28 Li    0.06338   -0.01625   -0.14475
 29 Li    0.38399    0.02620    0.28937
 30 Li   -0.00422    0.08933   -0.04902
 31 Li    0.00949    0.05263   -0.07870
 32 Li   -0.01845    0.03433   -0.02853
 33 Li    0.02132   -0.13748   -0.08253
 34 Li    0.01326   -0.03794   -0.05636
 35 Li   -0.04827   -0.05111   -0.02792
 36 O     2.17827    0.40257    6.17855
 37 C     0.21219    0.07019    0.16154
 38 C     0.64100    0.21929    1.32418
 39 C     0.09797   -0.03228    0.09681
 40 H     0.09765   -0.09160   -0.00432
 41 H    -0.04852    0.01540    0.09932
 42 H     0.57756    0.41269    0.38625
 43 H    -0.12148   -0.08589    0.40797
 44 H     0.02440    0.04072    0.01107
 45 H     0.09072   -0.04400   -0.02002
 46 H     0.06498    0.05572    0.03484
 47 H     1.44878   -2.60454    3.53823
 48 N    -0.49128    0.71297   -3.98828
 49 N    -5.83838    0.81518   -3.46599

System changes: positions 

Initializing position-dependent things.

Density initialized from wave functions
       .-----------------------.  
      /|                       |  
     / |                       |  
    /  |                       |  
   /   |                       |  
  /    |                       |  
 *     |                       |  
 |     |                       |  
 |     |                       |  
 |     O    H                  |  
 |     |     C    H            |  
 |     H    H                  |  
 |     |                       N  
 |     |       Li              |  
 |   H |   H                   |  
 |   Ci|   C Li      Li        |  
 |   H |   H                   |  
 |     |  LLi     LLi     LLi  |  
 |     |              N        |  
 Li    |Li      LLi     Li     |  
 |   Li|     Li      Li        |  
 |    Li  Li  Li  Li  Li  Li   |  
 | Li  |   Li      Li          |  
 |     |Li      Li      Li     |  
 Li    | Li      Li            |  
 |    Li      Li      Li       |  
 |     |                       |  
 |     |                       |  
 |     |                       |  
 |     |                       |  
 |     |                       |  
 |     |                       |  
 |     .-----------------------.  
 |    /                       /   
 |   /                       /    
 |  /                       /     
 | /                       /      
 |/                       /       
 *-----------------------*        

Positions:
   0 Li     1.617037    1.617037   10.000000    ( 0.0000,  0.0000,  0.0000)
   1 Li     4.851111    1.617037   10.000000    ( 0.0000,  0.0000,  0.0000)
   2 Li     8.085185    1.617037   10.000000    ( 0.0000,  0.0000,  0.0000)
   3 Li     1.617037    4.851111   10.000000    ( 0.0000,  0.0000,  0.0000)
   4 Li     4.851111    4.851111   10.000000    ( 0.0000,  0.0000,  0.0000)
   5 Li     8.085185    4.851111   10.000000    ( 0.0000,  0.0000,  0.0000)
   6 Li     1.617037    8.085185   10.000000    ( 0.0000,  0.0000,  0.0000)
   7 Li     4.851111    8.085185   10.000000    ( 0.0000,  0.0000,  0.0000)
   8 Li     8.085185    8.085185   10.000000    ( 0.0000,  0.0000,  0.0000)
   9 Li     0.000000    0.000000   11.617037    ( 0.0000,  0.0000,  0.0000)
  10 Li     3.234074    0.000000   11.617037    ( 0.0000,  0.0000,  0.0000)
  11 Li     6.468148    0.000000   11.617037    ( 0.0000,  0.0000,  0.0000)
  12 Li     0.000000    3.234074   11.617037    ( 0.0000,  0.0000,  0.0000)
  13 Li     3.234074    3.234074   11.617037    ( 0.0000,  0.0000,  0.0000)
  14 Li     6.468148    3.234074   11.617037    ( 0.0000,  0.0000,  0.0000)
[...]

Showing only first 2 kpts
 Kpt  Band  Eigenvalues  Occupancy
  0    34     -3.72762    1.96815
  0    35     -3.54167    1.19962
  0    36     -3.50960    0.88223
  0    37     -3.41216    0.20212

  1    34     -3.83872    1.99650
  1    35     -3.46297    0.47398
  1    36     -3.40466    0.17644
  1    37     -3.39954    0.16067


Fermi level: -3.52143

No gap
Writing to output.gpw (mode='')


Forces in eV/Ang:
  0 Li    0.01265    0.01242   -0.28815
  1 Li   -0.00783    0.00554   -0.29298
  2 Li   -0.01045   -0.01027   -0.29580
  3 Li    0.00685   -0.01189   -0.29151
  4 Li   -0.01610   -0.01826   -0.28487
  5 Li    0.00934    0.00059   -0.29367
  6 Li   -0.00776   -0.01330   -0.29520
  7 Li    0.00553    0.00700   -0.29364
  8 Li   -0.00101   -0.00144   -0.25716
  9 Li   -0.04623   -0.02789    0.28112
 10 Li   -0.00246   -0.00747    0.30354
 11 Li    0.04158   -0.02180    0.32345
 12 Li   -0.02388    0.01998    0.27077
 13 Li    0.00675    0.03364    0.27719
 14 Li    0.02030    0.04606    0.25547
 15 Li   -0.04309    0.04443    0.31683
 16 Li    0.02780    0.01154    0.27062
 17 Li    0.04930    0.04912    0.25892
 18 Li   -0.00392   -0.00632    0.00488
 19 Li   -0.00047    0.00063   -0.00133
 20 Li    0.00754   -0.01475    0.00502
 21 Li   -0.00482    0.00152    0.00067
 22 Li   -0.00473   -0.00232   -0.00453
 23 Li    0.00147    0.00179    0.00060
 24 Li   -0.00794    0.00262    0.00356
 25 Li    0.00995   -0.00067    0.00142
 26 Li    0.00910    0.00041   -0.02626
 27 Li    0.01988    0.00594    0.00785
 28 Li    0.00226   -0.00381   -0.00159
 29 Li   -0.00083    0.00082   -0.01865
 30 Li   -0.00077    0.00045   -0.00440
 31 Li    0.00304    0.00314    0.00301
 32 Li    0.00043   -0.01228   -0.00784
 33 Li   -0.02225    0.01087    0.00886
 34 Li   -0.00924    0.00232   -0.00874
 35 Li    0.00019    0.00287   -0.00112
 36 O    -0.02553   -0.03465    0.02527
 37 C    -0.01518   -0.02293   -0.01061
 38 C    -0.05151    0.00552    0.02790
 39 C     0.01208   -0.00515   -0.00850
 40 H     0.00227   -0.00416    0.04691
 41 H    -0.01057   -0.02457   -0.04290
 42 H     0.02524    0.04154    0.02612
 43 H     0.02828    0.01775   -0.01414
 44 H     0.01284    0.03520    0.04261
 45 H     0.03928   -0.04215    0.01589
 46 H    -0.01007    0.02688    0.00349
 47 H     0.00425   -0.01119   -0.01899
 48 N     0.01323    0.00268   -0.01013
 49 N    -0.01715   -0.14384    0.03360

System changes: positions 

Initializing position-dependent things.

Density initialized from wave functions
       .-----------------------.  
      /|                       |  
     / |                       |  
    /  |                       |  
   /   |                       |  
  /    |                       |  
 *     |                       |  
 |     |                       |  
 |     |                       |  
 |     |     H                 |  
 |     H          H            |  
 |     |    H                  |  
 |     |                       |  
 |    H|                      Li  
 |O  C |    H            N N   |  
 |   Hi|   C Li       Li       |  
 |     |   H              Li   |  
 | Li  |  LLi     LLi          |  
 |     |                       |  
 |     |LLi     LLi     Li     |  
 |   Li|     Li      Li        |  
 |    Li  Li  Li  Li  Li  Li   |  
 | Li  |   Li      Li          |  
 |     |Li      Li      Li     |  
 Li    | Li      Li            |  
 |    Li      Li      Li       |  
 |     |                       |  
 |     |                       |  
 |     |                       |  
 |     |                       |  
 |     |                       |  
 |     |                       |  
 |     .-----------------------.  
 |    /                       /   
 |   /                       /    
 |  /                       /     
 | /                       /      
 |/                       /       
 *-----------------------*        

Positions:
   0 Li     1.617037    1.617037   10.000000    ( 0.0000,  0.0000,  0.0000)
   1 Li     4.851111    1.617037   10.000000    ( 0.0000,  0.0000,  0.0000)
   2 Li     8.085185    1.617037   10.000000    ( 0.0000,  0.0000,  0.0000)
   3 Li     1.617037    4.851111   10.000000    ( 0.0000,  0.0000,  0.0000)
   4 Li     4.851111    4.851111   10.000000    ( 0.0000,  0.0000,  0.0000)
   5 Li     8.085185    4.851111   10.000000    ( 0.0000,  0.0000,  0.0000)
   6 Li     1.617037    8.085185   10.000000    ( 0.0000,  0.0000,  0.0000)
   7 Li     4.851111    8.085185   10.000000    ( 0.0000,  0.0000,  0.0000)
   8 Li     8.085185    8.085185   10.000000    ( 0.0000,  0.0000,  0.0000)
   9 Li     0.000000    0.000000   11.617037    ( 0.0000,  0.0000,  0.0000)
  10 Li     3.234074    0.000000   11.617037    ( 0.0000,  0.0000,  0.0000)
  11 Li     6.468148    0.000000   11.617037    ( 0.0000,  0.0000,  0.0000)
  12 Li     0.000000    3.234074   11.617037    ( 0.0000,  0.0000,  0.0000)
  13 Li     3.234074    3.234074   11.617037    ( 0.0000,  0.0000,  0.0000)
  14 Li     6.468148    3.234074   11.617037    ( 0.0000,  0.0000,  0.0000)
  15 Li     0.000000    6.468148   11.617037    ( 0.0000,  0.0000,  0.0000)
  16 Li     3.234074    6.468148   11.617037    ( 0.0000,  0.0000,  0.0000)
  17 Li     6.468148    6.468148   11.617037    ( 0.0000,  0.0000,  0.0000)
  18 Li     1.539924    1.582884   13.462551    ( 0.0000,  0.0000,  0.0000)
  19 Li     4.828877    1.688566   13.465857    ( 0.0000,  0.0000,  0.0000)
  20 Li     8.032397    1.666628   13.489123    ( 0.0000,  0.0000,  0.0000)
  21 Li     1.654610    4.838237   13.476633    ( 0.0000,  0.0000,  0.0000)
  22 Li     4.938826    4.939760   13.490681    ( 0.0000,  0.0000,  0.0000)
  23 Li     8.127910    4.890305   13.499606    ( 0.0000,  0.0000,  0.0000)
  24 Li     1.617672    8.036559   13.474052    ( 0.0000,  0.0000,  0.0000)
  25 Li     4.867694    8.131199   13.489931    ( 0.0000,  0.0000,  0.0000)
  26 Li     8.077820    8.104632   13.584368    ( 0.0000,  0.0000,  0.0000)
  27 Li    -0.223903   -0.159756   15.457571    ( 0.0000,  0.0000,  0.0000)
  28 Li     3.090476    0.052587   15.317516    ( 0.0000,  0.0000,  0.0000)
  29 Li     6.382637    0.204203   15.461902    ( 0.0000,  0.0000,  0.0000)
  30 Li     0.049111    3.142259   15.426491    ( 0.0000,  0.0000,  0.0000)
  31 Li     3.221933    3.239330   15.385261    ( 0.0000,  0.0000,  0.0000)
  32 Li     6.409871    3.473160   15.463216    ( 0.0000,  0.0000,  0.0000)
  33 Li     0.152080    6.413883   15.488241    ( 0.0000,  0.0000,  0.0000)
  34 Li     3.411430    6.401649   15.435955    ( 0.0000,  0.0000,  0.0000)
  35 Li     6.743761    6.806826   15.617873    ( 0.0000,  0.0000,  0.0000)
  36 O      9.964484    9.807382   19.491361    ( 0.0000,  0.0000,  0.0000)
  37 C     12.332083    9.333387   18.945976    ( 0.0000,  0.0000,  0.0000)
  38 C     11.242783   10.376772   19.179615    ( 0.0000,  0.0000,  0.0000)
  39 C     13.703896    9.970002   18.712147    ( 0.0000,  0.0000,  0.0000)
  40 H     12.367246    8.658787   19.806247    ( 0.0000,  0.0000,  0.0000)
  41 H     12.053095    8.720898   18.075359    ( 0.0000,  0.0000,  0.0000)
  42 H     11.494482   11.002001   20.039580    ( 0.0000,  0.0000,  0.0000)
  43 H     11.164445   11.037874   18.302670    ( 0.0000,  0.0000,  0.0000)
  44 H     14.033316   10.542085   19.583112    ( 0.0000,  0.0000,  0.0000)
  45 H     14.463085    9.213648   18.498674    ( 0.0000,  0.0000,  0.0000)
  46 H     13.685171   10.659618   17.861238    ( 0.0000,  0.0000,  0.0000)
  47 H      9.720730    9.199561   18.781262    ( 0.0000,  0.0000,  0.0000)
  48 N      8.567855    7.724879   15.622319    ( 0.0000,  0.0000,  0.0000)
  49 N      7.681062    8.618800   15.608327    ( 0.0000,  0.0000,  0.0000)

Unit cell:
           periodic     x           y           z      points  spacing
  1. axis:    yes    9.702222    0.000000    0.000000    60     0.1617
  2. axis:    yes    0.000000    9.702222    0.000000    60     0.1617
  3. axis:    no     0.000000    0.000000   26.351111   164     0.1607

  Lengths:   9.702222   9.702222  26.351111
  Angles:   90.000000  90.000000  90.000000

Effective grid spacing dv^(1/3) = 0.1614

     iter     time        total  log10-change:
                         energy  eigst   dens
iter:   1 05:07:13  -335.384447  -1.21
iter:   2 05:07:20  -335.369753  -1.92  -1.94
iter:   3 05:07:28  -335.365837c -2.59  -2.15
iter:   4 05:07:35  -335.364000c -3.03  -2.33
Writing to output.gpw (mode='')

iter:   5 05:07:43  -335.362196c -2.59  -2.45
iter:   6 05:07:50  -335.362129c -2.51  -2.76
iter:   7 05:07:57  -335.361858c -3.39  -2.79
iter:   8 05:08:05  -335.361674c -3.45  -2.98
iter:   9 05:08:12  -335.361866c -3.13  -3.02
Writing to output.gpw (mode='')

iter:  10 05:08:19  -335.361777c -3.87  -3.09
iter:  11 05:08:27  -335.361716c -3.96  -3.25
iter:  12 05:08:34  -335.361753c -4.63  -3.39
iter:  13 05:08:42  -335.361773c -4.39  -3.52
iter:  14 05:08:49  -335.361762c -4.64  -3.59
Writing to output.gpw (mode='')

iter:  15 05:08:57  -335.361753c -5.43  -3.69
iter:  16 05:09:04  -335.361739c -5.22  -3.75
iter:  17 05:09:11  -335.361733c -5.66  -3.89
iter:  18 05:09:19  -335.361728c -5.36  -3.98
iter:  19 05:09:26  -335.361721c -5.40  -4.00c
Writing to output.gpw (mode='')

iter:  20 05:09:33  -335.361725c -5.75  -4.28c
iter:  21 05:09:41  -335.361727c -6.30  -4.32c
iter:  22 05:09:48  -335.361727c -6.31  -4.42c
iter:  23 05:09:56  -335.361724c -6.44  -4.54c
iter:  24 05:10:03  -335.361726c -6.80  -4.60c
Writing to output.gpw (mode='')

iter:  25 05:10:10  -335.361726c -6.97  -4.69c
iter:  26 05:10:18  -335.361727c -7.16  -4.74c
iter:  27 05:10:25  -335.361727c -7.42c -5.03c

Converged after 27 iterations.

Dipole moment: (-15.003265, -14.426070, -0.112086) |e|*Ang

Energy contributions relative to reference atoms: (reference = -15487.462483)

Kinetic:       +165.675854
Potential:     -158.921884
External:        +0.000000
XC:            -342.858580
Entropy (-ST):   -0.162081
Local:           +0.823924
--------------------------
Free energy:   -335.442767
Extrapolated:  -335.361727

Dipole-layer corrected work functions: 3.413850, 3.629317 eV

Showing only first 2 kpts
 Kpt  Band  Eigenvalues  Occupancy
  0    34     -3.72884    1.96881
  0    35     -3.54119    1.19357
  0    36     -3.50983    0.88301
  0    37     -3.41308    0.20493

  1    34     -3.83835    1.99646
  1    35     -3.46357    0.47727
  1    36     -3.40492    0.17682
  1    37     -3.39932    0.15957


Fermi level: -3.52158

No gap
Writing to output.gpw (mode='')


Forces in eV/Ang:
  0 Li    0.01246    0.01239   -0.28810
  1 Li   -0.00779    0.00579   -0.29355
  2 Li   -0.01008   -0.01010   -0.29556
  3 Li    0.00700   -0.01163   -0.29217
  4 Li   -0.01619   -0.01835   -0.28395
  5 Li    0.00950    0.00081   -0.29350
  6 Li   -0.00760   -0.01310   -0.29433
  7 Li    0.00549    0.00708   -0.29397
  8 Li   -0.00047   -0.00122   -0.25725
  9 Li   -0.04692   -0.02800    0.27631
 10 Li   -0.00494   -0.00274    0.29919
 11 Li    0.04057   -0.01966    0.32603
 12 Li   -0.02051    0.01814    0.26820
 13 Li    0.00485    0.03079    0.27777
 14 Li    0.01868    0.04273    0.25559
 15 Li   -0.04135    0.04388    0.31586
 16 Li    0.02465    0.00971    0.26804
 17 Li    0.04682    0.04836    0.25932
 18 Li    0.00182    0.00048    0.00256
 19 Li    0.00068   -0.00170   -0.00212
 20 Li    0.00325   -0.01044   -0.00236
 21 Li   -0.00323   -0.00293    0.00121
 22 Li   -0.00703   -0.00391   -0.00537
 23 Li    0.00387    0.00858    0.01005
 24 Li   -0.00921   -0.00276    0.00469
 25 Li    0.01559   -0.00057    0.00682
 26 Li    0.01235   -0.00712   -0.01756
 27 Li    0.01813   -0.00122    0.00989
 28 Li    0.00782   -0.00506    0.00145
 29 Li   -0.00935   -0.00631   -0.00631
 30 Li    0.00033   -0.00148   -0.00186
 31 Li    0.00041    0.00684   -0.00109
 32 Li    0.00162   -0.01283   -0.01042
 33 Li   -0.02928    0.00730    0.00387
 34 Li   -0.00551    0.00256   -0.01211
 35 Li    0.01047   -0.01169    0.00486
 36 O     0.00523    0.00939    0.01956
 37 C     0.00269    0.00326    0.01255
 38 C     0.00044    0.00868    0.00120
 39 C     0.00764    0.00585    0.00412
 40 H     0.00378   -0.01449    0.00014
 41 H     0.00870   -0.00369    0.02575
 42 H    -0.01138   -0.00019    0.01480
 43 H     0.00298    0.00088   -0.00496
 44 H    -0.00114   -0.01734    0.01295
 45 H     0.00465   -0.00779    0.02536
 46 H     0.00063    0.01003   -0.00391
 47 H    -0.00311   -0.00516   -0.00964
 48 N     0.00875    0.03287   -0.02496
 49 N    -0.03148   -0.02468    0.02385

Timing:                                      incl.     excl.
-------------------------------------------------------------------
Density initialized from wave functions:     8.900     8.897   0.0% |
 Symmetrize density:                         0.003     0.003   0.0% |
Forces:                                     55.305    55.305   0.2% |
Hamiltonian:                               747.042     0.019   0.0% |
 Atomic:                                     0.031     0.030   0.0% |
  XC Correction:                             0.000     0.000   0.0% |
 Calculate atomic Hamiltonians:              0.053     0.053   0.0% |
 Communicate:                                7.717     7.717   0.0% |
 Hartree integrate/restrict:                 2.622     2.622   0.0% |
 Initialize Hamiltonian:                     0.000     0.000   0.0% |
 Poisson:                                   35.834    12.962   0.0% |
  Communicate from 1D:                       3.899     3.899   0.0% |
  Communicate from 2D:                       3.490     3.490   0.0% |
  Communicate to 1D:                         1.957     1.957   0.0% |
  Communicate to 2D:                         4.212     4.212   0.0% |
  FFT 1D:                                    4.749     4.749   0.0% |
  FFT 2D:                                    4.564     4.564   0.0% |
 XC 3D grid:                               700.170   107.810   0.3% |
  VdW-DF integral:                         592.360     4.953   0.0% |
   Convolution:                             55.247    55.247   0.2% |
   FFT:                                     23.481    23.481   0.1% |
   gather:                                 207.504   207.504   0.6% |
   hmm1:                                    19.243    19.243   0.1% |
   hmm2:                                    25.463    25.463   0.1% |
   iFFT:                                    24.252    24.252   0.1% |
   potential:                              228.432     6.430   0.0% |
    collect:                                35.412    35.412   0.1% |
    p1:                                    104.964   104.964   0.3% |
    p2:                                     39.344    39.344   0.1% |
    sum:                                    42.283    42.283   0.1% |
   splines:                                  3.783     3.783   0.0% |
 vbar:                                       0.596     0.596   0.0% |
LCAO initialization:                         1.185     0.182   0.0% |
 LCAO eigensolver:                           0.225     0.000   0.0% |
  Calculate projections:                     0.000     0.000   0.0% |
  DenseAtomicCorrection:                     0.000     0.000   0.0% |
  Distribute overlap matrix:                 0.203     0.203   0.0% |
  Orbital Layouts:                           0.020     0.020   0.0% |
  Potential matrix:                          0.001     0.001   0.0% |
  Sum over cells:                            0.001     0.001   0.0% |
 LCAO to grid:                               0.622     0.622   0.0% |
 Set positions (LCAO WFS):                   0.155     0.080   0.0% |
  Basic WFS set positions:                   0.001     0.001   0.0% |
  Basis functions set positions:             0.000     0.000   0.0% |
  P tci:                                     0.000     0.000   0.0% |
  ST tci:                                    0.041     0.041   0.0% |
  mktci:                                     0.033     0.033   0.0% |
Redistribute:                                0.084     0.084   0.0% |
SCF-cycle:                               34082.843   650.418   1.9% ||
 Davidson:                                9084.815  2694.809   7.7% |--|
  Apply hamiltonian:                       567.881   567.881   1.6% ||
  Subspace diag:                          1699.367     0.512   0.0% |
   calc_h_matrix:                          845.612   265.429   0.8% |
    Apply hamiltonian:                     580.183   580.183   1.7% ||
   diagonalize:                             85.417    85.417   0.2% |
   rotate_psi:                             767.826   767.826   2.2% ||
  calc. matrices:                         2855.081  1483.697   4.2% |-|
   Apply hamiltonian:                     1371.384  1371.384   3.9% |-|
  diagonalize:                              27.294    27.294   0.1% |
  rotate_psi:                             1240.384  1240.384   3.5% ||
 Density:                                  172.602     0.116   0.0% |
  Atomic density matrices:                  21.470    21.470   0.1% |
  Mix:                                      73.335    73.335   0.2% |
  Multipole moments:                         8.859     8.859   0.0% |
  Pseudo density:                           68.822    68.729   0.2% |
   Symmetrize density:                       0.093     0.093   0.0% |
 Hamiltonian:                            24149.216     0.578   0.0% |
  Atomic:                                    1.109     1.098   0.0% |
   XC Correction:                            0.011     0.011   0.0% |
  Calculate atomic Hamiltonians:             1.741     1.741   0.0% |
  Communicate:                             344.130   344.130   1.0% |
  Hartree integrate/restrict:               85.024    85.024   0.2% |
  Poisson:                                1139.405   420.266   1.2% |
   Communicate from 1D:                    111.565   111.565   0.3% |
   Communicate from 2D:                    113.135   113.135   0.3% |
   Communicate to 1D:                       63.263    63.263   0.2% |
   Communicate to 2D:                      133.324   133.324   0.4% |
   FFT 1D:                                 150.632   150.632   0.4% |
   FFT 2D:                                 147.219   147.219   0.4% |
  XC 3D grid:                            22558.675  3493.521  10.0% |---|
   VdW-DF integral:                      19065.154   159.204   0.5% |
    Convolution:                          1780.325  1780.325   5.1% |-|
    FFT:                                   754.862   754.862   2.2% ||
    gather:                               6656.638  6656.638  19.0% |-------|
    hmm1:                                  614.816   614.816   1.8% ||
    hmm2:                                  819.287   819.287   2.3% ||
    iFFT:                                  781.877   781.877   2.2% ||
    potential:                            7498.109   207.757   0.6% |
     collect:                             1153.333  1153.333   3.3% ||
     p1:                                  3381.738  3381.738   9.6% |---|
     p2:                                  1268.689  1268.689   3.6% ||
     sum:                                 1486.593  1486.593   4.2% |-|
    splines:                                 0.038     0.038   0.0% |
  vbar:                                     18.554    18.554   0.1% |
 Orthonormalize:                            25.792     0.019   0.0% |
  calc_s_matrix:                             3.774     3.774   0.0% |
  inverse-cholesky:                          7.569     7.569   0.0% |
  projections:                               0.003     0.003   0.0% |
  rotate_psi_s:                             14.426    14.426   0.0% |
Set symmetry:                                0.003     0.003   0.0% |
Other:                                     150.347   150.347   0.4% |
-------------------------------------------------------------------
Total:                                             35045.708 100.0%

Memory usage: 1.12 GiB
Date: Sat Mar 11 05:10:26 2023
