
  ___ ___ ___ _ _ _  
 |   |   |_  | | | | 
 | | | | | . | | | | 
 |__ |  _|___|_____|  22.8.0
 |___|_|             

User:   vazumah@c09.hercules
Date:   Tue Feb  7 03:51:43 2023
Arch:   x86_64
Pid:    8663
CWD:    /home/vazumah/Python_projects/LiNRR/Li_adsorb_studies/proton_donors/ethanol_N2/CH3CH2OH_x/ontop/9.702_9.702/N2_y
Python: 3.10.8
gpaw:   /home/vazumah/.conda/envs/GPAW/lib/python3.10/site-packages/gpaw
_gpaw:  /home/vazumah/.conda/envs/GPAW/lib/python3.10/site-packages/
        _gpaw.cpython-310-x86_64-linux-gnu.so
ase:    /home/vazumah/.conda/envs/GPAW/lib/python3.10/site-packages/ase (version 3.22.1)
numpy:  /home/vazumah/.conda/envs/GPAW/lib/python3.10/site-packages/numpy (version 1.24.1)
scipy:  /home/vazumah/.conda/envs/GPAW/lib/python3.10/site-packages/scipy (version 1.10.0)
libxc:  5.2.3
units:  Angstrom and eV
cores: 24
OpenMP: True
OMP_NUM_THREADS: 1

Input parameters:
  h: 0.16
  kpts: {size: [4, 4, 1]}
  occupations: {name: fermi-dirac,
                width: 0.05}
  poissonsolver: {dipolelayer: xy}
  xc: BEEF-vdW

System changes: positions, numbers, cell, pbc, initial_charges, initial_magmoms 

Initialize ...

species:
  Li:
    name: Lithium
    id: 830b4218f175192f93f959cfc0aad614
    Z: 3.0
    valence: 1
    core: 2
    charge: 0.0
    file: /home/vazumah/.conda/envs/GPAW/share/gpaw/Li.PBE.gz
    compensation charges: {type: gauss,
                           rc: 0.33,
                           lmax: 2}
    cutoffs: {filter: 1.91,
              core: 2.55}
    valence states:
      #              energy  rcut
      - 2s(1.00)    -2.874   1.058
      - 2p(0.00)    -1.090   1.058
      -  s          24.337   1.058
  
    # Using partial waves for Li as LCAO basis

  O:
    name: Oxygen
    id: 32ecd46bf208036f09c70b0ec9a88b78
    Z: 8.0
    valence: 6
    core: 2
    charge: 0.0
    file: /home/vazumah/.conda/envs/GPAW/share/gpaw/O.PBE.gz
    compensation charges: {type: gauss,
                           rc: 0.21,
                           lmax: 2}
    cutoffs: {filter: 1.17,
              core: 0.83}
    valence states:
      #              energy  rcut
      - 2s(2.00)   -23.961   0.688
      - 2p(4.00)    -9.029   0.598
      -  s           3.251   0.688
      -  p          18.182   0.598
      -  d           0.000   0.619
  
    # Using partial waves for O as LCAO basis

  C:
    name: Carbon
    id: 4aa54d4b901d75f77cc0ea3eec22967b
    Z: 6.0
    valence: 4
    core: 2
    charge: 0.0
    file: /home/vazumah/.conda/envs/GPAW/share/gpaw/C.PBE.gz
    compensation charges: {type: gauss,
                           rc: 0.20,
                           lmax: 2}
    cutoffs: {filter: 1.14,
              core: 1.14}
    valence states:
      #              energy  rcut
      - 2s(2.00)   -13.751   0.635
      - 2p(2.00)    -5.284   0.635
      -  s          13.461   0.635
      -  p          21.927   0.635
      -  d           0.000   0.635
  
    # Using partial waves for C as LCAO basis

  H:
    name: Hydrogen
    id: d65de229564ff8ea4db303e23b6d1ecf
    Z: 1.0
    valence: 1
    core: 0
    charge: 0.0
    file: /home/vazumah/.conda/envs/GPAW/share/gpaw/H.PBE.gz
    compensation charges: {type: gauss,
                           rc: 0.15,
                           lmax: 2}
    cutoffs: {filter: 0.85,
              core: 0.53}
    valence states:
      #              energy  rcut
      - 1s(1.00)    -6.494   0.476
      -  s          20.717   0.476
      -  p           0.000   0.476
  
    # Using partial waves for H as LCAO basis

  N:
    name: Nitrogen
    id: f7500608b86eaa90eef8b1d9a670dc53
    Z: 7.0
    valence: 5
    core: 2
    charge: 0.0
    file: /home/vazumah/.conda/envs/GPAW/share/gpaw/N.PBE.gz
    compensation charges: {type: gauss,
                           rc: 0.18,
                           lmax: 2}
    cutoffs: {filter: 1.11,
              core: 0.96}
    valence states:
      #              energy  rcut
      - 2s(2.00)   -18.583   0.603
      - 2p(3.00)    -7.089   0.529
      -  s           8.629   0.603
      -  p          20.123   0.529
      -  d           0.000   0.577
  
    # Using partial waves for N as LCAO basis

Reference energy: -14434.854043  # eV

Spin-paired calculation

Convergence criteria:
 Maximum [total energy] change in last 3 cyles: 0.0005 eV / electron
 Maximum integral of absolute [dens]ity change: 0.0001 electrons / valence electron
 Maximum integral of absolute [eigenst]ate change: 4e-08 eV^2 / valence electron
 Maximum number of scf [iter]ations: 333
 (Square brackets indicate name in SCF output, whereas a 'c' in
 the SCF output indicates the quantity has converged.)

Symmetries present (total): 1

  ( 1  0  0)
  ( 0  1  0)
  ( 0  0  1)

16 k-points: 4 x 4 x 1 Monkhorst-Pack grid
8 k-points in the irreducible part of the Brillouin zone
       k-points in crystal coordinates                weights
   0:     0.12500000   -0.37500000    0.00000000          2/16
   1:     0.12500000   -0.12500000    0.00000000          2/16
   2:     0.12500000    0.12500000    0.00000000          2/16
   3:     0.12500000    0.37500000    0.00000000          2/16
   4:     0.37500000   -0.37500000    0.00000000          2/16
   5:     0.37500000   -0.12500000    0.00000000          2/16
   6:     0.37500000    0.12500000    0.00000000          2/16
   7:     0.37500000    0.37500000    0.00000000          2/16

Wave functions: Uniform real-space grid
  Kinetic energy operator: 6*3+1=19 point O(h^6) finite-difference Laplacian
  ScaLapack parameters: grid=1x1, blocksize=None
  Wavefunction extrapolation:
    Improved wavefunction reuse through dual PAW basis 

Occupation numbers: Fermi-Dirac:
  width: 0.0500  # eV
 

Eigensolver
   Davidson(niter=2) 

Densities:
  Coarse grid: 60*60*156 grid
  Fine grid: 120*120*312 grid
  Total Charge: 0.000000 

Density mixing:
  Method: separate
  Backend: pulay
  Linear mixing parameter: 0.05
  old densities: 5
  Damping of long wavelength oscillations: 50 

Hamiltonian:
  XC and Coulomb potentials evaluated on a 120*120*312 grid
  Using the BEEF-vdW Exchange-Correlation functional
  Interpolation: tri-quintic (5. degree polynomial)
  Poisson solver: FastPoissonSolver using
    Stencil: 6*3+1=19 point O(h^6) finite-difference Laplacian
    FFT axes: [0, 1]
    FST axes: [2]

Dipole correction along z-axis 

XC parameters: BEEF-vdW with 2 nearest neighbor stencil

Memory estimate:
  Process memory now: 219.25 MiB
  Calculator: 411.72 MiB
    Density: 118.00 MiB
      Arrays: 36.75 MiB
      Localized functions: 67.24 MiB
      Mixer: 14.01 MiB
    Hamiltonian: 29.35 MiB
      Arrays: 24.03 MiB
      XC: 0.00 MiB
      Poisson: 0.00 MiB
      vbar: 5.32 MiB
    Wavefunctions: 264.37 MiB
      Arrays psit_nG: 123.27 MiB
      Eigensolver: 137.57 MiB
      Projections: 0.06 MiB
      Projectors: 3.47 MiB

Total number of cores used: 24
Parallelization over k-points: 8
Domain decomposition: 1 x 1 x 3

Number of atoms: 47
Number of atomic orbitals: 170
Number of bands in calculation: 44
Number of valence electrons: 66
Bands to converge: occupied

... initialized

Initializing position-dependent things.

Density initialized from atomic densities
Creating initial wave functions:
  44 bands from LCAO basis set

       .-----------------------.  
      /|                       |  
     / |                       |  
    /  |                       |  
   /   | H                     |  
  /    | C     H               |  
 *     | H                     |  
 |     |                       |  
 |     |                       N  
 H     |H                     N|  
 O     C                       |  
 |     |H                      |  
 |     |                       |  
 |     |                       |  
 |   Li|     Li      Li        |  
 |     |  Li      Li      Li   |  
 | Li  |   Li      Li          |  
 |     |Li      Li      Li     |  
 Li    | Li      Li            |  
 |   LLi     LLi     LLi       |  
 |     |  Li      Li      Li   |  
 | Li  |   Li      Li          |  
 |     |Li      Li      Li     |  
 Li    | Li      Li            |  
 |    Li      Li      Li       |  
 |     |                       |  
 |     |                       |  
 |     |                       |  
 |     |                       |  
 |     |                       |  
 |     |                       |  
 |     .-----------------------.  
 |    /                       /   
 |   /                       /    
 |  /                       /     
 | /                       /      
 |/                       /       
 *-----------------------*        

Positions:
   0 Li     1.617037    1.617037   10.000000    ( 0.0000,  0.0000,  0.0000)
   1 Li     4.851111    1.617037   10.000000    ( 0.0000,  0.0000,  0.0000)
   2 Li     8.085185    1.617037   10.000000    ( 0.0000,  0.0000,  0.0000)
   3 Li     1.617037    4.851111   10.000000    ( 0.0000,  0.0000,  0.0000)
   4 Li     4.851111    4.851111   10.000000    ( 0.0000,  0.0000,  0.0000)
   5 Li     8.085185    4.851111   10.000000    ( 0.0000,  0.0000,  0.0000)
   6 Li     1.617037    8.085185   10.000000    ( 0.0000,  0.0000,  0.0000)
   7 Li     4.851111    8.085185   10.000000    ( 0.0000,  0.0000,  0.0000)
   8 Li     8.085185    8.085185   10.000000    ( 0.0000,  0.0000,  0.0000)
   9 Li     0.000000    0.000000   11.617037    ( 0.0000,  0.0000,  0.0000)
  10 Li     3.234074    0.000000   11.617037    ( 0.0000,  0.0000,  0.0000)
  11 Li     6.468148    0.000000   11.617037    ( 0.0000,  0.0000,  0.0000)
  12 Li     0.000000    3.234074   11.617037    ( 0.0000,  0.0000,  0.0000)
  13 Li     3.234074    3.234074   11.617037    ( 0.0000,  0.0000,  0.0000)
  14 Li     6.468148    3.234074   11.617037    ( 0.0000,  0.0000,  0.0000)
  15 Li     0.000000    6.468148   11.617037    ( 0.0000,  0.0000,  0.0000)
  16 Li     3.234074    6.468148   11.617037    ( 0.0000,  0.0000,  0.0000)
  17 Li     6.468148    6.468148   11.617037    ( 0.0000,  0.0000,  0.0000)
  18 Li     1.617038    1.617038   13.469728    ( 0.0000,  0.0000,  0.0000)
  19 Li     4.851111    1.617038   13.469729    ( 0.0000,  0.0000,  0.0000)
  20 Li     8.085184    1.617038   13.469728    ( 0.0000,  0.0000,  0.0000)
  21 Li     1.617038    4.851111   13.469729    ( 0.0000,  0.0000,  0.0000)
  22 Li     4.851111    4.851111   13.469730    ( 0.0000,  0.0000,  0.0000)
  23 Li     8.085184    4.851111   13.469729    ( 0.0000,  0.0000,  0.0000)
  24 Li     1.617038    8.085184   13.469728    ( 0.0000,  0.0000,  0.0000)
  25 Li     4.851111    8.085184   13.469729    ( 0.0000,  0.0000,  0.0000)
  26 Li     8.085184    8.085184   13.469728    ( 0.0000,  0.0000,  0.0000)
  27 Li    -0.000000   -0.000000   15.445939    ( 0.0000,  0.0000,  0.0000)
  28 Li     3.234074    0.000000   15.445939    ( 0.0000,  0.0000,  0.0000)
  29 Li     6.468148    0.000000   15.445939    ( 0.0000,  0.0000,  0.0000)
  30 Li     0.000000    3.234074   15.445939    ( 0.0000,  0.0000,  0.0000)
  31 Li     3.234076    3.234076   15.445938    ( 0.0000,  0.0000,  0.0000)
  32 Li     6.468146    3.234076   15.445938    ( 0.0000,  0.0000,  0.0000)
  33 Li     0.000000    6.468148   15.445939    ( 0.0000,  0.0000,  0.0000)
  34 Li     3.234076    6.468146   15.445938    ( 0.0000,  0.0000,  0.0000)
  35 Li     6.468146    6.468146   15.445938    ( 0.0000,  0.0000,  0.0000)
  36 O      9.702222    9.702222   21.445939    ( 0.0000,  0.0000,  0.0000)
  37 C     10.884630    8.885465   21.450238    ( 0.0000,  0.0000,  0.0000)
  38 C     12.168844    9.705083   21.435704    ( 0.0000,  0.0000,  0.0000)
  39 H     10.876006    8.201929   22.310398    ( 0.0000,  0.0000,  0.0000)
  40 H     10.809241    8.275739   20.547442    ( 0.0000,  0.0000,  0.0000)
  41 H     13.045771    9.051137   21.420269    ( 0.0000,  0.0000,  0.0000)
  42 H     12.203555   10.354106   20.558886    ( 0.0000,  0.0000,  0.0000)
  43 H     12.239032   10.333571   22.328265    ( 0.0000,  0.0000,  0.0000)
  44 H      9.741389   10.285199   22.214164    ( 0.0000,  0.0000,  0.0000)
  45 N      9.702000    9.702000   18.445939    ( 0.0000,  0.0000,  0.0000)
  46 N      9.702000    8.605378   18.445939    ( 0.0000,  0.0000,  0.0000)

Unit cell:
           periodic     x           y           z      points  spacing
  1. axis:    yes    9.702222    0.000000    0.000000    60     0.1617
  2. axis:    yes    0.000000    9.702222    0.000000    60     0.1617
  3. axis:    no     0.000000    0.000000   24.851111   156     0.1593

  Lengths:   9.702222   9.702222  24.851111
  Angles:   90.000000  90.000000  90.000000

Effective grid spacing dv^(1/3) = 0.1609

     iter     time        total  log10-change:
                         energy  eigst   dens
iter:   1 03:55:06  -671.629613
iter:   2 03:57:35    52.128630  +2.60  +0.03
iter:   3 04:00:04   339.652520  +3.19  -0.07
iter:   4 04:02:27   148.954657  +3.25  -0.10
Writing to output.gpw (mode='')

iter:   5 04:04:57   -48.945448  +3.10  -0.12
iter:   6 04:07:31  -269.232478  +3.13  -0.42
iter:   7 04:10:17  -406.633855  +2.94  -0.39
iter:   8 04:12:58  -438.471573  +2.57  -0.39
iter:   9 04:15:29  -487.451422  +2.35  -0.34
Writing to output.gpw (mode='')

iter:  10 04:18:09  -482.279529  +2.08  -0.27
iter:  11 04:20:48  -548.658639  +2.15  -0.22
iter:  12 04:23:29  -358.232848  +1.34  -0.16
iter:  13 04:25:58  -308.547241  +2.05  -0.38
iter:  14 04:28:29  -313.087104  +1.41  -0.72
Writing to output.gpw (mode='')

iter:  15 04:31:07  -313.515468  +1.34  -0.73
iter:  16 04:33:37  -343.625083  +1.88  -0.73
iter:  17 04:36:15  -324.737307  +1.03  -0.49
iter:  18 04:38:45  -319.137772  +0.91  -0.60
iter:  19 04:41:10  -317.030783  +0.50  -0.64
Writing to output.gpw (mode='')

iter:  20 04:43:52  -314.757298  +0.35  -0.71
iter:  21 04:46:24  -310.351967  +0.93  -0.72
iter:  22 04:48:58  -309.843512  +0.59  -0.87
iter:  23 04:51:43  -311.675702  +1.13  -0.87
iter:  24 04:54:17  -308.757090  +0.47  -0.82
Writing to output.gpw (mode='')

iter:  25 04:56:48  -308.859871  +0.02  -1.21
iter:  26 04:59:32  -309.046584  -0.16  -1.28
iter:  27 05:02:11  -309.156523  -0.35  -1.43
iter:  28 05:04:42  -308.937275  -0.60  -1.45
iter:  29 05:07:19  -308.818507  -0.57  -1.55
Writing to output.gpw (mode='')

iter:  30 05:09:57  -308.705929  -0.56  -1.57
iter:  31 05:12:32  -308.605418  -1.01  -1.68
iter:  32 05:15:09  -308.600302  -0.91  -1.91
iter:  33 05:17:44  -308.616656c -1.52  -1.98
iter:  34 05:20:08  -308.617726c -1.59  -2.00
Writing to output.gpw (mode='')

iter:  35 05:22:47  -308.594769c -1.58  -2.03
iter:  36 05:25:12  -308.573656  -1.36  -2.19
iter:  37 05:27:44  -308.572928c -1.53  -2.49
iter:  38 05:30:14  -308.573645c -1.73  -2.46
iter:  39 05:32:41  -308.574131c -1.83  -2.49
Writing to output.gpw (mode='')

iter:  40 05:35:13  -308.574516c -1.95  -2.58
iter:  41 05:37:50  -308.575104c -1.79  -2.62
iter:  42 05:40:26  -308.575631c -2.20  -2.61
iter:  43 05:42:53  -308.576572c -2.06  -2.81
iter:  44 05:45:37  -308.577614c -2.29  -3.01
Writing to output.gpw (mode='')

iter:  45 05:48:09  -308.578369c -2.39  -3.05
iter:  46 05:50:43  -308.578990c -2.50  -3.09
iter:  47 05:53:16  -308.579701c -2.48  -3.12
iter:  48 05:55:51  -308.580193c -2.66  -3.23
iter:  49 05:58:26  -308.580621c -2.65  -3.37
Writing to output.gpw (mode='')

iter:  50 06:01:06  -308.581117c -2.56  -3.45
iter:  51 06:03:38  -308.581424c -2.90  -3.63
iter:  52 06:06:17  -308.581701c -2.86  -3.66
iter:  53 06:08:55  -308.581991c -2.86  -3.67
iter:  54 06:11:35  -308.582219c -2.99  -3.75
Writing to output.gpw (mode='')

iter:  55 06:14:18  -308.582410c -3.12  -3.71
iter:  56 06:16:58  -308.582569c -3.17  -3.65
iter:  57 06:19:37  -308.582716c -3.25  -3.59
iter:  58 06:22:05  -308.582851c -3.18  -3.65
iter:  59 06:24:37  -308.582967c -3.33  -3.63
Writing to output.gpw (mode='')

iter:  60 06:27:21  -308.583099c -3.21  -3.58
iter:  61 06:30:07  -308.583181c -3.44  -3.55
iter:  62 06:32:48  -308.583256c -3.53  -3.54
iter:  63 06:35:18  -308.583331c -3.49  -3.50
iter:  64 06:37:54  -308.583388c -3.60  -3.57
Writing to output.gpw (mode='')

iter:  65 06:40:30  -308.583439c -3.71  -3.56
iter:  66 06:43:22  -308.583490c -3.75  -3.54
iter:  67 06:46:05  -308.583530c -3.79  -3.48
iter:  68 06:48:39  -308.583568c -3.86  -3.63
iter:  69 06:51:09  -308.583597c -3.74  -3.57
Writing to output.gpw (mode='')

iter:  70 06:53:47  -308.583637c -3.80  -3.58
iter:  71 06:56:20  -308.583663c -4.06  -3.64
iter:  72 06:58:53  -308.583684c -4.09  -3.63
iter:  73 07:01:25  -308.583701c -4.07  -3.64
iter:  74 07:04:07  -308.583718c -3.95  -3.65
Writing to output.gpw (mode='')

iter:  75 07:06:44  -308.583731c -4.01  -3.76
iter:  76 07:09:27  -308.583755c -4.05  -3.90
iter:  77 07:12:04  -308.583767c -4.30  -4.09c
iter:  78 07:14:42  -308.583777c -4.34  -4.10c
iter:  79 07:17:15  -308.583785c -4.32  -4.14c
Writing to output.gpw (mode='')

iter:  80 07:19:53  -308.583794c -4.49  -4.48c
iter:  81 07:22:38  -308.583803c -4.49  -4.56c
iter:  82 07:25:16  -308.583810c -4.54  -4.58c
iter:  83 07:27:52  -308.583817c -4.61  -4.64c
iter:  84 07:30:30  -308.583822c -4.67  -4.74c
Writing to output.gpw (mode='')

iter:  85 07:33:06  -308.583827c -4.72  -4.81c
iter:  86 07:35:45  -308.583831c -4.72  -4.80c
iter:  87 07:38:24  -308.583835c -4.87  -4.68c
iter:  88 07:41:01  -308.583838c -4.85  -4.96c
iter:  89 07:43:36  -308.583841c -4.89  -5.05c
Writing to output.gpw (mode='')

iter:  90 07:46:13  -308.583844c -4.92  -5.03c
iter:  91 07:48:50  -308.583846c -5.02  -4.94c
iter:  92 07:51:14  -308.583848c -5.03  -4.98c
iter:  93 07:53:52  -308.583851c -5.08  -4.98c
iter:  94 07:56:35  -308.583852c -5.16  -5.02c
Writing to output.gpw (mode='')

iter:  95 07:59:26  -308.583854c -5.18  -5.04c
iter:  96 08:02:02  -308.583856c -5.17  -5.09c
iter:  97 08:04:39  -308.583857c -5.19  -5.15c
iter:  98 08:07:12  -308.583858c -5.35  -5.23c
iter:  99 08:09:51  -308.583859c -5.34  -5.35c
Writing to output.gpw (mode='')

iter: 100 08:12:29  -308.583860c -5.44  -5.40c
iter: 101 08:15:02  -308.583861c -5.50  -5.44c
iter: 102 08:17:38  -308.583861c -5.58  -5.55c
iter: 103 08:20:24  -308.583862c -5.62  -5.59c
iter: 104 08:22:58  -308.583863c -5.57  -5.65c
Writing to output.gpw (mode='')

iter: 105 08:25:32  -308.583863c -5.60  -5.60c
iter: 106 08:28:04  -308.583863c -5.73  -5.49c
iter: 107 08:30:34  -308.583864c -5.79  -5.41c
iter: 108 08:33:18  -308.583864c -5.82  -5.37c
iter: 109 08:36:02  -308.583864c -5.86  -5.28c
Writing to output.gpw (mode='')

iter: 110 08:38:43  -308.583865c -5.89  -5.26c
iter: 111 08:41:17  -308.583865c -5.82  -5.24c
iter: 112 08:43:55  -308.583865c -6.01  -5.21c
iter: 113 08:46:32  -308.583865c -6.04  -5.23c
iter: 114 08:49:05  -308.583865c -6.07  -5.09c
Writing to output.gpw (mode='')

iter: 115 08:51:38  -308.583865c -6.09  -5.20c
iter: 116 08:54:17  -308.583866c -6.11  -5.25c
iter: 117 08:56:50  -308.583866c -6.14  -5.23c
iter: 118 08:59:35  -308.583866c -6.25  -5.30c
iter: 119 09:02:08  -308.583866c -6.28  -5.46c
Writing to output.gpw (mode='')

iter: 120 09:04:43  -308.583866c -6.23  -5.47c
iter: 121 09:07:17  -308.583866c -6.30  -5.58c
iter: 122 09:09:52  -308.583866c -6.38  -5.66c
iter: 123 09:12:22  -308.583866c -6.42  -5.72c
iter: 124 09:14:51  -308.583866c -6.45  -5.83c
Writing to output.gpw (mode='')

iter: 125 09:17:20  -308.583866c -6.54  -5.94c
iter: 126 09:19:51  -308.583866c -6.61  -5.98c
iter: 127 09:22:28  -308.583866c -6.56  -6.03c
iter: 128 09:25:09  -308.583866c -6.57  -6.16c
iter: 129 09:27:46  -308.583866c -6.68  -6.25c
Writing to output.gpw (mode='')

iter: 130 09:30:22  -308.583866c -6.76  -6.31c
iter: 131 09:33:01  -308.583866c -6.72  -6.38c
iter: 132 09:35:37  -308.583866c -6.77  -6.46c
iter: 133 09:38:09  -308.583866c -6.83  -6.44c
iter: 134 09:40:44  -308.583866c -6.90  -6.31c
Writing to output.gpw (mode='')

iter: 135 09:43:22  -308.583866c -6.95  -6.48c
iter: 136 09:45:55  -308.583866c -6.95  -6.52c
iter: 137 09:48:27  -308.583866c -6.99  -6.51c
iter: 138 09:51:03  -308.583866c -6.94  -6.51c
iter: 139 09:53:34  -308.583866c -7.07  -6.48c
Writing to output.gpw (mode='')

iter: 140 09:56:09  -308.583866c -7.17  -6.36c
iter: 141 09:58:48  -308.583866c -7.15  -6.22c
iter: 142 10:01:23  -308.583866c -7.22  -6.19c
iter: 143 10:03:54  -308.583866c -7.19  -6.17c
iter: 144 10:06:27  -308.583866c -7.26  -6.13c
Writing to output.gpw (mode='')

iter: 145 10:09:03  -308.583866c -7.26  -6.03c
iter: 146 10:11:38  -308.583866c -7.28  -6.07c
iter: 147 10:14:12  -308.583866c -7.29  -6.14c
iter: 148 10:16:47  -308.583866c -7.37  -6.19c
iter: 149 10:19:22  -308.583866c -7.32  -6.35c
Writing to output.gpw (mode='')

iter: 150 10:22:10  -308.583866c -7.35  -6.53c
iter: 151 10:24:51  -308.583866c -7.45c -6.52c

Converged after 151 iterations.

Dipole moment: (-18.455122, -12.068194, 0.312703) |e|*Ang

Energy contributions relative to reference atoms: (reference = -14434.854043)

Kinetic:       +151.121224
Potential:     -147.167444
External:        +0.000000
XC:            -313.211622
Entropy (-ST):   -0.153177
Local:           +0.750564
--------------------------
Free energy:   -308.660454
Extrapolated:  -308.583866

Dipole-layer corrected work functions: 3.394008, 2.792886 eV

Showing only first 2 kpts
 Kpt  Band  Eigenvalues  Occupancy
  0    31     -3.34534    1.98711
  0    32     -3.26637    1.93896
  0    33     -2.92342    0.06455
  0    34     -2.83999    0.01250

  1    31     -3.11376    1.20040
  1    32     -3.08481    0.91388
  1    33     -3.05351    0.62057
  1    34     -3.04748    0.57020


Fermi level: -3.09345

No gap
Writing to output.gpw (mode='')


Forces in eV/Ang:
  0 Li    0.00034    0.00207   -0.27016
  1 Li   -0.00008   -0.00097   -0.27444
  2 Li   -0.00028    0.00224   -0.26994
  3 Li   -0.00113   -0.00028   -0.27390
  4 Li    0.00008    0.00184   -0.27752
  5 Li    0.00104   -0.00032   -0.27364
  6 Li    0.00248   -0.00173   -0.27046
  7 Li   -0.00011    0.00008   -0.27452
  8 Li   -0.00237   -0.00187   -0.27021
  9 Li    0.00020   -0.00070    0.26507
 10 Li    0.00348    0.00060    0.25593
 11 Li   -0.00369    0.00067    0.25631
 12 Li   -0.00010    0.00491    0.25483
 13 Li   -0.00310   -0.00193    0.26123
 14 Li    0.00321   -0.00192    0.26073
 15 Li   -0.00008   -0.00309    0.25529
 16 Li    0.00199    0.00104    0.25739
 17 Li   -0.00192    0.00097    0.25716
 18 Li   -0.00414   -0.00369    0.04397
 19 Li    0.00018    0.00124    0.03433
 20 Li    0.00399   -0.00380    0.04311
 21 Li    0.00017    0.00180    0.03669
 22 Li    0.00027   -0.00217    0.03245
 23 Li   -0.00042    0.00178    0.03688
 24 Li   -0.00190    0.00132    0.03873
 25 Li    0.00021   -0.00013    0.03855
 26 Li    0.00172    0.00147    0.03775
 27 Li    0.00148    0.02159   -0.06896
 28 Li    0.01711    0.00279   -0.04014
 29 Li   -0.01809    0.00284   -0.03813
 30 Li    0.00101   -0.00323   -0.01877
 31 Li   -0.00387   -0.00321   -0.02110
 32 Li    0.00289   -0.00235   -0.02164
 33 Li    0.00103   -0.01978   -0.02884
 34 Li    0.00141    0.00065   -0.02727
 35 Li   -0.00231   -0.00019   -0.02698
 36 O     0.02517   -0.02101    0.06062
 37 C     0.07343   -0.06051    0.05654
 38 C    -0.00186    0.00001    0.00113
 39 H    -0.01936    0.03997   -0.02444
 40 H     0.07027   -0.01188    0.18713
 41 H    -0.04055    0.00501   -0.01180
 42 H     0.00691    0.00353   -0.02605
 43 H     0.00880   -0.01323   -0.02336
 44 H    -0.00517   -0.02895   -0.01722
 45 N    -0.04441    0.73929   -0.11697
 46 N    -0.06374   -0.70816   -0.09691

System changes: positions 

Initializing position-dependent things.

Density initialized from wave functions
       .-----------------------.  
      /|                       |  
     / |                       |  
    /  |                       |  
   /   O H                     |  
  /    | C     H               |  
 *     | H                     |  
 |     |                       |  
 |     |                       |  
 H     |H                     N|  
 |     C                       |  
 |     |H                      |  
 |     |                       |  
 |     |                       |  
 |   Li|     Li      Li  N     |  
 |     |  Li      Li      Li   |  
 | Li  |   Li      Li          |  
 |     |Li      Li      Li     |  
 Li    | Li      Li            |  
 |   LLi     LLi     LLi       |  
 |     |  Li      Li      Li   |  
 | Li  |   Li      Li          |  
 |     |Li      Li      Li     |  
 Li    | Li      Li            |  
 |    Li      Li      Li       |  
 |     |                       |  
 |     |                       |  
 |     |                       |  
 |     |                       |  
 |     |                       |  
 |     |                       |  
 |     .-----------------------.  
 |    /                       /   
 |   /                       /    
 |  /                       /     
 | /                       /      
 |/                       /       
 *-----------------------*        

Positions:
   0 Li     1.617037    1.617037   10.000000    ( 0.0000,  0.0000,  0.0000)
   1 Li     4.851111    1.617037   10.000000    ( 0.0000,  0.0000,  0.0000)
   2 Li     8.085185    1.617037   10.000000    ( 0.0000,  0.0000,  0.0000)
   3 Li     1.617037    4.851111   10.000000    ( 0.0000,  0.0000,  0.0000)
   4 Li     4.851111    4.851111   10.000000    ( 0.0000,  0.0000,  0.0000)
   5 Li     8.085185    4.851111   10.000000    ( 0.0000,  0.0000,  0.0000)
   6 Li     1.617037    8.085185   10.000000    ( 0.0000,  0.0000,  0.0000)
   7 Li     4.851111    8.085185   10.000000    ( 0.0000,  0.0000,  0.0000)
   8 Li     8.085185    8.085185   10.000000    ( 0.0000,  0.0000,  0.0000)
   9 Li     0.000000    0.000000   11.617037    ( 0.0000,  0.0000,  0.0000)
  10 Li     3.234074    0.000000   11.617037    ( 0.0000,  0.0000,  0.0000)
  11 Li     6.468148    0.000000   11.617037    ( 0.0000,  0.0000,  0.0000)
  12 Li     0.000000    3.234074   11.617037    ( 0.0000,  0.0000,  0.0000)
  13 Li     3.234074    3.234074   11.617037    ( 0.0000,  0.0000,  0.0000)
  14 Li     6.468148    3.234074   11.617037    ( 0.0000,  0.0000,  0.0000)
  15 Li     0.000000    6.468148   11.617037    ( 0.0000,  0.0000,  0.0000)
  16 Li     3.234074    6.468148   11.617037    ( 0.0000,  0.0000,  0.0000)
  17 Li     6.468148    6.468148   11.617037    ( 0.0000,  0.0000,  0.0000)
  18 Li     1.616979    1.616985   13.470356    ( 0.0000,  0.0000,  0.0000)
  19 Li     4.851114    1.617056   13.470220    ( 0.0000,  0.0000,  0.0000)
  20 Li     8.085241    1.616984   13.470344    ( 0.0000,  0.0000,  0.0000)
  21 Li     1.617041    4.851137   13.470254    ( 0.0000,  0.0000,  0.0000)
  22 Li     4.851115    4.851080   13.470194    ( 0.0000,  0.0000,  0.0000)
  23 Li     8.085178    4.851136   13.470256    ( 0.0000,  0.0000,  0.0000)
  24 Li     1.617011    8.085203   13.470281    ( 0.0000,  0.0000,  0.0000)
  25 Li     4.851114    8.085182   13.470280    ( 0.0000,  0.0000,  0.0000)
  26 Li     8.085208    8.085205   13.470267    ( 0.0000,  0.0000,  0.0000)
  27 Li     0.000021    0.000308   15.444954    ( 0.0000,  0.0000,  0.0000)
  28 Li     3.234318    0.000040   15.445365    ( 0.0000,  0.0000,  0.0000)
  29 Li     6.467890    0.000041   15.445394    ( 0.0000,  0.0000,  0.0000)
  30 Li     0.000014    3.234028   15.445671    ( 0.0000,  0.0000,  0.0000)
  31 Li     3.234021    3.234031   15.445637    ( 0.0000,  0.0000,  0.0000)
  32 Li     6.468187    3.234043   15.445629    ( 0.0000,  0.0000,  0.0000)
  33 Li     0.000015    6.467866   15.445527    ( 0.0000,  0.0000,  0.0000)
  34 Li     3.234097    6.468155   15.445548    ( 0.0000,  0.0000,  0.0000)
  35 Li     6.468113    6.468143   15.445553    ( 0.0000,  0.0000,  0.0000)
  36 O      9.702582    9.701922   21.446805    ( 0.0000,  0.0000,  0.0000)
  37 C     10.885679    8.884600   21.451045    ( 0.0000,  0.0000,  0.0000)
  38 C     12.168818    9.705083   21.435720    ( 0.0000,  0.0000,  0.0000)
  39 H     10.875730    8.202500   22.310048    ( 0.0000,  0.0000,  0.0000)
  40 H     10.810245    8.275569   20.550115    ( 0.0000,  0.0000,  0.0000)
  41 H     13.045192    9.051208   21.420101    ( 0.0000,  0.0000,  0.0000)
  42 H     12.203654   10.354156   20.558514    ( 0.0000,  0.0000,  0.0000)
  43 H     12.239158   10.333382   22.327932    ( 0.0000,  0.0000,  0.0000)
  44 H      9.741315   10.284785   22.213918    ( 0.0000,  0.0000,  0.0000)
  45 N      9.701366    9.712561   18.444268    ( 0.0000,  0.0000,  0.0000)
  46 N      9.701089    8.595262   18.444555    ( 0.0000,  0.0000,  0.0000)

Unit cell:
           periodic     x           y           z      points  spacing
  1. axis:    yes    9.702222    0.000000    0.000000    60     0.1617
  2. axis:    yes    0.000000    9.702222    0.000000    60     0.1617
  3. axis:    no     0.000000    0.000000   24.851111   156     0.1593

  Lengths:   9.702222   9.702222  24.851111
  Angles:   90.000000  90.000000  90.000000

Effective grid spacing dv^(1/3) = 0.1609

     iter     time        total  log10-change:
                         energy  eigst   dens
iter:   1 10:28:09  -308.720241  -1.00
iter:   2 10:30:44  -308.660903  -0.85  -1.56
iter:   3 10:33:21  -308.591869  -1.76  -1.62
iter:   4 10:36:05  -308.579484  -2.08  -2.13
Writing to output.gpw (mode='')

iter:   5 10:38:51  -308.573873c -1.69  -2.48
iter:   6 10:41:31  -308.572290c -2.20  -2.50
iter:   7 10:44:10  -308.571852c -2.50  -2.62
iter:   8 10:46:42  -308.571646c -3.20  -2.71
iter:   9 10:49:17  -308.571587c -3.07  -2.81
Writing to output.gpw (mode='')

iter:  10 10:51:55  -308.571485c -3.43  -2.99
iter:  11 10:54:28  -308.571499c -3.77  -3.12
iter:  12 10:57:04  -308.571549c -3.41  -3.18
iter:  13 10:59:44  -308.571504c -3.87  -3.23
iter:  14 11:02:15  -308.571488c -4.06  -3.44
Writing to output.gpw (mode='')

iter:  15 11:04:52  -308.571522c -4.14  -3.48
iter:  16 11:07:24  -308.571486c -4.07  -3.45
iter:  17 11:10:02  -308.571497c -4.22  -3.75
iter:  18 11:12:38  -308.571502c -4.71  -3.75
iter:  19 11:15:14  -308.571511c -4.66  -3.90
Writing to output.gpw (mode='')

iter:  20 11:17:49  -308.571512c -4.75  -3.95
iter:  21 11:20:20  -308.571515c -4.75  -3.96
iter:  22 11:22:56  -308.571515c -4.91  -3.97
iter:  23 11:25:31  -308.571517c -4.98  -3.98
iter:  24 11:28:15  -308.571522c -5.06  -4.16c
Writing to output.gpw (mode='')

iter:  25 11:30:55  -308.571523c -5.11  -4.27c
iter:  26 11:33:33  -308.571524c -5.04  -4.31c
iter:  27 11:36:14  -308.571526c -5.18  -4.41c
iter:  28 11:38:55  -308.571526c -5.34  -4.43c
iter:  29 11:41:49  -308.571525c -5.33  -4.49c
Writing to output.gpw (mode='')

iter:  30 11:44:28  -308.571525c -5.38  -4.56c
iter:  31 11:47:13  -308.571526c -5.56  -4.66c
iter:  32 11:49:53  -308.571527c -5.69  -4.72c
iter:  33 11:52:31  -308.571526c -5.65  -4.76c
iter:  34 11:55:15  -308.571527c -5.85  -5.06c
Writing to output.gpw (mode='')

iter:  35 11:57:53  -308.571527c -5.93  -5.06c
iter:  36 12:00:22  -308.571527c -5.76  -5.17c
iter:  37 12:03:00  -308.571527c -6.03  -5.28c
iter:  38 12:05:34  -308.571527c -6.03  -5.24c
iter:  39 12:08:09  -308.571528c -6.10  -5.25c
Writing to output.gpw (mode='')

iter:  40 12:10:52  -308.571528c -6.22  -5.20c
iter:  41 12:13:23  -308.571528c -6.22  -5.19c
iter:  42 12:15:51  -308.571528c -6.32  -5.18c
iter:  43 12:18:22  -308.571528c -6.32  -5.11c
iter:  44 12:20:47  -308.571528c -6.34  -5.13c
Writing to output.gpw (mode='')

iter:  45 12:23:09  -308.571528c -6.54  -5.06c
iter:  46 12:25:39  -308.571528c -6.55  -5.04c
iter:  47 12:28:11  -308.571528c -6.39  -5.14c
iter:  48 12:30:49  -308.571528c -6.75  -5.06c
iter:  49 12:33:26  -308.571528c -6.62  -5.04c
Writing to output.gpw (mode='')

iter:  50 12:35:59  -308.571528c -6.79  -5.04c
iter:  51 12:38:32  -308.571528c -6.83  -4.94c
iter:  52 12:41:15  -308.571527c -6.76  -5.12c
iter:  53 12:43:47  -308.571527c -6.69  -5.09c
iter:  54 12:46:22  -308.571527c -6.93  -5.07c
Writing to output.gpw (mode='')

iter:  55 12:48:56  -308.571527c -6.90  -5.07c
iter:  56 12:51:23  -308.571527c -6.88  -5.13c
iter:  57 12:54:02  -308.571527c -7.05  -5.21c
iter:  58 12:56:40  -308.571527c -7.20  -5.34c
iter:  59 12:59:14  -308.571527c -7.42c -5.47c

Converged after 59 iterations.

Dipole moment: (-18.343495, -13.148558, 0.296946) |e|*Ang

Energy contributions relative to reference atoms: (reference = -14434.854043)

Kinetic:       +148.062044
Potential:     -144.683941
External:        +0.000000
XC:            -312.622677
Entropy (-ST):   -0.153390
Local:           +0.749741
--------------------------
Free energy:   -308.648222
Extrapolated:  -308.571527

Dipole-layer corrected work functions: 3.395050, 2.824217 eV

Showing only first 2 kpts
 Kpt  Band  Eigenvalues  Occupancy
  0    31     -3.36135    1.98706
  0    32     -3.28319    1.93971
  0    33     -2.93855    0.06325
  0    34     -2.85686    0.01267

  1    31     -3.13045    1.20525
  1    32     -3.09928    0.89686
  1    33     -3.07031    0.62588
  1    34     -3.06391    0.57220


Fermi level: -3.10963

No gap
Writing to output.gpw (mode='')


Forces in eV/Ang:
  0 Li    0.00028    0.00230   -0.27008
  1 Li   -0.00008   -0.00082   -0.27449
  2 Li   -0.00021    0.00247   -0.26986
  3 Li   -0.00111   -0.00025   -0.27415
  4 Li    0.00007    0.00212   -0.27786
  5 Li    0.00104   -0.00029   -0.27387
  6 Li    0.00261   -0.00195   -0.27059
  7 Li   -0.00011   -0.00013   -0.27468
  8 Li   -0.00250   -0.00208   -0.27034
  9 Li    0.00020   -0.00069    0.26621
 10 Li    0.00330    0.00070    0.25657
 11 Li   -0.00350    0.00077    0.25696
 12 Li   -0.00010    0.00536    0.25516
 13 Li   -0.00307   -0.00236    0.26162
 14 Li    0.00317   -0.00232    0.26114
 15 Li   -0.00007   -0.00334    0.25547
 16 Li    0.00229    0.00126    0.25754
 17 Li   -0.00223    0.00117    0.25731
 18 Li   -0.00419   -0.00341    0.04235
 19 Li    0.00017    0.00102    0.03327
 20 Li    0.00405   -0.00350    0.04150
 21 Li    0.00033    0.00175    0.03528
 22 Li    0.00027   -0.00232    0.03172
 23 Li   -0.00058    0.00174    0.03545
 24 Li   -0.00184    0.00093    0.03617
 25 Li    0.00020    0.00002    0.03773
 26 Li    0.00167    0.00105    0.03520
 27 Li    0.00139    0.01806   -0.05038
 28 Li    0.01656    0.00298   -0.03811
 29 Li   -0.01748    0.00304   -0.03599
 30 Li    0.00098   -0.00505   -0.01657
 31 Li   -0.00393   -0.00310   -0.02046
 32 Li    0.00297   -0.00229   -0.02094
 33 Li    0.00099   -0.01811   -0.02424
 34 Li    0.00151    0.00024   -0.02651
 35 Li   -0.00237   -0.00055   -0.02614
 36 O     0.03110   -0.06134    0.01662
 37 C     0.04717    0.01580    0.06269
 38 C    -0.00155    0.00329   -0.00962
 39 H    -0.01138    0.01087    0.02009
 40 H     0.06119   -0.04012    0.12787
 41 H    -0.02316   -0.00161   -0.01118
 42 H     0.00163   -0.00500   -0.01752
 43 H     0.01076   -0.00563   -0.01413
 44 H     0.00180   -0.00290    0.02224
 45 N    -0.04266   -1.94972   -0.09439
 46 N    -0.05785    1.99174   -0.09818

System changes: positions 

Initializing position-dependent things.

Density initialized from wave functions
       .-----------------------.  
      /|                       |  
     / |                       |  
    /  |                       |  
   /   O H                     |  
  /    | C     H               |  
 *     | H                     |  
 |     |                       |  
 |     |                       |  
 H     |H                     N|  
 |     C                       |  
 |     |H                      |  
 |     |                       |  
 |     |                       |  
 |   Li|     Li      Li  N     |  
 |     |  Li      Li      Li   |  
 | Li  |   Li      Li          |  
 |     |Li      Li      Li     |  
 Li    | Li      Li            |  
 |   LLi     LLi     LLi       |  
 |     |  Li      Li      Li   |  
 | Li  |   Li      Li          |  
 |     |Li      Li      Li     |  
 Li    | Li      Li            |  
 |    Li      Li      Li       |  
 |     |                       |  
 |     |                       |  
 |     |                       |  
 |     |                       |  
 |     |                       |  
 |     |                       |  
 |     .-----------------------.  
 |    /                       /   
 |   /                       /    
 |  /                       /     
 | /                       /      
 |/                       /       
 *-----------------------*        

Positions:
   0 Li     1.617037    1.617037   10.000000    ( 0.0000,  0.0000,  0.0000)
   1 Li     4.851111    1.617037   10.000000    ( 0.0000,  0.0000,  0.0000)
   2 Li     8.085185    1.617037   10.000000    ( 0.0000,  0.0000,  0.0000)
   3 Li     1.617037    4.851111   10.000000    ( 0.0000,  0.0000,  0.0000)
   4 Li     4.851111    4.851111   10.000000    ( 0.0000,  0.0000,  0.0000)
   5 Li     8.085185    4.851111   10.000000    ( 0.0000,  0.0000,  0.0000)
   6 Li     1.617037    8.085185   10.000000    ( 0.0000,  0.0000,  0.0000)
   7 Li     4.851111    8.085185   10.000000    ( 0.0000,  0.0000,  0.0000)
   8 Li     8.085185    8.085185   10.000000    ( 0.0000,  0.0000,  0.0000)
   9 Li     0.000000    0.000000   11.617037    ( 0.0000,  0.0000,  0.0000)
  10 Li     3.234074    0.000000   11.617037    ( 0.0000,  0.0000,  0.0000)
  11 Li     6.468148    0.000000   11.617037    ( 0.0000,  0.0000,  0.0000)
  12 Li     0.000000    3.234074   11.617037    ( 0.0000,  0.0000,  0.0000)
  13 Li     3.234074    3.234074   11.617037    ( 0.0000,  0.0000,  0.0000)
  14 Li     6.468148    3.234074   11.617037    ( 0.0000,  0.0000,  0.0000)
  15 Li     0.000000    6.468148   11.617037    ( 0.0000,  0.0000,  0.0000)
  16 Li     3.234074    6.468148   11.617037    ( 0.0000,  0.0000,  0.0000)
  17 Li     6.468148    6.468148   11.617037    ( 0.0000,  0.0000,  0.0000)
  18 Li     1.616955    1.616966   13.470598    ( 0.0000,  0.0000,  0.0000)
  19 Li     4.851115    1.617062   13.470410    ( 0.0000,  0.0000,  0.0000)
  20 Li     8.085264    1.616964   13.470581    ( 0.0000,  0.0000,  0.0000)
  21 Li     1.617042    4.851147   13.470455    ( 0.0000,  0.0000,  0.0000)
  22 Li     4.851116    4.851067   13.470375    ( 0.0000,  0.0000,  0.0000)
  23 Li     8.085175    4.851146   13.470459    ( 0.0000,  0.0000,  0.0000)
  24 Li     1.617000    8.085209   13.470490    ( 0.0000,  0.0000,  0.0000)
  25 Li     4.851115    8.085182   13.470495    ( 0.0000,  0.0000,  0.0000)
  26 Li     8.085218    8.085211   13.470470    ( 0.0000,  0.0000,  0.0000)
  27 Li     0.000029    0.000416   15.444642    ( 0.0000,  0.0000,  0.0000)
  28 Li     3.234413    0.000056   15.445147    ( 0.0000,  0.0000,  0.0000)
  29 Li     6.467790    0.000058   15.445187    ( 0.0000,  0.0000,  0.0000)
  30 Li     0.000020    3.234002   15.445574    ( 0.0000,  0.0000,  0.0000)
  31 Li     3.233999    3.234013   15.445520    ( 0.0000,  0.0000,  0.0000)
  32 Li     6.468203    3.234030   15.445509    ( 0.0000,  0.0000,  0.0000)
  33 Li     0.000020    6.467761   15.445383    ( 0.0000,  0.0000,  0.0000)
  34 Li     3.234105    6.468157   15.445397    ( 0.0000,  0.0000,  0.0000)
  35 Li     6.468099    6.468140   15.445403    ( 0.0000,  0.0000,  0.0000)
  36 O      9.702749    9.701632   21.446962    ( 0.0000,  0.0000,  0.0000)
  37 C     10.885983    8.884581   21.451392    ( 0.0000,  0.0000,  0.0000)
  38 C     12.168808    9.705097   21.435681    ( 0.0000,  0.0000,  0.0000)
  39 H     10.875654    8.202603   22.310099    ( 0.0000,  0.0000,  0.0000)
  40 H     10.810604    8.275382   20.550924    ( 0.0000,  0.0000,  0.0000)
  41 H     13.045036    9.051208   21.420036    ( 0.0000,  0.0000,  0.0000)
  42 H     12.203671   10.354140   20.558402    ( 0.0000,  0.0000,  0.0000)
  43 H     12.239216   10.333339   22.327839    ( 0.0000,  0.0000,  0.0000)
  44 H      9.741315   10.284732   22.213988    ( 0.0000,  0.0000,  0.0000)
  45 N      9.701121    9.705336   18.443702    ( 0.0000,  0.0000,  0.0000)
  46 N      9.700753    8.602710   18.444001    ( 0.0000,  0.0000,  0.0000)

Unit cell:
           periodic     x           y           z      points  spacing
  1. axis:    yes    9.702222    0.000000    0.000000    60     0.1617
  2. axis:    yes    0.000000    9.702222    0.000000    60     0.1617
  3. axis:    no     0.000000    0.000000   24.851111   156     0.1593

  Lengths:   9.702222   9.702222  24.851111
  Angles:   90.000000  90.000000  90.000000

Effective grid spacing dv^(1/3) = 0.1609

     iter     time        total  log10-change:
                         energy  eigst   dens
iter:   1 13:02:25  -308.654557  -1.88
iter:   2 13:04:56  -308.612130  -1.36  -1.76
iter:   3 13:07:32  -308.600504  -2.36  -1.96
iter:   4 13:10:13  -308.591196c -1.58  -2.31
Writing to output.gpw (mode='')

iter:   5 13:12:52  -308.592263c -2.10  -2.27
iter:   6 13:15:22  -308.591028c -2.22  -2.36
iter:   7 13:18:06  -308.588444c -2.15  -2.46
iter:   8 13:20:45  -308.587704c -2.95  -2.67
iter:   9 13:23:26  -308.587887c -2.89  -2.86
Writing to output.gpw (mode='')

iter:  10 13:26:08  -308.587599c -3.41  -3.06
iter:  11 13:28:47  -308.587599c -3.59  -3.12
iter:  12 13:31:29  -308.587590c -3.74  -3.31
iter:  13 13:34:12  -308.587578c -3.81  -3.41
iter:  14 13:36:50  -308.587591c -4.01  -3.49
Writing to output.gpw (mode='')

iter:  15 13:39:27  -308.587618c -4.11  -3.56
iter:  16 13:42:00  -308.587619c -4.30  -3.77
iter:  17 13:44:39  -308.587623c -4.32  -3.81
iter:  18 13:47:13  -308.587637c -4.39  -3.88
iter:  19 13:49:50  -308.587634c -4.53  -3.87
Writing to output.gpw (mode='')

iter:  20 13:52:27  -308.587637c -4.65  -4.07c
iter:  21 13:55:08  -308.587641c -4.72  -4.13c
iter:  22 13:57:56  -308.587641c -4.75  -4.32c
iter:  23 14:00:25  -308.587644c -4.86  -4.31c
iter:  24 14:03:03  -308.587647c -4.98  -4.31c
Writing to output.gpw (mode='')

iter:  25 14:05:44  -308.587649c -5.06  -4.35c
iter:  26 14:08:21  -308.587651c -5.02  -4.32c
iter:  27 14:10:56  -308.587652c -5.17  -4.31c
iter:  28 14:13:32  -308.587654c -5.19  -4.32c
iter:  29 14:16:08  -308.587655c -5.17  -4.31c
Writing to output.gpw (mode='')

iter:  30 14:18:48  -308.587655c -5.30  -4.29c
iter:  31 14:21:25  -308.587658c -5.21  -4.33c
iter:  32 14:23:53  -308.587658c -5.29  -4.25c
iter:  33 14:26:21  -308.587659c -5.40  -4.29c
iter:  34 14:28:46  -308.587659c -5.40  -4.27c
Writing to output.gpw (mode='')

iter:  35 14:31:17  -308.587659c -5.58  -4.35c
iter:  36 14:33:54  -308.587659c -5.39  -4.33c
iter:  37 14:36:33  -308.587661c -5.50  -4.30c
iter:  38 14:39:05  -308.587663c -5.56  -4.33c
iter:  39 14:41:41  -308.587663c -5.76  -4.34c
Writing to output.gpw (mode='')

iter:  40 14:44:10  -308.587664c -6.00  -4.30c
iter:  41 14:46:46  -308.587665c -5.89  -4.27c
iter:  42 14:49:26  -308.587666c -5.78  -4.34c
iter:  43 14:51:55  -308.587665c -6.06  -4.29c
iter:  44 14:54:26  -308.587668c -5.71  -4.32c
Writing to output.gpw (mode='')

iter:  45 14:57:02  -308.587669c -5.76  -4.37c
iter:  46 14:59:34  -308.587669c -6.15  -4.43c
iter:  47 15:02:01  -308.587669c -6.39  -4.62c
iter:  48 15:04:35  -308.587669c -6.46  -4.69c
iter:  49 15:07:10  -308.587670c -6.10  -4.69c
Writing to output.gpw (mode='')

iter:  50 15:09:40  -308.587670c -6.46  -4.84c
iter:  51 15:12:25  -308.587670c -6.40  -4.86c
iter:  52 15:15:02  -308.587670c -6.37  -5.01c
iter:  53 15:17:33  -308.587670c -6.66  -5.04c
iter:  54 15:20:11  -308.587670c -6.71  -5.04c
Writing to output.gpw (mode='')

iter:  55 15:22:52  -308.587670c -6.60  -5.05c
iter:  56 15:25:28  -308.587670c -6.60  -5.22c
iter:  57 15:28:09  -308.587670c -6.80  -5.36c
iter:  58 15:30:32  -308.587670c -6.73  -5.47c
iter:  59 15:33:10  -308.587670c -6.93  -5.48c
Writing to output.gpw (mode='')

iter:  60 15:35:55  -308.587670c -7.04  -5.65c
iter:  61 15:38:30  -308.587670c -6.96  -5.74c
iter:  62 15:41:06  -308.587670c -6.91  -5.85c
iter:  63 15:43:38  -308.587670c -7.11  -5.87c
iter:  64 15:46:19  -308.587670c -7.13  -5.85c
Writing to output.gpw (mode='')

iter:  65 15:48:59  -308.587670c -7.24  -6.00c
iter:  66 15:51:36  -308.587670c -7.18  -6.03c
iter:  67 15:54:17  -308.587670c -7.06  -6.01c
iter:  68 15:56:54  -308.587670c -7.21  -5.96c
iter:  69 15:59:36  -308.587670c -7.24  -5.80c
Writing to output.gpw (mode='')

iter:  70 16:02:10  -308.587670c -7.47c -5.83c

Converged after 70 iterations.

Dipole moment: (-18.292161, -12.383415, 0.308610) |e|*Ang

Energy contributions relative to reference atoms: (reference = -14434.854043)

Kinetic:       +150.374682
Potential:     -146.553316
External:        +0.000000
XC:            -313.082759
Entropy (-ST):   -0.153227
Local:           +0.750336
--------------------------
Free energy:   -308.664284
Extrapolated:  -308.587670

Dipole-layer corrected work functions: 3.394309, 2.801054 eV

Showing only first 2 kpts
 Kpt  Band  Eigenvalues  Occupancy
  0    31     -3.34942    1.98707
  0    32     -3.27083    1.93923
  0    33     -2.92720    0.06399
  0    34     -2.84427    0.01251

  1    31     -3.11802    1.20061
  1    32     -3.08843    0.90779
  1    33     -3.05814    0.62398
  1    34     -3.05194    0.57200


Fermi level: -3.09768

No gap

Forces in eV/Ang:
  0 Li    0.00032    0.00213   -0.27020
  1 Li   -0.00008   -0.00095   -0.27451
  2 Li   -0.00025    0.00231   -0.26998
  3 Li   -0.00114   -0.00027   -0.27402
  4 Li    0.00008    0.00192   -0.27766
  5 Li    0.00106   -0.00032   -0.27375
  6 Li    0.00253   -0.00179   -0.27057
  7 Li   -0.00011    0.00005   -0.27463
  8 Li   -0.00242   -0.00193   -0.27032
  9 Li    0.00020   -0.00067    0.26599
 10 Li    0.00342    0.00064    0.25671
 11 Li   -0.00363    0.00072    0.25708
 12 Li   -0.00010    0.00502    0.25549
 13 Li   -0.00316   -0.00210    0.26188
 14 Li    0.00326   -0.00207    0.26138
 15 Li   -0.00007   -0.00316    0.25588
 16 Li    0.00208    0.00113    0.25797
 17 Li   -0.00201    0.00103    0.25774
 18 Li   -0.00395   -0.00338    0.04194
 19 Li    0.00018    0.00131    0.03274
 20 Li    0.00380   -0.00348    0.04111
 21 Li    0.00024    0.00168    0.03508
 22 Li    0.00026   -0.00222    0.03116
 23 Li   -0.00048    0.00165    0.03528
 24 Li   -0.00182    0.00109    0.03664
 25 Li    0.00021   -0.00019    0.03691
 26 Li    0.00164    0.00123    0.03569
 27 Li    0.00146    0.02023   -0.06264
 28 Li    0.01666    0.00283   -0.03867
 29 Li   -0.01765    0.00288   -0.03669
 30 Li    0.00099   -0.00365   -0.01753
 31 Li   -0.00385   -0.00316   -0.02027
 32 Li    0.00288   -0.00231   -0.02080
 33 Li    0.00100   -0.01904   -0.02686
 34 Li    0.00145    0.00052   -0.02635
 35 Li   -0.00233   -0.00031   -0.02604
 36 O     0.02858   -0.05786    0.01672
 37 C     0.04284    0.01968    0.06095
 38 C     0.00095    0.00563   -0.00962
 39 H    -0.00849    0.00682    0.02825
 40 H     0.06153   -0.04590    0.11919
 41 H    -0.01977   -0.00289   -0.01145
 42 H     0.00123   -0.00601   -0.01618
 43 H     0.01135   -0.00383   -0.01268
 44 H     0.00104   -0.00517    0.01894
 45 N    -0.03515   -0.11107   -0.10175
 46 N    -0.06249    0.10980   -0.09673

System changes: positions 

Initializing position-dependent things.

Density initialized from wave functions
       .-----------------------.  
      /|                       |  
     / |                       |  
    /  |                       |  
   /   O H                     |  
  /    | C     H               |  
 *     | H                     |  
 |     |                       |  
 |     |                       |  
 H     |H                     N|  
 |     C                       |  
 |     |H                      |  
 |     |                       |  
 |     |                       |  
 |   Li|     Li      Li  N     |  
 |     |  Li      Li      Li   |  
 | Li  |   Li      Li          |  
 |     |Li      Li      Li     |  
 Li    | Li      Li            |  
 |   LLi     LLi     LLi       |  
 |     |  Li      Li      Li   |  
 | Li  |   Li      Li          |  
 |     |Li      Li      Li     |  
 Li    | Li      Li            |  
 |    Li      Li      Li       |  
 |     |                       |  
 |     |                       |  
 |     |                       |  
 |     |                       |  
 |     |                       |  
 |     |                       |  
 |     .-----------------------.  
 |    /                       /   
 |   /                       /    
 |  /                       /     
 | /                       /      
 |/                       /       
 *-----------------------*        

Positions:
   0 Li     1.617037    1.617037   10.000000    ( 0.0000,  0.0000,  0.0000)
   1 Li     4.851111    1.617037   10.000000    ( 0.0000,  0.0000,  0.0000)
   2 Li     8.085185    1.617037   10.000000    ( 0.0000,  0.0000,  0.0000)
   3 Li     1.617037    4.851111   10.000000    ( 0.0000,  0.0000,  0.0000)
   4 Li     4.851111    4.851111   10.000000    ( 0.0000,  0.0000,  0.0000)
   5 Li     8.085185    4.851111   10.000000    ( 0.0000,  0.0000,  0.0000)
   6 Li     1.617037    8.085185   10.000000    ( 0.0000,  0.0000,  0.0000)
   7 Li     4.851111    8.085185   10.000000    ( 0.0000,  0.0000,  0.0000)
   8 Li     8.085185    8.085185   10.000000    ( 0.0000,  0.0000,  0.0000)
   9 Li     0.000000    0.000000   11.617037    ( 0.0000,  0.0000,  0.0000)
  10 Li     3.234074    0.000000   11.617037    ( 0.0000,  0.0000,  0.0000)
  11 Li     6.468148    0.000000   11.617037    ( 0.0000,  0.0000,  0.0000)
  12 Li     0.000000    3.234074   11.617037    ( 0.0000,  0.0000,  0.0000)
  13 Li     3.234074    3.234074   11.617037    ( 0.0000,  0.0000,  0.0000)
  14 Li     6.468148    3.234074   11.617037    ( 0.0000,  0.0000,  0.0000)
  15 Li     0.000000    6.468148   11.617037    ( 0.0000,  0.0000,  0.0000)
  16 Li     3.234074    6.468148   11.617037    ( 0.0000,  0.0000,  0.0000)
  17 Li     6.468148    6.468148   11.617037    ( 0.0000,  0.0000,  0.0000)
  18 Li     1.616889    1.616909   13.471298    ( 0.0000,  0.0000,  0.0000)
  19 Li     4.851118    1.617084   13.470956    ( 0.0000,  0.0000,  0.0000)
  20 Li     8.085327    1.616905   13.471267    ( 0.0000,  0.0000,  0.0000)
  21 Li     1.617046    4.851175   13.471041    ( 0.0000,  0.0000,  0.0000)
  22 Li     4.851121    4.851030   13.470894    ( 0.0000,  0.0000,  0.0000)
  23 Li     8.085167    4.851174   13.471048    ( 0.0000,  0.0000,  0.0000)
  24 Li     1.616970    8.085227   13.471101    ( 0.0000,  0.0000,  0.0000)
  25 Li     4.851119    8.085179   13.471111    ( 0.0000,  0.0000,  0.0000)
  26 Li     8.085245    8.085232   13.471066    ( 0.0000,  0.0000,  0.0000)
  27 Li     0.000053    0.000754   15.443592    ( 0.0000,  0.0000,  0.0000)
  28 Li     3.234690    0.000103   15.444502    ( 0.0000,  0.0000,  0.0000)
  29 Li     6.467496    0.000105   15.444575    ( 0.0000,  0.0000,  0.0000)
  30 Li     0.000036    3.233942   15.445281    ( 0.0000,  0.0000,  0.0000)
  31 Li     3.233935    3.233960   15.445182    ( 0.0000,  0.0000,  0.0000)
  32 Li     6.468251    3.233991   15.445162    ( 0.0000,  0.0000,  0.0000)
  33 Li     0.000037    6.467443   15.444934    ( 0.0000,  0.0000,  0.0000)
  34 Li     3.234129    6.468166   15.444958    ( 0.0000,  0.0000,  0.0000)
  35 Li     6.468060    6.468135   15.444969    ( 0.0000,  0.0000,  0.0000)
  36 O      9.703220    9.700719   21.447298    ( 0.0000,  0.0000,  0.0000)
  37 C     10.886735    8.884802   21.452399    ( 0.0000,  0.0000,  0.0000)
  38 C     12.168821    9.705184   21.435535    ( 0.0000,  0.0000,  0.0000)
  39 H     10.875499    8.202760   22.310499    ( 0.0000,  0.0000,  0.0000)
  40 H     10.811638    8.274664   20.552994    ( 0.0000,  0.0000,  0.0000)
  41 H     13.044680    9.051171   21.419846    ( 0.0000,  0.0000,  0.0000)
  42 H     12.203699   10.354053   20.558121    ( 0.0000,  0.0000,  0.0000)
  43 H     12.239401   10.333263   22.327614    ( 0.0000,  0.0000,  0.0000)
  44 H      9.741324   10.284614   22.214255    ( 0.0000,  0.0000,  0.0000)
  45 N      9.700526    9.704783   18.441990    ( 0.0000,  0.0000,  0.0000)
  46 N      9.699713    8.603281   18.442393    ( 0.0000,  0.0000,  0.0000)

Unit cell:
           periodic     x           y           z      points  spacing
  1. axis:    yes    9.702222    0.000000    0.000000    60     0.1617
  2. axis:    yes    0.000000    9.702222    0.000000    60     0.1617
  3. axis:    no     0.000000    0.000000   24.851111   156     0.1593

  Lengths:   9.702222   9.702222  24.851111
  Angles:   90.000000  90.000000  90.000000

Effective grid spacing dv^(1/3) = 0.1609

     iter     time        total  log10-change:
                         energy  eigst   dens
iter:   1 16:05:20  -308.591781  -2.73
iter:   2 16:07:46  -308.589426  -3.08  -2.40
iter:   3 16:10:17  -308.589111c -4.42  -2.76
iter:   4 16:12:48  -308.589037c -3.80  -3.36
Writing to output.gpw (mode='')

iter:   5 16:15:35  -308.589019c -4.45  -3.40
iter:   6 16:18:07  -308.589032c -4.51  -3.49
iter:   7 16:20:35  -308.589013c -4.57  -3.76
iter:   8 16:23:21  -308.589028c -5.07  -3.82
iter:   9 16:25:50  -308.589034c -5.17  -4.07c
Writing to output.gpw (mode='')

iter:  10 16:28:27  -308.589030c -5.73  -4.04c
iter:  11 16:31:04  -308.589028c -5.50  -4.19c
iter:  12 16:33:38  -308.589030c -6.22  -4.28c
iter:  13 16:36:03  -308.589029c -5.91  -4.35c
iter:  14 16:38:36  -308.589028c -6.00  -4.48c
Writing to output.gpw (mode='')

iter:  15 16:41:10  -308.589028c -6.66  -4.51c
iter:  16 16:43:49  -308.589032c -6.41  -4.55c
iter:  17 16:46:24  -308.589030c -6.98  -4.66c
iter:  18 16:49:06  -308.589029c -6.50  -4.90c
iter:  19 16:51:38  -308.589030c -7.25  -4.86c
Writing to output.gpw (mode='')

iter:  20 16:54:30  -308.589030c -7.16  -5.05c
iter:  21 16:57:07  -308.589030c -7.38  -5.25c
iter:  22 16:59:44  -308.589030c -7.44c -5.31c

Converged after 22 iterations.

Dipole moment: (-18.169270, -12.260049, 0.309448) |e|*Ang

Energy contributions relative to reference atoms: (reference = -14434.854043)

Kinetic:       +150.641491
Potential:     -146.763110
External:        +0.000000
XC:            -313.141110
Entropy (-ST):   -0.153210
Local:           +0.750304
--------------------------
Free energy:   -308.665635
Extrapolated:  -308.589030

Dipole-layer corrected work functions: 3.394302, 2.799436 eV

Showing only first 2 kpts
 Kpt  Band  Eigenvalues  Occupancy
  0    31     -3.34851    1.98704
  0    32     -3.27003    1.93925
  0    33     -2.92628    0.06386
  0    34     -2.84332    0.01247

  1    31     -3.11705    1.19916
  1    32     -3.08755    0.90706
  1    33     -3.05753    0.62570
  1    34     -3.05128    0.57328


Fermi level: -3.09687

No gap
Writing to output.gpw (mode='')


Forces in eV/Ang:
  0 Li    0.00032    0.00213   -0.27030
  1 Li   -0.00008   -0.00097   -0.27460
  2 Li   -0.00026    0.00231   -0.27007
  3 Li   -0.00115   -0.00028   -0.27409
  4 Li    0.00008    0.00192   -0.27771
  5 Li    0.00107   -0.00032   -0.27382
  6 Li    0.00254   -0.00178   -0.27065
  7 Li   -0.00012    0.00007   -0.27471
  8 Li   -0.00243   -0.00193   -0.27039
  9 Li    0.00020   -0.00065    0.26659
 10 Li    0.00341    0.00064    0.25732
 11 Li   -0.00363    0.00072    0.25768
 12 Li   -0.00010    0.00497    0.25609
 13 Li   -0.00322   -0.00211    0.26243
 14 Li    0.00333   -0.00208    0.26192
 15 Li   -0.00007   -0.00315    0.25646
 16 Li    0.00206    0.00114    0.25854
 17 Li   -0.00200    0.00103    0.25829
 18 Li   -0.00372   -0.00316    0.04030
 19 Li    0.00018    0.00145    0.03144
 20 Li    0.00357   -0.00325    0.03951
 21 Li    0.00026    0.00156    0.03388
 22 Li    0.00024   -0.00221    0.03003
 23 Li   -0.00049    0.00154    0.03407
 24 Li   -0.00173    0.00100    0.03526
 25 Li    0.00021   -0.00031    0.03546
 26 Li    0.00156    0.00113    0.03434
 27 Li    0.00146    0.02000   -0.06219
 28 Li    0.01642    0.00278   -0.03782
 29 Li   -0.01742    0.00284   -0.03592
 30 Li    0.00097   -0.00340   -0.01699
 31 Li   -0.00377   -0.00310   -0.01963
 32 Li    0.00282   -0.00227   -0.02016
 33 Li    0.00098   -0.01884   -0.02625
 34 Li    0.00149    0.00050   -0.02564
 35 Li   -0.00236   -0.00031   -0.02535
 36 O     0.02185   -0.03967    0.03220
 37 C     0.03011    0.01036    0.05101
 38 C     0.00749    0.01083   -0.00423
 39 H    -0.00039    0.00357    0.04457
 40 H     0.05905   -0.05027    0.10110
 41 H    -0.01225   -0.00560   -0.01146
 42 H    -0.00096   -0.00684   -0.01566
 43 H     0.01447    0.00150   -0.00987
 44 H    -0.00067   -0.01691    0.00279
 45 N    -0.02738    0.04250   -0.09454
 46 N    -0.06306   -0.03679   -0.09811

System changes: positions 

Initializing position-dependent things.

Density initialized from wave functions
       .-----------------------.  
      /|                       |  
     / |                       |  
    /  |                       |  
   /   O H                     |  
  /    | C     H               |  
 *     | H                     |  
 |     |                       |  
 |     |                       |  
 H     |H                     N|  
 |     C                       |  
 |     |H                      |  
 |     |                       |  
 |     |                       |  
 |   Li|     Li      Li  N     |  
 |     |  Li      Li      Li   |  
 | Li  |   Li      Li          |  
 |     |Li      Li      Li     |  
 Li    | Li      Li            |  
 |   LLi     LLi     LLi       |  
 |     |  Li      Li      Li   |  
 | Li  |   Li      Li          |  
 |     |Li      Li      Li     |  
 Li    | Li      Li            |  
 |    Li      Li      Li       |  
 |     |                       |  
 |     |                       |  
 |     |                       |  
 |     |                       |  
 |     |                       |  
 |     |                       |  
 |     .-----------------------.  
 |    /                       /   
 |   /                       /    
 |  /                       /     
 | /                       /      
 |/                       /       
 *-----------------------*        

Positions:
   0 Li     1.617037    1.617037   10.000000    ( 0.0000,  0.0000,  0.0000)
   1 Li     4.851111    1.617037   10.000000    ( 0.0000,  0.0000,  0.0000)
   2 Li     8.085185    1.617037   10.000000    ( 0.0000,  0.0000,  0.0000)
   3 Li     1.617037    4.851111   10.000000    ( 0.0000,  0.0000,  0.0000)
   4 Li     4.851111    4.851111   10.000000    ( 0.0000,  0.0000,  0.0000)
   5 Li     8.085185    4.851111   10.000000    ( 0.0000,  0.0000,  0.0000)
   6 Li     1.617037    8.085185   10.000000    ( 0.0000,  0.0000,  0.0000)
   7 Li     4.851111    8.085185   10.000000    ( 0.0000,  0.0000,  0.0000)
   8 Li     8.085185    8.085185   10.000000    ( 0.0000,  0.0000,  0.0000)
   9 Li     0.000000    0.000000   11.617037    ( 0.0000,  0.0000,  0.0000)
  10 Li     3.234074    0.000000   11.617037    ( 0.0000,  0.0000,  0.0000)
  11 Li     6.468148    0.000000   11.617037    ( 0.0000,  0.0000,  0.0000)
  12 Li     0.000000    3.234074   11.617037    ( 0.0000,  0.0000,  0.0000)
  13 Li     3.234074    3.234074   11.617037    ( 0.0000,  0.0000,  0.0000)
  14 Li     6.468148    3.234074   11.617037    ( 0.0000,  0.0000,  0.0000)
  15 Li     0.000000    6.468148   11.617037    ( 0.0000,  0.0000,  0.0000)
  16 Li     3.234074    6.468148   11.617037    ( 0.0000,  0.0000,  0.0000)
  17 Li     6.468148    6.468148   11.617037    ( 0.0000,  0.0000,  0.0000)
  18 Li     1.616325    1.616427   13.477350    ( 0.0000,  0.0000,  0.0000)
  19 Li     4.851144    1.617286   13.475680    ( 0.0000,  0.0000,  0.0000)
  20 Li     8.085869    1.616409   13.477200    ( 0.0000,  0.0000,  0.0000)
  21 Li     1.617083    4.851414   13.476115    ( 0.0000,  0.0000,  0.0000)
  22 Li     4.851157    4.850706   13.475396    ( 0.0000,  0.0000,  0.0000)
  23 Li     8.085096    4.851409   13.476150    ( 0.0000,  0.0000,  0.0000)
  24 Li     1.616709    8.085382   13.476393    ( 0.0000,  0.0000,  0.0000)
  25 Li     4.851149    8.085142   13.476437    ( 0.0000,  0.0000,  0.0000)
  26 Li     8.085481    8.085407   13.476220    ( 0.0000,  0.0000,  0.0000)
  27 Li     0.000268    0.003713   15.434404    ( 0.0000,  0.0000,  0.0000)
  28 Li     3.237122    0.000515   15.438878    ( 0.0000,  0.0000,  0.0000)
  29 Li     6.464919    0.000526   15.439236    ( 0.0000,  0.0000,  0.0000)
  30 Li     0.000180    3.233425   15.442739    ( 0.0000,  0.0000,  0.0000)
  31 Li     3.233376    3.233501   15.442246    ( 0.0000,  0.0000,  0.0000)
  32 Li     6.468670    3.233655   15.442150    ( 0.0000,  0.0000,  0.0000)
  33 Li     0.000183    6.464658   15.441026    ( 0.0000,  0.0000,  0.0000)
  34 Li     3.234345    6.468241   15.441135    ( 0.0000,  0.0000,  0.0000)
  35 Li     6.467716    6.468090   15.441190    ( 0.0000,  0.0000,  0.0000)
  36 O      9.706855    9.694052   21.451455    ( 0.0000,  0.0000,  0.0000)
  37 C     10.892368    8.886068   21.460520    ( 0.0000,  0.0000,  0.0000)
  38 C     12.169438    9.706353   21.434666    ( 0.0000,  0.0000,  0.0000)
  39 H     10.874764    8.203879   22.315336    ( 0.0000,  0.0000,  0.0000)
  40 H     10.820571    8.267969   20.569834    ( 0.0000,  0.0000,  0.0000)
  41 H     13.042133    9.050622   21.418161    ( 0.0000,  0.0000,  0.0000)
  42 H     12.203769   10.353212   20.555674    ( 0.0000,  0.0000,  0.0000)
  43 H     12.241285   10.333014   22.325853    ( 0.0000,  0.0000,  0.0000)
  44 H      9.741277   10.282675   22.215376    ( 0.0000,  0.0000,  0.0000)
  45 N      9.695852    9.703458   18.427480    ( 0.0000,  0.0000,  0.0000)
  46 N      9.690495    8.605476   18.428074    ( 0.0000,  0.0000,  0.0000)

Unit cell:
           periodic     x           y           z      points  spacing
  1. axis:    yes    9.702222    0.000000    0.000000    60     0.1617
  2. axis:    yes    0.000000    9.702222    0.000000    60     0.1617
  3. axis:    no     0.000000    0.000000   24.851111   156     0.1593

  Lengths:   9.702222   9.702222  24.851111
  Angles:   90.000000  90.000000  90.000000

Effective grid spacing dv^(1/3) = 0.1609

     iter     time        total  log10-change:
                         energy  eigst   dens
iter:   1 17:03:05  -308.713832  -1.04
iter:   2 17:05:38  -308.611635  -1.61  -1.56
iter:   3 17:08:09  -308.597160  -2.80  -1.98
iter:   4 17:10:39  -308.596226c -2.78  -2.58
Writing to output.gpw (mode='')

iter:   5 17:13:22  -308.596032c -2.42  -2.77
iter:   6 17:15:58  -308.596018c -3.34  -2.86
iter:   7 17:18:44  -308.596136c -3.15  -3.12
iter:   8 17:21:26  -308.596112c -3.53  -3.15
iter:   9 17:23:55  -308.596148c -3.47  -3.16
Writing to output.gpw (mode='')

iter:  10 17:26:33  -308.596228c -3.61  -3.30
iter:  11 17:29:25  -308.596223c -4.45  -3.33
iter:  12 17:32:05  -308.596204c -4.14  -3.39
iter:  13 17:34:39  -308.596204c -4.61  -3.51
iter:  14 17:37:16  -308.596206c -4.93  -3.67
Writing to output.gpw (mode='')

iter:  15 17:39:59  -308.596211c -4.84  -3.70
iter:  16 17:42:40  -308.596222c -4.81  -3.76
iter:  17 17:45:20  -308.596222c -5.33  -4.03c
iter:  18 17:47:51  -308.596222c -5.53  -4.10c
iter:  19 17:50:29  -308.596222c -5.59  -4.18c
Writing to output.gpw (mode='')

iter:  20 17:53:08  -308.596225c -5.48  -4.28c
iter:  21 17:55:46  -308.596225c -5.91  -4.40c
iter:  22 17:58:21  -308.596224c -5.62  -4.45c
iter:  23 18:00:56  -308.596225c -5.82  -4.49c
iter:  24 18:03:37  -308.596225c -6.21  -4.67c
Writing to output.gpw (mode='')

iter:  25 18:06:13  -308.596225c -6.31  -4.74c
iter:  26 18:08:50  -308.596225c -6.40  -4.78c
iter:  27 18:11:23  -308.596225c -6.48  -5.04c
iter:  28 18:13:57  -308.596225c -6.49  -5.20c
iter:  29 18:16:29  -308.596225c -6.48  -5.26c
Writing to output.gpw (mode='')

iter:  30 18:19:06  -308.596225c -6.56  -5.28c
iter:  31 18:21:44  -308.596225c -6.76  -5.33c
iter:  32 18:24:23  -308.596225c -6.80  -5.48c
iter:  33 18:26:53  -308.596225c -6.85  -5.53c
iter:  34 18:29:32  -308.596226c -6.86  -5.59c
Writing to output.gpw (mode='')

iter:  35 18:32:16  -308.596226c -6.78  -5.66c
iter:  36 18:34:50  -308.596226c -7.06  -5.72c
iter:  37 18:37:21  -308.596226c -7.10  -5.63c
iter:  38 18:39:56  -308.596226c -7.13  -5.58c
iter:  39 18:42:36  -308.596226c -7.21  -5.55c
Writing to output.gpw (mode='')

iter:  40 18:45:12  -308.596226c -7.17  -5.50c
iter:  41 18:47:48  -308.596226c -7.31  -5.44c
iter:  42 18:50:19  -308.596226c -7.43c -5.37c

Converged after 42 iterations.

Dipole moment: (-17.076242, -11.688522, 0.311363) |e|*Ang

Energy contributions relative to reference atoms: (reference = -14434.854043)

Kinetic:       +151.911434
Potential:     -147.737957
External:        +0.000000
XC:            -313.443233
Entropy (-ST):   -0.153123
Local:           +0.750092
--------------------------
Free energy:   -308.672787
Extrapolated:  -308.596226

Dipole-layer corrected work functions: 3.394199, 2.795653 eV

Showing only first 2 kpts
 Kpt  Band  Eigenvalues  Occupancy
  0    31     -3.34575    1.98683
  0    32     -3.26840    1.93961
  0    33     -2.92316    0.06242
  0    34     -2.84044    0.01224

  1    31     -3.11400    1.18842
  1    32     -3.08453    0.89644
  1    33     -3.05743    0.64165
  1    34     -3.05066    0.58418


Fermi level: -3.09493

No gap
Writing to output.gpw (mode='')


Forces in eV/Ang:
  0 Li    0.00032    0.00216   -0.27098
  1 Li   -0.00008   -0.00115   -0.27516
  2 Li   -0.00025    0.00236   -0.27075
  3 Li   -0.00129   -0.00032   -0.27455
  4 Li    0.00009    0.00193   -0.27812
  5 Li    0.00119   -0.00037   -0.27429
  6 Li    0.00268   -0.00178   -0.27137
  7 Li   -0.00013    0.00024   -0.27531
  8 Li   -0.00256   -0.00193   -0.27111
  9 Li    0.00024   -0.00045    0.27182
 10 Li    0.00338    0.00071    0.26245
 11 Li   -0.00362    0.00083    0.26274
 12 Li   -0.00007    0.00471    0.26098
 13 Li   -0.00379   -0.00238    0.26706
 14 Li    0.00387   -0.00226    0.26643
 15 Li   -0.00005   -0.00314    0.26123
 16 Li    0.00205    0.00126    0.26323
 17 Li   -0.00201    0.00103    0.26288
 18 Li   -0.00181   -0.00116    0.02628
 19 Li    0.00019    0.00265    0.02021
 20 Li    0.00166   -0.00123    0.02580
 21 Li    0.00049    0.00059    0.02342
 22 Li    0.00011   -0.00222    0.02049
 23 Li   -0.00058    0.00056    0.02363
 24 Li   -0.00108    0.00004    0.02320
 25 Li    0.00024   -0.00128    0.02314
 26 Li    0.00089    0.00016    0.02254
 27 Li    0.00147    0.01703   -0.05316
 28 Li    0.01397    0.00249   -0.02985
 29 Li   -0.01511    0.00263   -0.02857
 30 Li    0.00077   -0.00202   -0.01166
 31 Li   -0.00314   -0.00263   -0.01394
 32 Li    0.00239   -0.00198   -0.01443
 33 Li    0.00080   -0.01647   -0.01978
 34 Li    0.00176    0.00028   -0.01931
 35 Li   -0.00254   -0.00044   -0.01912
 36 O    -0.03642    0.01549    0.03835
 37 C    -0.05080   -0.04223    0.00791
 38 C     0.03788    0.02254    0.02523
 39 H     0.06204   -0.00702    0.14959
 40 H     0.02689   -0.08206   -0.03850
 41 H     0.04229   -0.01982   -0.00998
 42 H    -0.01671   -0.01185   -0.00936
 43 H     0.03993    0.04773    0.01758
 44 H    -0.00293   -0.02720   -0.01084
 45 N    -0.00699    0.53825   -0.05451
 46 N    -0.05183   -0.49555   -0.07893

System changes: positions 

Initializing position-dependent things.

Density initialized from wave functions
       .-----------------------.  
      /|                       |  
     / |                       |  
    /  |                       |  
   /   O H                     |  
  /    | C     H               |  
 *     | H                     |  
 |     |                       |  
 |     |                       |  
 H     |H                     N|  
 |     C                       |  
 |     |H                      |  
 |     |                       |  
 |     |                       |  
 |   Li|     Li      Li  N     |  
 |     |  Li      Li      Li   |  
 | Li  |   Li      Li          |  
 |     |Li      Li      Li     |  
 Li    | Li      Li            |  
 |   LLi     LLi     LLi       |  
 |     |  Li      Li      Li   |  
 | Li  |   Li      Li          |  
 |     |Li      Li      Li     |  
 Li    | Li      Li            |  
 |    Li      Li      Li       |  
 |     |                       |  
 |     |                       |  
 |     |                       |  
 |     |                       |  
 |     |                       |  
 |     |                       |  
 |     .-----------------------.  
 |    /                       /   
 |   /                       /    
 |  /                       /     
 | /                       /      
 |/                       /       
 *-----------------------*        

Positions:
   0 Li     1.617037    1.617037   10.000000    ( 0.0000,  0.0000,  0.0000)
   1 Li     4.851111    1.617037   10.000000    ( 0.0000,  0.0000,  0.0000)
   2 Li     8.085185    1.617037   10.000000    ( 0.0000,  0.0000,  0.0000)
   3 Li     1.617037    4.851111   10.000000    ( 0.0000,  0.0000,  0.0000)
   4 Li     4.851111    4.851111   10.000000    ( 0.0000,  0.0000,  0.0000)
   5 Li     8.085185    4.851111   10.000000    ( 0.0000,  0.0000,  0.0000)
   6 Li     1.617037    8.085185   10.000000    ( 0.0000,  0.0000,  0.0000)
   7 Li     4.851111    8.085185   10.000000    ( 0.0000,  0.0000,  0.0000)
   8 Li     8.085185    8.085185   10.000000    ( 0.0000,  0.0000,  0.0000)
   9 Li     0.000000    0.000000   11.617037    ( 0.0000,  0.0000,  0.0000)
  10 Li     3.234074    0.000000   11.617037    ( 0.0000,  0.0000,  0.0000)
  11 Li     6.468148    0.000000   11.617037    ( 0.0000,  0.0000,  0.0000)
  12 Li     0.000000    3.234074   11.617037    ( 0.0000,  0.0000,  0.0000)
  13 Li     3.234074    3.234074   11.617037    ( 0.0000,  0.0000,  0.0000)
  14 Li     6.468148    3.234074   11.617037    ( 0.0000,  0.0000,  0.0000)
  15 Li     0.000000    6.468148   11.617037    ( 0.0000,  0.0000,  0.0000)
  16 Li     3.234074    6.468148   11.617037    ( 0.0000,  0.0000,  0.0000)
  17 Li     6.468148    6.468148   11.617037    ( 0.0000,  0.0000,  0.0000)
  18 Li     1.615846    1.616026   13.482600    ( 0.0000,  0.0000,  0.0000)
  19 Li     4.851169    1.617491   13.479772    ( 0.0000,  0.0000,  0.0000)
  20 Li     8.086328    1.615995   13.482346    ( 0.0000,  0.0000,  0.0000)
  21 Li     1.617121    4.851613   13.480540    ( 0.0000,  0.0000,  0.0000)
  22 Li     4.851188    4.850409   13.479319    ( 0.0000,  0.0000,  0.0000)
  23 Li     8.085030    4.851605   13.480601    ( 0.0000,  0.0000,  0.0000)
  24 Li     1.616483    8.085504   13.480985    ( 0.0000,  0.0000,  0.0000)
  25 Li     4.851177    8.085092   13.481058    ( 0.0000,  0.0000,  0.0000)
  26 Li     8.085682    8.085547   13.480691    ( 0.0000,  0.0000,  0.0000)
  27 Li     0.000464    0.006344   15.426251    ( 0.0000,  0.0000,  0.0000)
  28 Li     3.239289    0.000885   15.433908    ( 0.0000,  0.0000,  0.0000)
  29 Li     6.462617    0.000905   15.434516    ( 0.0000,  0.0000,  0.0000)
  30 Li     0.000307    3.232974   15.440530    ( 0.0000,  0.0000,  0.0000)
  31 Li     3.232878    3.233092   15.439680    ( 0.0000,  0.0000,  0.0000)
  32 Li     6.469044    3.233353   15.439514    ( 0.0000,  0.0000,  0.0000)
  33 Li     0.000312    6.462171   15.437598    ( 0.0000,  0.0000,  0.0000)
  34 Li     3.234546    6.468304   15.437772    ( 0.0000,  0.0000,  0.0000)
  35 Li     6.467399    6.468046   15.437865    ( 0.0000,  0.0000,  0.0000)
  36 O      9.709089    9.688673   21.454949    ( 0.0000,  0.0000,  0.0000)
  37 C     10.896047    8.886400   21.467241    ( 0.0000,  0.0000,  0.0000)
  38 C     12.170491    9.707543   21.434363    ( 0.0000,  0.0000,  0.0000)
  39 H     10.875243    8.204722   22.321636    ( 0.0000,  0.0000,  0.0000)
  40 H     10.828066    8.261271   20.582561    ( 0.0000,  0.0000,  0.0000)
  41 H     13.040816    9.049878   21.416660    ( 0.0000,  0.0000,  0.0000)
  42 H     12.203543   10.352351   20.553576    ( 0.0000,  0.0000,  0.0000)
  43 H     12.243471   10.333655   22.324778    ( 0.0000,  0.0000,  0.0000)
  44 H      9.741235   10.281004   22.216544    ( 0.0000,  0.0000,  0.0000)
  45 N      9.691839    9.704391   18.414981    ( 0.0000,  0.0000,  0.0000)
  46 N      9.682365    8.606013   18.415475    ( 0.0000,  0.0000,  0.0000)

Unit cell:
           periodic     x           y           z      points  spacing
  1. axis:    yes    9.702222    0.000000    0.000000    60     0.1617
  2. axis:    yes    0.000000    9.702222    0.000000    60     0.1617
  3. axis:    no     0.000000    0.000000   24.851111   156     0.1593

  Lengths:   9.702222   9.702222  24.851111
  Angles:   90.000000  90.000000  90.000000

Effective grid spacing dv^(1/3) = 0.1609

     iter     time        total  log10-change:
                         energy  eigst   dens
iter:   1 18:53:40  -308.654752  -1.34
iter:   2 18:56:17  -308.609419  -1.97  -1.72
iter:   3 18:58:54  -308.602599  -3.07  -2.16
iter:   4 19:01:25  -308.601434c -2.87  -2.63
Writing to output.gpw (mode='')

iter:   5 19:04:02  -308.601406c -2.82  -2.94
iter:   6 19:06:34  -308.601332c -3.69  -3.03
iter:   7 19:09:07  -308.601512c -3.19  -3.27
iter:   8 19:11:43  -308.601336c -3.91  -3.03
iter:   9 19:14:18  -308.601327c -3.73  -3.36
Writing to output.gpw (mode='')

iter:  10 19:16:50  -308.601344c -4.72  -3.50
iter:  11 19:19:26  -308.601350c -4.36  -3.72
iter:  12 19:22:02  -308.601359c -4.80  -3.83
iter:  13 19:24:42  -308.601355c -5.29  -3.77
iter:  14 19:27:12  -308.601350c -5.21  -3.83
Writing to output.gpw (mode='')

iter:  15 19:29:51  -308.601352c -5.42  -4.08c
iter:  16 19:32:21  -308.601346c -5.37  -3.95
iter:  17 19:35:03  -308.601344c -5.33  -4.16c
iter:  18 19:37:35  -308.601348c -5.98  -4.34c
iter:  19 19:40:13  -308.601348c -6.16  -4.45c
Writing to output.gpw (mode='')

iter:  20 19:42:56  -308.601348c -6.46  -4.64c
iter:  21 19:45:36  -308.601348c -6.56  -4.71c
iter:  22 19:48:25  -308.601348c -6.56  -4.73c
iter:  23 19:50:59  -308.601348c -6.76  -4.79c
iter:  24 19:53:27  -308.601349c -6.83  -4.85c
Writing to output.gpw (mode='')

iter:  25 19:56:02  -308.601348c -6.73  -4.95c
iter:  26 19:58:32  -308.601349c -7.08  -5.10c
iter:  27 20:01:07  -308.601348c -7.16  -5.17c
iter:  28 20:03:35  -308.601349c -7.06  -5.32c
iter:  29 20:06:04  -308.601349c -7.33  -5.42c
Writing to output.gpw (mode='')

iter:  30 20:08:46  -308.601348c -7.23  -5.42c
iter:  31 20:11:27  -308.601349c -7.51c -5.44c

Converged after 31 iterations.

Dipole moment: (-16.018884, -11.456213, 0.310383) |e|*Ang

Energy contributions relative to reference atoms: (reference = -14434.854043)

Kinetic:       +152.192891
Potential:     -147.938360
External:        +0.000000
XC:            -313.528288
Entropy (-ST):   -0.153064
Local:           +0.748940
--------------------------
Free energy:   -308.677880
Extrapolated:  -308.601349

Dipole-layer corrected work functions: 3.394155, 2.797493 eV

Showing only first 2 kpts
 Kpt  Band  Eigenvalues  Occupancy
  0    31     -3.34597    1.98665
  0    32     -3.26967    1.94004
  0    33     -2.92287    0.06100
  0    34     -2.84068    0.01208

  1    31     -3.11401    1.17988
  1    32     -3.08430    0.88523
  1    33     -3.05997    0.65609
  1    34     -3.05266    0.59334


Fermi level: -3.09582

No gap
Writing to output.gpw (mode='')


Forces in eV/Ang:
  0 Li    0.00030    0.00221   -0.27152
  1 Li   -0.00008   -0.00128   -0.27559
  2 Li   -0.00023    0.00243   -0.27127
  3 Li   -0.00140   -0.00034   -0.27494
  4 Li    0.00010    0.00198   -0.27847
  5 Li    0.00130   -0.00041   -0.27467
  6 Li    0.00281   -0.00180   -0.27195
  7 Li   -0.00014    0.00034   -0.27579
  8 Li   -0.00267   -0.00197   -0.27169
  9 Li    0.00027   -0.00029    0.27648
 10 Li    0.00332    0.00079    0.26698
 11 Li   -0.00359    0.00094    0.26721
 12 Li   -0.00005    0.00458    0.26524
 13 Li   -0.00425   -0.00266    0.27108
 14 Li    0.00432   -0.00245    0.27034
 15 Li   -0.00003   -0.00320    0.26537
 16 Li    0.00208    0.00138    0.26727
 17 Li   -0.00206    0.00103    0.26685
 18 Li   -0.00013    0.00067    0.01407
 19 Li    0.00018    0.00368    0.01042
 20 Li   -0.00000    0.00063    0.01384
 21 Li    0.00071   -0.00026    0.01428
 22 Li    0.00000   -0.00227    0.01226
 23 Li   -0.00069   -0.00029    0.01449
 24 Li   -0.00050   -0.00089    0.01258
 25 Li    0.00026   -0.00212    0.01247
 26 Li    0.00030   -0.00080    0.01211
 27 Li    0.00146    0.01377   -0.04232
 28 Li    0.01172    0.00227   -0.02256
 29 Li   -0.01296    0.00248   -0.02180
 30 Li    0.00062   -0.00114   -0.00662
 31 Li   -0.00264   -0.00224   -0.00881
 32 Li    0.00203   -0.00172   -0.00929
 33 Li    0.00064   -0.01411   -0.01342
 34 Li    0.00195    0.00004   -0.01362
 35 Li   -0.00268   -0.00061   -0.01353
 36 O    -0.07863    0.05060    0.04188
 37 C    -0.06864   -0.09156   -0.00483
 38 C     0.03894    0.01391    0.04132
 39 H     0.10290    0.00369    0.18954
 40 H     0.00052   -0.08798   -0.10796
 41 H     0.07282   -0.02101   -0.00667
 42 H    -0.02711   -0.01729    0.00052
 43 H     0.05836    0.07615    0.03077
 44 H    -0.00547   -0.03776   -0.02572
 45 N    -0.03001    0.48608   -0.07865
 46 N    -0.06095   -0.44780   -0.10600

System changes: positions 

Initializing position-dependent things.

Density initialized from wave functions
       .-----------------------.  
      /|                       |  
     / |                       |  
    /  |                       |  
   /   O H                     |  
  /    | C     H               |  
 *     | H                     |  
 |     |                       |  
 |     |                       |  
 H     |H                     N|  
 |     C                       |  
 |     |H                      |  
 |     |                       |  
 |     |                       |  
 |   Li|     Li      Li  N     |  
 |     |  Li      Li      Li   |  
 | Li  |   Li      Li          |  
 |     |Li      Li      Li     |  
 Li    | Li      Li            |  
 |   LLi     LLi     LLi       |  
 |     |  Li      Li      Li   |  
 | Li  |   Li      Li          |  
 |     |Li      Li      Li     |  
 Li    | Li      Li            |  
 |    Li      Li      Li       |  
 |     |                       |  
 |     |                       |  
 |     |                       |  
 |     |                       |  
 |     |                       |  
 |     |                       |  
 |     .-----------------------.  
 |    /                       /   
 |   /                       /    
 |  /                       /     
 | /                       /      
 |/                       /       
 *-----------------------*        

Positions:
   0 Li     1.617037    1.617037   10.000000    ( 0.0000,  0.0000,  0.0000)
   1 Li     4.851111    1.617037   10.000000    ( 0.0000,  0.0000,  0.0000)
   2 Li     8.085185    1.617037   10.000000    ( 0.0000,  0.0000,  0.0000)
   3 Li     1.617037    4.851111   10.000000    ( 0.0000,  0.0000,  0.0000)
   4 Li     4.851111    4.851111   10.000000    ( 0.0000,  0.0000,  0.0000)
   5 Li     8.085185    4.851111   10.000000    ( 0.0000,  0.0000,  0.0000)
   6 Li     1.617037    8.085185   10.000000    ( 0.0000,  0.0000,  0.0000)
   7 Li     4.851111    8.085185   10.000000    ( 0.0000,  0.0000,  0.0000)
   8 Li     8.085185    8.085185   10.000000    ( 0.0000,  0.0000,  0.0000)
   9 Li     0.000000    0.000000   11.617037    ( 0.0000,  0.0000,  0.0000)
  10 Li     3.234074    0.000000   11.617037    ( 0.0000,  0.0000,  0.0000)
  11 Li     6.468148    0.000000   11.617037    ( 0.0000,  0.0000,  0.0000)
  12 Li     0.000000    3.234074   11.617037    ( 0.0000,  0.0000,  0.0000)
  13 Li     3.234074    3.234074   11.617037    ( 0.0000,  0.0000,  0.0000)
  14 Li     6.468148    3.234074   11.617037    ( 0.0000,  0.0000,  0.0000)
  15 Li     0.000000    6.468148   11.617037    ( 0.0000,  0.0000,  0.0000)
  16 Li     3.234074    6.468148   11.617037    ( 0.0000,  0.0000,  0.0000)
  17 Li     6.468148    6.468148   11.617037    ( 0.0000,  0.0000,  0.0000)
  18 Li     1.614660    1.615049   13.495840    ( 0.0000,  0.0000,  0.0000)
  19 Li     4.851232    1.618069   13.490082    ( 0.0000,  0.0000,  0.0000)
  20 Li     8.087462    1.614986   13.495328    ( 0.0000,  0.0000,  0.0000)
  21 Li     1.617229    4.852100   13.491746    ( 0.0000,  0.0000,  0.0000)
[...]
Writing to output.gpw (mode='')

iter:  15 21:25:44  -308.639005c -6.68  -4.51c
iter:  16 21:28:30  -308.639005c -6.95  -4.78c
iter:  17 21:31:07  -308.639005c -7.09  -4.80c
iter:  18 21:33:48  -308.639006c -6.96  -4.89c
iter:  19 21:36:12  -308.639005c -7.14  -4.78c
Writing to output.gpw (mode='')

iter:  20 21:38:47  -308.639005c -7.65c -5.11c

Converged after 20 iterations.

Dipole moment: (3.480533, -9.911563, 0.307927) |e|*Ang

Energy contributions relative to reference atoms: (reference = -14434.854043)

Kinetic:       +151.194740
Potential:     -147.141390
External:        +0.000000
XC:            -313.363108
Entropy (-ST):   -0.151400
Local:           +0.746453
--------------------------
Free energy:   -308.714705
Extrapolated:  -308.639005

Dipole-layer corrected work functions: 3.395256, 2.803314 eV

Showing only first 2 kpts
 Kpt  Band  Eigenvalues  Occupancy
  0    31     -3.35773    1.98868
  0    32     -3.27878    1.94628
  0    33     -2.92139    0.05542
  0    34     -2.85394    0.01468

  1    31     -3.11390    1.14509
  1    32     -3.08295    0.83812
  1    33     -3.06669    0.68510
  1    34     -3.05424    0.57772


Fermi level: -3.09929

No gap

Forces in eV/Ang:
  0 Li    0.00104    0.00356   -0.27246
  1 Li   -0.00013   -0.00133   -0.27480
  2 Li   -0.00093    0.00447   -0.27220
  3 Li   -0.00209   -0.00090   -0.27483
  4 Li    0.00034    0.00220   -0.27942
  5 Li    0.00182   -0.00133   -0.27458
  6 Li    0.00434   -0.00251   -0.27313
  7 Li   -0.00046    0.00055   -0.27686
  8 Li   -0.00394   -0.00308   -0.27297
  9 Li    0.00011    0.00212    0.28891
 10 Li    0.00609    0.00098    0.26932
 11 Li   -0.00603    0.00205    0.27036
 12 Li    0.00026    0.01135    0.25854
 13 Li   -0.00346    0.00475    0.25693
 14 Li    0.00323    0.00652    0.25578
 15 Li    0.00032   -0.01294    0.26534
 16 Li    0.00318   -0.00716    0.26289
 17 Li   -0.00349   -0.00989    0.26234
 18 Li   -0.00246   -0.00177    0.00672
 19 Li   -0.00068   -0.00263    0.00590
 20 Li    0.00282   -0.00166    0.00603
 21 Li   -0.00060    0.00121    0.00393
 22 Li   -0.00028    0.00103    0.00316
 23 Li    0.00059    0.00117    0.00361
 24 Li   -0.00020   -0.00023    0.00451
 25 Li   -0.00072    0.00185    0.00485
 26 Li    0.00037   -0.00025    0.00393
 27 Li    0.00010   -0.00474   -0.00471
 28 Li   -0.00583   -0.00140   -0.00668
 29 Li    0.00465   -0.00119   -0.00938
 30 Li   -0.00004   -0.00195   -0.00934
 31 Li    0.00172    0.00065   -0.00373
 32 Li   -0.00165    0.00087   -0.00427
 33 Li   -0.00031    0.00610   -0.00564
 34 Li   -0.00155    0.00044   -0.00391
 35 Li    0.00084    0.00008   -0.00480
 36 O     0.01707    0.00565    0.01432
 37 C     0.00689   -0.02045   -0.01147
 38 C     0.00085   -0.00289   -0.01713
 39 H     0.01806   -0.01104    0.00343
 40 H     0.00498   -0.00849   -0.00631
 41 H     0.00207    0.01706    0.01708
 42 H    -0.00472   -0.00599   -0.01825
 43 H     0.01383   -0.01013   -0.02244
 44 H    -0.00945    0.01484    0.00688
 45 N     0.00219    0.06908    0.03393
 46 N    -0.02172   -0.08820    0.01135

System changes: positions 

Initializing position-dependent things.

Density initialized from wave functions
       .-----------------------.  
      /|                       |  
     / |                       |  
    /  |                       |  
   /   O H   C                 |  
  /    |  C    H               |  
 *     | H                     |  
 |     |                       |  
 |     |                       |  
 H     |H                     N|  
 |     |                       |  
 |     H                       |  
 |     |                       |  
 |     |                       |  
 |   Li|     Li      Li  N     |  
 |     |  Li      Li      Li   |  
 | Li  |   Li      Li          |  
 |     |Li      Li      Li     |  
 Li    | Li      Li            |  
 |   LLi     LLi     LLi       |  
 |     |  Li      Li      Li   |  
 | Li  |   Li      Li          |  
 |     |Li      Li      Li     |  
 Li    | Li      Li            |  
 |    Li      Li      Li       |  
 |     |                       |  
 |     |                       |  
 |     |                       |  
 |     |                       |  
 |     |                       |  
 |     |                       |  
 |     .-----------------------.  
 |    /                       /   
 |   /                       /    
 |  /                       /     
 | /                       /      
 |/                       /       
 *-----------------------*        

Positions:
   0 Li     1.617037    1.617037   10.000000    ( 0.0000,  0.0000,  0.0000)
   1 Li     4.851111    1.617037   10.000000    ( 0.0000,  0.0000,  0.0000)
   2 Li     8.085185    1.617037   10.000000    ( 0.0000,  0.0000,  0.0000)
   3 Li     1.617037    4.851111   10.000000    ( 0.0000,  0.0000,  0.0000)
   4 Li     4.851111    4.851111   10.000000    ( 0.0000,  0.0000,  0.0000)
   5 Li     8.085185    4.851111   10.000000    ( 0.0000,  0.0000,  0.0000)
   6 Li     1.617037    8.085185   10.000000    ( 0.0000,  0.0000,  0.0000)
   7 Li     4.851111    8.085185   10.000000    ( 0.0000,  0.0000,  0.0000)
   8 Li     8.085185    8.085185   10.000000    ( 0.0000,  0.0000,  0.0000)
   9 Li     0.000000    0.000000   11.617037    ( 0.0000,  0.0000,  0.0000)
  10 Li     3.234074    0.000000   11.617037    ( 0.0000,  0.0000,  0.0000)
  11 Li     6.468148    0.000000   11.617037    ( 0.0000,  0.0000,  0.0000)
  12 Li     0.000000    3.234074   11.617037    ( 0.0000,  0.0000,  0.0000)
  13 Li     3.234074    3.234074   11.617037    ( 0.0000,  0.0000,  0.0000)
  14 Li     6.468148    3.234074   11.617037    ( 0.0000,  0.0000,  0.0000)
  15 Li     0.000000    6.468148   11.617037    ( 0.0000,  0.0000,  0.0000)
  16 Li     3.234074    6.468148   11.617037    ( 0.0000,  0.0000,  0.0000)
  17 Li     6.468148    6.468148   11.617037    ( 0.0000,  0.0000,  0.0000)
  18 Li     1.622652    1.627981   13.469003    ( 0.0000,  0.0000,  0.0000)
  19 Li     4.851026    1.632673   13.467002    ( 0.0000,  0.0000,  0.0000)
  20 Li     8.079730    1.627937   13.469020    ( 0.0000,  0.0000,  0.0000)
  21 Li     1.620415    4.846781   13.480945    ( 0.0000,  0.0000,  0.0000)
  22 Li     4.850345    4.843129   13.477868    ( 0.0000,  0.0000,  0.0000)
  23 Li     8.082397    4.846705   13.481383    ( 0.0000,  0.0000,  0.0000)
  24 Li     1.618285    8.076776   13.471061    ( 0.0000,  0.0000,  0.0000)
  25 Li     4.851478    8.076064   13.467918    ( 0.0000,  0.0000,  0.0000)
  26 Li     8.083524    8.077045   13.469959    ( 0.0000,  0.0000,  0.0000)
  27 Li     0.004655    0.021653   15.361757    ( 0.0000,  0.0000,  0.0000)
  28 Li     3.253601    0.004966   15.397059    ( 0.0000,  0.0000,  0.0000)
  29 Li     6.442772    0.006319   15.394328    ( 0.0000,  0.0000,  0.0000)
  30 Li     0.001175    3.230258   15.436425    ( 0.0000,  0.0000,  0.0000)
  31 Li     3.229914    3.229113   15.436158    ( 0.0000,  0.0000,  0.0000)
  32 Li     6.471168    3.230484   15.434250    ( 0.0000,  0.0000,  0.0000)
  33 Li     0.001028    6.441155   15.425970    ( 0.0000,  0.0000,  0.0000)
  34 Li     3.239659    6.467554   15.422158    ( 0.0000,  0.0000,  0.0000)
  35 Li     6.459918    6.465156   15.421357    ( 0.0000,  0.0000,  0.0000)
  36 O      9.726551    9.620750   21.492706    ( 0.0000,  0.0000,  0.0000)
  37 C     10.935310    8.847184   21.548498    ( 0.0000,  0.0000,  0.0000)
  38 C     12.192093    9.698253   21.431602    ( 0.0000,  0.0000,  0.0000)
  39 H     10.959052    8.249497   22.467220    ( 0.0000,  0.0000,  0.0000)
  40 H     10.864184    8.153437   20.709438    ( 0.0000,  0.0000,  0.0000)
  41 H     13.079438    9.060144   21.404409    ( 0.0000,  0.0000,  0.0000)
  42 H     12.167555   10.299392   20.520319    ( 0.0000,  0.0000,  0.0000)
  43 H     12.288434   10.373256   22.286769    ( 0.0000,  0.0000,  0.0000)
  44 H      9.738098   10.241019   22.230910    ( 0.0000,  0.0000,  0.0000)
  45 N      9.612034    9.756344   18.292734    ( 0.0000,  0.0000,  0.0000)
  46 N      9.543597    8.656259   18.297636    ( 0.0000,  0.0000,  0.0000)

Unit cell:
           periodic     x           y           z      points  spacing
  1. axis:    yes    9.702222    0.000000    0.000000    60     0.1617
  2. axis:    yes    0.000000    9.702222    0.000000    60     0.1617
  3. axis:    no     0.000000    0.000000   24.851111   156     0.1593

  Lengths:   9.702222   9.702222  24.851111
  Angles:   90.000000  90.000000  90.000000

Effective grid spacing dv^(1/3) = 0.1609

     iter     time        total  log10-change:
                         energy  eigst   dens
iter:   1 21:42:02  -308.645503  -2.12
iter:   2 21:44:45  -308.640387  -2.80  -2.17
iter:   3 21:47:21  -308.639493c -3.86  -2.61
iter:   4 21:49:52  -308.639240c -3.56  -3.02
Writing to output.gpw (mode='')

iter:   5 21:52:35  -308.639225c -3.59  -3.14
iter:   6 21:55:09  -308.639202c -4.28  -3.35
iter:   7 21:57:40  -308.639219c -4.14  -3.58
iter:   8 22:00:14  -308.639205c -4.81  -3.52
iter:   9 22:02:42  -308.639215c -4.50  -3.86
Writing to output.gpw (mode='')

iter:  10 22:05:19  -308.639208c -5.35  -3.78
iter:  11 22:07:55  -308.639209c -5.73  -4.01c
iter:  12 22:10:25  -308.639211c -5.25  -3.98
iter:  13 22:13:03  -308.639209c -5.55  -3.97
iter:  14 22:15:36  -308.639210c -5.84  -4.08c
Writing to output.gpw (mode='')

iter:  15 22:18:17  -308.639209c -6.15  -4.09c
iter:  16 22:21:01  -308.639208c -5.92  -4.24c
iter:  17 22:23:41  -308.639209c -6.71  -4.47c
iter:  18 22:26:13  -308.639209c -6.23  -4.51c
iter:  19 22:28:43  -308.639209c -7.01  -4.62c
Writing to output.gpw (mode='')

iter:  20 22:31:16  -308.639209c -7.15  -4.84c
iter:  21 22:34:01  -308.639209c -7.34  -4.91c
iter:  22 22:36:30  -308.639209c -7.50c -5.08c

Converged after 22 iterations.

Dipole moment: (3.311507, -10.037684, 0.307751) |e|*Ang

Energy contributions relative to reference atoms: (reference = -14434.854043)

Kinetic:       +151.132494
Potential:     -147.094933
External:        +0.000000
XC:            -313.347467
Entropy (-ST):   -0.151443
Local:           +0.746419
--------------------------
Free energy:   -308.714930
Extrapolated:  -308.639209

Dipole-layer corrected work functions: 3.395297, 2.803694 eV

Showing only first 2 kpts
 Kpt  Band  Eigenvalues  Occupancy
  0    31     -3.35828    1.98876
  0    32     -3.27891    1.94619
  0    33     -2.92194    0.05578
  0    34     -2.85446    0.01477

  1    31     -3.11426    1.14654
  1    32     -3.08324    0.83882
  1    33     -3.06643    0.68087
  1    34     -3.05441    0.57743


Fermi level: -3.09950

No gap
Writing to output.gpw (mode='')


Forces in eV/Ang:
  0 Li    0.00101    0.00348   -0.27233
  1 Li   -0.00014   -0.00126   -0.27470
  2 Li   -0.00089    0.00440   -0.27208
  3 Li   -0.00203   -0.00083   -0.27475
  4 Li    0.00034    0.00218   -0.27933
  5 Li    0.00175   -0.00125   -0.27449
  6 Li    0.00423   -0.00249   -0.27299
  7 Li   -0.00046    0.00049   -0.27672
  8 Li   -0.00382   -0.00307   -0.27285
  9 Li    0.00013    0.00197    0.28730
 10 Li    0.00592    0.00101    0.26780
 11 Li   -0.00591    0.00207    0.26896
 12 Li    0.00029    0.01144    0.25713
 13 Li   -0.00336    0.00471    0.25575
 14 Li    0.00307    0.00643    0.25469
 15 Li    0.00034   -0.01292    0.26379
 16 Li    0.00315   -0.00715    0.26142
 17 Li   -0.00351   -0.00982    0.26097
 18 Li   -0.00291   -0.00258    0.01062
 19 Li   -0.00063   -0.00286    0.00900
 20 Li    0.00321   -0.00246    0.00985
 21 Li   -0.00070    0.00155    0.00702
 22 Li   -0.00023    0.00115    0.00610
 23 Li    0.00065    0.00152    0.00672
 24 Li   -0.00052    0.00025    0.00770
 25 Li   -0.00069    0.00188    0.00861
 26 Li    0.00065    0.00021    0.00704
 27 Li    0.00004   -0.00298   -0.00824
 28 Li   -0.00388   -0.00120   -0.00862
 29 Li    0.00288   -0.00106   -0.01093
 30 Li    0.00005   -0.00192   -0.01010
 31 Li    0.00117    0.00044   -0.00551
 32 Li   -0.00119    0.00066   -0.00609
 33 Li   -0.00022    0.00413   -0.00762
 34 Li   -0.00148    0.00050   -0.00580
 35 Li    0.00074    0.00019   -0.00664
 36 O     0.00930    0.00410    0.01624
 37 C    -0.00116   -0.01607   -0.00420
 38 C    -0.00109   -0.00739   -0.01253
 39 H     0.02256   -0.01106   -0.00499
 40 H     0.00531   -0.01277    0.00221
 41 H     0.01203    0.02072    0.00761
 42 H     0.00427   -0.00736   -0.01402
 43 H     0.01170   -0.00770   -0.02160
 44 H    -0.01120    0.01953    0.01064
 45 N    -0.00054    0.02241    0.03252
 46 N    -0.01434   -0.02681   -0.00274

Timing:                                      incl.     excl.
-------------------------------------------------------------------
Density initialized from wave functions:    61.866    61.865   0.0% |
 Symmetrize density:                         0.001     0.001   0.0% |
Forces:                                    247.203   247.203   0.2% |
Hamiltonian:                              3111.646     0.006   0.0% |
 Atomic:                                     4.681     0.045   0.0% |
  XC Correction:                             4.637     4.637   0.0% |
 Calculate atomic Hamiltonians:             15.980    15.980   0.0% |
 Communicate:                               16.789    16.789   0.0% |
 Hartree integrate/restrict:                 5.255     5.255   0.0% |
 Initialize Hamiltonian:                     0.000     0.000   0.0% |
 Poisson:                                  112.762    51.667   0.0% |
  Communicate from 1D:                       7.215     7.215   0.0% |
  Communicate from 2D:                      15.233    15.233   0.0% |
  Communicate to 1D:                         3.508     3.508   0.0% |
  Communicate to 2D:                        11.906    11.906   0.0% |
  FFT 1D:                                   11.289    11.289   0.0% |
  FFT 2D:                                   11.944    11.944   0.0% |
 XC 3D grid:                              2955.011   283.032   0.2% |
  VdW-DF integral:                        2671.979     6.118   0.0% |
   Convolution:                            165.320   165.320   0.1% |
   FFT:                                     26.295    26.295   0.0% |
   gather:                                2158.973  2158.973   1.4% ||
   hmm1:                                    27.777    27.777   0.0% |
   hmm2:                                    38.016    38.016   0.0% |
   iFFT:                                    28.517    28.517   0.0% |
   potential:                              208.448     2.485   0.0% |
    collect:                                19.969    19.969   0.0% |
    p1:                                     82.417    82.417   0.1% |
    p2:                                     54.675    54.675   0.0% |
    sum:                                    48.903    48.903   0.0% |
   splines:                                 12.516    12.516   0.0% |
 vbar:                                       1.162     1.162   0.0% |
LCAO initialization:                        11.316     0.690   0.0% |
 LCAO eigensolver:                           2.679     0.001   0.0% |
  Calculate projections:                     0.000     0.000   0.0% |
  DenseAtomicCorrection:                     0.000     0.000   0.0% |
  Distribute overlap matrix:                 2.532     2.532   0.0% |
  Orbital Layouts:                           0.087     0.087   0.0% |
  Potential matrix:                          0.054     0.054   0.0% |
  Sum over cells:                            0.006     0.006   0.0% |
 LCAO to grid:                               5.809     5.809   0.0% |
 Set positions (LCAO WFS):                   2.138     1.773   0.0% |
  Basic WFS set positions:                   0.004     0.004   0.0% |
  Basis functions set positions:             0.001     0.001   0.0% |
  P tci:                                     0.000     0.000   0.0% |
  ST tci:                                    0.197     0.197   0.0% |
  mktci:                                     0.163     0.163   0.0% |
Redistribute:                                0.051     0.051   0.0% |
SCF-cycle:                               149656.585  2096.409   1.4% ||
 Davidson:                               45601.097 18382.178  11.9% |----|
  Apply hamiltonian:                      2818.983  2818.983   1.8% ||
  Subspace diag:                          6361.966     0.271   0.0% |
   calc_h_matrix:                         3883.569  1131.011   0.7% |
    Apply hamiltonian:                    2752.557  2752.557   1.8% ||
   diagonalize:                            254.382   254.382   0.2% |
   rotate_psi:                            2223.744  2223.744   1.4% ||
  calc. matrices:                        13625.093  8518.628   5.5% |-|
   Apply hamiltonian:                     5106.466  5106.466   3.3% ||
  diagonalize:                              20.078    20.078   0.0% |
  rotate_psi:                             4392.799  4392.799   2.9% ||
 Density:                                  964.042     0.066   0.0% |
  Atomic density matrices:                 267.018   267.018   0.2% |
  Mix:                                     279.150   279.150   0.2% |
  Multipole moments:                         3.839     3.839   0.0% |
  Pseudo density:                          413.969   413.939   0.3% |
   Symmetrize density:                       0.030     0.030   0.0% |
 Hamiltonian:                            100892.406     0.307   0.0% |
  Atomic:                                  149.471     1.867   0.0% |
   XC Correction:                          147.604   147.604   0.1% |
  Calculate atomic Hamiltonians:           483.776   483.776   0.3% |
  Communicate:                             495.646   495.646   0.3% |
  Hartree integrate/restrict:              173.953   173.953   0.1% |
  Poisson:                                3764.343  1708.446   1.1% |
   Communicate from 1D:                    275.219   275.219   0.2% |
   Communicate from 2D:                    472.766   472.766   0.3% |
   Communicate to 1D:                      114.718   114.718   0.1% |
   Communicate to 2D:                      429.527   429.527   0.3% |
   FFT 1D:                                 382.745   382.745   0.2% |
   FFT 2D:                                 380.921   380.921   0.2% |
  XC 3D grid:                            95782.931  9120.640   5.9% |-|
   VdW-DF integral:                      86662.291   200.828   0.1% |
    Convolution:                          5379.985  5379.985   3.5% ||
    FFT:                                   925.237   925.237   0.6% |
    gather:                              70176.120 70176.120  45.6% |-----------------|
    hmm1:                                  932.681   932.681   0.6% |
    hmm2:                                 1247.914  1247.914   0.8% |
    iFFT:                                  967.084   967.084   0.6% |
    potential:                            6832.419    77.242   0.1% |
     collect:                              627.728   627.728   0.4% |
     p1:                                  2688.354  2688.354   1.7% ||
     p2:                                  1745.796  1745.796   1.1% |
     sum:                                 1693.300  1693.300   1.1% |
    splines:                                 0.023     0.023   0.0% |
  vbar:                                     41.978    41.978   0.0% |
 Orthonormalize:                           102.630     0.008   0.0% |
  calc_s_matrix:                            16.362    16.362   0.0% |
  inverse-cholesky:                          4.303     4.303   0.0% |
  projections:                              47.658    47.658   0.0% |
  rotate_psi_s:                             34.300    34.300   0.0% |
Set symmetry:                                0.002     0.002   0.0% |
Other:                                     809.735   809.735   0.5% |
-------------------------------------------------------------------
Total:                                             153898.404 100.0%

Memory usage: 1.58 GiB
Date: Wed Feb  8 22:36:41 2023
