
  ___ ___ ___ _ _ _  
 |   |   |_  | | | | 
 | | | | | . | | | | 
 |__ |  _|___|_____|  22.8.0
 |___|_|             

User:   vazumah@r352.ib.bridges2.psc.edu
Date:   Fri Mar 10 11:18:33 2023
Arch:   x86_64
Pid:    25762
CWD:    /jet/home/vazumah/Calcs/LiMEAS/proton_donors/methanol_x/bridge/0.0_1.617/N2_x
Python: 3.11.0
gpaw:   /jet/home/vazumah/.conda/envs/GPAW_mpich/lib/python3.11/site-packages/gpaw
_gpaw:  /jet/home/vazumah/.conda/envs/GPAW_mpich/lib/python3.11/site-packages/
        _gpaw.cpython-311-x86_64-linux-gnu.so
ase:    /jet/home/vazumah/.conda/envs/GPAW_mpich/lib/python3.11/site-packages/ase (version 3.22.1)
numpy:  /jet/home/vazumah/.conda/envs/GPAW_mpich/lib/python3.11/site-packages/numpy (version 1.24.2)
scipy:  /jet/home/vazumah/.conda/envs/GPAW_mpich/lib/python3.11/site-packages/scipy (version 1.10.1)
libxc:  5.2.3
units:  Angstrom and eV
cores: 128
OpenMP: True
OMP_NUM_THREADS: 1

Input parameters:
  h: 0.16
  kpts: {size: [4, 4, 1]}
  occupations: {name: fermi-dirac,
                width: 0.05}
  poissonsolver: {dipolelayer: xy}
  xc: BEEF-vdW

System changes: positions, numbers, cell, pbc, initial_charges, initial_magmoms 

Initialize ...

species:
  Li:
    name: Lithium
    id: 830b4218f175192f93f959cfc0aad614
    Z: 3.0
    valence: 1
    core: 2
    charge: 0.0
    file: /jet/home/vazumah/datasets/gpaw-setups-0.9.20000/Li.PBE.gz
    compensation charges: {type: gauss,
                           rc: 0.33,
                           lmax: 2}
    cutoffs: {filter: 1.91,
              core: 2.55}
    valence states:
      #              energy  rcut
      - 2s(1.00)    -2.874   1.058
      - 2p(0.00)    -1.090   1.058
      -  s          24.337   1.058
  
    # Using partial waves for Li as LCAO basis

  O:
    name: Oxygen
    id: 32ecd46bf208036f09c70b0ec9a88b78
    Z: 8.0
    valence: 6
    core: 2
    charge: 0.0
    file: /jet/home/vazumah/datasets/gpaw-setups-0.9.20000/O.PBE.gz
    compensation charges: {type: gauss,
                           rc: 0.21,
                           lmax: 2}
    cutoffs: {filter: 1.17,
              core: 0.83}
    valence states:
      #              energy  rcut
      - 2s(2.00)   -23.961   0.688
      - 2p(4.00)    -9.029   0.598
      -  s           3.251   0.688
      -  p          18.182   0.598
      -  d           0.000   0.619
  
    # Using partial waves for O as LCAO basis

  C:
    name: Carbon
    id: 4aa54d4b901d75f77cc0ea3eec22967b
    Z: 6.0
    valence: 4
    core: 2
    charge: 0.0
    file: /jet/home/vazumah/datasets/gpaw-setups-0.9.20000/C.PBE.gz
    compensation charges: {type: gauss,
                           rc: 0.20,
                           lmax: 2}
    cutoffs: {filter: 1.14,
              core: 1.14}
    valence states:
      #              energy  rcut
      - 2s(2.00)   -13.751   0.635
      - 2p(2.00)    -5.284   0.635
      -  s          13.461   0.635
      -  p          21.927   0.635
      -  d           0.000   0.635
  
    # Using partial waves for C as LCAO basis

  H:
    name: Hydrogen
    id: d65de229564ff8ea4db303e23b6d1ecf
    Z: 1.0
    valence: 1
    core: 0
    charge: 0.0
    file: /jet/home/vazumah/datasets/gpaw-setups-0.9.20000/H.PBE.gz
    compensation charges: {type: gauss,
                           rc: 0.15,
                           lmax: 2}
    cutoffs: {filter: 0.85,
              core: 0.53}
    valence states:
      #              energy  rcut
      - 1s(1.00)    -6.494   0.476
      -  s          20.717   0.476
      -  p           0.000   0.476
  
    # Using partial waves for H as LCAO basis

  N:
    name: Nitrogen
    id: f7500608b86eaa90eef8b1d9a670dc53
    Z: 7.0
    valence: 5
    core: 2
    charge: 0.0
    file: /jet/home/vazumah/datasets/gpaw-setups-0.9.20000/N.PBE.gz
    compensation charges: {type: gauss,
                           rc: 0.18,
                           lmax: 2}
    cutoffs: {filter: 1.11,
              core: 0.96}
    valence states:
      #              energy  rcut
      - 2s(2.00)   -18.583   0.603
      - 2p(3.00)    -7.089   0.529
      -  s           8.629   0.603
      -  p          20.123   0.529
      -  d           0.000   0.577
  
    # Using partial waves for N as LCAO basis

Reference energy: -13382.245603  # eV

Spin-paired calculation

Convergence criteria:
 Maximum [total energy] change in last 3 cyles: 0.0005 eV / electron
 Maximum integral of absolute [dens]ity change: 0.0001 electrons / valence electron
 Maximum integral of absolute [eigenst]ate change: 4e-08 eV^2 / valence electron
 Maximum number of scf [iter]ations: 333
 (Square brackets indicate name in SCF output, whereas a 'c' in
 the SCF output indicates the quantity has converged.)

Symmetries present (total): 1

  ( 1  0  0)
  ( 0  1  0)
  ( 0  0  1)

16 k-points: 4 x 4 x 1 Monkhorst-Pack grid
8 k-points in the irreducible part of the Brillouin zone
       k-points in crystal coordinates                weights
   0:     0.12500000   -0.37500000    0.00000000          2/16
   1:     0.12500000   -0.12500000    0.00000000          2/16
   2:     0.12500000    0.12500000    0.00000000          2/16
   3:     0.12500000    0.37500000    0.00000000          2/16
   4:     0.37500000   -0.37500000    0.00000000          2/16
   5:     0.37500000   -0.12500000    0.00000000          2/16
   6:     0.37500000    0.12500000    0.00000000          2/16
   7:     0.37500000    0.37500000    0.00000000          2/16

Wave functions: Uniform real-space grid
  Kinetic energy operator: 6*3+1=19 point O(h^6) finite-difference Laplacian
  ScaLapack parameters: grid=1x1, blocksize=None
  Wavefunction extrapolation:
    Improved wavefunction reuse through dual PAW basis 

Occupation numbers: Fermi-Dirac:
  width: 0.0500  # eV
 

Eigensolver
   Davidson(niter=2) 

Densities:
  Coarse grid: 60*60*168 grid
  Fine grid: 120*120*336 grid
  Total Charge: 0.000000 

Density mixing:
  Method: separate
  Backend: pulay
  Linear mixing parameter: 0.05
  old densities: 5
  Damping of long wavelength oscillations: 50 

Hamiltonian:
  XC and Coulomb potentials evaluated on a 120*120*336 grid
  Using the BEEF-vdW Exchange-Correlation functional
  Interpolation: tri-quintic (5. degree polynomial)
  Poisson solver: FastPoissonSolver using
    Stencil: 6*3+1=19 point O(h^6) finite-difference Laplacian
    FFT axes: [0, 1]
    FST axes: [2]

Dipole correction along z-axis 

XC parameters: BEEF-vdW with 2 nearest neighbor stencil

Memory estimate:
  Process memory now: 125.65 MiB
  Calculator: 77.36 MiB
    Density: 22.77 MiB
      Arrays: 7.40 MiB
      Localized functions: 12.55 MiB
      Mixer: 2.82 MiB
    Hamiltonian: 5.83 MiB
      Arrays: 4.84 MiB
      XC: 0.00 MiB
      Poisson: 0.00 MiB
      vbar: 0.99 MiB
    Wavefunctions: 48.76 MiB
      Arrays psit_nG: 22.52 MiB
      Eigensolver: 25.58 MiB
      Projections: 0.01 MiB
      Projectors: 0.64 MiB

Total number of cores used: 128
Parallelization over k-points: 8
Domain decomposition: 2 x 2 x 4

Number of atoms: 44
Number of atomic orbitals: 164
Number of bands in calculation: 40
Number of valence electrons: 60
Bands to converge: occupied

... initialized

Initializing position-dependent things.

Density initialized from atomic densities
Creating initial wave functions:
  40 bands from LCAO basis set

       .-----------------------.  
      /|                       |  
     / |                       |  
    /  |                       |  
   /   |                       |  
  /    |                       |  
 *     |                       |  
 |     |                       |  
 |     |                       |  
 |     |                       |  
 |     |                       |  
 |     |                       |  
 |     |                       |  
 |     |                       |  
 |    H|                       |  
 |O   CH                 H     |  
 |   LH|     Li      Li        |  
 |N    |  Li      Li   N  Li   |  
 | Li  |   Li      Li          |  
 |     |Li      Li      Li     |  
 Li    | Li      Li            |  
 |   LLi     LLi     LLi       |  
 |     |  Li      Li      Li   |  
 | Li  |   Li      Li          |  
 |     |Li      Li      Li     |  
 Li    | Li      Li            |  
 |    Li      Li      Li       |  
 |     |                       |  
 |     |                       |  
 |     |                       |  
 |     |                       |  
 |     |                       |  
 |     |                       |  
 |     .-----------------------.  
 |    /                       /   
 |   /                       /    
 |  /                       /     
 | /                       /      
 |/                       /       
 *-----------------------*        

Positions:
   0 Li     1.617037    1.617037   10.000000    ( 0.0000,  0.0000,  0.0000)
   1 Li     4.851111    1.617037   10.000000    ( 0.0000,  0.0000,  0.0000)
   2 Li     8.085185    1.617037   10.000000    ( 0.0000,  0.0000,  0.0000)
   3 Li     1.617037    4.851111   10.000000    ( 0.0000,  0.0000,  0.0000)
   4 Li     4.851111    4.851111   10.000000    ( 0.0000,  0.0000,  0.0000)
   5 Li     8.085185    4.851111   10.000000    ( 0.0000,  0.0000,  0.0000)
   6 Li     1.617037    8.085185   10.000000    ( 0.0000,  0.0000,  0.0000)
   7 Li     4.851111    8.085185   10.000000    ( 0.0000,  0.0000,  0.0000)
   8 Li     8.085185    8.085185   10.000000    ( 0.0000,  0.0000,  0.0000)
   9 Li     0.000000    0.000000   11.617037    ( 0.0000,  0.0000,  0.0000)
  10 Li     3.234074    0.000000   11.617037    ( 0.0000,  0.0000,  0.0000)
  11 Li     6.468148    0.000000   11.617037    ( 0.0000,  0.0000,  0.0000)
  12 Li     0.000000    3.234074   11.617037    ( 0.0000,  0.0000,  0.0000)
  13 Li     3.234074    3.234074   11.617037    ( 0.0000,  0.0000,  0.0000)
  14 Li     6.468148    3.234074   11.617037    ( 0.0000,  0.0000,  0.0000)
  15 Li     0.000000    6.468148   11.617037    ( 0.0000,  0.0000,  0.0000)
  16 Li     3.234074    6.468148   11.617037    ( 0.0000,  0.0000,  0.0000)
  17 Li     6.468148    6.468148   11.617037    ( 0.0000,  0.0000,  0.0000)
  18 Li     1.617038    1.617038   13.469728    ( 0.0000,  0.0000,  0.0000)
  19 Li     4.851111    1.617038   13.469729    ( 0.0000,  0.0000,  0.0000)
  20 Li     8.085184    1.617038   13.469728    ( 0.0000,  0.0000,  0.0000)
  21 Li     1.617038    4.851111   13.469729    ( 0.0000,  0.0000,  0.0000)
  22 Li     4.851111    4.851111   13.469730    ( 0.0000,  0.0000,  0.0000)
  23 Li     8.085184    4.851111   13.469729    ( 0.0000,  0.0000,  0.0000)
  24 Li     1.617038    8.085184   13.469728    ( 0.0000,  0.0000,  0.0000)
  25 Li     4.851111    8.085184   13.469729    ( 0.0000,  0.0000,  0.0000)
  26 Li     8.085184    8.085184   13.469728    ( 0.0000,  0.0000,  0.0000)
  27 Li    -0.000000   -0.000000   15.445939    ( 0.0000,  0.0000,  0.0000)
  28 Li     3.234074    0.000000   15.445939    ( 0.0000,  0.0000,  0.0000)
  29 Li     6.468148    0.000000   15.445939    ( 0.0000,  0.0000,  0.0000)
  30 Li     0.000000    3.234074   15.445939    ( 0.0000,  0.0000,  0.0000)
  31 Li     3.234076    3.234076   15.445938    ( 0.0000,  0.0000,  0.0000)
  32 Li     6.468146    3.234076   15.445938    ( 0.0000,  0.0000,  0.0000)
  33 Li     0.000000    6.468148   15.445939    ( 0.0000,  0.0000,  0.0000)
  34 Li     3.234076    6.468146   15.445938    ( 0.0000,  0.0000,  0.0000)
  35 Li     6.468146    6.468146   15.445938    ( 0.0000,  0.0000,  0.0000)
  36 O      0.000000    1.617037   18.445939    ( 0.0000,  0.0000,  0.0000)
  37 C      1.429962    1.601963   18.451439    ( 0.0000,  0.0000,  0.0000)
  38 H      1.834234    0.852010   17.764289    ( 0.0000,  0.0000,  0.0000)
  39 H      1.833475    1.423554   19.453228    ( 0.0000,  0.0000,  0.0000)
  40 H      1.749406    2.587678   18.118510    ( 0.0000,  0.0000,  0.0000)
  41 H     -0.311655    0.753908   18.736944    ( 0.0000,  0.0000,  0.0000)
  42 N      0.000000    1.617000   17.195939    ( 0.0000,  0.0000,  0.0000)
  43 N     -1.096622    1.617000   17.195939    ( 0.0000,  0.0000,  0.0000)

Unit cell:
           periodic     x           y           z      points  spacing
  1. axis:    yes    9.702222    0.000000    0.000000    60     0.1617
  2. axis:    yes    0.000000    9.702222    0.000000    60     0.1617
  3. axis:    no     0.000000    0.000000   26.601111   168     0.1583

  Lengths:   9.702222   9.702222  26.601111
  Angles:   90.000000  90.000000  90.000000

Effective grid spacing dv^(1/3) = 0.1606

     iter     time        total  log10-change:
                         energy  eigst   dens
iter:   1 11:18:47  -445.066634
iter:   2 11:18:54  -140.558761  +2.43  -0.07
iter:   3 11:19:01  -157.768949  +3.34  -0.22
iter:   4 11:19:08  -215.550481  +2.91  -0.21
Writing to output.gpw (mode='')

iter:   5 11:19:15  -221.191206  +2.68  -0.31
iter:   6 11:19:22  -253.416309  +2.40  -0.59
iter:   7 11:19:35  -305.387603  +2.41  -0.64
iter:   8 11:19:45  -320.655048  +2.10  -0.48
iter:   9 11:19:58  -296.093255  +1.79  -0.44
Writing to output.gpw (mode='')

iter:  10 11:20:07  -293.890707  +1.47  -0.59
iter:  11 11:20:14  -288.455522  +1.01  -0.57
iter:  12 11:20:21  -275.510827  +1.39  -0.63
iter:  13 11:20:28  -274.120436  +0.69  -0.80
iter:  14 11:20:35  -275.688762  +1.55  -0.92
Writing to output.gpw (mode='')

iter:  15 11:20:42  -273.169939  +0.72  -0.83
iter:  16 11:20:49  -272.660445  +0.03  -0.98
iter:  17 11:20:57  -272.331659  +0.23  -1.03
iter:  18 11:21:04  -272.329618  +0.39  -1.21
iter:  19 11:21:11  -272.560556  +0.41  -1.37
Writing to output.gpw (mode='')

iter:  20 11:21:21  -272.413241  -0.49  -1.29
iter:  21 11:21:28  -272.391685  -0.06  -1.43
iter:  22 11:21:35  -272.387645c -0.72  -1.68
iter:  23 11:21:42  -272.416139c -0.72  -1.86
iter:  24 11:21:49  -272.404181c -0.82  -1.80
Writing to output.gpw (mode='')

iter:  25 11:21:56  -272.415131c -1.12  -2.16
iter:  26 11:22:03  -272.421949c -1.13  -2.20
iter:  27 11:22:10  -272.428811c -1.14  -2.33
iter:  28 11:22:17  -272.435302c -1.27  -2.42
iter:  29 11:22:24  -272.444452c -1.15  -2.39
Writing to output.gpw (mode='')

iter:  30 11:22:31  -272.450305c -1.37  -2.33
iter:  31 11:22:38  -272.454541c -1.61  -2.26
iter:  32 11:22:45  -272.457655c -1.74  -2.25
iter:  33 11:22:52  -272.463049c -1.53  -2.23
iter:  34 11:22:59  -272.465736c -1.84  -2.17
Writing to output.gpw (mode='')

iter:  35 11:23:06  -272.467950c -1.82  -2.15
iter:  36 11:23:13  -272.471380c -1.95  -2.14
iter:  37 11:23:20  -272.473730c -1.91  -2.12
iter:  38 11:23:27  -272.475291c -2.02  -2.09
iter:  39 11:23:34  -272.483134c -1.90  -2.08
Writing to output.gpw (mode='')

iter:  40 11:23:41  -272.472483c -1.92  -1.94
iter:  41 11:23:48  -272.472606c -1.50  -2.18
iter:  42 11:23:55  -272.473668c -1.98  -2.35
iter:  43 11:24:02  -272.474401c -2.28  -2.33
iter:  44 11:24:09  -272.475441c -2.25  -2.30
Writing to output.gpw (mode='')

iter:  45 11:24:16  -272.475156c -2.52  -2.32
iter:  46 11:24:23  -272.475350c -2.58  -2.39
iter:  47 11:24:36  -272.475717c -2.87  -2.43
iter:  48 11:24:43  -272.474617c -2.63  -2.38
iter:  49 11:24:50  -272.475030c -2.11  -2.43
Writing to output.gpw (mode='')

iter:  50 11:24:57  -272.474763c -2.67  -2.46
iter:  51 11:25:04  -272.474857c -2.80  -2.57
iter:  52 11:25:11  -272.474553c -2.80  -2.65
iter:  53 11:25:18  -272.474715c -3.01  -2.87
iter:  54 11:25:25  -272.474774c -3.31  -2.95
Writing to output.gpw (mode='')

iter:  55 11:25:32  -272.474841c -3.38  -3.06
iter:  56 11:25:39  -272.474840c -3.25  -3.15
iter:  57 11:25:46  -272.474922c -3.68  -3.20
iter:  58 11:25:53  -272.474886c -3.43  -3.25
iter:  59 11:26:00  -272.474959c -3.69  -3.35
Writing to output.gpw (mode='')

iter:  60 11:26:07  -272.474992c -3.51  -3.51
iter:  61 11:26:14  -272.474973c -3.84  -3.52
iter:  62 11:26:21  -272.475008c -4.00  -3.63
iter:  63 11:26:28  -272.475021c -4.12  -3.71
iter:  64 11:26:35  -272.475035c -3.98  -3.75
Writing to output.gpw (mode='')

iter:  65 11:26:42  -272.475055c -4.03  -3.87
iter:  66 11:26:49  -272.475060c -4.39  -3.92
iter:  67 11:26:56  -272.475068c -4.22  -3.92
iter:  68 11:27:03  -272.475081c -4.30  -3.95
iter:  69 11:27:10  -272.475092c -4.61  -4.15c
Writing to output.gpw (mode='')

iter:  70 11:27:17  -272.475084c -4.55  -4.31c
iter:  71 11:27:24  -272.475087c -4.53  -4.33c
iter:  72 11:27:31  -272.475093c -4.54  -4.43c
iter:  73 11:27:38  -272.475099c -4.59  -4.53c
iter:  74 11:27:45  -272.475099c -4.67  -4.57c
Writing to output.gpw (mode='')

iter:  75 11:27:52  -272.475101c -4.86  -4.64c
iter:  76 11:27:59  -272.475100c -4.74  -4.67c
iter:  77 11:28:06  -272.475103c -4.83  -4.81c
iter:  78 11:28:14  -272.475103c -4.93  -4.88c
iter:  79 11:28:21  -272.475104c -5.07  -4.86c
Writing to output.gpw (mode='')

iter:  80 11:28:28  -272.475106c -5.13  -4.72c
iter:  81 11:28:35  -272.475106c -5.17  -4.89c
iter:  82 11:28:42  -272.475106c -5.21  -4.95c
iter:  83 11:28:49  -272.475105c -4.96  -4.91c
iter:  84 11:28:56  -272.475105c -5.16  -4.81c
Writing to output.gpw (mode='')

iter:  85 11:29:03  -272.475105c -5.26  -4.74c
iter:  86 11:29:10  -272.475105c -5.35  -4.72c
iter:  87 11:29:17  -272.475106c -5.50  -4.74c
iter:  88 11:29:24  -272.475105c -5.27  -4.76c
iter:  89 11:29:37  -272.475104c -5.54  -4.72c
Writing to output.gpw (mode='')

iter:  90 11:29:44  -272.475104c -5.61  -4.64c
iter:  91 11:29:51  -272.475103c -5.73  -4.61c
iter:  92 11:29:58  -272.475103c -5.74  -4.60c
iter:  93 11:30:05  -272.475105c -5.85  -4.69c
iter:  94 11:30:12  -272.475105c -5.86  -5.00c
Writing to output.gpw (mode='')

iter:  95 11:30:19  -272.475105c -5.54  -5.07c
iter:  96 11:30:26  -272.475105c -5.61  -5.18c
iter:  97 11:30:33  -272.475105c -5.83  -5.21c
iter:  98 11:30:40  -272.475104c -5.92  -5.26c
iter:  99 11:30:47  -272.475104c -6.12  -5.37c
Writing to output.gpw (mode='')

iter: 100 11:30:54  -272.475104c -6.10  -5.48c
iter: 101 11:31:01  -272.475104c -6.00  -5.57c
iter: 102 11:31:08  -272.475104c -6.02  -5.72c
iter: 103 11:31:15  -272.475104c -6.22  -5.83c
iter: 104 11:31:22  -272.475104c -6.27  -5.82c
Writing to output.gpw (mode='')

iter: 105 11:31:30  -272.475104c -6.30  -5.76c
iter: 106 11:31:37  -272.475104c -6.42  -5.66c
iter: 107 11:31:44  -272.475104c -6.41  -5.61c
iter: 108 11:31:51  -272.475104c -6.51  -5.55c
iter: 109 11:31:58  -272.475103c -6.36  -5.53c
Writing to output.gpw (mode='')

iter: 110 11:32:05  -272.475103c -6.57  -5.48c
iter: 111 11:32:12  -272.475103c -6.61  -5.47c
iter: 112 11:32:19  -272.475103c -6.62  -5.45c
iter: 113 11:32:26  -272.475103c -6.68  -5.47c
iter: 114 11:32:33  -272.475103c -6.46  -5.46c
Writing to output.gpw (mode='')

iter: 115 11:32:40  -272.475103c -6.79  -5.41c
iter: 116 11:32:47  -272.475103c -6.61  -5.40c
iter: 117 11:32:54  -272.475103c -6.85  -5.39c
iter: 118 11:33:01  -272.475103c -6.94  -5.30c
iter: 119 11:33:08  -272.475103c -6.92  -5.44c
Writing to output.gpw (mode='')

iter: 120 11:33:15  -272.475103c -6.98  -5.44c
iter: 121 11:33:23  -272.475103c -6.86  -5.47c
iter: 122 11:33:30  -272.475103c -7.01  -5.73c
iter: 123 11:33:37  -272.475103c -7.07  -5.80c
iter: 124 11:33:44  -272.475103c -7.05  -5.85c
Writing to output.gpw (mode='')

iter: 125 11:33:51  -272.475103c -7.20  -5.91c
iter: 126 11:33:58  -272.475103c -7.24  -6.03c
iter: 127 11:34:05  -272.475103c -7.28  -6.03c
iter: 128 11:34:12  -272.475103c -7.11  -6.07c
iter: 129 11:34:19  -272.475103c -7.34  -6.20c
Writing to output.gpw (mode='')

iter: 130 11:34:27  -272.475103c -7.42c -6.33c

Converged after 130 iterations.

Dipole moment: (-8.451123, -5.083270, 0.359313) |e|*Ang

Energy contributions relative to reference atoms: (reference = -13382.245603)

Kinetic:       +181.456728
Potential:     -156.370177
External:        +0.000000
XC:            -298.142976
Entropy (-ST):   -0.159176
Local:           +0.660911
--------------------------
Free energy:   -272.554691
Extrapolated:  -272.475103

Dipole-layer corrected work functions: 3.374558, 2.683835 eV

Showing only first 2 kpts
 Kpt  Band  Eigenvalues  Occupancy
  0    28     -3.27619    1.98579
  0    29     -3.13683    1.79185
  0    30     -2.90636    0.15790
  0    31     -2.81568    0.02757

  1    28     -3.10596    1.64558
  1    29     -3.05099    1.21456
  1    30     -2.99351    0.65757
  1    31     -2.89678    0.13218


Fermi level: -3.02920

No gap

Forces in eV/Ang:
  0 Li    0.02747    0.00200   -0.27763
  1 Li   -0.01376    0.00281   -0.27727
  2 Li   -0.01252   -0.00127   -0.27776
  3 Li   -0.00091    0.01044   -0.27888
  4 Li   -0.00585   -0.00879   -0.27443
  5 Li    0.00532    0.01955   -0.27186
  6 Li   -0.00414   -0.01332   -0.27488
  7 Li   -0.00395    0.00419   -0.27382
  8 Li    0.00588   -0.01844   -0.27080
  9 Li   -0.00214    0.00571    0.31285
 10 Li    0.00697    0.00199    0.24654
 11 Li   -0.00626    0.00561    0.29438
 12 Li   -0.00396   -0.00995    0.31590
 13 Li    0.00684    0.00120    0.23945
 14 Li   -0.00518   -0.00973    0.29071
 15 Li   -0.00795    0.00255    0.24115
 16 Li   -0.00408    0.00015    0.26957
 17 Li    0.01448    0.00363    0.25946
 18 Li    0.04291   -0.00290   -0.06609
 19 Li   -0.02246    0.00145    0.04421
 20 Li   -0.00483   -0.00070   -0.09591
 21 Li   -0.02406   -0.03307    0.06793
 22 Li    0.02162   -0.00438    0.04860
 23 Li    0.00523   -0.00659    0.02616
 24 Li   -0.01613    0.03586    0.06559
 25 Li    0.01122    0.00419    0.03196
 26 Li    0.00808    0.00954    0.04110
 27 Li   -0.11787    0.05706    0.06125
 28 Li    0.08582   -0.05665   -0.13758
 29 Li    0.07419    0.02694    0.11022
 30 Li   -0.08783   -0.05754    0.05945
 31 Li    0.08449    0.04511   -0.12190
 32 Li    0.04863   -0.03345    0.08485
 33 Li   -0.00060    0.01740    0.00088
 34 Li   -0.02866    0.00078   -0.00333
 35 Li    0.02901    0.00605   -0.00438
 36 O     9.42647    0.76570   16.07814
 37 C     6.46496    0.12332    3.73905
 38 H    -0.14423    0.06508    0.29378
 39 H    -0.18757    0.05932    0.05779
 40 H     0.00271   -0.08018    0.02736
 41 H    -1.01185   -1.74154    1.17289
 42 N     6.47979    0.88913   -9.73277
 43 N   -21.12764   -0.11337  -11.84540

System changes: positions 

Initializing position-dependent things.

Density initialized from wave functions
       .-----------------------.  
      /|                       |  
     / |                       |  
    /  |                       |  
   /   |                       |  
  /    |                       |  
 *     |                       |  
 |     |                       |  
 |     |                       |  
 |     |                       |  
 |     |                       |  
 |     |                       |  
 |     |                       |  
 |     |                       |  
 |    H|       Li              |  
 |O   CH                 H     |  
 |    H|     Li      Li      Li|  
 |N    |  Li      Li   N  Li   |  
 |     |   Li      Li      Li  |  
 |     |Li      Li      Li     |  
 |     |         Li      Li    |  
 |   LLi     LLi     LLi       |  
 |     |  Li      Li      Li   |  
 | Li  |   Li      Li          |  
 |     |Li      Li      Li     |  
 Li    | Li      Li            |  
 |    Li      Li      Li       |  
 |     |                       |  
 |     |                       |  
 |     |                       |  
 |     |                       |  
 |     |                       |  
 |     |                       |  
 |     .-----------------------.  
 |    /                       /   
 |   /                       /    
 |  /                       /     
 | /                       /      
 |/                       /       
 *-----------------------*        

Positions:
   0 Li     1.617037    1.617037   10.000000    ( 0.0000,  0.0000,  0.0000)
   1 Li     4.851111    1.617037   10.000000    ( 0.0000,  0.0000,  0.0000)
   2 Li     8.085185    1.617037   10.000000    ( 0.0000,  0.0000,  0.0000)
   3 Li     1.617037    4.851111   10.000000    ( 0.0000,  0.0000,  0.0000)
   4 Li     4.851111    4.851111   10.000000    ( 0.0000,  0.0000,  0.0000)
   5 Li     8.085185    4.851111   10.000000    ( 0.0000,  0.0000,  0.0000)
   6 Li     1.617037    8.085185   10.000000    ( 0.0000,  0.0000,  0.0000)
   7 Li     4.851111    8.085185   10.000000    ( 0.0000,  0.0000,  0.0000)
   8 Li     8.085185    8.085185   10.000000    ( 0.0000,  0.0000,  0.0000)
   9 Li     0.000000    0.000000   11.617037    ( 0.0000,  0.0000,  0.0000)
  10 Li     3.234074    0.000000   11.617037    ( 0.0000,  0.0000,  0.0000)
  11 Li     6.468148    0.000000   11.617037    ( 0.0000,  0.0000,  0.0000)
  12 Li     0.000000    3.234074   11.617037    ( 0.0000,  0.0000,  0.0000)
  13 Li     3.234074    3.234074   11.617037    ( 0.0000,  0.0000,  0.0000)
  14 Li     6.468148    3.234074   11.617037    ( 0.0000,  0.0000,  0.0000)
  15 Li     0.000000    6.468148   11.617037    ( 0.0000,  0.0000,  0.0000)
  16 Li     3.234074    6.468148   11.617037    ( 0.0000,  0.0000,  0.0000)
  17 Li     6.468148    6.468148   11.617037    ( 0.0000,  0.0000,  0.0000)
  18 Li     1.617109    1.617033   13.469619    ( 0.0000,  0.0000,  0.0000)
  19 Li     4.851074    1.617041   13.469802    ( 0.0000,  0.0000,  0.0000)
  20 Li     8.085176    1.617037   13.469569    ( 0.0000,  0.0000,  0.0000)
  21 Li     1.616999    4.851056   13.469842    ( 0.0000,  0.0000,  0.0000)
  22 Li     4.851147    4.851104   13.469811    ( 0.0000,  0.0000,  0.0000)
  23 Li     8.085192    4.851100   13.469773    ( 0.0000,  0.0000,  0.0000)
  24 Li     1.617011    8.085243   13.469836    ( 0.0000,  0.0000,  0.0000)
  25 Li     4.851130    8.085190   13.469782    ( 0.0000,  0.0000,  0.0000)
  26 Li     8.085197    8.085200   13.469796    ( 0.0000,  0.0000,  0.0000)
  27 Li    -0.000195    0.000094   15.446041    ( 0.0000,  0.0000,  0.0000)
  28 Li     3.234215   -0.000094   15.445712    ( 0.0000,  0.0000,  0.0000)
  29 Li     6.468271    0.000044   15.446121    ( 0.0000,  0.0000,  0.0000)
  30 Li    -0.000145    3.233979   15.446037    ( 0.0000,  0.0000,  0.0000)
  31 Li     3.234216    3.234151   15.445737    ( 0.0000,  0.0000,  0.0000)
  32 Li     6.468226    3.234021   15.446078    ( 0.0000,  0.0000,  0.0000)
  33 Li    -0.000001    6.468177   15.445940    ( 0.0000,  0.0000,  0.0000)
  34 Li     3.234029    6.468147   15.445933    ( 0.0000,  0.0000,  0.0000)
  35 Li     6.468193    6.468156   15.445931    ( 0.0000,  0.0000,  0.0000)
  36 O      0.015567    1.618301   18.472491    ( 0.0000,  0.0000,  0.0000)
  37 C      1.440639    1.602167   18.457613    ( 0.0000,  0.0000,  0.0000)
  38 H      1.833996    0.852117   17.764774    ( 0.0000,  0.0000,  0.0000)
  39 H      1.833165    1.423652   19.453323    ( 0.0000,  0.0000,  0.0000)
  40 H      1.749411    2.587546   18.118556    ( 0.0000,  0.0000,  0.0000)
  41 H     -0.313326    0.751032   18.738881    ( 0.0000,  0.0000,  0.0000)
  42 N      0.010701    1.618468   17.179867    ( 0.0000,  0.0000,  0.0000)
  43 N     -1.131512    1.616813   17.176378    ( 0.0000,  0.0000,  0.0000)

Unit cell:
           periodic     x           y           z      points  spacing
  1. axis:    yes    9.702222    0.000000    0.000000    60     0.1617
  2. axis:    yes    0.000000    9.702222    0.000000    60     0.1617
  3. axis:    no     0.000000    0.000000   26.601111   168     0.1583

  Lengths:   9.702222   9.702222  26.601111
  Angles:   90.000000  90.000000  90.000000

Effective grid spacing dv^(1/3) = 0.1606

     iter     time        total  log10-change:
                         energy  eigst   dens
iter:   1 11:34:39  -275.177644  -0.13
iter:   2 11:34:46  -274.497565  -0.14  -1.24
iter:   3 11:34:53  -274.240766  -0.77  -1.26
iter:   4 11:35:00  -274.155851  -0.63  -1.52
Writing to output.gpw (mode='')

iter:   5 11:35:07  -274.124190  -1.36  -1.75
iter:   6 11:35:14  -274.311367  -0.78  -1.88
iter:   7 11:35:21  -274.119177  -0.94  -1.46
iter:   8 11:35:29  -274.085291  -1.87  -1.97
iter:   9 11:35:36  -274.080396  -1.72  -2.18
Writing to output.gpw (mode='')

iter:  10 11:35:43  -274.084053c -1.70  -2.25
iter:  11 11:35:50  -274.078208c -2.58  -2.35
iter:  12 11:35:57  -274.078504c -2.87  -2.50
iter:  13 11:36:04  -274.078112c -2.60  -2.71
iter:  14 11:36:11  -274.078576c -3.17  -2.78
Writing to output.gpw (mode='')

iter:  15 11:36:19  -274.078375c -3.37  -2.88
iter:  16 11:36:26  -274.078338c -3.24  -3.05
iter:  17 11:36:33  -274.078571c -3.76  -3.16
iter:  18 11:36:40  -274.078438c -3.61  -3.20
iter:  19 11:36:47  -274.078435c -4.17  -3.22
Writing to output.gpw (mode='')

iter:  20 11:36:54  -274.078423c -3.66  -3.33
iter:  21 11:37:01  -274.078442c -4.02  -3.35
iter:  22 11:37:09  -274.078458c -4.46  -3.76
iter:  23 11:37:17  -274.078457c -4.57  -3.78
iter:  24 11:37:24  -274.078468c -4.58  -3.79
Writing to output.gpw (mode='')

iter:  25 11:37:31  -274.078473c -4.69  -3.79
iter:  26 11:37:38  -274.078450c -4.67  -3.77
iter:  27 11:37:46  -274.078463c -4.78  -3.87
iter:  28 11:37:53  -274.078464c -4.92  -4.07c
iter:  29 11:38:00  -274.078461c -4.77  -4.18c
Writing to output.gpw (mode='')

iter:  30 11:38:07  -274.078463c -5.17  -4.21c
iter:  31 11:38:14  -274.078454c -5.15  -4.33c
iter:  32 11:38:21  -274.078457c -5.38  -4.42c
iter:  33 11:38:29  -274.078459c -5.41  -4.46c
iter:  34 11:38:36  -274.078462c -5.58  -4.67c
Writing to output.gpw (mode='')

iter:  35 11:38:43  -274.078463c -5.36  -4.72c
iter:  36 11:38:50  -274.078462c -5.44  -4.72c
iter:  37 11:38:57  -274.078461c -5.70  -4.73c
iter:  38 11:39:04  -274.078462c -5.77  -4.74c
iter:  39 11:39:11  -274.078463c -5.60  -4.67c
Writing to output.gpw (mode='')

iter:  40 11:39:19  -274.078463c -5.86  -4.60c
iter:  41 11:39:26  -274.078462c -6.00  -4.60c
iter:  42 11:39:39  -274.078461c -5.99  -4.62c
iter:  43 11:39:46  -274.078459c -6.12  -4.70c
iter:  44 11:39:53  -274.078459c -6.22  -4.86c
Writing to output.gpw (mode='')

iter:  45 11:40:00  -274.078461c -6.32  -4.89c
iter:  46 11:40:07  -274.078460c -6.35  -5.02c
iter:  47 11:40:14  -274.078461c -6.24  -5.19c
iter:  48 11:40:22  -274.078460c -6.60  -5.31c
iter:  49 11:40:29  -274.078460c -6.53  -5.35c
Writing to output.gpw (mode='')

iter:  50 11:40:36  -274.078460c -6.50  -5.33c
iter:  51 11:40:43  -274.078460c -6.93  -5.51c
iter:  52 11:40:50  -274.078460c -6.86  -5.54c
iter:  53 11:40:57  -274.078460c -6.79  -5.58c
iter:  54 11:41:04  -274.078460c -6.96  -5.56c
Writing to output.gpw (mode='')

iter:  55 11:41:11  -274.078460c -7.16  -5.43c
iter:  56 11:41:18  -274.078460c -7.03  -5.41c
iter:  57 11:41:26  -274.078460c -7.10  -5.40c
iter:  58 11:41:33  -274.078460c -7.30  -5.34c
iter:  59 11:41:40  -274.078459c -7.17  -5.39c
Writing to output.gpw (mode='')

iter:  60 11:41:47  -274.078460c -7.51c -5.45c

Converged after 60 iterations.

Dipole moment: (-10.914052, -4.957313, 0.353455) |e|*Ang

Energy contributions relative to reference atoms: (reference = -13382.245603)

Kinetic:       +169.820177
Potential:     -148.147492
External:        +0.000000
XC:            -296.334202
Entropy (-ST):   -0.161788
Local:           +0.663952
--------------------------
Free energy:   -274.159354
Extrapolated:  -274.078460

Dipole-layer corrected work functions: 3.376499, 2.697038 eV

Showing only first 2 kpts
 Kpt  Band  Eigenvalues  Occupancy
  0    28     -3.28263    1.98547
  0    29     -3.13788    1.76624
  0    30     -2.92829    0.20505
  0    31     -2.82240    0.02711

  1    28     -3.11299    1.64238
  1    29     -3.05705    1.20010
  1    30     -2.99670    0.61949
  1    31     -2.89821    0.11780


Fermi level: -3.03677

No gap

Forces in eV/Ang:
  0 Li    0.02700    0.00137   -0.27804
  1 Li   -0.01334    0.00245   -0.27715
  2 Li   -0.01224   -0.00146   -0.27847
  3 Li   -0.00104    0.01211   -0.27911
  4 Li   -0.00594   -0.00766   -0.27426
  5 Li    0.00542    0.02007   -0.27267
  6 Li   -0.00404   -0.01418   -0.27574
  7 Li   -0.00438    0.00364   -0.27415
  8 Li    0.00626   -0.01880   -0.27105
  9 Li   -0.00260    0.00567    0.31451
 10 Li    0.00650    0.00208    0.24647
 11 Li   -0.00560    0.00647    0.29588
 12 Li   -0.00413   -0.00978    0.31884
 13 Li    0.00660    0.00072    0.24035
 14 Li   -0.00465   -0.01032    0.29298
 15 Li   -0.00769    0.00263    0.23999
 16 Li   -0.00391    0.00016    0.26815
 17 Li    0.01428    0.00345    0.25787
 18 Li    0.04499   -0.00278   -0.07404
 19 Li   -0.02466    0.00126    0.04238
 20 Li   -0.00359   -0.00116   -0.09458
 21 Li   -0.02417   -0.03346    0.06661
 22 Li    0.02171   -0.00508    0.04849
 23 Li    0.00520   -0.00417    0.02214
 24 Li   -0.01741    0.03568    0.06576
 25 Li    0.01269    0.00488    0.03312
 26 Li    0.00798    0.00744    0.03776
 27 Li   -0.13389    0.09115    0.12582
 28 Li    0.08584   -0.05993   -0.13800
 29 Li    0.08798    0.03810    0.12849
 30 Li   -0.10562   -0.09078    0.13207
 31 Li    0.08538    0.04814   -0.12260
 32 Li    0.06288   -0.04390    0.10659
 33 Li    0.00192    0.01597   -0.00661
 34 Li   -0.02842    0.00147   -0.00435
 35 Li    0.02612    0.00613   -0.00726
 36 O     7.94997    0.59771   12.59011
 37 C     5.65235    0.09329    3.34032
 38 H    -0.11323    0.05226    0.31290
 39 H     0.03090    0.02142    0.30159
 40 H     0.06045   -0.04448    0.05869
 41 H    -0.90250   -1.46312    1.04649
 42 N     0.90776    0.89398   -8.07376
 43 N   -13.63235   -0.17776   -9.90244

System changes: positions 

Initializing position-dependent things.

Density initialized from wave functions
       .-----------------------.  
      /|                       |  
     / |                       |  
    /  |                       |  
   /   |                       |  
  /    |                       |  
 *     |                       |  
 |     |                       |  
 |     |                       |  
 |     |                       |  
 |     |                       |  
 |     |                       |  
 |     |                       |  
 |     |                       |  
 |    H|       Li              |  
 |O   CH                 H     |  
 |   LH|     Li      Li        |  
 |     |  Li      Li   N  Ni   |  
 |     |   Li      Li      Li  |  
 |     |Li      Li      Li     |  
 |     |         Li      Li    |  
 |   LLi     LLi     LLi       |  
 |     |  Li      Li      Li   |  
 | Li  |   Li      Li          |  
 |     |Li      Li      Li     |  
 Li    | Li      Li            |  
 |    Li      Li      Li       |  
 |     |                       |  
 |     |                       |  
 |     |                       |  
 |     |                       |  
 |     |                       |  
 |     |                       |  
 |     .-----------------------.  
 |    /                       /   
 |   /                       /    
 |  /                       /     
 | /                       /      
 |/                       /       
 *-----------------------*        

Positions:
   0 Li     1.617037    1.617037   10.000000    ( 0.0000,  0.0000,  0.0000)
   1 Li     4.851111    1.617037   10.000000    ( 0.0000,  0.0000,  0.0000)
   2 Li     8.085185    1.617037   10.000000    ( 0.0000,  0.0000,  0.0000)
   3 Li     1.617037    4.851111   10.000000    ( 0.0000,  0.0000,  0.0000)
   4 Li     4.851111    4.851111   10.000000    ( 0.0000,  0.0000,  0.0000)
   5 Li     8.085185    4.851111   10.000000    ( 0.0000,  0.0000,  0.0000)
   6 Li     1.617037    8.085185   10.000000    ( 0.0000,  0.0000,  0.0000)
   7 Li     4.851111    8.085185   10.000000    ( 0.0000,  0.0000,  0.0000)
   8 Li     8.085185    8.085185   10.000000    ( 0.0000,  0.0000,  0.0000)
   9 Li     0.000000    0.000000   11.617037    ( 0.0000,  0.0000,  0.0000)
  10 Li     3.234074    0.000000   11.617037    ( 0.0000,  0.0000,  0.0000)
  11 Li     6.468148    0.000000   11.617037    ( 0.0000,  0.0000,  0.0000)
  12 Li     0.000000    3.234074   11.617037    ( 0.0000,  0.0000,  0.0000)
  13 Li     3.234074    3.234074   11.617037    ( 0.0000,  0.0000,  0.0000)
  14 Li     6.468148    3.234074   11.617037    ( 0.0000,  0.0000,  0.0000)
  15 Li     0.000000    6.468148   11.617037    ( 0.0000,  0.0000,  0.0000)
  16 Li     3.234074    6.468148   11.617037    ( 0.0000,  0.0000,  0.0000)
  17 Li     6.468148    6.468148   11.617037    ( 0.0000,  0.0000,  0.0000)
  18 Li     1.617298    1.617023   13.469283    ( 0.0000,  0.0000,  0.0000)
  19 Li     4.850965    1.617045   13.469961    ( 0.0000,  0.0000,  0.0000)
  20 Li     8.085168    1.617030   13.469201    ( 0.0000,  0.0000,  0.0000)
  21 Li     1.616902    4.850921   13.470099    ( 0.0000,  0.0000,  0.0000)
  22 Li     4.851233    4.851080   13.470003    ( 0.0000,  0.0000,  0.0000)
  23 Li     8.085213    4.851096   13.469840    ( 0.0000,  0.0000,  0.0000)
  24 Li     1.616936    8.085384   13.470098    ( 0.0000,  0.0000,  0.0000)
  25 Li     4.851188    8.085213   13.469920    ( 0.0000,  0.0000,  0.0000)
  26 Li     8.085228    8.085218   13.469929    ( 0.0000,  0.0000,  0.0000)
  27 Li    -0.000809    0.000633   15.446874    ( 0.0000,  0.0000,  0.0000)
  28 Li     3.234557   -0.000349   15.445161    ( 0.0000,  0.0000,  0.0000)
  29 Li     6.468692    0.000254   15.446726    ( 0.0000,  0.0000,  0.0000)
  30 Li    -0.000657    3.233446   15.446937    ( 0.0000,  0.0000,  0.0000)
  31 Li     3.234560    3.234358   15.445246    ( 0.0000,  0.0000,  0.0000)
  32 Li     6.468549    3.233793   15.446614    ( 0.0000,  0.0000,  0.0000)
  33 Li     0.000020    6.468233   15.445875    ( 0.0000,  0.0000,  0.0000)
  34 Li     3.233917    6.468156   15.445910    ( 0.0000,  0.0000,  0.0000)
  35 Li     6.468282    6.468180   15.445887    ( 0.0000,  0.0000,  0.0000)
  36 O      0.039523    1.619808   18.504488    ( 0.0000,  0.0000,  0.0000)
  37 C      1.458897    1.602382   18.468824    ( 0.0000,  0.0000,  0.0000)
  38 H      1.833706    0.852259   17.766116    ( 0.0000,  0.0000,  0.0000)
  39 H      1.834416    1.423541   19.455781    ( 0.0000,  0.0000,  0.0000)
  40 H      1.749949    2.587553   18.118951    ( 0.0000,  0.0000,  0.0000)
  41 H     -0.316347    0.746658   18.742386    ( 0.0000,  0.0000,  0.0000)
  42 N     -0.014484    1.622045   17.156362    ( 0.0000,  0.0000,  0.0000)
  43 N     -1.146944    1.615774   17.147075    ( 0.0000,  0.0000,  0.0000)

Unit cell:
           periodic     x           y           z      points  spacing
  1. axis:    yes    9.702222    0.000000    0.000000    60     0.1617
  2. axis:    yes    0.000000    9.702222    0.000000    60     0.1617
  3. axis:    no     0.000000    0.000000   26.601111   168     0.1583

  Lengths:   9.702222   9.702222  26.601111
  Angles:   90.000000  90.000000  90.000000

Effective grid spacing dv^(1/3) = 0.1606

     iter     time        total  log10-change:
                         energy  eigst   dens
iter:   1 11:41:55  -275.490601  -0.46
iter:   2 11:42:03  -275.422602  -0.65  -1.55
iter:   3 11:42:10  -275.399141  -1.19  -1.66
iter:   4 11:42:17  -275.391080  -1.18  -2.01
Writing to output.gpw (mode='')

iter:   5 11:42:24  -275.394960c -1.36  -2.15
iter:   6 11:42:31  -275.423883  -1.42  -2.07
iter:   7 11:42:38  -275.378348  -1.43  -1.86
iter:   8 11:42:45  -275.379025  -1.40  -2.42
iter:   9 11:42:52  -275.386352c -2.20  -2.29
Writing to output.gpw (mode='')

iter:  10 11:42:59  -275.382692c -2.19  -2.28
iter:  11 11:43:06  -275.379138c -1.94  -2.47
iter:  12 11:43:13  -275.379506c -2.49  -2.61
iter:  13 11:43:20  -275.380072c -2.48  -2.65
iter:  14 11:43:27  -275.379409c -2.69  -2.57
Writing to output.gpw (mode='')

iter:  15 11:43:34  -275.379801c -2.70  -2.81
iter:  16 11:43:41  -275.379981c -2.92  -2.95
iter:  17 11:43:48  -275.379910c -3.44  -2.87
iter:  18 11:43:56  -275.380094c -3.50  -2.96
iter:  19 11:44:03  -275.380086c -3.79  -2.90
Writing to output.gpw (mode='')

iter:  20 11:44:10  -275.380076c -4.04  -2.94
iter:  21 11:44:17  -275.380005c -3.53  -2.96
iter:  22 11:44:24  -275.380037c -3.86  -3.25
iter:  23 11:44:36  -275.380156c -4.02  -3.28
iter:  24 11:44:43  -275.380089c -4.20  -3.30
Writing to output.gpw (mode='')

iter:  25 11:44:50  -275.380105c -4.57  -3.31
iter:  26 11:44:57  -275.380058c -4.27  -3.47
iter:  27 11:45:04  -275.380100c -5.00  -3.80
iter:  28 11:45:11  -275.380093c -4.69  -3.80
iter:  29 11:45:18  -275.380073c -4.48  -4.09c
Writing to output.gpw (mode='')

iter:  30 11:45:26  -275.380078c -5.26  -3.95
iter:  31 11:45:33  -275.380082c -5.34  -4.07c
iter:  32 11:45:40  -275.380080c -5.27  -4.19c
iter:  33 11:45:47  -275.380082c -5.38  -4.39c
iter:  34 11:45:54  -275.380089c -5.61  -4.33c
Writing to output.gpw (mode='')

iter:  35 11:46:01  -275.380085c -5.69  -4.45c
iter:  36 11:46:08  -275.380086c -5.79  -4.66c
iter:  37 11:46:15  -275.380088c -5.90  -4.65c
iter:  38 11:46:22  -275.380091c -5.97  -4.67c
iter:  39 11:46:29  -275.380090c -6.34  -4.75c
Writing to output.gpw (mode='')

iter:  40 11:46:36  -275.380092c -6.33  -4.78c
iter:  41 11:46:43  -275.380089c -6.14  -4.90c
iter:  42 11:46:50  -275.380090c -6.43  -5.12c
iter:  43 11:46:57  -275.380090c -6.64  -5.07c
iter:  44 11:47:04  -275.380092c -6.47  -5.12c
Writing to output.gpw (mode='')

iter:  45 11:47:11  -275.380091c -6.56  -5.20c
iter:  46 11:47:19  -275.380092c -6.67  -5.16c
iter:  47 11:47:26  -275.380092c -6.67  -5.27c
iter:  48 11:47:33  -275.380092c -7.15  -5.36c
iter:  49 11:47:40  -275.380092c -6.95  -5.39c
Writing to output.gpw (mode='')

iter:  50 11:47:47  -275.380092c -7.24  -5.31c
iter:  51 11:47:54  -275.380091c -7.16  -5.31c
iter:  52 11:48:01  -275.380091c -7.40c -5.32c

Converged after 52 iterations.

Dipole moment: (-10.167644, -5.020468, 0.377335) |e|*Ang

Energy contributions relative to reference atoms: (reference = -13382.245603)

Kinetic:       +166.286398
Potential:     -146.494679
External:        +0.000000
XC:            -295.762715
Entropy (-ST):   -0.158547
Local:           +0.670178
--------------------------
Free energy:   -275.459364
Extrapolated:  -275.380091

Dipole-layer corrected work functions: 3.375114, 2.649747 eV

Showing only first 2 kpts
 Kpt  Band  Eigenvalues  Occupancy
  0    28     -3.26014    1.98599
  0    29     -3.12060    1.79382
  0    30     -2.89286    0.16767
  0    31     -2.79987    0.02810

  1    28     -3.08268    1.60597
  1    29     -3.03647    1.23591
  1    30     -2.97272    0.62253
  1    31     -2.88105    0.13476


Fermi level: -3.01243

No gap
Writing to output.gpw (mode='')


Forces in eV/Ang:
  0 Li    0.02784    0.00111   -0.27801
  1 Li   -0.01401    0.00265   -0.27624
  2 Li   -0.01258   -0.00144   -0.27880
  3 Li   -0.00220    0.01189   -0.27831
  4 Li   -0.00522   -0.00854   -0.27355
  5 Li    0.00590    0.02136   -0.27255
  6 Li   -0.00542   -0.01386   -0.27549
  7 Li   -0.00364    0.00443   -0.27336
  8 Li    0.00719   -0.02001   -0.27102
  9 Li   -0.00267    0.00570    0.31488
 10 Li    0.00716    0.00213    0.24677
 11 Li   -0.00595    0.00634    0.29510
 12 Li   -0.00372   -0.00966    0.31916
 13 Li    0.00792    0.00020    0.24073
 14 Li   -0.00574   -0.01001    0.29180
 15 Li   -0.00798    0.00260    0.23910
 16 Li   -0.00374    0.00053    0.26939
 17 Li    0.01427    0.00312    0.25721
 18 Li    0.04334   -0.00223   -0.07399
 19 Li   -0.02090    0.00095    0.04782
 20 Li   -0.00536   -0.00076   -0.11633
 21 Li   -0.02400   -0.03421    0.06701
 22 Li    0.02056   -0.00331    0.04712
 23 Li    0.00568   -0.00831    0.02715
 24 Li   -0.01803    0.03630    0.06662
 25 Li    0.01273    0.00343    0.03302
 26 Li    0.00824    0.01079    0.04268
 27 Li   -0.10845    0.05856    0.08639
 28 Li    0.08773   -0.05983   -0.13808
 29 Li    0.05890    0.02011    0.10709
 30 Li   -0.08097   -0.06059    0.09965
 31 Li    0.08701    0.04815   -0.12357
 32 Li    0.03332   -0.02420    0.08675
 33 Li    0.00023    0.01626   -0.00526
 34 Li   -0.02944    0.00129   -0.00322
 35 Li    0.02888    0.00653   -0.00640
 36 O     6.46749    0.17974   10.72928
 37 C     4.35461    0.01212    2.53963
 38 H    -0.06980    0.04027    0.30267
 39 H     0.35558   -0.03396    0.62914
 40 H     0.14305    0.01251    0.07730
 41 H    -0.53891   -0.91539    0.89646
 42 N     1.09986    0.91653   -7.07393
 43 N   -11.92297   -0.22160   -8.35477

System changes: positions 

Initializing position-dependent things.

Density initialized from wave functions
       .-----------------------.  
      /|                       |  
     / |                       |  
    /  |                       |  
   /   |                       |  
  /    |                       |  
 *     |                       |  
 |     |                       |  
 |     |                       |  
 |     |                       |  
 |     |                       |  
 |     |                       |  
 |     |                       |  
 |     |                       |  
 |    H|       Li              |  
 |O   CH                 H     |  
 |   LH|     Li      Li        |  
 |     |  Li      Li   N  Ni   |  
 |     |   Li      Li      Li  |  
 |     |Li      Li      Li     |  
 |     |         Li      Li    |  
 |   LLi     LLi     LLi       |  
 |     |  Li      Li      Li   |  
 | Li  |   Li      Li          |  
 |     |Li      Li      Li     |  
 Li    | Li      Li            |  
 |    Li      Li      Li       |  
 |     |                       |  
 |     |                       |  
 |     |                       |  
 |     |                       |  
 |     |                       |  
 |     |                       |  
 |     .-----------------------.  
 |    /                       /   
 |   /                       /    
 |  /                       /     
 | /                       /      
 |/                       /       
 *-----------------------*        

Positions:
   0 Li     1.617037    1.617037   10.000000    ( 0.0000,  0.0000,  0.0000)
   1 Li     4.851111    1.617037   10.000000    ( 0.0000,  0.0000,  0.0000)
   2 Li     8.085185    1.617037   10.000000    ( 0.0000,  0.0000,  0.0000)
   3 Li     1.617037    4.851111   10.000000    ( 0.0000,  0.0000,  0.0000)
   4 Li     4.851111    4.851111   10.000000    ( 0.0000,  0.0000,  0.0000)
   5 Li     8.085185    4.851111   10.000000    ( 0.0000,  0.0000,  0.0000)
   6 Li     1.617037    8.085185   10.000000    ( 0.0000,  0.0000,  0.0000)
   7 Li     4.851111    8.085185   10.000000    ( 0.0000,  0.0000,  0.0000)
   8 Li     8.085185    8.085185   10.000000    ( 0.0000,  0.0000,  0.0000)
   9 Li     0.000000    0.000000   11.617037    ( 0.0000,  0.0000,  0.0000)
  10 Li     3.234074    0.000000   11.617037    ( 0.0000,  0.0000,  0.0000)
  11 Li     6.468148    0.000000   11.617037    ( 0.0000,  0.0000,  0.0000)
  12 Li     0.000000    3.234074   11.617037    ( 0.0000,  0.0000,  0.0000)
  13 Li     3.234074    3.234074   11.617037    ( 0.0000,  0.0000,  0.0000)
  14 Li     6.468148    3.234074   11.617037    ( 0.0000,  0.0000,  0.0000)
  15 Li     0.000000    6.468148   11.617037    ( 0.0000,  0.0000,  0.0000)
  16 Li     3.234074    6.468148   11.617037    ( 0.0000,  0.0000,  0.0000)
  17 Li     6.468148    6.468148   11.617037    ( 0.0000,  0.0000,  0.0000)
  18 Li     1.617589    1.617014   13.468734    ( 0.0000,  0.0000,  0.0000)
  19 Li     4.850845    1.617047   13.470326    ( 0.0000,  0.0000,  0.0000)
  20 Li     8.085122    1.617026   13.468212    ( 0.0000,  0.0000,  0.0000)
  21 Li     1.616740    4.850680   13.470550    ( 0.0000,  0.0000,  0.0000)
  22 Li     4.851362    4.851070   13.470308    ( 0.0000,  0.0000,  0.0000)
  23 Li     8.085256    4.851015   13.470048    ( 0.0000,  0.0000,  0.0000)
  24 Li     1.616800    8.085635   13.470559    ( 0.0000,  0.0000,  0.0000)
  25 Li     4.851283    8.085227   13.470150    ( 0.0000,  0.0000,  0.0000)
  26 Li     8.085286    8.085311   13.470245    ( 0.0000,  0.0000,  0.0000)
  27 Li    -0.001399    0.000924   15.447473    ( 0.0000,  0.0000,  0.0000)
  28 Li     3.235170   -0.000773   15.444222    ( 0.0000,  0.0000,  0.0000)
  29 Li     6.468897    0.000285   15.447358    ( 0.0000,  0.0000,  0.0000)
  30 Li    -0.001078    3.233123   15.447741    ( 0.0000,  0.0000,  0.0000)
  31 Li     3.235171    3.234703   15.444395    ( 0.0000,  0.0000,  0.0000)
  32 Li     6.468579    3.233754   15.447144    ( 0.0000,  0.0000,  0.0000)
  33 Li     0.000020    6.468337   15.445807    ( 0.0000,  0.0000,  0.0000)
  34 Li     3.233709    6.468167   15.445893    ( 0.0000,  0.0000,  0.0000)
  35 Li     6.468487    6.468229   15.445834    ( 0.0000,  0.0000,  0.0000)
  36 O      0.060325    1.616024   18.538444    ( 0.0000,  0.0000,  0.0000)
  37 C      1.471139    1.601509   18.475999    ( 0.0000,  0.0000,  0.0000)
  38 H      1.833834    0.852340   17.768186    ( 0.0000,  0.0000,  0.0000)
  39 H      1.841245    1.422554   19.464645    ( 0.0000,  0.0000,  0.0000)
  40 H      1.752056    2.588398   18.119841    ( 0.0000,  0.0000,  0.0000)
  41 H     -0.315871    0.747358   18.746271    ( 0.0000,  0.0000,  0.0000)
  42 N     -0.038812    1.628505   17.127942    ( 0.0000,  0.0000,  0.0000)
  43 N     -1.166262    1.613464   17.116911    ( 0.0000,  0.0000,  0.0000)

Unit cell:
           periodic     x           y           z      points  spacing
  1. axis:    yes    9.702222    0.000000    0.000000    60     0.1617
  2. axis:    yes    0.000000    9.702222    0.000000    60     0.1617
  3. axis:    no     0.000000    0.000000   26.601111   168     0.1583

  Lengths:   9.702222   9.702222  26.601111
  Angles:   90.000000  90.000000  90.000000

Effective grid spacing dv^(1/3) = 0.1606

     iter     time        total  log10-change:
                         energy  eigst   dens
iter:   1 11:48:09  -276.601478  -0.46
iter:   2 11:48:17  -276.564035  -0.75  -1.63
iter:   3 11:48:24  -276.551647  -1.19  -1.76
iter:   4 11:48:31  -276.550159c -1.27  -2.09
Writing to output.gpw (mode='')

iter:   5 11:48:38  -276.563483c -1.36  -2.17
iter:   6 11:48:45  -276.591763  -1.41  -1.96
iter:   7 11:48:52  -276.534513  -1.38  -1.82
iter:   8 11:48:59  -276.533341  -1.39  -2.31
iter:   9 11:49:06  -276.537697c -2.29  -2.35
Writing to output.gpw (mode='')

iter:  10 11:49:14  -276.537630c -2.16  -2.40
iter:  11 11:49:21  -276.534027c -1.80  -2.46
iter:  12 11:49:35  -276.534294c -2.42  -2.55
iter:  13 11:49:47  -276.534445c -2.86  -2.70
iter:  14 11:49:57  -276.534324c -2.82  -2.78
Writing to output.gpw (mode='')

iter:  15 11:50:05  -276.534741c -2.95  -2.95
iter:  16 11:50:12  -276.534537c -3.10  -2.97
iter:  17 11:50:19  -276.534763c -3.38  -3.02
iter:  18 11:50:26  -276.534612c -3.55  -3.10
iter:  19 11:50:34  -276.534650c -3.68  -3.39
Writing to output.gpw (mode='')

iter:  20 11:50:41  -276.534707c -4.10  -3.45
iter:  21 11:50:48  -276.534666c -3.93  -3.49
iter:  22 11:50:55  -276.534727c -4.22  -3.48
iter:  23 11:51:02  -276.534718c -4.15  -3.54
iter:  24 11:51:09  -276.534725c -4.51  -3.93
Writing to output.gpw (mode='')

iter:  25 11:51:17  -276.534739c -4.68  -3.94
iter:  26 11:51:24  -276.534730c -4.58  -3.91
iter:  27 11:51:31  -276.534749c -4.65  -3.86
iter:  28 11:51:38  -276.534752c -4.90  -3.98
iter:  29 11:51:45  -276.534748c -5.16  -4.09c
Writing to output.gpw (mode='')

iter:  30 11:51:52  -276.534762c -5.02  -3.99
iter:  31 11:51:59  -276.534775c -5.16  -4.15c
iter:  32 11:52:07  -276.534773c -5.53  -4.11c
iter:  33 11:52:14  -276.534774c -5.24  -4.15c
iter:  34 11:52:21  -276.534772c -5.37  -4.27c
Writing to output.gpw (mode='')

iter:  35 11:52:28  -276.534775c -5.51  -4.40c
iter:  36 11:52:35  -276.534778c -5.67  -4.51c
iter:  37 11:52:42  -276.534781c -5.88  -4.53c
iter:  38 11:52:49  -276.534782c -5.74  -4.67c
iter:  39 11:52:57  -276.534783c -6.03  -4.81c
Writing to output.gpw (mode='')

iter:  40 11:53:04  -276.534783c -5.99  -4.88c
iter:  41 11:53:14  -276.534783c -6.43  -4.91c
iter:  42 11:53:21  -276.534783c -6.30  -4.93c
iter:  43 11:53:28  -276.534785c -6.37  -4.96c
iter:  44 11:53:35  -276.534784c -6.62  -5.14c
Writing to output.gpw (mode='')

iter:  45 11:53:42  -276.534784c -6.33  -5.23c
iter:  46 11:53:49  -276.534783c -6.72  -5.19c
iter:  47 11:53:56  -276.534784c -6.70  -5.29c
iter:  48 11:54:04  -276.534784c -6.94  -5.34c
iter:  49 11:54:11  -276.534785c -6.97  -5.39c
Writing to output.gpw (mode='')

iter:  50 11:54:18  -276.534785c -6.92  -5.68c
iter:  51 11:54:25  -276.534785c -7.18  -5.65c
iter:  52 11:54:37  -276.534785c -7.23  -5.66c
iter:  53 11:54:44  -276.534785c -7.28  -5.78c
iter:  54 11:54:52  -276.534785c -7.15  -5.97c
Writing to output.gpw (mode='')

iter:  55 11:54:59  -276.534785c -7.37  -5.97c
iter:  56 11:55:06  -276.534785c -7.39  -5.97c
iter:  57 11:55:13  -276.534785c -7.48c -6.08c

Converged after 57 iterations.

Dipole moment: (-8.822650, -5.021674, 0.389102) |e|*Ang

Energy contributions relative to reference atoms: (reference = -13382.245603)

Kinetic:       +162.996490
Potential:     -144.877388
External:        +0.000000
XC:            -295.249325
Entropy (-ST):   -0.156494
Local:           +0.673685
--------------------------
Free energy:   -276.613032
Extrapolated:  -276.534785

Dipole-layer corrected work functions: 3.374743, 2.626755 eV

Showing only first 2 kpts
 Kpt  Band  Eigenvalues  Occupancy
  0    28     -3.24984    1.98637
  0    29     -3.11315    1.80896
  0    30     -2.87489    0.14933
  0    31     -2.78775    0.02785

  1    28     -3.06561    1.57071
  1    29     -3.02749    1.26119
  1    30     -2.96002    0.61383
  1    31     -2.87571    0.15162


Fermi level: -3.00075

Gap: 0.022 eV
Transition (v -> c):
  (s=0, k=2, n=29, [0.12, 0.12, 0.00]) -> (s=0, k=7, n=30, [0.38, 0.38, 0.00])
Writing to output.gpw (mode='')


Forces in eV/Ang:
  0 Li    0.02836    0.00077   -0.27790
  1 Li   -0.01435    0.00264   -0.27512
  2 Li   -0.01294   -0.00136   -0.27911
  3 Li   -0.00316    0.01205   -0.27775
  4 Li   -0.00456   -0.00889   -0.27316
  5 Li    0.00638    0.02259   -0.27250
  6 Li   -0.00649   -0.01388   -0.27538
  7 Li   -0.00298    0.00492   -0.27285
  8 Li    0.00796   -0.02115   -0.27109
  9 Li   -0.00286    0.00560    0.31548
 10 Li    0.00802    0.00207    0.24690
 11 Li   -0.00624    0.00613    0.29402
 12 Li   -0.00309   -0.00922    0.31957
 13 Li    0.00928   -0.00047    0.24148
 14 Li   -0.00712   -0.00931    0.29024
 15 Li   -0.00802    0.00239    0.23800
 16 Li   -0.00388    0.00113    0.27028
 17 Li    0.01420    0.00238    0.25627
 18 Li    0.04143   -0.00199   -0.07430
 19 Li   -0.01735    0.00058    0.05194
 20 Li   -0.00762   -0.00006   -0.13484
 21 Li   -0.02362   -0.03461    0.06662
 22 Li    0.01909   -0.00150    0.04535
 23 Li    0.00619   -0.01216    0.03156
 24 Li   -0.01891    0.03687    0.06743
 25 Li    0.01292    0.00207    0.03298
 26 Li    0.00836    0.01349    0.04682
 27 Li   -0.08445    0.02463    0.04923
 28 Li    0.08741   -0.05952   -0.13495
 29 Li    0.03196    0.00419    0.08649
 30 Li   -0.05745   -0.02809    0.07256
 31 Li    0.08704    0.04829   -0.12196
 32 Li    0.00693   -0.00635    0.06850
 33 Li   -0.00080    0.01649   -0.00552
 34 Li   -0.02999    0.00117   -0.00243
 35 Li    0.03054    0.00716   -0.00617
 36 O     5.04064    0.20849    9.44493
 37 C     3.50218   -0.07539    2.21628
 38 H    -0.01737   -0.00297    0.25424
 39 H     0.53189   -0.02946    0.56315
 40 H     0.15284    0.00123    0.10395
 41 H    -0.27618   -0.77320    0.80952
 42 N     0.82764    0.87555   -6.61830
 43 N    -9.84599   -0.21573   -6.89306

System changes: positions 

Initializing position-dependent things.

Density initialized from wave functions
       .-----------------------.  
      /|                       |  
     / |                       |  
    /  |                       |  
   /   |                       |  
  /    |                       |  
 *     |                       |  
 |     |                       |  
 |     |                       |  
 |     |                       |  
 |     |                       |  
 |     |                       |  
 |     |                       |  
 |     |                       |  
 |    H|       Li              |  
 |O   CH                 H     |  
 |   LH|     Li      Li        |  
 |     |  Li      Li   N  Ni   |  
 |     |   Li      Li      Li  |  
 |     |Li      Li      Li     |  
 |     |         Li      Li    |  
 |   LLi     LLi     LLi       |  
 |     |  Li      Li      Li   |  
 | Li  |   Li      Li          |  
 |     |Li      Li      Li     |  
 Li    | Li      Li            |  
 |    Li      Li      Li       |  
 |     |                       |  
 |     |                       |  
 |     |                       |  
 |     |                       |  
 |     |                       |  
 |     |                       |  
 |     .-----------------------.  
 |    /                       /   
 |   /                       /    
 |  /                       /     
 | /                       /      
 |/                       /       
 *-----------------------*        

Positions:
   0 Li     1.617037    1.617037   10.000000    ( 0.0000,  0.0000,  0.0000)
   1 Li     4.851111    1.617037   10.000000    ( 0.0000,  0.0000,  0.0000)
   2 Li     8.085185    1.617037   10.000000    ( 0.0000,  0.0000,  0.0000)
   3 Li     1.617037    4.851111   10.000000    ( 0.0000,  0.0000,  0.0000)
   4 Li     4.851111    4.851111   10.000000    ( 0.0000,  0.0000,  0.0000)
   5 Li     8.085185    4.851111   10.000000    ( 0.0000,  0.0000,  0.0000)
   6 Li     1.617037    8.085185   10.000000    ( 0.0000,  0.0000,  0.0000)
   7 Li     4.851111    8.085185   10.000000    ( 0.0000,  0.0000,  0.0000)
   8 Li     8.085185    8.085185   10.000000    ( 0.0000,  0.0000,  0.0000)
   9 Li     0.000000    0.000000   11.617037    ( 0.0000,  0.0000,  0.0000)
  10 Li     3.234074    0.000000   11.617037    ( 0.0000,  0.0000,  0.0000)
  11 Li     6.468148    0.000000   11.617037    ( 0.0000,  0.0000,  0.0000)
  12 Li     0.000000    3.234074   11.617037    ( 0.0000,  0.0000,  0.0000)
  13 Li     3.234074    3.234074   11.617037    ( 0.0000,  0.0000,  0.0000)
  14 Li     6.468148    3.234074   11.617037    ( 0.0000,  0.0000,  0.0000)
  15 Li     0.000000    6.468148   11.617037    ( 0.0000,  0.0000,  0.0000)
  16 Li     3.234074    6.468148   11.617037    ( 0.0000,  0.0000,  0.0000)
  17 Li     6.468148    6.468148   11.617037    ( 0.0000,  0.0000,  0.0000)
  18 Li     1.617901    1.617004   13.468110    ( 0.0000,  0.0000,  0.0000)
  19 Li     4.850748    1.617046   13.470792    ( 0.0000,  0.0000,  0.0000)
  20 Li     8.085042    1.617030   13.466882    ( 0.0000,  0.0000,  0.0000)
  21 Li     1.616558    4.850398   13.471067    ( 0.0000,  0.0000,  0.0000)
  22 Li     4.851495    4.851079   13.470643    ( 0.0000,  0.0000,  0.0000)
  23 Li     8.085311    4.850877   13.470340    ( 0.0000,  0.0000,  0.0000)
  24 Li     1.616635    8.085932   13.471101    ( 0.0000,  0.0000,  0.0000)
  25 Li     4.851393    8.085228   13.470413    ( 0.0000,  0.0000,  0.0000)
  26 Li     8.085354    8.085448   13.470658    ( 0.0000,  0.0000,  0.0000)
  27 Li    -0.001803    0.000837   15.447659    ( 0.0000,  0.0000,  0.0000)
  28 Li     3.235869   -0.001254   15.443177    ( 0.0000,  0.0000,  0.0000)
  29 Li     6.468832    0.000141   15.447841    ( 0.0000,  0.0000,  0.0000)
  30 Li    -0.001288    3.233160   15.448264    ( 0.0000,  0.0000,  0.0000)
  31 Li     3.235872    3.235098   15.443435    ( 0.0000,  0.0000,  0.0000)
  32 Li     6.468320    3.233910   15.447529    ( 0.0000,  0.0000,  0.0000)
  33 Li     0.000007    6.468463   15.445736    ( 0.0000,  0.0000,  0.0000)
  34 Li     3.233464    6.468178   15.445882    ( 0.0000,  0.0000,  0.0000)
  35 Li     6.468744    6.468292   15.445780    ( 0.0000,  0.0000,  0.0000)
  36 O      0.072531    1.613615   18.572841    ( 0.0000,  0.0000,  0.0000)
  37 C      1.479320    1.599623   18.483135    ( 0.0000,  0.0000,  0.0000)
  38 H      1.834497    0.851913   17.769924    ( 0.0000,  0.0000,  0.0000)
  39 H      1.850118    1.421712   19.472556    ( 0.0000,  0.0000,  0.0000)
  40 H      1.754265    2.588982   18.121114    ( 0.0000,  0.0000,  0.0000)
  41 H     -0.313092    0.747892   18.750294    ( 0.0000,  0.0000,  0.0000)
  42 N     -0.060365    1.635353   17.094949    ( 0.0000,  0.0000,  0.0000)
  43 N     -1.180396    1.611127   17.093235    ( 0.0000,  0.0000,  0.0000)

Unit cell:
           periodic     x           y           z      points  spacing
  1. axis:    yes    9.702222    0.000000    0.000000    60     0.1617
  2. axis:    yes    0.000000    9.702222    0.000000    60     0.1617
  3. axis:    no     0.000000    0.000000   26.601111   168     0.1583

  Lengths:   9.702222   9.702222  26.601111
  Angles:   90.000000  90.000000  90.000000

Effective grid spacing dv^(1/3) = 0.1606

     iter     time        total  log10-change:
                         energy  eigst   dens
iter:   1 11:55:21  -277.510437  -0.47
iter:   2 11:55:29  -277.477588  -0.79  -1.66
iter:   3 11:55:36  -277.466527  -1.20  -1.79
iter:   4 11:55:43  -277.458418c -1.26  -2.10
Writing to output.gpw (mode='')

iter:   5 11:55:50  -277.482618c -1.35  -2.22
iter:   6 11:55:57  -277.483471c -1.53  -1.95
iter:   7 11:56:04  -277.436677  -1.43  -1.89
iter:   8 11:56:11  -277.438342  -1.72  -2.40
iter:   9 11:56:18  -277.442367c -2.10  -2.37
Writing to output.gpw (mode='')

iter:  10 11:56:26  -277.436811c -2.08  -2.41
iter:  11 11:56:33  -277.437161c -2.61  -2.59
iter:  12 11:56:40  -277.436965c -2.66  -2.69
iter:  13 11:56:47  -277.437167c -2.97  -2.76
iter:  14 11:56:54  -277.437048c -3.10  -2.81
Writing to output.gpw (mode='')

iter:  15 11:57:01  -277.436986c -2.90  -2.99
iter:  16 11:57:08  -277.437066c -3.33  -3.06
iter:  17 11:57:15  -277.437165c -3.34  -3.19
iter:  18 11:57:22  -277.437241c -3.82  -3.19
iter:  19 11:57:29  -277.437238c -3.62  -3.23
Writing to output.gpw (mode='')

iter:  20 11:57:36  -277.437232c -4.15  -3.32
iter:  21 11:57:44  -277.437261c -3.83  -3.35
iter:  22 11:57:51  -277.437239c -4.07  -3.60
iter:  23 11:57:58  -277.437254c -4.40  -3.63
iter:  24 11:58:05  -277.437249c -4.31  -3.63
Writing to output.gpw (mode='')

iter:  25 11:58:12  -277.437252c -4.58  -3.73
iter:  26 11:58:19  -277.437253c -4.54  -3.90
iter:  27 11:58:26  -277.437261c -5.02  -3.90
iter:  28 11:58:33  -277.437275c -5.02  -4.01c
iter:  29 11:58:40  -277.437264c -4.82  -4.21c
Writing to output.gpw (mode='')

iter:  30 11:58:47  -277.437278c -5.13  -4.06c
iter:  31 11:58:54  -277.437277c -5.53  -4.49c
iter:  32 11:59:01  -277.437278c -5.62  -4.56c
iter:  33 11:59:08  -277.437279c -5.46  -4.56c
iter:  34 11:59:15  -277.437282c -5.66  -4.60c
Writing to output.gpw (mode='')

iter:  35 11:59:22  -277.437282c -5.69  -4.72c
iter:  36 11:59:35  -277.437283c -5.78  -4.75c
iter:  37 11:59:43  -277.437282c -5.73  -4.84c
iter:  38 11:59:50  -277.437283c -6.00  -4.95c
iter:  39 11:59:57  -277.437284c -6.10  -4.99c
Writing to output.gpw (mode='')

iter:  40 12:00:04  -277.437285c -6.21  -5.20c
iter:  41 12:00:11  -277.437284c -6.09  -5.27c
iter:  42 12:00:18  -277.437285c -6.06  -5.34c
iter:  43 12:00:25  -277.437286c -6.02  -5.32c
iter:  44 12:00:32  -277.437286c -6.31  -5.35c
Writing to output.gpw (mode='')

iter:  45 12:00:39  -277.437285c -6.25  -5.28c
iter:  46 12:00:46  -277.437286c -6.51  -5.29c
iter:  47 12:00:54  -277.437285c -6.64  -5.35c
iter:  48 12:01:01  -277.437285c -6.35  -5.26c
iter:  49 12:01:08  -277.437285c -6.66  -5.18c
Writing to output.gpw (mode='')

iter:  50 12:01:15  -277.437286c -6.58  -5.15c
iter:  51 12:01:22  -277.437286c -6.92  -5.15c
iter:  52 12:01:29  -277.437287c -6.68  -5.20c
iter:  53 12:01:36  -277.437288c -7.04  -5.17c
iter:  54 12:01:43  -277.437287c -7.15  -5.27c
Writing to output.gpw (mode='')

iter:  55 12:01:50  -277.437287c -7.14  -5.21c
iter:  56 12:01:57  -277.437288c -7.39  -5.18c
iter:  57 12:02:04  -277.437288c -7.21  -5.25c
iter:  58 12:02:11  -277.437287c -7.40c -5.25c

Converged after 58 iterations.

Dipole moment: (-7.039931, -4.983223, 0.381697) |e|*Ang

Energy contributions relative to reference atoms: (reference = -13382.245603)

Kinetic:       +160.964689
Potential:     -144.080434
External:        +0.000000
XC:            -294.920806
Entropy (-ST):   -0.155348
Local:           +0.676938
--------------------------
Free energy:   -277.514961
Extrapolated:  -277.437287

Dipole-layer corrected work functions: 3.375454, 2.641702 eV

Showing only first 2 kpts
 Kpt  Band  Eigenvalues  Occupancy
  0    28     -3.25875    1.98666
  0    29     -3.12373    1.81825
  0    30     -2.87944    0.14050
  0    31     -2.79358    0.02678

  1    28     -3.06876    1.53836
  1    29     -3.03665    1.27353
  1    30     -2.96608    0.59885
  1    31     -2.89015    0.17121


Fermi level: -3.00858

Gap: 0.028 eV
Transition (v -> c):
  (s=0, k=2, n=29, [0.12, 0.12, 0.00]) -> (s=0, k=7, n=30, [0.38, 0.38, 0.00])
Writing to output.gpw (mode='')


Forces in eV/Ang:
  0 Li    0.02852    0.00043   -0.27775
  1 Li   -0.01451    0.00249   -0.27384
  2 Li   -0.01332   -0.00126   -0.27933
  3 Li   -0.00384    0.01222   -0.27726
  4 Li   -0.00391   -0.00888   -0.27303
  5 Li    0.00681    0.02355   -0.27242
  6 Li   -0.00714   -0.01393   -0.27523
  7 Li   -0.00238    0.00520   -0.27262
  8 Li    0.00849   -0.02205   -0.27122
  9 Li   -0.00291    0.00550    0.31592
 10 Li    0.00922    0.00190    0.24690
 11 Li   -0.00671    0.00567    0.29220
 12 Li   -0.00236   -0.00869    0.31968
 13 Li    0.01074   -0.00103    0.24232
 14 Li   -0.00858   -0.00825    0.28803
 15 Li   -0.00789    0.00211    0.23690
 16 Li   -0.00449    0.00172    0.27087
 17 Li    0.01417    0.00149    0.25545
 18 Li    0.03945   -0.00198   -0.07381
 19 Li   -0.01361    0.00024    0.05525
 20 Li   -0.01035    0.00066   -0.14948
 21 Li   -0.02318   -0.03458    0.06595
 22 Li    0.01732    0.00036    0.04347
 23 Li    0.00675   -0.01569    0.03582
 24 Li   -0.01965    0.03720    0.06800
 25 Li    0.01274    0.00061    0.03287
 26 Li    0.00846    0.01585    0.05048
 27 Li   -0.06080   -0.01468    0.00720
 28 Li    0.08535   -0.05866   -0.12988
 29 Li    0.00641   -0.01073    0.06494
 30 Li   -0.03403    0.01117    0.03806
 31 Li    0.08537    0.04794   -0.11816
 32 Li   -0.01792    0.01056    0.04919
 33 Li   -0.00165    0.01650   -0.00640
 34 Li   -0.02996    0.00109   -0.00222
 35 Li    0.03161    0.00771   -0.00611
 36 O     4.14567    0.35448    8.56035
 37 C     2.81657   -0.09732    1.97614
 38 H    -0.00287   -0.02407    0.23666
 39 H     0.66684   -0.02951    0.47435
 40 H     0.13223   -0.05551    0.14124
 41 H    -0.08735   -0.74723    0.72540
 42 N     0.83948    0.83358   -6.33275
 43 N    -8.53278   -0.18341   -5.83786

System changes: positions 

Initializing position-dependent things.

Density initialized from wave functions
       .-----------------------.  
      /|                       |  
     / |                       |  
    /  |                       |  
   /   |                       |  
  /    |                       |  
 *     |                       |  
 |     |                       |  
 |     |                       |  
 |     |                       |  
 |     |                       |  
 |     |                       |  
 |     |                       |  
 |     |                       |  
 |    H|       Li      Li      |  
 |O   CH                 H     |  
 |    H|     Li      Li      Li|  
 |     |  Li      Li   N  Ni   |  
 |     |   Li      Li      Li  |  
 |     |Li      Li      Li     |  
 |     |                 Li    |  
 |   LLi     LLi     LLi       |  
 |     |  Li      Li      Li   |  
 | Li  |   Li      Li          |  
 |     |Li      Li      Li     |  
 Li    | Li      Li            |  
 |    Li      Li      Li       |  
 |     |                       |  
 |     |                       |  
 |     |                       |  
 |     |                       |  
 |     |                       |  
 |     |                       |  
 |     .-----------------------.  
 |    /                       /   
 |   /                       /    
 |  /                       /     
 | /                       /      
 |/                       /       
 *-----------------------*        

Positions:
   0 Li     1.617037    1.617037   10.000000    ( 0.0000,  0.0000,  0.0000)
   1 Li     4.851111    1.617037   10.000000    ( 0.0000,  0.0000,  0.0000)
   2 Li     8.085185    1.617037   10.000000    ( 0.0000,  0.0000,  0.0000)
   3 Li     1.617037    4.851111   10.000000    ( 0.0000,  0.0000,  0.0000)
   4 Li     4.851111    4.851111   10.000000    ( 0.0000,  0.0000,  0.0000)
   5 Li     8.085185    4.851111   10.000000    ( 0.0000,  0.0000,  0.0000)
   6 Li     1.617037    8.085185   10.000000    ( 0.0000,  0.0000,  0.0000)
   7 Li     4.851111    8.085185   10.000000    ( 0.0000,  0.0000,  0.0000)
   8 Li     8.085185    8.085185   10.000000    ( 0.0000,  0.0000,  0.0000)
   9 Li     0.000000    0.000000   11.617037    ( 0.0000,  0.0000,  0.0000)
  10 Li     3.234074    0.000000   11.617037    ( 0.0000,  0.0000,  0.0000)
  11 Li     6.468148    0.000000   11.617037    ( 0.0000,  0.0000,  0.0000)
  12 Li     0.000000    3.234074   11.617037    ( 0.0000,  0.0000,  0.0000)
  13 Li     3.234074    3.234074   11.617037    ( 0.0000,  0.0000,  0.0000)
  14 Li     6.468148    3.234074   11.617037    ( 0.0000,  0.0000,  0.0000)
  15 Li     0.000000    6.468148   11.617037    ( 0.0000,  0.0000,  0.0000)
  16 Li     3.234074    6.468148   11.617037    ( 0.0000,  0.0000,  0.0000)
  17 Li     6.468148    6.468148   11.617037    ( 0.0000,  0.0000,  0.0000)
  18 Li     1.618210    1.616993   13.467461    ( 0.0000,  0.0000,  0.0000)
  19 Li     4.850684    1.617042   13.471314    ( 0.0000,  0.0000,  0.0000)
  20 Li     8.084927    1.617043   13.465348    ( 0.0000,  0.0000,  0.0000)
  21 Li     1.616369    4.850102   13.471608    ( 0.0000,  0.0000,  0.0000)
  22 Li     4.851617    4.851108   13.470979    ( 0.0000,  0.0000,  0.0000)
  23 Li     8.085375    4.850696   13.470693    ( 0.0000,  0.0000,  0.0000)
  24 Li     1.616454    8.086249   13.471680    ( 0.0000,  0.0000,  0.0000)
  25 Li     4.851506    8.085213   13.470691    ( 0.0000,  0.0000,  0.0000)
  26 Li     8.085427    8.085616   13.471132    ( 0.0000,  0.0000,  0.0000)
  27 Li    -0.001995    0.000317   15.447385    ( 0.0000,  0.0000,  0.0000)
  28 Li     3.236582   -0.001751   15.442131    ( 0.0000,  0.0000,  0.0000)
  29 Li     6.468515   -0.000159   15.448129    ( 0.0000,  0.0000,  0.0000)
  30 Li    -0.001273    3.233632   15.448409    ( 0.0000,  0.0000,  0.0000)
  31 Li     3.236590    3.235510   15.442466    ( 0.0000,  0.0000,  0.0000)
  32 Li     6.467804    3.234240   15.447733    ( 0.0000,  0.0000,  0.0000)
  33 Li    -0.000015    6.468597   15.445653    ( 0.0000,  0.0000,  0.0000)
  34 Li     3.233207    6.468188   15.445871    ( 0.0000,  0.0000,  0.0000)
  35 Li     6.469025    6.468365   15.445723    ( 0.0000,  0.0000,  0.0000)
  36 O      0.080036    1.613763   18.606134    ( 0.0000,  0.0000,  0.0000)
  37 C      1.483420    1.597649   18.489827    ( 0.0000,  0.0000,  0.0000)
  38 H      1.835199    0.851291   17.771623    ( 0.0000,  0.0000,  0.0000)
  39 H      1.860251    1.420936   19.479142    ( 0.0000,  0.0000,  0.0000)
  40 H      1.756135    2.588755   18.122846    ( 0.0000,  0.0000,  0.0000)
  41 H     -0.308844    0.747389   18.753977    ( 0.0000,  0.0000,  0.0000)
  42 N     -0.078186    1.642098   17.059779    ( 0.0000,  0.0000,  0.0000)
  43 N     -1.191126    1.609188   17.075082    ( 0.0000,  0.0000,  0.0000)

Unit cell:
           periodic     x           y           z      points  spacing
  1. axis:    yes    9.702222    0.000000    0.000000    60     0.1617
  2. axis:    yes    0.000000    9.702222    0.000000    60     0.1617
  3. axis:    no     0.000000    0.000000   26.601111   168     0.1583

  Lengths:   9.702222   9.702222  26.601111
  Angles:   90.000000  90.000000  90.000000

Effective grid spacing dv^(1/3) = 0.1606

     iter     time        total  log10-change:
                         energy  eigst   dens
iter:   1 12:02:20  -278.235522  -0.54
iter:   2 12:02:27  -278.208393  -0.88  -1.71
iter:   3 12:02:34  -278.198627  -1.29  -1.84
iter:   4 12:02:41  -278.187667c -1.36  -2.15
Writing to output.gpw (mode='')

iter:   5 12:02:48  -278.210078c -1.45  -2.27
iter:   6 12:02:55  -278.205535c -1.72  -2.01
iter:   7 12:03:03  -278.168630  -1.53  -1.98
iter:   8 12:03:10  -278.170215  -2.04  -2.43
iter:   9 12:03:17  -278.169643c -2.10  -2.46
Writing to output.gpw (mode='')

iter:  10 12:03:24  -278.168819c -2.19  -2.56
iter:  11 12:03:31  -278.169038c -2.78  -2.70
iter:  12 12:03:38  -278.169461c -2.49  -2.69
iter:  13 12:03:45  -278.169206c -2.94  -2.66
iter:  14 12:03:53  -278.169017c -3.23  -2.70
Writing to output.gpw (mode='')

iter:  15 12:04:00  -278.168824c -3.22  -2.78
iter:  16 12:04:07  -278.169100c -3.46  -2.88
iter:  17 12:04:14  -278.169090c -3.05  -3.03
iter:  18 12:04:21  -278.169036c -3.68  -3.22
iter:  19 12:04:33  -278.168967c -3.86  -3.37
Writing to output.gpw (mode='')

iter:  20 12:04:41  -278.169033c -3.93  -3.45
iter:  21 12:04:48  -278.169027c -4.26  -3.62
iter:  22 12:04:56  -278.169025c -4.20  -3.62
iter:  23 12:05:03  -278.169034c -4.41  -3.70
iter:  24 12:05:10  -278.169050c -4.47  -3.86
Writing to output.gpw (mode='')

iter:  25 12:05:17  -278.169050c -4.58  -3.95
iter:  26 12:05:24  -278.169067c -4.73  -4.02c
iter:  27 12:05:31  -278.169067c -4.85  -4.11c
iter:  28 12:05:38  -278.169069c -4.91  -4.14c
iter:  29 12:05:45  -278.169077c -5.21  -4.19c
Writing to output.gpw (mode='')

iter:  30 12:05:52  -278.169074c -5.23  -4.46c
iter:  31 12:06:00  -278.169075c -5.19  -4.53c
iter:  32 12:06:07  -278.169074c -5.14  -4.56c
iter:  33 12:06:14  -278.169078c -5.39  -4.63c
iter:  34 12:06:21  -278.169081c -5.56  -4.66c
Writing to output.gpw (mode='')

iter:  35 12:06:28  -278.169082c -5.57  -4.73c
iter:  36 12:06:35  -278.169081c -5.70  -4.87c
iter:  37 12:06:42  -278.169083c -5.87  -4.90c
iter:  38 12:06:49  -278.169082c -5.72  -5.06c
iter:  39 12:06:56  -278.169083c -6.08  -5.18c
Writing to output.gpw (mode='')

iter:  40 12:07:04  -278.169083c -5.81  -5.18c
iter:  41 12:07:11  -278.169083c -6.06  -5.03c
iter:  42 12:07:18  -278.169083c -5.97  -5.04c
iter:  43 12:07:25  -278.169083c -6.24  -5.04c
iter:  44 12:07:32  -278.169083c -6.20  -4.99c
Writing to output.gpw (mode='')

iter:  45 12:07:39  -278.169084c -6.35  -5.00c
iter:  46 12:07:46  -278.169085c -6.38  -5.09c
iter:  47 12:07:54  -278.169086c -6.41  -5.17c
iter:  48 12:08:01  -278.169086c -6.77  -5.30c
iter:  49 12:08:08  -278.169087c -6.70  -5.29c
Writing to output.gpw (mode='')

iter:  50 12:08:15  -278.169087c -6.72  -5.35c
iter:  51 12:08:22  -278.169087c -6.78  -5.51c
iter:  52 12:08:29  -278.169087c -6.90  -5.55c
iter:  53 12:08:36  -278.169088c -6.95  -5.62c
iter:  54 12:08:43  -278.169088c -7.05  -5.73c
Writing to output.gpw (mode='')

iter:  55 12:08:50  -278.169087c -7.00  -5.87c
iter:  56 12:08:57  -278.169087c -7.18  -5.92c
iter:  57 12:09:07  -278.169088c -7.17  -5.97c
iter:  58 12:09:14  -278.169088c -7.26  -6.13c
iter:  59 12:09:22  -278.169088c -7.26  -6.17c
Writing to output.gpw (mode='')

iter:  60 12:09:33  -278.169088c -7.43c -6.23c

Converged after 60 iterations.

Dipole moment: (-5.409234, -4.910786, 0.356409) |e|*Ang

Energy contributions relative to reference atoms: (reference = -13382.245603)

Kinetic:       +159.371510
Potential:     -143.458403
External:        +0.000000
XC:            -294.682331
Entropy (-ST):   -0.155108
Local:           +0.677691
--------------------------
Free energy:   -278.246642
Extrapolated:  -278.169088

Dipole-layer corrected work functions: 3.377094, 2.691953 eV

Showing only first 2 kpts
 Kpt  Band  Eigenvalues  Occupancy
  0    28     -3.28544    1.98686
  0    29     -3.15078    1.82188
  0    30     -2.90490    0.13926
  0    31     -2.81728    0.02562

  1    28     -3.09177    1.51716
  1    29     -3.06200    1.26802
  1    30     -2.98985    0.58080
  1    31     -2.92220    0.19131


Fermi level: -3.03452

Gap: 0.031 eV
Transition (v -> c):
  (s=0, k=2, n=29, [0.12, 0.12, 0.00]) -> (s=0, k=7, n=30, [0.38, 0.38, 0.00])

Forces in eV/Ang:
  0 Li    0.02834    0.00013   -0.27770
  1 Li   -0.01457    0.00227   -0.27251
  2 Li   -0.01367   -0.00115   -0.27948
  3 Li   -0.00414    0.01231   -0.27690
  4 Li   -0.00329   -0.00861   -0.27315
  5 Li    0.00706    0.02417   -0.27240
  6 Li   -0.00732   -0.01393   -0.27506
  7 Li   -0.00183    0.00528   -0.27267
  8 Li    0.00876   -0.02262   -0.27136
  9 Li   -0.00284    0.00547    0.31627
 10 Li    0.01070    0.00166    0.24683
 11 Li   -0.00732    0.00503    0.28998
 12 Li   -0.00163   -0.00830    0.31977
 13 Li    0.01225   -0.00139    0.24320
 14 Li   -0.00990   -0.00706    0.28553
 15 Li   -0.00771    0.00191    0.23597
 16 Li   -0.00548    0.00224    0.27096
 17 Li    0.01420    0.00067    0.25488
 18 Li    0.03789   -0.00214   -0.07286
 19 Li   -0.01008   -0.00002    0.05749
 20 Li   -0.01316    0.00122   -0.15894
 21 Li   -0.02281   -0.03402    0.06494
 22 Li    0.01549    0.00202    0.04174
 23 Li    0.00729   -0.01835    0.03914
 24 Li   -0.02018    0.03710    0.06798
 25 Li    0.01214   -0.00071    0.03265
 26 Li    0.00856    0.01759    0.05322
 27 Li   -0.04123   -0.05018   -0.02987
 28 Li    0.08189   -0.05730   -0.12385
 29 Li   -0.01417   -0.02231    0.04648
 30 Li   -0.01424    0.04853    0.00428
 31 Li    0.08245    0.04713   -0.11304
 32 Li   -0.03821    0.02397    0.03242
 33 Li   -0.00224    0.01625   -0.00796
 34 Li   -0.02929    0.00101   -0.00266
 35 Li    0.03196    0.00815   -0.00629
 36 O     3.42489    0.41847    7.83868
 37 C     2.32630   -0.09024    1.79597
 38 H    -0.02201   -0.02464    0.24166
 39 H     0.75828   -0.03008    0.37205
 40 H     0.10947   -0.11037    0.17296
 41 H     0.04458   -0.70811    0.64128
 42 N     1.02567    0.73729   -5.91156
 43 N    -7.76132   -0.20710   -5.03690

System changes: positions 

Initializing position-dependent things.

Density initialized from wave functions
       .-----------------------.  
      /|                       |  
     / |                       |  
    /  |                       |  
   /   |                       |  
  /    |                       |  
 *     |                       |  
 |     |                       |  
 |     |                       |  
 |     |                       |  
 |     |                       |  
 |     |                       |  
 |     |                       |  
 |     |                       |  
 |     H       Li      Li      Li 
 |O   CH                 H     |  
 |    H|     Li      Li      Li|  
 |     |  Li      Li   N  Ni   |  
 |     |   Li      Li      Li  |  
 |     |Li      Li      Li     |  
 |     |                       |  
 |   LLi     LLi     LLi       |  
 |     |  Li      Li      Li   |  
 | Li  |   Li      Li          |  
 |     |Li      Li      Li     |  
 Li    | Li      Li            |  
 |    Li      Li      Li       |  
 |     |                       |  
 |     |                       |  
 |     |                       |  
 |     |                       |  
 |     |                       |  
 |     |                       |  
 |     .-----------------------.  
 |    /                       /   
 |   /                       /    
 |  /                       /     
 | /                       /      
 |/                       /       
 *-----------------------*        

Positions:
   0 Li     1.617037    1.617037   10.000000    ( 0.0000,  0.0000,  0.0000)
   1 Li     4.851111    1.617037   10.000000    ( 0.0000,  0.0000,  0.0000)
   2 Li     8.085185    1.617037   10.000000    ( 0.0000,  0.0000,  0.0000)
   3 Li     1.617037    4.851111   10.000000    ( 0.0000,  0.0000,  0.0000)
   4 Li     4.851111    4.851111   10.000000    ( 0.0000,  0.0000,  0.0000)
   5 Li     8.085185    4.851111   10.000000    ( 0.0000,  0.0000,  0.0000)
   6 Li     1.617037    8.085185   10.000000    ( 0.0000,  0.0000,  0.0000)
   7 Li     4.851111    8.085185   10.000000    ( 0.0000,  0.0000,  0.0000)
   8 Li     8.085185    8.085185   10.000000    ( 0.0000,  0.0000,  0.0000)
   9 Li     0.000000    0.000000   11.617037    ( 0.0000,  0.0000,  0.0000)
[...]
iter:  16 18:51:14  -284.334656c -5.65  -4.09c
iter:  17 18:51:21  -284.334654c -6.11  -4.11c
iter:  18 18:51:29  -284.334654c -6.12  -4.30c
iter:  19 18:51:36  -284.334654c -6.20  -4.55c
Writing to output.gpw (mode='')

iter:  20 18:51:43  -284.334654c -6.61  -4.67c
iter:  21 18:51:50  -284.334654c -6.78  -4.74c
iter:  22 18:52:00  -284.334653c -6.83  -4.85c
iter:  23 18:52:07  -284.334654c -7.12  -4.97c
iter:  24 18:52:14  -284.334654c -7.25  -5.01c
Writing to output.gpw (mode='')

iter:  25 18:52:21  -284.334654c -7.23  -5.11c
iter:  26 18:52:29  -284.334654c -7.39  -5.19c
iter:  27 18:52:36  -284.334654c -7.56c -5.22c

Converged after 27 iterations.

Dipole moment: (-10.226266, -2.912454, -0.216503) |e|*Ang

Energy contributions relative to reference atoms: (reference = -13382.245603)

Kinetic:       +129.678857
Potential:     -120.914796
External:        +0.000000
XC:            -293.749888
Entropy (-ST):   -0.160335
Local:           +0.731341
--------------------------
Free energy:   -284.414821
Extrapolated:  -284.334654

Dipole-layer corrected work functions: 3.405335, 3.821527 eV

Showing only first 2 kpts
 Kpt  Band  Eigenvalues  Occupancy
  0    28     -3.84803    1.98183
  0    29     -3.65285    1.37500
  0    30     -3.58263    0.70137
  0    31     -3.39862    0.02688

  1    28     -3.85937    1.98549
  1    29     -3.76040    1.89953
  1    30     -3.55350    0.46344
  1    31     -3.36710    0.01440


Fermi level: -3.61343

No gap
Writing to output.gpw (mode='')


Forces in eV/Ang:
  0 Li   -0.00930    0.01006   -0.29804
  1 Li    0.00166   -0.01018   -0.29341
  2 Li   -0.00281    0.00102   -0.25613
  3 Li    0.00408    0.00892   -0.29300
  4 Li   -0.01781    0.01506   -0.28487
  5 Li    0.00876   -0.00453   -0.29505
  6 Li    0.01085   -0.01613   -0.28675
  7 Li   -0.01132   -0.00573   -0.28935
  8 Li   -0.01296    0.00501   -0.29634
  9 Li   -0.03004    0.04056    0.28632
 10 Li    0.02014    0.01680    0.29685
 11 Li    0.05447    0.03702    0.32448
 12 Li   -0.02850   -0.03173    0.33474
 13 Li    0.03890   -0.01862    0.28677
 14 Li    0.05907   -0.04933    0.27599
 15 Li   -0.01601    0.00958    0.29285
 16 Li    0.02923    0.00420    0.28203
 17 Li    0.02664   -0.01983    0.26919
 18 Li    0.00127   -0.00733   -0.00210
 19 Li   -0.00154    0.00395    0.00490
 20 Li   -0.00865   -0.01365    0.01974
 21 Li   -0.00037   -0.00716    0.00223
 22 Li   -0.00046   -0.00243    0.00087
 23 Li    0.00081    0.00960   -0.01039
 24 Li   -0.00781   -0.00382    0.00586
 25 Li   -0.00043    0.00891   -0.00142
 26 Li    0.00331   -0.00279    0.00820
 27 Li   -0.03108    0.00094    0.00377
 28 Li   -0.01076   -0.00490   -0.01166
 29 Li   -0.00315    0.01823   -0.00742
 30 Li   -0.00399   -0.01806    0.00686
 31 Li   -0.00259    0.00475   -0.00269
 32 Li   -0.01983    0.00390   -0.00216
 33 Li   -0.00208   -0.00167   -0.00215
 34 Li   -0.00154    0.00004    0.00825
 35 Li    0.00398    0.00882   -0.00515
 36 O    -0.03166    0.00228   -0.03258
 37 C     0.02251    0.00916    0.01577
 38 H    -0.04469   -0.01993    0.02082
 39 H     0.04824   -0.00142    0.02237
 40 H    -0.02986    0.01563    0.01060
 41 H     0.00984    0.01248   -0.01588
 42 N    -0.01045    0.04589   -0.00015
 43 N    -0.02976    0.00568   -0.03094

System changes: positions 

Initializing position-dependent things.

Density initialized from wave functions
       .-----------------------.  
      /|                       |  
     / |                       |  
    /  |                       |  
   /   |                       |  
  /    |                       |  
 *     |                       |  
 |     |                       |  
 |     |                       |  
 |     |                       |  
 |     |                       |  
 |     |                       |  
 |     |                       |  
 |     |                       |  
 | O   |H      Li      Li      |  
 |    C|                 H     |  
 |   LH|     Li      Li        |  
 |     |  Li      Li      Li   |  
 |  Li |    Li      Li  N      |  
 |     |Li      Li   N  Li     |  
 |     |                 Li    |  
 |   LLi     LLi     LLi       |  
 |     |  Li      Li      Li   |  
 | Li  |   Li      Li          |  
 |     |Li      Li      Li     |  
 Li    | Li      Li            |  
 |    Li      Li      Li       |  
 |     |                       |  
 |     |                       |  
 |     |                       |  
 |     |                       |  
 |     |                       |  
 |     |                       |  
 |     .-----------------------.  
 |    /                       /   
 |   /                       /    
 |  /                       /     
 | /                       /      
 |/                       /       
 *-----------------------*        

Positions:
   0 Li     1.617037    1.617037   10.000000    ( 0.0000,  0.0000,  0.0000)
   1 Li     4.851111    1.617037   10.000000    ( 0.0000,  0.0000,  0.0000)
   2 Li     8.085185    1.617037   10.000000    ( 0.0000,  0.0000,  0.0000)
   3 Li     1.617037    4.851111   10.000000    ( 0.0000,  0.0000,  0.0000)
   4 Li     4.851111    4.851111   10.000000    ( 0.0000,  0.0000,  0.0000)
   5 Li     8.085185    4.851111   10.000000    ( 0.0000,  0.0000,  0.0000)
   6 Li     1.617037    8.085185   10.000000    ( 0.0000,  0.0000,  0.0000)
   7 Li     4.851111    8.085185   10.000000    ( 0.0000,  0.0000,  0.0000)
   8 Li     8.085185    8.085185   10.000000    ( 0.0000,  0.0000,  0.0000)
   9 Li     0.000000    0.000000   11.617037    ( 0.0000,  0.0000,  0.0000)
  10 Li     3.234074    0.000000   11.617037    ( 0.0000,  0.0000,  0.0000)
  11 Li     6.468148    0.000000   11.617037    ( 0.0000,  0.0000,  0.0000)
  12 Li     0.000000    3.234074   11.617037    ( 0.0000,  0.0000,  0.0000)
  13 Li     3.234074    3.234074   11.617037    ( 0.0000,  0.0000,  0.0000)
  14 Li     6.468148    3.234074   11.617037    ( 0.0000,  0.0000,  0.0000)
  15 Li     0.000000    6.468148   11.617037    ( 0.0000,  0.0000,  0.0000)
  16 Li     3.234074    6.468148   11.617037    ( 0.0000,  0.0000,  0.0000)
  17 Li     6.468148    6.468148   11.617037    ( 0.0000,  0.0000,  0.0000)
  18 Li     1.647813    1.676056   13.497417    ( 0.0000,  0.0000,  0.0000)
  19 Li     4.911796    1.564353   13.508281    ( 0.0000,  0.0000,  0.0000)
  20 Li     8.125748    1.621675   13.613438    ( 0.0000,  0.0000,  0.0000)
  21 Li     1.671048    4.898268   13.476849    ( 0.0000,  0.0000,  0.0000)
  22 Li     4.939847    4.781927   13.488462    ( 0.0000,  0.0000,  0.0000)
  23 Li     8.127508    4.833092   13.513477    ( 0.0000,  0.0000,  0.0000)
  24 Li     1.579107    8.156151   13.484817    ( 0.0000,  0.0000,  0.0000)
  25 Li     4.849412    8.030534   13.498985    ( 0.0000,  0.0000,  0.0000)
  26 Li     8.044959    8.084220   13.492597    ( 0.0000,  0.0000,  0.0000)
  27 Li    -0.144077    0.222816   15.523075    ( 0.0000,  0.0000,  0.0000)
  28 Li     3.187530   -0.056469   15.416078    ( 0.0000,  0.0000,  0.0000)
  29 Li     6.443512   -0.149749   15.538015    ( 0.0000,  0.0000,  0.0000)
  30 Li     0.176225    3.383820   15.469715    ( 0.0000,  0.0000,  0.0000)
  31 Li     3.460842    3.293757   15.424956    ( 0.0000,  0.0000,  0.0000)
  32 Li     6.809797    2.950451   15.639182    ( 0.0000,  0.0000,  0.0000)
  33 Li     0.047492    6.617310   15.430632    ( 0.0000,  0.0000,  0.0000)
  34 Li     3.220886    6.465835   15.429856    ( 0.0000,  0.0000,  0.0000)
  35 Li     6.408207    6.278842   15.466196    ( 0.0000,  0.0000,  0.0000)
  36 O      0.321465    1.159687   19.652172    ( 0.0000,  0.0000,  0.0000)
  37 C      1.478044    1.508132   18.889105    ( 0.0000,  0.0000,  0.0000)
  38 H      1.672546    0.796320   18.073252    ( 0.0000,  0.0000,  0.0000)
  39 H      2.322267    1.481987   19.577438    ( 0.0000,  0.0000,  0.0000)
  40 H      1.405293    2.514795   18.457878    ( 0.0000,  0.0000,  0.0000)
  41 H     -0.454748    1.232015   19.083219    ( 0.0000,  0.0000,  0.0000)
  42 N     -1.067006    2.039499   15.648780    ( 0.0000,  0.0000,  0.0000)
  43 N     -1.953817    1.145087   15.669982    ( 0.0000,  0.0000,  0.0000)

Unit cell:
           periodic     x           y           z      points  spacing
  1. axis:    yes    9.702222    0.000000    0.000000    60     0.1617
  2. axis:    yes    0.000000    9.702222    0.000000    60     0.1617
  3. axis:    no     0.000000    0.000000   26.601111   168     0.1583

  Lengths:   9.702222   9.702222  26.601111
  Angles:   90.000000  90.000000  90.000000

Effective grid spacing dv^(1/3) = 0.1606

     iter     time        total  log10-change:
                         energy  eigst   dens
iter:   1 18:52:44  -284.337164  -1.98
iter:   2 18:52:51  -284.335880  -2.63  -2.44
iter:   3 18:52:59  -284.335743c -3.20  -2.63
iter:   4 18:53:06  -284.335575c -3.54  -2.84
Writing to output.gpw (mode='')

iter:   5 18:53:13  -284.335489c -3.32  -2.96
iter:   6 18:53:20  -284.335592c -3.10  -3.21
iter:   7 18:53:27  -284.335414c -4.12  -3.11
iter:   8 18:53:34  -284.335420c -4.03  -3.40
iter:   9 18:53:41  -284.335385c -4.60  -3.41
Writing to output.gpw (mode='')

iter:  10 18:53:50  -284.335391c -4.65  -3.59
iter:  11 18:53:57  -284.335400c -5.15  -3.75
iter:  12 18:54:04  -284.335399c -5.04  -3.85
iter:  13 18:54:11  -284.335409c -5.48  -3.89
iter:  14 18:54:18  -284.335411c -5.54  -4.08c
Writing to output.gpw (mode='')

iter:  15 18:54:25  -284.335404c -6.13  -4.09c
iter:  16 18:54:38  -284.335404c -6.22  -4.21c
iter:  17 18:54:45  -284.335404c -5.99  -4.31c
iter:  18 18:54:53  -284.335402c -6.46  -4.41c
iter:  19 18:55:00  -284.335400c -6.40  -4.47c
Writing to output.gpw (mode='')

iter:  20 18:55:07  -284.335400c -6.75  -4.57c
iter:  21 18:55:14  -284.335402c -6.92  -4.62c
iter:  22 18:55:21  -284.335402c -6.88  -4.82c
iter:  23 18:55:28  -284.335403c -7.15  -4.97c
iter:  24 18:55:35  -284.335403c -7.54c -5.02c

Converged after 24 iterations.

Dipole moment: (-10.238456, -2.902789, -0.215967) |e|*Ang

Energy contributions relative to reference atoms: (reference = -13382.245603)

Kinetic:       +129.552182
Potential:     -120.814846
External:        +0.000000
XC:            -293.723662
Entropy (-ST):   -0.160382
Local:           +0.731115
--------------------------
Free energy:   -284.415594
Extrapolated:  -284.335403

Dipole-layer corrected work functions: 3.405153, 3.820316 eV

Showing only first 2 kpts
 Kpt  Band  Eigenvalues  Occupancy
  0    28     -3.84757    1.98192
  0    29     -3.65214    1.37483
  0    30     -3.58155    0.69785
  0    31     -3.39803    0.02693

  1    28     -3.85853    1.98545
  1    29     -3.76037    1.90079
  1    30     -3.55287    0.46393
  1    31     -3.36616    0.01433


Fermi level: -3.61273

No gap
Writing to output.gpw (mode='')


Forces in eV/Ang:
  0 Li   -0.00925    0.01023   -0.29768
  1 Li    0.00174   -0.01012   -0.29329
  2 Li   -0.00272    0.00101   -0.25624
  3 Li    0.00411    0.00888   -0.29288
  4 Li   -0.01772    0.01517   -0.28495
  5 Li    0.00879   -0.00453   -0.29474
  6 Li    0.01114   -0.01613   -0.28677
  7 Li   -0.01133   -0.00580   -0.28908
  8 Li   -0.01276    0.00495   -0.29610
  9 Li   -0.02964    0.04081    0.28710
 10 Li    0.01812    0.01627    0.29595
 11 Li    0.05402    0.03668    0.32640
 12 Li   -0.02852   -0.03078    0.33424
 13 Li    0.03814   -0.01658    0.28529
 14 Li    0.05935   -0.04846    0.27710
 15 Li   -0.01410    0.00836    0.29074
 16 Li    0.02723    0.00192    0.28110
 17 Li    0.02521   -0.02037    0.26842
 18 Li    0.00010   -0.00957   -0.00110
 19 Li    0.00108    0.00399    0.00713
 20 Li   -0.01070   -0.01439    0.01074
 21 Li    0.00065   -0.00610    0.00035
 22 Li   -0.00083   -0.00259    0.00013
 23 Li    0.00005    0.00785   -0.01058
 24 Li   -0.00879   -0.00279    0.00703
 25 Li    0.00116    0.00962   -0.00180
 26 Li    0.00319   -0.00025    0.01060
 27 Li   -0.02596   -0.00238    0.00663
 28 Li   -0.01039   -0.00495   -0.01287
 29 Li    0.00433    0.02632   -0.00573
 30 Li   -0.00505   -0.02048    0.00659
 31 Li   -0.00312    0.00482   -0.00388
 32 Li   -0.02877    0.00887    0.00240
 33 Li   -0.00287   -0.00009   -0.00328
 34 Li   -0.00150   -0.00002    0.00870
 35 Li    0.00485    0.00891   -0.00602
 36 O    -0.01027    0.01370   -0.03680
 37 C     0.00326    0.01283    0.01441
 38 H    -0.03543   -0.00128    0.03388
 39 H     0.00830    0.00052    0.00026
 40 H    -0.01408   -0.00930    0.02174
 41 H     0.01519    0.00564   -0.01643
 42 N    -0.01146    0.02614    0.00555
 43 N    -0.03078   -0.00277   -0.02362

Timing:                                      incl.     excl.
-------------------------------------------------------------------
Density initialized from wave functions:     6.507     6.506   0.0% |
 Symmetrize density:                         0.002     0.002   0.0% |
Forces:                                     33.390    33.390   0.1% |
Hamiltonian:                               532.313     0.011   0.0% |
 Atomic:                                     0.020     0.019   0.0% |
  XC Correction:                             0.000     0.000   0.0% |
 Calculate atomic Hamiltonians:              0.032     0.032   0.0% |
 Communicate:                                8.239     8.239   0.0% |
 Hartree integrate/restrict:                 1.973     1.973   0.0% |
 Initialize Hamiltonian:                     0.000     0.000   0.0% |
 Poisson:                                   24.447     8.885   0.0% |
  Communicate from 1D:                       2.471     2.471   0.0% |
  Communicate from 2D:                       2.396     2.396   0.0% |
  Communicate to 1D:                         1.353     1.353   0.0% |
  Communicate to 2D:                         2.911     2.911   0.0% |
  FFT 1D:                                    3.413     3.413   0.0% |
  FFT 2D:                                    3.017     3.017   0.0% |
 XC 3D grid:                               497.164    76.820   0.3% |
  VdW-DF integral:                         420.345     3.371   0.0% |
   Convolution:                             36.459    36.459   0.1% |
   FFT:                                     15.806    15.806   0.1% |
   gather:                                 144.866   144.866   0.5% |
   hmm1:                                    13.258    13.258   0.0% |
   hmm2:                                    17.478    17.478   0.1% |
   iFFT:                                    16.387    16.387   0.1% |
   potential:                              169.093     4.113   0.0% |
    collect:                                25.515    25.515   0.1% |
    p1:                                     71.863    71.863   0.3% |
    p2:                                     26.837    26.837   0.1% |
    sum:                                    40.765    40.765   0.1% |
   splines:                                  3.627     3.627   0.0% |
 vbar:                                       0.428     0.428   0.0% |
LCAO initialization:                         0.993     0.183   0.0% |
 LCAO eigensolver:                           0.188     0.000   0.0% |
  Calculate projections:                     0.000     0.000   0.0% |
  DenseAtomicCorrection:                     0.000     0.000   0.0% |
  Distribute overlap matrix:                 0.172     0.172   0.0% |
  Orbital Layouts:                           0.015     0.015   0.0% |
  Potential matrix:                          0.001     0.001   0.0% |
  Sum over cells:                            0.001     0.001   0.0% |
 LCAO to grid:                               0.516     0.516   0.0% |
 Set positions (LCAO WFS):                   0.105     0.066   0.0% |
  Basic WFS set positions:                   0.001     0.001   0.0% |
  Basis functions set positions:             0.000     0.000   0.0% |
  P tci:                                     0.000     0.000   0.0% |
  ST tci:                                    0.012     0.012   0.0% |
  mktci:                                     0.027     0.027   0.0% |
Redistribute:                                0.054     0.054   0.0% |
SCF-cycle:                               26766.913   418.752   1.5% ||
 Davidson:                                6226.792  1857.262   6.8% |--|
  Apply hamiltonian:                       396.117   396.117   1.4% ||
  Subspace diag:                          1181.367     0.426   0.0% |
   calc_h_matrix:                          567.692   165.667   0.6% |
    Apply hamiltonian:                     402.026   402.026   1.5% ||
   diagonalize:                             76.029    76.029   0.3% |
   rotate_psi:                             537.220   537.220   2.0% ||
  calc. matrices:                         1909.731   957.706   3.5% ||
   Apply hamiltonian:                      952.026   952.026   3.5% ||
  diagonalize:                              16.151    16.151   0.1% |
  rotate_psi:                              866.163   866.163   3.2% ||
 Density:                                  127.007     0.099   0.0% |
  Atomic density matrices:                  14.473    14.473   0.1% |
  Mix:                                      57.134    57.134   0.2% |
  Multipole moments:                         5.487     5.487   0.0% |
  Pseudo density:                           49.815    49.736   0.2% |
   Symmetrize density:                       0.079     0.079   0.0% |
 Hamiltonian:                            19978.492     0.438   0.0% |
  Atomic:                                    0.876     0.867   0.0% |
   XC Correction:                            0.009     0.009   0.0% |
  Calculate atomic Hamiltonians:             1.308     1.308   0.0% |
  Communicate:                             288.904   288.904   1.1% |
  Hartree integrate/restrict:               78.490    78.490   0.3% |
  Poisson:                                 953.607   351.121   1.3% ||
   Communicate from 1D:                     95.611    95.611   0.3% |
   Communicate from 2D:                     95.714    95.714   0.3% |
   Communicate to 1D:                       52.975    52.975   0.2% |
   Communicate to 2D:                      116.160   116.160   0.4% |
   FFT 1D:                                 122.922   122.922   0.4% |
   FFT 2D:                                 119.104   119.104   0.4% |
  XC 3D grid:                            18638.101  2938.763  10.7% |---|
   VdW-DF integral:                      15699.338   131.846   0.5% |
    Convolution:                          1425.449  1425.449   5.2% |-|
    FFT:                                   620.017   620.017   2.3% ||
    gather:                               5395.949  5395.949  19.7% |-------|
    hmm1:                                  522.028   522.028   1.9% ||
    hmm2:                                  685.211   685.211   2.5% ||
    iFFT:                                  640.094   640.094   2.3% ||
    potential:                            6278.710   164.642   0.6% |
     collect:                              980.506   980.506   3.6% ||
     p1:                                  2805.085  2805.085  10.2% |---|
     p2:                                  1054.001  1054.001   3.8% |-|
     sum:                                 1274.477  1274.477   4.6% |-|
    splines:                                 0.033     0.033   0.0% |
  vbar:                                     16.768    16.768   0.1% |
 Orthonormalize:                            15.870     0.013   0.0% |
  calc_s_matrix:                             2.027     2.027   0.0% |
  inverse-cholesky:                          5.626     5.626   0.0% |
  projections:                               0.002     0.002   0.0% |
  rotate_psi_s:                              8.202     8.202   0.0% |
Set symmetry:                                0.017     0.017   0.0% |
Other:                                      82.960    82.960   0.3% |
-------------------------------------------------------------------
Total:                                             27423.147 100.0%

Memory usage: 1.12 GiB
Date: Fri Mar 10 18:55:36 2023
