
  ___ ___ ___ _ _ _  
 |   |   |_  | | | | 
 | | | | | . | | | | 
 |__ |  _|___|_____|  22.8.0
 |___|_|             

User:   vazumah@f005
Date:   Tue Jan 17 01:05:39 2023
Arch:   x86_64
Pid:    48415
CWD:    /home/vazumah/Python_Projects/Li_NRR/Li_adsorb_studies/autocat/adsorbates/CH3CH2OH_x_3d/bridge/0.0_1.617
Python: 3.10.6
gpaw:   /home/vazumah/anaconda3/envs/NAME/lib/python3.10/site-packages/gpaw
_gpaw:  /home/vazumah/anaconda3/envs/NAME/lib/python3.10/site-packages/
        _gpaw.cpython-310-x86_64-linux-gnu.so
ase:    /home/vazumah/anaconda3/envs/NAME/lib/python3.10/site-packages/ase (version 3.22.1)
numpy:  /home/vazumah/anaconda3/envs/NAME/lib/python3.10/site-packages/numpy (version 1.23.3)
scipy:  /home/vazumah/anaconda3/envs/NAME/lib/python3.10/site-packages/scipy (version 1.9.1)
libxc:  5.2.3
units:  Angstrom and eV
cores: 32
OpenMP: True
OMP_NUM_THREADS: 1

Input parameters:
  h: 0.16
  kpts: {size: [4, 4, 1]}
  occupations: {name: fermi-dirac,
                width: 0.05}
  poissonsolver: {dipolelayer: xy}
  xc: BEEF-vdW

System changes: positions, numbers, cell, pbc, initial_charges, initial_magmoms 

Initialize ...

species:
  Li:
    name: Lithium
    id: 830b4218f175192f93f959cfc0aad614
    Z: 3.0
    valence: 1
    core: 2
    charge: 0.0
    file: /home/vazumah/anaconda3/envs/NAME/share/gpaw/Li.PBE.gz
    compensation charges: {type: gauss,
                           rc: 0.33,
                           lmax: 2}
    cutoffs: {filter: 1.91,
              core: 2.55}
    valence states:
      #              energy  rcut
      - 2s(1.00)    -2.874   1.058
      - 2p(0.00)    -1.090   1.058
      -  s          24.337   1.058
  
    # Using partial waves for Li as LCAO basis

  O:
    name: Oxygen
    id: 32ecd46bf208036f09c70b0ec9a88b78
    Z: 8.0
    valence: 6
    core: 2
    charge: 0.0
    file: /home/vazumah/anaconda3/envs/NAME/share/gpaw/O.PBE.gz
    compensation charges: {type: gauss,
                           rc: 0.21,
                           lmax: 2}
    cutoffs: {filter: 1.17,
              core: 0.83}
    valence states:
      #              energy  rcut
      - 2s(2.00)   -23.961   0.688
      - 2p(4.00)    -9.029   0.598
      -  s           3.251   0.688
      -  p          18.182   0.598
      -  d           0.000   0.619
  
    # Using partial waves for O as LCAO basis

  C:
    name: Carbon
    id: 4aa54d4b901d75f77cc0ea3eec22967b
    Z: 6.0
    valence: 4
    core: 2
    charge: 0.0
    file: /home/vazumah/anaconda3/envs/NAME/share/gpaw/C.PBE.gz
    compensation charges: {type: gauss,
                           rc: 0.20,
                           lmax: 2}
    cutoffs: {filter: 1.14,
              core: 1.14}
    valence states:
      #              energy  rcut
      - 2s(2.00)   -13.751   0.635
      - 2p(2.00)    -5.284   0.635
      -  s          13.461   0.635
      -  p          21.927   0.635
      -  d           0.000   0.635
  
    # Using partial waves for C as LCAO basis

  H:
    name: Hydrogen
    id: d65de229564ff8ea4db303e23b6d1ecf
    Z: 1.0
    valence: 1
    core: 0
    charge: 0.0
    file: /home/vazumah/anaconda3/envs/NAME/share/gpaw/H.PBE.gz
    compensation charges: {type: gauss,
                           rc: 0.15,
                           lmax: 2}
    cutoffs: {filter: 0.85,
              core: 0.53}
    valence states:
      #              energy  rcut
      - 1s(1.00)    -6.494   0.476
      -  s          20.717   0.476
      -  p           0.000   0.476
  
    # Using partial waves for H as LCAO basis

Reference energy: -11471.411034  # eV

Spin-paired calculation

Convergence criteria:
 Maximum [total energy] change in last 3 cyles: 0.0005 eV / electron
 Maximum integral of absolute [dens]ity change: 0.0001 electrons / valence electron
 Maximum integral of absolute [eigenst]ate change: 4e-08 eV^2 / valence electron
 Maximum number of scf [iter]ations: 333
 (Square brackets indicate name in SCF output, whereas a 'c' in
 the SCF output indicates the quantity has converged.)

Symmetries present (total): 1

  ( 1  0  0)
  ( 0  1  0)
  ( 0  0  1)

16 k-points: 4 x 4 x 1 Monkhorst-Pack grid
8 k-points in the irreducible part of the Brillouin zone
       k-points in crystal coordinates                weights
   0:     0.12500000   -0.37500000    0.00000000          2/16
   1:     0.12500000   -0.12500000    0.00000000          2/16
   2:     0.12500000    0.12500000    0.00000000          2/16
   3:     0.12500000    0.37500000    0.00000000          2/16
   4:     0.37500000   -0.37500000    0.00000000          2/16
   5:     0.37500000   -0.12500000    0.00000000          2/16
   6:     0.37500000    0.12500000    0.00000000          2/16
   7:     0.37500000    0.37500000    0.00000000          2/16

Wave functions: Uniform real-space grid
  Kinetic energy operator: 6*3+1=19 point O(h^6) finite-difference Laplacian
  ScaLapack parameters: grid=1x1, blocksize=None
  Wavefunction extrapolation:
    Improved wavefunction reuse through dual PAW basis 

Occupation numbers: Fermi-Dirac:
  width: 0.0500  # eV
 

Eigensolver
   Davidson(niter=2) 

Densities:
  Coarse grid: 60*60*156 grid
  Fine grid: 120*120*312 grid
  Total Charge: 0.000000 

Density mixing:
  Method: separate
  Backend: pulay
  Linear mixing parameter: 0.05
  old densities: 5
  Damping of long wavelength oscillations: 50 

Hamiltonian:
  XC and Coulomb potentials evaluated on a 120*120*312 grid
  Using the BEEF-vdW Exchange-Correlation functional
  Interpolation: tri-quintic (5. degree polynomial)
  Poisson solver: FastPoissonSolver using
    Stencil: 6*3+1=19 point O(h^6) finite-difference Laplacian
    FFT axes: [0, 1]
    FST axes: [2]

Dipole correction along z-axis 

XC parameters: BEEF-vdW with 2 nearest neighbor stencil

Memory estimate:
  Process memory now: 214.72 MiB
  Calculator: 281.63 MiB
    Density: 87.85 MiB
      Arrays: 27.47 MiB
      Localized functions: 49.94 MiB
      Mixer: 10.44 MiB
    Hamiltonian: 21.91 MiB
      Arrays: 17.96 MiB
      XC: 0.00 MiB
      Poisson: 0.00 MiB
      vbar: 3.94 MiB
    Wavefunctions: 171.87 MiB
      Arrays psit_nG: 79.32 MiB
      Eigensolver: 89.98 MiB
      Projections: 0.04 MiB
      Projectors: 2.54 MiB

Total number of cores used: 32
Parallelization over k-points: 8
Domain decomposition: 1 x 1 x 4

Number of atoms: 45
Number of atomic orbitals: 162
Number of bands in calculation: 38
Number of valence electrons: 56
Bands to converge: occupied

... initialized

Initializing position-dependent things.

Density initialized from atomic densities
Creating initial wave functions:
  38 bands from LCAO basis set

       .-----------------------.  
      /|                       |  
     / |                       |  
    /  |                       |  
   /   |                       |  
  /    |                       |  
 *     |                       |  
 |     |                       |  
 |     |                       |  
 |     |                       |  
 |     |                       |  
 |     | H                     |  
 |H    |                       |  
 |O H  |C H                    |  
 |   Li| H   Li      Li        |  
 |  H  |  Li      Li      Li   |  
 | Li  |   Li      Li          |  
 |     |Li      Li      Li     |  
 Li    | Li      Li            |  
 |   LLi     LLi     LLi       |  
 |     |  Li      Li      Li   |  
 | Li  |   Li      Li          |  
 |     |Li      Li      Li     |  
 Li    | Li      Li            |  
 |    Li      Li      Li       |  
 |     |                       |  
 |     |                       |  
 |     |                       |  
 |     |                       |  
 |     |                       |  
 |     |                       |  
 |     .-----------------------.  
 |    /                       /   
 |   /                       /    
 |  /                       /     
 | /                       /      
 |/                       /       
 *-----------------------*        

Positions:
   0 Li     1.617037    1.617037   10.000000    ( 0.0000,  0.0000,  0.0000)
   1 Li     4.851111    1.617037   10.000000    ( 0.0000,  0.0000,  0.0000)
   2 Li     8.085185    1.617037   10.000000    ( 0.0000,  0.0000,  0.0000)
   3 Li     1.617037    4.851111   10.000000    ( 0.0000,  0.0000,  0.0000)
   4 Li     4.851111    4.851111   10.000000    ( 0.0000,  0.0000,  0.0000)
   5 Li     8.085185    4.851111   10.000000    ( 0.0000,  0.0000,  0.0000)
   6 Li     1.617037    8.085185   10.000000    ( 0.0000,  0.0000,  0.0000)
   7 Li     4.851111    8.085185   10.000000    ( 0.0000,  0.0000,  0.0000)
   8 Li     8.085185    8.085185   10.000000    ( 0.0000,  0.0000,  0.0000)
   9 Li     0.000000    0.000000   11.617037    ( 0.0000,  0.0000,  0.0000)
  10 Li     3.234074    0.000000   11.617037    ( 0.0000,  0.0000,  0.0000)
  11 Li     6.468148    0.000000   11.617037    ( 0.0000,  0.0000,  0.0000)
  12 Li     0.000000    3.234074   11.617037    ( 0.0000,  0.0000,  0.0000)
  13 Li     3.234074    3.234074   11.617037    ( 0.0000,  0.0000,  0.0000)
  14 Li     6.468148    3.234074   11.617037    ( 0.0000,  0.0000,  0.0000)
  15 Li     0.000000    6.468148   11.617037    ( 0.0000,  0.0000,  0.0000)
  16 Li     3.234074    6.468148   11.617037    ( 0.0000,  0.0000,  0.0000)
  17 Li     6.468148    6.468148   11.617037    ( 0.0000,  0.0000,  0.0000)
  18 Li     1.617038    1.617038   13.469728    ( 0.0000,  0.0000,  0.0000)
  19 Li     4.851111    1.617038   13.469729    ( 0.0000,  0.0000,  0.0000)
  20 Li     8.085184    1.617038   13.469728    ( 0.0000,  0.0000,  0.0000)
  21 Li     1.617038    4.851111   13.469729    ( 0.0000,  0.0000,  0.0000)
  22 Li     4.851111    4.851111   13.469730    ( 0.0000,  0.0000,  0.0000)
  23 Li     8.085184    4.851111   13.469729    ( 0.0000,  0.0000,  0.0000)
  24 Li     1.617038    8.085184   13.469728    ( 0.0000,  0.0000,  0.0000)
  25 Li     4.851111    8.085184   13.469729    ( 0.0000,  0.0000,  0.0000)
  26 Li     8.085184    8.085184   13.469728    ( 0.0000,  0.0000,  0.0000)
  27 Li    -0.000000   -0.000000   15.445939    ( 0.0000,  0.0000,  0.0000)
  28 Li     3.234074    0.000000   15.445939    ( 0.0000,  0.0000,  0.0000)
  29 Li     6.468148    0.000000   15.445939    ( 0.0000,  0.0000,  0.0000)
  30 Li     0.000000    3.234074   15.445939    ( 0.0000,  0.0000,  0.0000)
  31 Li     3.234076    3.234076   15.445938    ( 0.0000,  0.0000,  0.0000)
  32 Li     6.468146    3.234076   15.445938    ( 0.0000,  0.0000,  0.0000)
  33 Li     0.000000    6.468148   15.445939    ( 0.0000,  0.0000,  0.0000)
  34 Li     3.234076    6.468146   15.445938    ( 0.0000,  0.0000,  0.0000)
  35 Li     6.468146    6.468146   15.445938    ( 0.0000,  0.0000,  0.0000)
  36 O      0.000000    1.617037   18.445939    ( 0.0000,  0.0000,  0.0000)
  37 C      1.182408    0.800279   18.450238    ( 0.0000,  0.0000,  0.0000)
  38 C      2.466622    1.619898   18.435704    ( 0.0000,  0.0000,  0.0000)
  39 H      1.173784    0.116744   19.310398    ( 0.0000,  0.0000,  0.0000)
  40 H      1.107019    0.190554   17.547442    ( 0.0000,  0.0000,  0.0000)
  41 H      3.343549    0.965951   18.420269    ( 0.0000,  0.0000,  0.0000)
  42 H      2.501333    2.268921   17.558886    ( 0.0000,  0.0000,  0.0000)
  43 H      2.536810    2.248385   19.328265    ( 0.0000,  0.0000,  0.0000)
  44 H      0.039167    2.200014   19.214164    ( 0.0000,  0.0000,  0.0000)

Unit cell:
           periodic     x           y           z      points  spacing
  1. axis:    yes    9.702222    0.000000    0.000000    60     0.1617
  2. axis:    yes    0.000000    9.702222    0.000000    60     0.1617
  3. axis:    no     0.000000    0.000000   24.851111   156     0.1593

  Lengths:   9.702222   9.702222  24.851111
  Angles:   90.000000  90.000000  90.000000

Effective grid spacing dv^(1/3) = 0.1609

     iter     time        total  log10-change:
                         energy  eigst   dens
iter:   1 01:06:37  -403.475358
iter:   2 01:07:04  -159.149333  +2.43  -0.09
iter:   3 01:07:33  -156.284312  +3.29  -0.23
iter:   4 01:08:05  -167.961993  +2.69  -0.20
Writing to output.gpw (mode='')

iter:   5 01:08:33  -241.411052  +2.84  -0.41
iter:   6 01:09:02  -245.931007  +2.46  -0.43
iter:   7 01:09:32  -312.517222  +2.91  -0.60
iter:   8 01:10:03  -312.012478  +2.33  -0.39
iter:   9 01:10:33  -284.566082  +2.07  -0.42
Writing to output.gpw (mode='')

iter:  10 01:11:03  -295.138133  +1.86  -0.54
iter:  11 01:11:30  -376.788046  +2.49  -0.49
iter:  12 01:12:00  -342.610373  +1.64  -0.27
iter:  13 01:12:28  -279.793629  +1.34  -0.30
iter:  14 01:13:08  -278.047270  +1.35  -0.71
Writing to output.gpw (mode='')

iter:  15 01:13:37  -277.955323  +1.36  -0.76
iter:  16 01:14:05  -281.410464  +1.62  -0.73
iter:  17 01:14:35  -277.594896  +0.81  -0.63
iter:  18 01:15:05  -272.923445  +0.40  -0.70
iter:  19 01:15:44  -277.528202  +0.66  -1.06
Writing to output.gpw (mode='')

iter:  20 01:16:13  -276.116135  +1.12  -0.72
iter:  21 01:16:45  -272.811536  +0.09  -0.79
iter:  22 01:17:14  -272.603149  -0.05  -1.18
iter:  23 01:17:43  -272.712144  +0.03  -1.29
iter:  24 01:18:14  -272.421392  -0.01  -1.26
Writing to output.gpw (mode='')

iter:  25 01:18:42  -272.408278  -0.57  -1.71
iter:  26 01:19:11  -272.401235c -0.84  -1.81
iter:  27 01:19:45  -272.434461  -0.86  -1.91
iter:  28 01:20:14  -272.407071  -1.11  -1.83
iter:  29 01:20:45  -272.414162c -1.00  -2.06
Writing to output.gpw (mode='')

iter:  30 01:21:14  -272.410480c -1.55  -2.14
iter:  31 01:21:44  -272.412841c -1.64  -2.29
iter:  32 01:22:15  -272.414060c -1.89  -2.35
iter:  33 01:22:44  -272.415464c -1.95  -2.45
iter:  34 01:23:14  -272.416090c -1.97  -2.44
Writing to output.gpw (mode='')

iter:  35 01:24:01  -272.416607c -2.08  -2.55
iter:  36 01:24:32  -272.416868c -2.24  -2.70
iter:  37 01:25:03  -272.417421c -2.18  -2.86
iter:  38 01:25:37  -272.418018c -2.26  -2.99
iter:  39 01:26:05  -272.418505c -2.56  -3.01
Writing to output.gpw (mode='')

iter:  40 01:26:33  -272.418893c -2.72  -3.04
iter:  41 01:27:02  -272.419159c -2.82  -3.14
iter:  42 01:27:33  -272.419354c -2.90  -3.24
iter:  43 01:28:01  -272.419583c -2.75  -3.26
iter:  44 01:28:28  -272.419820c -2.84  -3.33
Writing to output.gpw (mode='')

iter:  45 01:28:57  -272.419982c -3.07  -3.37
iter:  46 01:29:27  -272.420141c -3.09  -3.50
iter:  47 01:29:59  -272.420249c -3.23  -3.76
iter:  48 01:30:25  -272.420330c -3.42  -3.90
iter:  49 01:30:52  -272.420402c -3.43  -3.89
Writing to output.gpw (mode='')

iter:  50 01:31:19  -272.420470c -3.42  -3.83
iter:  51 01:31:49  -272.420523c -3.56  -3.84
iter:  52 01:32:18  -272.420570c -3.61  -3.80
iter:  53 01:32:47  -272.420613c -3.69  -3.78
iter:  54 01:33:14  -272.420664c -3.53  -3.78
Writing to output.gpw (mode='')

iter:  55 01:33:43  -272.420703c -3.53  -3.71
iter:  56 01:34:13  -272.420731c -3.77  -3.72
iter:  57 01:34:44  -272.420754c -3.79  -3.69
iter:  58 01:35:16  -272.420775c -4.00  -3.66
iter:  59 01:35:45  -272.420791c -3.75  -3.71
Writing to output.gpw (mode='')

iter:  60 01:36:15  -272.420809c -3.80  -3.77
iter:  61 01:36:51  -272.420820c -4.16  -3.90
iter:  62 01:37:19  -272.420838c -3.79  -3.99
iter:  63 01:37:47  -272.420845c -4.30  -4.16c
iter:  64 01:38:16  -272.420854c -4.01  -4.27c
Writing to output.gpw (mode='')

iter:  65 01:38:47  -272.420860c -4.38  -4.37c
iter:  66 01:39:17  -272.420864c -4.55  -4.51c
iter:  67 01:39:44  -272.420868c -4.59  -4.50c
iter:  68 01:40:13  -272.420872c -4.48  -4.46c
iter:  69 01:40:41  -272.420875c -4.63  -4.49c
Writing to output.gpw (mode='')

iter:  70 01:41:09  -272.420877c -4.66  -4.45c
iter:  71 01:41:37  -272.420879c -4.81  -4.40c
iter:  72 01:42:05  -272.420881c -4.61  -4.40c
iter:  73 01:42:33  -272.420883c -4.89  -4.39c
iter:  74 01:43:04  -272.420884c -4.80  -4.36c
Writing to output.gpw (mode='')

iter:  75 01:43:35  -272.420885c -4.82  -4.34c
iter:  76 01:44:05  -272.420886c -5.12  -4.32c
iter:  77 01:44:32  -272.420886c -5.14  -4.29c
iter:  78 01:44:59  -272.420887c -5.01  -4.33c
iter:  79 01:45:27  -272.420888c -5.15  -4.31c
Writing to output.gpw (mode='')

iter:  80 01:45:56  -272.420887c -5.02  -4.22c
iter:  81 01:46:26  -272.420887c -5.17  -4.29c
iter:  82 01:46:59  -272.420887c -5.49  -4.35c
iter:  83 01:47:26  -272.420887c -5.38  -4.38c
iter:  84 01:47:55  -272.420887c -5.48  -4.37c
Writing to output.gpw (mode='')

iter:  85 01:48:26  -272.420887c -5.32  -4.40c
iter:  86 01:48:55  -272.420887c -5.59  -4.51c
iter:  87 01:49:23  -272.420887c -5.75  -4.59c
iter:  88 01:49:53  -272.420888c -5.72  -4.72c
iter:  89 01:50:22  -272.420888c -5.79  -4.87c
Writing to output.gpw (mode='')

iter:  90 01:50:52  -272.420888c -5.72  -4.90c
iter:  91 01:51:20  -272.420888c -5.79  -5.07c
iter:  92 01:51:53  -272.420888c -5.86  -5.21c
iter:  93 01:52:24  -272.420888c -5.99  -5.27c
iter:  94 01:52:52  -272.420888c -6.15  -5.31c
Writing to output.gpw (mode='')

iter:  95 01:53:22  -272.420888c -6.21  -5.45c
iter:  96 01:53:51  -272.420888c -6.33  -5.74c
iter:  97 01:54:19  -272.420888c -6.40  -5.80c
iter:  98 01:54:49  -272.420888c -6.45  -5.81c
iter:  99 01:55:17  -272.420888c -6.40  -5.87c
Writing to output.gpw (mode='')

iter: 100 01:55:45  -272.420888c -6.32  -5.97c
iter: 101 01:56:15  -272.420888c -6.46  -6.05c
iter: 102 01:56:42  -272.420888c -6.61  -6.08c
iter: 103 01:57:13  -272.420888c -6.58  -6.05c
iter: 104 01:57:43  -272.420888c -6.71  -5.92c
Writing to output.gpw (mode='')

iter: 105 01:58:13  -272.420888c -6.70  -6.04c
iter: 106 01:58:43  -272.420888c -6.78  -6.02c
iter: 107 01:59:12  -272.420888c -6.71  -5.92c
iter: 108 01:59:41  -272.420888c -6.64  -5.89c
iter: 109 02:00:09  -272.420888c -6.75  -5.84c
Writing to output.gpw (mode='')

iter: 110 02:00:40  -272.420888c -6.88  -5.80c
iter: 111 02:01:12  -272.420888c -6.93  -5.78c
iter: 112 02:01:44  -272.420888c -7.01  -5.75c
iter: 113 02:02:14  -272.420888c -7.08  -5.74c
iter: 114 02:02:42  -272.420888c -7.06  -5.72c
Writing to output.gpw (mode='')

iter: 115 02:03:10  -272.420888c -7.02  -5.65c
iter: 116 02:03:38  -272.420888c -6.92  -5.65c
iter: 117 02:04:07  -272.420888c -6.97  -5.64c
iter: 118 02:04:37  -272.420888c -6.76  -5.60c
iter: 119 02:05:05  -272.420888c -6.50  -5.78c
Writing to output.gpw (mode='')

iter: 120 02:05:31  -272.420888c -7.06  -5.93c
iter: 121 02:05:58  -272.420888c -7.14  -5.91c
iter: 122 02:06:27  -272.420888c -7.16  -5.91c
iter: 123 02:06:58  -272.420888c -7.13  -5.96c
iter: 124 02:07:29  -272.420888c -7.24  -6.00c
Writing to output.gpw (mode='')

iter: 125 02:07:53  -272.420888c -7.23  -6.03c
iter: 126 02:08:18  -272.420888c -7.20  -6.08c
iter: 127 02:08:42  -272.420888c -7.43c -6.19c

Converged after 127 iterations.

Dipole moment: (-10.122340, -9.860808, 0.347374) |e|*Ang

Energy contributions relative to reference atoms: (reference = -11471.411034)

Kinetic:       +127.584074
Potential:     -119.453446
External:        +0.000000
XC:            -280.721565
Entropy (-ST):   -0.152063
Local:           +0.246080
--------------------------
Free energy:   -272.496919
Extrapolated:  -272.420888

Dipole-layer corrected work functions: 3.391030, 2.723258 eV

Showing only first 2 kpts
 Kpt  Band  Eigenvalues  Occupancy
  0    26     -3.30965    1.98726
  0    27     -3.22744    1.93577
  0    28     -2.89099    0.06958
  0    29     -2.80369    0.01250

  1    26     -3.07496    1.17628
  1    27     -3.05389    0.96749
  1    28     -3.01690    0.61801
  1    29     -3.00793    0.54405


Fermi level: -3.05714

No gap
Writing to output.gpw (mode='')


Forces in eV/Ang:
  0 Li    0.00230   -0.00025   -0.27010
  1 Li    0.00236   -0.00022   -0.27179
  2 Li   -0.00482    0.00023   -0.27240
  3 Li   -0.00111    0.00300   -0.27125
  4 Li   -0.00040   -0.00241   -0.27382
  5 Li    0.00127    0.00058   -0.27423
  6 Li   -0.00050   -0.00302   -0.27097
  7 Li   -0.00064    0.00287   -0.27371
  8 Li    0.00143   -0.00044   -0.27357
  9 Li   -0.00223   -0.00160    0.26193
 10 Li    0.00324    0.00048    0.25689
 11 Li   -0.00128    0.00005    0.25434
 12 Li   -0.00340    0.00215    0.26231
 13 Li    0.00374   -0.00021    0.25885
 14 Li    0.00016   -0.00114    0.25454
 15 Li    0.00476   -0.00005    0.25384
 16 Li   -0.00462    0.00034    0.25920
 17 Li   -0.00023    0.00078    0.26747
 18 Li   -0.00007    0.00027    0.01467
 19 Li    0.00003    0.00026    0.04838
 20 Li    0.00028   -0.00190    0.01658
 21 Li   -0.00015   -0.01005    0.04914
 22 Li   -0.00143   -0.00345    0.04014
 23 Li    0.00169   -0.00211    0.03685
 24 Li   -0.00173    0.01093    0.05404
 25 Li   -0.00245    0.00276    0.04015
 26 Li    0.00378    0.00366    0.04136
 27 Li   -0.07530   -0.02689   -0.12203
 28 Li    0.05284   -0.04910   -0.13648
 29 Li   -0.01061   -0.00716   -0.02591
 30 Li   -0.02645   -0.00123    0.03739
 31 Li    0.05213    0.06266   -0.14713
 32 Li   -0.01230    0.00617   -0.03100
 33 Li    0.00695   -0.00029   -0.02562
 34 Li   -0.00626    0.00139   -0.01879
 35 Li   -0.00040    0.00107   -0.01612
 36 O    -0.00402    0.01933   -0.13170
 37 C     0.07320    0.19057    0.27095
 38 C    -0.04974   -0.13598    0.21948
 39 H    -0.01530   -0.00064   -0.04576
 40 H     0.06013   -0.12051   -0.04928
 41 H     0.00213    0.00324   -0.02838
 42 H    -0.03107    0.01919   -0.02017
 43 H     0.00796    0.01323    0.00861
 44 H    -0.03204    0.02237    0.01747

System changes: positions 

Initializing position-dependent things.

Density initialized from wave functions
       .-----------------------.  
      /|                       |  
     / |                       |  
    /  |                       |  
   /   |                       |  
  /    |                       |  
 *     |                       |  
 |     |                       |  
 |     |                       |  
 |     |                       |  
 |     |                       |  
 |     | H                     |  
 |H    |       Li      Li      Li 
 |  H  |C H               O    |  
 |   Li| H   Li      Li        |  
 |  H  |  Li      Li      Li   |  
 |     |   Li      Li      Li  |  
 |     |Li      Li      Li     |  
 |     |                       |  
 |   LLi     LLi     LLi       |  
 |     |  Li      Li      Li   |  
 | Li  |   Li      Li          |  
 |     |Li      Li      Li     |  
 Li    | Li      Li            |  
 |    Li      Li      Li       |  
 |     |                       |  
 |     |                       |  
 |     |                       |  
 |     |                       |  
 |     |                       |  
 |     |                       |  
 |     .-----------------------.  
 |    /                       /   
 |   /                       /    
 |  /                       /     
 | /                       /      
 |/                       /       
 *-----------------------*        

Positions:
   0 Li     1.617037    1.617037   10.000000    ( 0.0000,  0.0000,  0.0000)
   1 Li     4.851111    1.617037   10.000000    ( 0.0000,  0.0000,  0.0000)
   2 Li     8.085185    1.617037   10.000000    ( 0.0000,  0.0000,  0.0000)
   3 Li     1.617037    4.851111   10.000000    ( 0.0000,  0.0000,  0.0000)
   4 Li     4.851111    4.851111   10.000000    ( 0.0000,  0.0000,  0.0000)
   5 Li     8.085185    4.851111   10.000000    ( 0.0000,  0.0000,  0.0000)
   6 Li     1.617037    8.085185   10.000000    ( 0.0000,  0.0000,  0.0000)
   7 Li     4.851111    8.085185   10.000000    ( 0.0000,  0.0000,  0.0000)
   8 Li     8.085185    8.085185   10.000000    ( 0.0000,  0.0000,  0.0000)
   9 Li     0.000000    0.000000   11.617037    ( 0.0000,  0.0000,  0.0000)
  10 Li     3.234074    0.000000   11.617037    ( 0.0000,  0.0000,  0.0000)
  11 Li     6.468148    0.000000   11.617037    ( 0.0000,  0.0000,  0.0000)
  12 Li     0.000000    3.234074   11.617037    ( 0.0000,  0.0000,  0.0000)
  13 Li     3.234074    3.234074   11.617037    ( 0.0000,  0.0000,  0.0000)
  14 Li     6.468148    3.234074   11.617037    ( 0.0000,  0.0000,  0.0000)
  15 Li     0.000000    6.468148   11.617037    ( 0.0000,  0.0000,  0.0000)
  16 Li     3.234074    6.468148   11.617037    ( 0.0000,  0.0000,  0.0000)
  17 Li     6.468148    6.468148   11.617037    ( 0.0000,  0.0000,  0.0000)
  18 Li     1.617037    1.617042   13.469937    ( 0.0000,  0.0000,  0.0000)
  19 Li     4.851111    1.617042   13.470421    ( 0.0000,  0.0000,  0.0000)
  20 Li     8.085188    1.617011   13.469965    ( 0.0000,  0.0000,  0.0000)
  21 Li     1.617036    4.850967   13.470431    ( 0.0000,  0.0000,  0.0000)
  22 Li     4.851091    4.851062   13.470304    ( 0.0000,  0.0000,  0.0000)
  23 Li     8.085208    4.851081   13.470256    ( 0.0000,  0.0000,  0.0000)
  24 Li     1.617013    8.085340   13.470500    ( 0.0000,  0.0000,  0.0000)
  25 Li     4.851076    8.085223   13.470303    ( 0.0000,  0.0000,  0.0000)
  26 Li     8.085238    8.085236   13.470319    ( 0.0000,  0.0000,  0.0000)
  27 Li    -0.001076   -0.000384   15.444196    ( 0.0000,  0.0000,  0.0000)
  28 Li     3.234829   -0.000701   15.443989    ( 0.0000,  0.0000,  0.0000)
  29 Li     6.467997   -0.000102   15.445569    ( 0.0000,  0.0000,  0.0000)
  30 Li    -0.000378    3.234056   15.446473    ( 0.0000,  0.0000,  0.0000)
  31 Li     3.234821    3.234972   15.443836    ( 0.0000,  0.0000,  0.0000)
  32 Li     6.467970    3.234165   15.445495    ( 0.0000,  0.0000,  0.0000)
  33 Li     0.000099    6.468144   15.445573    ( 0.0000,  0.0000,  0.0000)
  34 Li     3.233987    6.468165   15.445670    ( 0.0000,  0.0000,  0.0000)
  35 Li     6.468140    6.468161   15.445708    ( 0.0000,  0.0000,  0.0000)
  36 O     -0.000057    1.617313   18.444058    ( 0.0000,  0.0000,  0.0000)
  37 C      1.183453    0.803002   18.454108    ( 0.0000,  0.0000,  0.0000)
  38 C      2.465912    1.617956   18.438839    ( 0.0000,  0.0000,  0.0000)
  39 H      1.173566    0.116735   19.309744    ( 0.0000,  0.0000,  0.0000)
  40 H      1.107878    0.188832   17.546738    ( 0.0000,  0.0000,  0.0000)
  41 H      3.343579    0.965998   18.419864    ( 0.0000,  0.0000,  0.0000)
  42 H      2.500889    2.269195   17.558598    ( 0.0000,  0.0000,  0.0000)
  43 H      2.536924    2.248574   19.328389    ( 0.0000,  0.0000,  0.0000)
  44 H      0.038709    2.200333   19.214414    ( 0.0000,  0.0000,  0.0000)

Unit cell:
           periodic     x           y           z      points  spacing
  1. axis:    yes    9.702222    0.000000    0.000000    60     0.1617
  2. axis:    yes    0.000000    9.702222    0.000000    60     0.1617
  3. axis:    no     0.000000    0.000000   24.851111   156     0.1593

  Lengths:   9.702222   9.702222  24.851111
  Angles:   90.000000  90.000000  90.000000

Effective grid spacing dv^(1/3) = 0.1609

     iter     time        total  log10-change:
                         energy  eigst   dens
iter:   1 02:09:14  -272.424663  -2.57
iter:   2 02:09:38  -272.424621  -3.29  -2.83
iter:   3 02:10:03  -272.424512c -3.80  -2.82
iter:   4 02:10:27  -272.424168c -3.01  -2.91
Writing to output.gpw (mode='')

iter:   5 02:10:52  -272.424102c -4.05  -3.02
iter:   6 02:11:16  -272.424037c -3.68  -3.18
iter:   7 02:11:40  -272.424086c -3.63  -3.37
iter:   8 02:12:04  -272.424042c -4.50  -3.32
iter:   9 02:12:29  -272.424032c -4.58  -3.53
Writing to output.gpw (mode='')

iter:  10 02:12:53  -272.424047c -4.91  -3.65
iter:  11 02:13:17  -272.424039c -4.94  -3.75
iter:  12 02:13:41  -272.424042c -5.83  -3.95
iter:  13 02:14:06  -272.424040c -6.16  -3.99
iter:  14 02:14:30  -272.424042c -5.49  -4.08c
Writing to output.gpw (mode='')

iter:  15 02:14:55  -272.424039c -5.71  -4.19c
iter:  16 02:15:19  -272.424038c -6.56  -4.29c
iter:  17 02:15:43  -272.424038c -6.10  -4.36c
iter:  18 02:16:08  -272.424038c -6.69  -4.52c
iter:  19 02:16:32  -272.424038c -6.69  -4.65c
Writing to output.gpw (mode='')

iter:  20 02:16:56  -272.424038c -7.08  -4.70c
iter:  21 02:17:20  -272.424038c -7.15  -4.81c
iter:  22 02:17:45  -272.424039c -7.27  -4.95c
iter:  23 02:18:09  -272.424039c -7.77c -4.98c

Converged after 23 iterations.

Dipole moment: (-10.085659, -9.834326, 0.347818) |e|*Ang

Energy contributions relative to reference atoms: (reference = -11471.411034)

Kinetic:       +127.469111
Potential:     -119.377297
External:        +0.000000
XC:            -280.685908
Entropy (-ST):   -0.152063
Local:           +0.246087
--------------------------
Free energy:   -272.500070
Extrapolated:  -272.424039

Dipole-layer corrected work functions: 3.390863, 2.722237 eV

Showing only first 2 kpts
 Kpt  Band  Eigenvalues  Occupancy
  0    26     -3.30904    1.98726
  0    27     -3.22684    1.93577
  0    28     -2.89020    0.06931
  0    29     -2.80308    0.01249

  1    26     -3.07420    1.17472
  1    27     -3.05318    0.96635
  1    28     -3.01641    0.61886
  1    29     -3.00751    0.54547


Fermi level: -3.05655

No gap
Writing to output.gpw (mode='')


Forces in eV/Ang:
  0 Li    0.00230   -0.00024   -0.27027
  1 Li    0.00236   -0.00026   -0.27187
  2 Li   -0.00481    0.00022   -0.27243
  3 Li   -0.00110    0.00298   -0.27127
  4 Li   -0.00044   -0.00241   -0.27387
  5 Li    0.00132    0.00054   -0.27417
  6 Li   -0.00047   -0.00301   -0.27109
  7 Li   -0.00068    0.00292   -0.27375
  8 Li    0.00142   -0.00040   -0.27362
  9 Li   -0.00221   -0.00173    0.26253
 10 Li    0.00332    0.00041    0.25758
 11 Li   -0.00136    0.00000    0.25482
 12 Li   -0.00337    0.00226    0.26269
 13 Li    0.00385   -0.00015    0.25952
 14 Li   -0.00000   -0.00106    0.25499
 15 Li    0.00480    0.00001    0.25440
 16 Li   -0.00474    0.00036    0.25989
 17 Li   -0.00016    0.00074    0.26797
 18 Li   -0.00029    0.00051    0.01348
 19 Li    0.00044    0.00023    0.04629
 20 Li    0.00002   -0.00148    0.01568
 21 Li   -0.00061   -0.00967    0.04762
 22 Li   -0.00100   -0.00285    0.03837
 23 Li    0.00176   -0.00215    0.03607
 24 Li   -0.00181    0.01025    0.05167
 25 Li   -0.00205    0.00224    0.03857
 26 Li    0.00335    0.00319    0.03966
 27 Li   -0.07277   -0.02619   -0.11709
 28 Li    0.05075   -0.04775   -0.13321
 29 Li   -0.01057   -0.00701   -0.02532
 30 Li   -0.02571   -0.00163    0.03799
 31 Li    0.05092    0.06104   -0.14346
 32 Li   -0.01203    0.00604   -0.03039
 33 Li    0.00666   -0.00048   -0.02505
 34 Li   -0.00589    0.00127   -0.01835
 35 Li   -0.00045    0.00106   -0.01565
 36 O     0.02293    0.08513   -0.02653
 37 C    -0.00031    0.00274    0.01302
 38 C    -0.00125    0.00842    0.07522
 39 H    -0.02667   -0.01747    0.01571
 40 H     0.08313   -0.01957    0.09330
 41 H     0.00611   -0.01541   -0.01332
 42 H    -0.03828   -0.05036    0.07278
 43 H     0.02091    0.03024    0.04536
 44 H    -0.05671   -0.01209   -0.04867

System changes: positions 

Initializing position-dependent things.

Density initialized from wave functions
       .-----------------------.  
      /|                       |  
     / |                       |  
    /  |                       |  
   /   |                       |  
  /    |                       |  
 *     |                       |  
 |     |                       |  
 |     |                       |  
 |     |                       |  
 |     |                       |  
 |     | H                     |  
 |H    |       Li      Li      Li 
 |O H  |C H                    |  
 |   Li| H   Li      Li        |  
 |  H  |  Li      Li      Li   |  
 |     |   Li      Li      Li  |  
 |     |Li      Li      Li     |  
 |     |                       |  
 |   LLi     LLi     LLi       |  
 |     |  Li      Li      Li   |  
 | Li  |   Li      Li          |  
 |     |Li      Li      Li     |  
 Li    | Li      Li            |  
 |    Li      Li      Li       |  
 |     |                       |  
 |     |                       |  
 |     |                       |  
 |     |                       |  
 |     |                       |  
 |     |                       |  
 |     .-----------------------.  
 |    /                       /   
 |   /                       /    
 |  /                       /     
 | /                       /      
 |/                       /       
 *-----------------------*        

Positions:
   0 Li     1.617037    1.617037   10.000000    ( 0.0000,  0.0000,  0.0000)
   1 Li     4.851111    1.617037   10.000000    ( 0.0000,  0.0000,  0.0000)
   2 Li     8.085185    1.617037   10.000000    ( 0.0000,  0.0000,  0.0000)
   3 Li     1.617037    4.851111   10.000000    ( 0.0000,  0.0000,  0.0000)
   4 Li     4.851111    4.851111   10.000000    ( 0.0000,  0.0000,  0.0000)
   5 Li     8.085185    4.851111   10.000000    ( 0.0000,  0.0000,  0.0000)
   6 Li     1.617037    8.085185   10.000000    ( 0.0000,  0.0000,  0.0000)
   7 Li     4.851111    8.085185   10.000000    ( 0.0000,  0.0000,  0.0000)
   8 Li     8.085185    8.085185   10.000000    ( 0.0000,  0.0000,  0.0000)
   9 Li     0.000000    0.000000   11.617037    ( 0.0000,  0.0000,  0.0000)
  10 Li     3.234074    0.000000   11.617037    ( 0.0000,  0.0000,  0.0000)
  11 Li     6.468148    0.000000   11.617037    ( 0.0000,  0.0000,  0.0000)
  12 Li     0.000000    3.234074   11.617037    ( 0.0000,  0.0000,  0.0000)
  13 Li     3.234074    3.234074   11.617037    ( 0.0000,  0.0000,  0.0000)
  14 Li     6.468148    3.234074   11.617037    ( 0.0000,  0.0000,  0.0000)
  15 Li     0.000000    6.468148   11.617037    ( 0.0000,  0.0000,  0.0000)
  16 Li     3.234074    6.468148   11.617037    ( 0.0000,  0.0000,  0.0000)
  17 Li     6.468148    6.468148   11.617037    ( 0.0000,  0.0000,  0.0000)
  18 Li     1.617030    1.617056   13.470395    ( 0.0000,  0.0000,  0.0000)
  19 Li     4.851122    1.617050   13.471972    ( 0.0000,  0.0000,  0.0000)
  20 Li     8.085191    1.616958   13.470492    ( 0.0000,  0.0000,  0.0000)
  21 Li     1.617021    4.850644   13.472021    ( 0.0000,  0.0000,  0.0000)
  22 Li     4.851053    4.850961   13.471590    ( 0.0000,  0.0000,  0.0000)
  23 Li     8.085265    4.851010   13.471456    ( 0.0000,  0.0000,  0.0000)
  24 Li     1.616954    8.085686   13.472232    ( 0.0000,  0.0000,  0.0000)
  25 Li     4.851004    8.085303   13.471594    ( 0.0000,  0.0000,  0.0000)
  26 Li     8.085353    8.085347   13.471647    ( 0.0000,  0.0000,  0.0000)
  27 Li    -0.003507   -0.001257   15.440275    ( 0.0000,  0.0000,  0.0000)
  28 Li     3.236528   -0.002294   15.439553    ( 0.0000,  0.0000,  0.0000)
  29 Li     6.467647   -0.000335   15.444726    ( 0.0000,  0.0000,  0.0000)
  30 Li    -0.001235    3.234006   15.447722    ( 0.0000,  0.0000,  0.0000)
  31 Li     3.236517    3.237006   15.439057    ( 0.0000,  0.0000,  0.0000)
  32 Li     6.467570    3.234366   15.444484    ( 0.0000,  0.0000,  0.0000)
  33 Li     0.000322    6.468130   15.444739    ( 0.0000,  0.0000,  0.0000)
  34 Li     3.233788    6.468209   15.445058    ( 0.0000,  0.0000,  0.0000)
  35 Li     6.468125    6.468196   15.445186    ( 0.0000,  0.0000,  0.0000)
  36 O      0.000417    1.619436   18.442078    ( 0.0000,  0.0000,  0.0000)
  37 C      1.184214    0.805063   18.457244    ( 0.0000,  0.0000,  0.0000)
  38 C      2.465362    1.616719   18.442839    ( 0.0000,  0.0000,  0.0000)
  39 H      1.172804    0.116334   19.309618    ( 0.0000,  0.0000,  0.0000)
  40 H      1.110384    0.187127   17.548326    ( 0.0000,  0.0000,  0.0000)
  41 H      3.343739    0.965684   18.419266    ( 0.0000,  0.0000,  0.0000)
  42 H      2.499700    2.268260   17.560028    ( 0.0000,  0.0000,  0.0000)
  43 H      2.537479    2.249395   19.329502    ( 0.0000,  0.0000,  0.0000)
  44 H      0.037094    2.200295   19.213499    ( 0.0000,  0.0000,  0.0000)

Unit cell:
           periodic     x           y           z      points  spacing
  1. axis:    yes    9.702222    0.000000    0.000000    60     0.1617
  2. axis:    yes    0.000000    9.702222    0.000000    60     0.1617
  3. axis:    no     0.000000    0.000000   24.851111   156     0.1593

  Lengths:   9.702222   9.702222  24.851111
  Angles:   90.000000  90.000000  90.000000

Effective grid spacing dv^(1/3) = 0.1609

     iter     time        total  log10-change:
                         energy  eigst   dens
iter:   1 02:18:41  -272.429849  -2.39
iter:   2 02:19:05  -272.428449  -2.98  -2.36
iter:   3 02:19:30  -272.428229c -3.61  -2.68
iter:   4 02:19:54  -272.427871c -3.51  -2.81
Writing to output.gpw (mode='')

iter:   5 02:20:20  -272.427820c -3.90  -3.06
iter:   6 02:20:44  -272.427760c -3.73  -3.19
iter:   7 02:21:08  -272.427770c -3.57  -3.37
iter:   8 02:21:33  -272.427751c -4.43  -3.46
iter:   9 02:22:00  -272.427753c -4.75  -3.64
Writing to output.gpw (mode='')

iter:  10 02:22:24  -272.427764c -4.60  -3.65
iter:  11 02:22:48  -272.427763c -5.09  -3.86
iter:  12 02:23:13  -272.427764c -5.61  -3.93
iter:  13 02:23:37  -272.427760c -5.69  -4.00c
iter:  14 02:24:01  -272.427759c -5.76  -4.15c
Writing to output.gpw (mode='')

iter:  15 02:24:26  -272.427757c -6.16  -4.29c
iter:  16 02:24:50  -272.427758c -6.19  -4.35c
iter:  17 02:25:14  -272.427758c -6.48  -4.45c
iter:  18 02:25:38  -272.427758c -6.67  -4.52c
iter:  19 02:26:03  -272.427758c -6.93  -4.58c
Writing to output.gpw (mode='')

iter:  20 02:26:28  -272.427757c -6.93  -4.68c
iter:  21 02:26:52  -272.427757c -7.07  -4.86c
iter:  22 02:27:17  -272.427757c -7.36  -4.98c
iter:  23 02:27:41  -272.427757c -7.48c -5.03c

Converged after 23 iterations.

Dipole moment: (-10.046370, -9.786583, 0.347388) |e|*Ang

Energy contributions relative to reference atoms: (reference = -11471.411034)

Kinetic:       +127.516676
Potential:     -119.416167
External:        +0.000000
XC:            -280.697999
Entropy (-ST):   -0.152038
Local:           +0.245751
--------------------------
Free energy:   -272.503776
Extrapolated:  -272.427757

Dipole-layer corrected work functions: 3.390687, 2.722889 eV

Showing only first 2 kpts
 Kpt  Band  Eigenvalues  Occupancy
  0    26     -3.30925    1.98725
  0    27     -3.22717    1.93589
  0    28     -2.88999    0.06871
  0    29     -2.80329    0.01249

  1    26     -3.07415    1.17189
  1    27     -3.05306    0.96269
  1    28     -3.01694    0.62138
  1    29     -3.00821    0.54912


Fermi level: -3.05679

No gap
Writing to output.gpw (mode='')


Forces in eV/Ang:
  0 Li    0.00233   -0.00025   -0.27058
  1 Li    0.00238   -0.00028   -0.27212
  2 Li   -0.00486    0.00020   -0.27252
  3 Li   -0.00105    0.00299   -0.27140
  4 Li   -0.00047   -0.00237   -0.27406
  5 Li    0.00132    0.00052   -0.27413
  6 Li   -0.00041   -0.00301   -0.27136
  7 Li   -0.00072    0.00294   -0.27388
  8 Li    0.00138   -0.00036   -0.27377
  9 Li   -0.00220   -0.00206    0.26379
 10 Li    0.00353    0.00024    0.25915
 11 Li   -0.00153   -0.00018    0.25601
 12 Li   -0.00335    0.00250    0.26359
 13 Li    0.00416   -0.00001    0.26099
 14 Li   -0.00035   -0.00084    0.25602
 15 Li    0.00486    0.00015    0.25575
 16 Li   -0.00496    0.00035    0.26152
 17 Li   -0.00000    0.00068    0.26907
 18 Li   -0.00081    0.00097    0.01145
 19 Li    0.00141    0.00018    0.04152
 20 Li   -0.00057   -0.00054    0.01373
 21 Li   -0.00164   -0.00889    0.04408
 22 Li    0.00001   -0.00150    0.03444
 23 Li    0.00188   -0.00222    0.03410
 24 Li   -0.00198    0.00887    0.04692
 25 Li   -0.00106    0.00105    0.03482
 26 Li    0.00230    0.00211    0.03594
 27 Li   -0.06859   -0.02510   -0.10989
 28 Li    0.04752   -0.04506   -0.12731
 29 Li   -0.01031   -0.00665   -0.02391
 30 Li   -0.02442   -0.00249    0.03922
 31 Li    0.04838    0.05766   -0.13615
 32 Li   -0.01140    0.00570   -0.02895
 33 Li    0.00621   -0.00061   -0.02354
 34 Li   -0.00534    0.00125   -0.01709
 35 Li   -0.00052    0.00106   -0.01450
 36 O     0.04594    0.06438   -0.02492
 37 C    -0.05181   -0.10653   -0.11608
 38 C     0.04625    0.08490   -0.04210
 39 H    -0.04111   -0.01749    0.05760
 40 H     0.08596    0.04189    0.15576
 41 H    -0.00172   -0.01843    0.00603
 42 H    -0.03912   -0.08070    0.12237
 43 H     0.03035    0.04118    0.07908
 44 H    -0.06634    0.01007   -0.02874

System changes: positions 

Initializing position-dependent things.

Density initialized from wave functions
       .-----------------------.  
      /|                       |  
     / |                       |  
    /  |                       |  
   /   |                       |  
  /    |                       |  
 *     |                       |  
 |     |                       |  
 |     |                       |  
 |     |                       |  
 |     |                       |  
 |     | H                     |  
 |H    |       Li      Li      Li 
 |O H  |C H                    |  
 |   Li| H   Li      Li        |  
 |  H  |  Li      Li      Li   |  
 |     |   Li      Li      Li  |  
 |     |Li      Li      Li     |  
 |     |                       |  
 |   LLi     LLi     LLi       |  
 |     |  Li      Li      Li   |  
 | Li  |   Li      Li          |  
 |     |Li      Li      Li     |  
 Li    | Li      Li            |  
 |    Li      Li      Li       |  
 |     |                       |  
 |     |                       |  
 |     |                       |  
 |     |                       |  
 |     |                       |  
 |     |                       |  
 |     .-----------------------.  
 |    /                       /   
 |   /                       /    
 |  /                       /     
 | /                       /      
 |/                       /       
 *-----------------------*        

Positions:
   0 Li     1.617037    1.617037   10.000000    ( 0.0000,  0.0000,  0.0000)
   1 Li     4.851111    1.617037   10.000000    ( 0.0000,  0.0000,  0.0000)
   2 Li     8.085185    1.617037   10.000000    ( 0.0000,  0.0000,  0.0000)
   3 Li     1.617037    4.851111   10.000000    ( 0.0000,  0.0000,  0.0000)
   4 Li     4.851111    4.851111   10.000000    ( 0.0000,  0.0000,  0.0000)
   5 Li     8.085185    4.851111   10.000000    ( 0.0000,  0.0000,  0.0000)
   6 Li     1.617037    8.085185   10.000000    ( 0.0000,  0.0000,  0.0000)
   7 Li     4.851111    8.085185   10.000000    ( 0.0000,  0.0000,  0.0000)
   8 Li     8.085185    8.085185   10.000000    ( 0.0000,  0.0000,  0.0000)
   9 Li     0.000000    0.000000   11.617037    ( 0.0000,  0.0000,  0.0000)
  10 Li     3.234074    0.000000   11.617037    ( 0.0000,  0.0000,  0.0000)
  11 Li     6.468148    0.000000   11.617037    ( 0.0000,  0.0000,  0.0000)
  12 Li     0.000000    3.234074   11.617037    ( 0.0000,  0.0000,  0.0000)
  13 Li     3.234074    3.234074   11.617037    ( 0.0000,  0.0000,  0.0000)
  14 Li     6.468148    3.234074   11.617037    ( 0.0000,  0.0000,  0.0000)
  15 Li     0.000000    6.468148   11.617037    ( 0.0000,  0.0000,  0.0000)
  16 Li     3.234074    6.468148   11.617037    ( 0.0000,  0.0000,  0.0000)
  17 Li     6.468148    6.468148   11.617037    ( 0.0000,  0.0000,  0.0000)
  18 Li     1.616975    1.617138   13.472281    ( 0.0000,  0.0000,  0.0000)
  19 Li     4.851210    1.617082   13.478449    ( 0.0000,  0.0000,  0.0000)
  20 Li     8.085179    1.616770   13.472680    ( 0.0000,  0.0000,  0.0000)
  21 Li     1.616909    4.849283   13.478716    ( 0.0000,  0.0000,  0.0000)
  22 Li     4.850936    4.850588   13.476963    ( 0.0000,  0.0000,  0.0000)
  23 Li     8.085518    4.850703   13.476543    ( 0.0000,  0.0000,  0.0000)
  24 Li     1.616693    8.087116   13.479491    ( 0.0000,  0.0000,  0.0000)
  25 Li     4.850739    8.085593   13.476994    ( 0.0000,  0.0000,  0.0000)
  26 Li     8.085803    8.085774   13.477209    ( 0.0000,  0.0000,  0.0000)
  27 Li    -0.013807   -0.004973   15.423678    ( 0.0000,  0.0000,  0.0000)
  28 Li     3.243713   -0.009039   15.420684    ( 0.0000,  0.0000,  0.0000)
  29 Li     6.466152   -0.001324   15.441154    ( 0.0000,  0.0000,  0.0000)
  30 Li    -0.004876    3.233754   15.453162    ( 0.0000,  0.0000,  0.0000)
  31 Li     3.243714    3.245626   15.418774    ( 0.0000,  0.0000,  0.0000)
  32 Li     6.465872    3.235217   15.440191    ( 0.0000,  0.0000,  0.0000)
  33 Li     0.001265    6.468065   15.441212    ( 0.0000,  0.0000,  0.0000)
  34 Li     3.232956    6.468395   15.442481    ( 0.0000,  0.0000,  0.0000)
  35 Li     6.468060    6.468348   15.442986    ( 0.0000,  0.0000,  0.0000)
  36 O      0.003390    1.627211   18.432981    ( 0.0000,  0.0000,  0.0000)
  37 C      1.185504    0.809919   18.466221    ( 0.0000,  0.0000,  0.0000)
  38 C      2.464943    1.614131   18.455406    ( 0.0000,  0.0000,  0.0000)
  39 H      1.168904    0.114706   19.310685    ( 0.0000,  0.0000,  0.0000)
  40 H      1.121184    0.182068   17.557262    ( 0.0000,  0.0000,  0.0000)
  41 H      3.344036    0.964303   18.417511    ( 0.0000,  0.0000,  0.0000)
  42 H      2.494575    2.263217   17.567976    ( 0.0000,  0.0000,  0.0000)
  43 H      2.540241    2.253349   19.335675    ( 0.0000,  0.0000,  0.0000)
  44 H      0.029823    2.201387   19.210899    ( 0.0000,  0.0000,  0.0000)

Unit cell:
           periodic     x           y           z      points  spacing
  1. axis:    yes    9.702222    0.000000    0.000000    60     0.1617
  2. axis:    yes    0.000000    9.702222    0.000000    60     0.1617
  3. axis:    no     0.000000    0.000000   24.851111   156     0.1593

  Lengths:   9.702222   9.702222  24.851111
  Angles:   90.000000  90.000000  90.000000

Effective grid spacing dv^(1/3) = 0.1609

     iter     time        total  log10-change:
                         energy  eigst   dens
iter:   1 02:28:13  -272.473692  -1.25
iter:   2 02:28:37  -272.449548  -1.80  -1.74
iter:   3 02:29:01  -272.444873  -2.47  -2.10
iter:   4 02:29:26  -272.440196c -2.46  -2.25
Writing to output.gpw (mode='')

iter:   5 02:29:50  -272.440150c -3.08  -2.51
iter:   6 02:30:14  -272.439391c -2.80  -2.57
iter:   7 02:30:41  -272.439235c -2.35  -2.74
iter:   8 02:31:05  -272.439148c -3.34  -2.91
iter:   9 02:31:29  -272.439156c -3.43  -3.06
Writing to output.gpw (mode='')

iter:  10 02:31:54  -272.439252c -3.06  -3.07
iter:  11 02:32:18  -272.439161c -3.78  -3.12
iter:  12 02:32:42  -272.439164c -4.27  -3.31
iter:  13 02:33:06  -272.439168c -4.25  -3.53
iter:  14 02:33:31  -272.439159c -4.65  -3.54
Writing to output.gpw (mode='')

iter:  15 02:33:55  -272.439149c -4.84  -3.71
iter:  16 02:34:19  -272.439154c -4.75  -3.73
iter:  17 02:34:44  -272.439145c -5.35  -3.84
iter:  18 02:35:08  -272.439144c -5.43  -4.00
iter:  19 02:35:32  -272.439147c -5.73  -4.03c
Writing to output.gpw (mode='')

iter:  20 02:35:56  -272.439145c -5.76  -4.20c
iter:  21 02:36:21  -272.439144c -6.12  -4.36c
iter:  22 02:36:45  -272.439144c -6.10  -4.42c
iter:  23 02:37:09  -272.439144c -6.38  -4.57c
iter:  24 02:37:34  -272.439144c -6.62  -4.61c
Writing to output.gpw (mode='')

iter:  25 02:37:58  -272.439145c -6.57  -4.69c
iter:  26 02:38:22  -272.439145c -6.74  -4.77c
iter:  27 02:38:46  -272.439145c -6.92  -4.88c
iter:  28 02:39:11  -272.439146c -6.75  -5.03c
iter:  29 02:39:35  -272.439146c -7.23  -5.25c
Writing to output.gpw (mode='')

iter:  30 02:39:59  -272.439146c -7.08  -5.26c
iter:  31 02:40:24  -272.439146c -7.12  -5.33c
iter:  32 02:40:48  -272.439146c -7.19  -5.40c
iter:  33 02:41:12  -272.439146c -7.45c -5.40c

Converged after 33 iterations.

Dipole moment: (-9.952178, -9.597980, 0.344773) |e|*Ang

Energy contributions relative to reference atoms: (reference = -11471.411034)

Kinetic:       +127.702987
Potential:     -119.558788
External:        +0.000000
XC:            -280.752358
Entropy (-ST):   -0.151899
Local:           +0.244962
--------------------------
Free energy:   -272.515095
Extrapolated:  -272.439146

Dipole-layer corrected work functions: 3.390282, 2.727511 eV

Showing only first 2 kpts
 Kpt  Band  Eigenvalues  Occupancy
  0    26     -3.31131    1.98724
  0    27     -3.22973    1.93644
  0    28     -2.89017    0.06621
  0    29     -2.80534    0.01247

  1    26     -3.07509    1.16057
  1    27     -3.05359    0.94700
  1    28     -3.02029    0.63208
  1    29     -3.01220    0.56426


Fermi level: -3.05890

No gap
Writing to output.gpw (mode='')


Forces in eV/Ang:
  0 Li    0.00237   -0.00028   -0.27202
  1 Li    0.00251   -0.00040   -0.27326
  2 Li   -0.00504    0.00009   -0.27303
  3 Li   -0.00085    0.00304   -0.27206
  4 Li   -0.00065   -0.00226   -0.27496
  5 Li    0.00142    0.00035   -0.27410
  6 Li   -0.00020   -0.00304   -0.27258
  7 Li   -0.00093    0.00305   -0.27446
  8 Li    0.00130   -0.00015   -0.27447
  9 Li   -0.00217   -0.00346    0.26889
 10 Li    0.00438   -0.00045    0.26564
 11 Li   -0.00220   -0.00092    0.26094
 12 Li   -0.00335    0.00353    0.26712
 13 Li    0.00543    0.00063    0.26703
 14 Li   -0.00177    0.00006    0.26026
 15 Li    0.00514    0.00077    0.26131
 16 Li   -0.00593    0.00028    0.26823
 17 Li    0.00067    0.00045    0.27367
 18 Li   -0.00306    0.00284    0.00314
 19 Li    0.00562    0.00003    0.02128
 20 Li   -0.00306    0.00348    0.00554
 21 Li   -0.00612   -0.00562    0.02927
 22 Li    0.00449    0.00439    0.01772
 23 Li    0.00238   -0.00249    0.02588
 24 Li   -0.00276    0.00301    0.02718
 25 Li    0.00327   -0.00418    0.01889
 26 Li   -0.00224   -0.00265    0.02027
 27 Li   -0.05268   -0.02081   -0.08258
 28 Li    0.03518   -0.03402   -0.10309
 29 Li   -0.00902   -0.00521   -0.01786
 30 Li   -0.01954   -0.00593    0.04385
 31 Li    0.03803    0.04389   -0.10644
 32 Li   -0.00870    0.00433   -0.02273
 33 Li    0.00432   -0.00117   -0.01719
 34 Li   -0.00307    0.00124   -0.01169
 35 Li   -0.00078    0.00110   -0.00960
 36 O     0.09651    0.08300    0.07441
 37 C    -0.11465   -0.31659   -0.34401
 38 C     0.12965    0.21868   -0.21452
 39 H    -0.08704    0.00446    0.16046
 40 H     0.07057    0.15114    0.22812
 41 H    -0.01589   -0.01964    0.06602
 42 H    -0.02468   -0.08588    0.16908
 43 H     0.05106    0.03430    0.12414
 44 H    -0.08894   -0.00429   -0.06678

System changes: positions 

Initializing position-dependent things.

Density initialized from wave functions
       .-----------------------.  
      /|                       |  
     / |                       |  
    /  |                       |  
   /   |                       |  
  /    |                       |  
 *     |                       |  
 |     |                       |  
 |     |                       |  
 |     |                       |  
 |     |                       |  
 |     | H                     |  
 |H    |       Li      Li      Li 
 |O H  |C H                    |  
 |   Li| H   Li      Li        |  
 |  H  |  Li      Li      Li   |  
 |     |   Li      Li      Li  |  
 |     |Li      Li      Li     |  
 |     |                       |  
 |   LLi     LLi     LLi       |  
 |     |  Li      Li      Li   |  
 | Li  |   Li      Li          |  
 |     |Li      Li      Li     |  
 Li    | Li      Li            |  
 |    Li      Li      Li       |  
 |     |                       |  
 |     |                       |  
 |     |                       |  
 |     |                       |  
 |     |                       |  
 |     |                       |  
 |     .-----------------------.  
 |    /                       /   
 |   /                       /    
 |  /                       /     
 | /                       /      
 |/                       /       
 *-----------------------*        

Positions:
   0 Li     1.617037    1.617037   10.000000    ( 0.0000,  0.0000,  0.0000)
   1 Li     4.851111    1.617037   10.000000    ( 0.0000,  0.0000,  0.0000)
   2 Li     8.085185    1.617037   10.000000    ( 0.0000,  0.0000,  0.0000)
   3 Li     1.617037    4.851111   10.000000    ( 0.0000,  0.0000,  0.0000)
   4 Li     4.851111    4.851111   10.000000    ( 0.0000,  0.0000,  0.0000)
   5 Li     8.085185    4.851111   10.000000    ( 0.0000,  0.0000,  0.0000)
   6 Li     1.617037    8.085185   10.000000    ( 0.0000,  0.0000,  0.0000)
   7 Li     4.851111    8.085185   10.000000    ( 0.0000,  0.0000,  0.0000)
   8 Li     8.085185    8.085185   10.000000    ( 0.0000,  0.0000,  0.0000)
   9 Li     0.000000    0.000000   11.617037    ( 0.0000,  0.0000,  0.0000)
  10 Li     3.234074    0.000000   11.617037    ( 0.0000,  0.0000,  0.0000)
  11 Li     6.468148    0.000000   11.617037    ( 0.0000,  0.0000,  0.0000)
  12 Li     0.000000    3.234074   11.617037    ( 0.0000,  0.0000,  0.0000)
  13 Li     3.234074    3.234074   11.617037    ( 0.0000,  0.0000,  0.0000)
  14 Li     6.468148    3.234074   11.617037    ( 0.0000,  0.0000,  0.0000)
  15 Li     0.000000    6.468148   11.617037    ( 0.0000,  0.0000,  0.0000)
  16 Li     3.234074    6.468148   11.617037    ( 0.0000,  0.0000,  0.0000)
  17 Li     6.468148    6.468148   11.617037    ( 0.0000,  0.0000,  0.0000)
  18 Li     1.616844    1.617296   13.474666    ( 0.0000,  0.0000,  0.0000)
  19 Li     4.851435    1.617122   13.486841    ( 0.0000,  0.0000,  0.0000)
  20 Li     8.085101    1.616611   13.475482    ( 0.0000,  0.0000,  0.0000)
  21 Li     1.616644    4.847496   13.487542    ( 0.0000,  0.0000,  0.0000)
  22 Li     4.850886    4.850222   13.483925    ( 0.0000,  0.0000,  0.0000)
  23 Li     8.085877    4.850274   13.483323    ( 0.0000,  0.0000,  0.0000)
  24 Li     1.616314    8.088934   13.488972    ( 0.0000,  0.0000,  0.0000)
  25 Li     4.850482    8.085861   13.484013    ( 0.0000,  0.0000,  0.0000)
  26 Li     8.086307    8.086243   13.484458    ( 0.0000,  0.0000,  0.0000)
  27 Li    -0.027564   -0.009971   15.401551    ( 0.0000,  0.0000,  0.0000)
  28 Li     3.253280   -0.018030   15.395370    ( 0.0000,  0.0000,  0.0000)
  29 Li     6.464131   -0.002647   15.436400    ( 0.0000,  0.0000,  0.0000)
  30 Li    -0.009756    3.233323   15.460746    ( 0.0000,  0.0000,  0.0000)
  31 Li     3.253342    3.257123   15.391655    ( 0.0000,  0.0000,  0.0000)
  32 Li     6.463608    3.236353   15.434450    ( 0.0000,  0.0000,  0.0000)
  33 Li     0.002512    6.467963   15.436527    ( 0.0000,  0.0000,  0.0000)
  34 Li     3.231869    6.468651   15.439075    ( 0.0000,  0.0000,  0.0000)
  35 Li     6.467964    6.468557   15.440088    ( 0.0000,  0.0000,  0.0000)
  36 O      0.008554    1.638224   18.422664    ( 0.0000,  0.0000,  0.0000)
  37 C      1.186267    0.812533   18.474466    ( 0.0000,  0.0000,  0.0000)
  38 C      2.466070    1.612999   18.469475    ( 0.0000,  0.0000,  0.0000)
  39 H      1.162464    0.113137   19.314350    ( 0.0000,  0.0000,  0.0000)
  40 H      1.135476    0.177185   17.570409    ( 0.0000,  0.0000,  0.0000)
  41 H      3.344096    0.962478   18.416514    ( 0.0000,  0.0000,  0.0000)
  42 H      2.487964    2.256672   17.579390    ( 0.0000,  0.0000,  0.0000)
  43 H      2.544467    2.258444   19.344968    ( 0.0000,  0.0000,  0.0000)
  44 H      0.019410    2.202512   19.206476    ( 0.0000,  0.0000,  0.0000)

Unit cell:
           periodic     x           y           z      points  spacing
  1. axis:    yes    9.702222    0.000000    0.000000    60     0.1617
  2. axis:    yes    0.000000    9.702222    0.000000    60     0.1617
  3. axis:    no     0.000000    0.000000   24.851111   156     0.1593

  Lengths:   9.702222   9.702222  24.851111
  Angles:   90.000000  90.000000  90.000000

Effective grid spacing dv^(1/3) = 0.1609

     iter     time        total  log10-change:
                         energy  eigst   dens
iter:   1 02:41:44  -272.517378  -1.03
iter:   2 02:42:10  -272.466829  -1.58  -1.60
iter:   3 02:42:43  -272.458054  -2.28  -1.98
iter:   4 02:43:14  -272.451548c -2.33  -2.17
Writing to output.gpw (mode='')

iter:   5 02:43:40  -272.451517c -2.90  -2.41
iter:   6 02:44:04  -272.450520c -2.71  -2.47
iter:   7 02:44:30  -272.450104c -2.23  -2.61
iter:   8 02:44:59  -272.450053c -3.12  -2.87
iter:   9 02:45:23  -272.450081c -3.13  -2.96
Writing to output.gpw (mode='')

iter:  10 02:45:48  -272.450170c -2.89  -2.97
iter:  11 02:46:19  -272.450052c -3.76  -3.08
iter:  12 02:46:51  -272.450062c -4.14  -3.25
iter:  13 02:47:22  -272.450070c -4.09  -3.46
iter:  14 02:47:51  -272.450066c -4.31  -3.47
Writing to output.gpw (mode='')

iter:  15 02:48:22  -272.450050c -4.74  -3.59
iter:  16 02:48:52  -272.450049c -4.86  -3.66
iter:  17 02:49:17  -272.450047c -5.13  -3.77
iter:  18 02:49:41  -272.450040c -5.28  -3.79
iter:  19 02:50:05  -272.450036c -5.34  -4.14c
Writing to output.gpw (mode='')

iter:  20 02:50:29  -272.450037c -5.81  -4.24c
iter:  21 02:50:53  -272.450039c -5.79  -4.30c
iter:  22 02:51:18  -272.450038c -6.02  -4.38c
iter:  23 02:51:48  -272.450039c -6.22  -4.45c
iter:  24 02:52:16  -272.450042c -6.07  -4.50c
Writing to output.gpw (mode='')

iter:  25 02:52:46  -272.450042c -6.28  -4.80c
iter:  26 02:53:14  -272.450041c -6.45  -4.90c
iter:  27 02:53:44  -272.450041c -6.45  -4.92c
iter:  28 02:54:14  -272.450041c -6.68  -5.01c
iter:  29 02:54:43  -272.450042c -6.91  -5.18c
Writing to output.gpw (mode='')

iter:  30 02:55:11  -272.450042c -6.88  -5.24c
iter:  31 02:55:40  -272.450042c -6.79  -5.26c
iter:  32 02:56:05  -272.450042c -6.84  -5.35c
iter:  33 02:56:34  -272.450041c -7.03  -5.48c
iter:  34 02:57:03  -272.450041c -7.07  -5.52c
Writing to output.gpw (mode='')

iter:  35 02:57:29  -272.450041c -7.08  -5.59c
iter:  36 02:57:54  -272.450041c -7.33  -5.67c
iter:  37 02:58:23  -272.450041c -7.37  -5.84c
iter:  38 02:58:47  -272.450041c -7.29  -5.93c
iter:  39 02:59:15  -272.450041c -7.61c -5.96c

Converged after 39 iterations.

Dipole moment: (-9.892916, -9.363040, 0.340669) |e|*Ang

Energy contributions relative to reference atoms: (reference = -11471.411034)

Kinetic:       +128.073670
Potential:     -119.825374
External:        +0.000000
XC:            -280.866771
Entropy (-ST):   -0.151656
Local:           +0.244261
--------------------------
Free energy:   -272.525870
Extrapolated:  -272.450041

Dipole-layer corrected work functions: 3.389802, 2.734919 eV

Showing only first 2 kpts
 Kpt  Band  Eigenvalues  Occupancy
  0    26     -3.31479    1.98724
  0    27     -3.23379    1.93717
  0    28     -2.89113    0.06307
  0    29     -2.80887    0.01249

  1    26     -3.07718    1.14709
  1    27     -3.05514    0.92792
  1    28     -3.02529    0.64541
  1    29     -3.01783    0.58199


Fermi level: -3.06236

No gap
Writing to output.gpw (mode='')


Forces in eV/Ang:
  0 Li    0.00240   -0.00032   -0.27387
  1 Li    0.00267   -0.00054   -0.27475
  2 Li   -0.00527   -0.00006   -0.27364
  3 Li   -0.00054    0.00311   -0.27291
  4 Li   -0.00093   -0.00212   -0.27611
  5 Li    0.00156    0.00008   -0.27400
  6 Li    0.00010   -0.00306   -0.27416
  7 Li   -0.00126    0.00322   -0.27514
  8 Li    0.00122    0.00019   -0.27535
  9 Li   -0.00221   -0.00533    0.27544
 10 Li    0.00551   -0.00136    0.27409
 11 Li   -0.00300   -0.00194    0.26736
 12 Li   -0.00343    0.00493    0.27157
 13 Li    0.00711    0.00152    0.27490
 14 Li   -0.00360    0.00135    0.26572
 15 Li    0.00542    0.00158    0.26852
 16 Li   -0.00720    0.00010    0.27700
 17 Li    0.00161    0.00009    0.27955
 18 Li   -0.00608    0.00520   -0.00696
 19 Li    0.01154   -0.00012   -0.00559
 20 Li   -0.00645    0.00900   -0.00524
 21 Li   -0.01241   -0.00122    0.00970
 22 Li    0.01100    0.01274   -0.00479
 23 Li    0.00305   -0.00286    0.01508
 24 Li   -0.00398   -0.00486    0.00152
 25 Li    0.00949   -0.01162   -0.00257
 26 Li   -0.00862   -0.00942   -0.00063
 27 Li   -0.03277   -0.01505   -0.04929
 28 Li    0.01934   -0.01897   -0.07061
 29 Li   -0.00714   -0.00333   -0.00985
 30 Li   -0.01337   -0.01057    0.04973
 31 Li    0.02408    0.02536   -0.06738
 32 Li   -0.00506    0.00252   -0.01444
 33 Li    0.00189   -0.00175   -0.00872
 34 Li   -0.00019    0.00136   -0.00449
 35 Li   -0.00110    0.00116   -0.00305
 36 O     0.11864   -0.03168    0.03946
 37 C    -0.09638   -0.34776   -0.35854
 38 C     0.14138    0.23534   -0.28794
 39 H    -0.13029    0.04394    0.22137
 40 H     0.01782    0.19637    0.18415
 41 H    -0.01549   -0.01011    0.12568
 42 H     0.00538   -0.02958    0.14085
 43 H     0.06233   -0.00390    0.12757
 44 H    -0.08146    0.02952   -0.01549

System changes: positions 

Initializing position-dependent things.

Density initialized from wave functions
       .-----------------------.  
      /|                       |  
     / |                       |  
    /  |                       |  
   /   |                       |  
  /    |                       |  
 *     |                       |  
 |     |                       |  
 |     |                       |  
 |     |                       |  
 |     |                       |  
 |     | H                     |  
 |H    |       Li      Li      Li 
 |O H  |C H                    |  
 |   Li| H   Li      Li        |  
 |  H  |  Li      Li      Li   |  
 |     |   Li      Li      Li  |  
 |     |Li      Li      Li     |  
 |     |                       |  
 |   LLi     LLi     LLi       |  
 |     |  Li      Li      Li   |  
 | Li  |   Li      Li          |  
 |     |Li      Li      Li     |  
 Li    | Li      Li            |  
 |    Li      Li      Li       |  
 |     |                       |  
 |     |                       |  
 |     |                       |  
 |     |                       |  
 |     |                       |  
 |     |                       |  
 |     .-----------------------.  
 |    /                       /   
 |   /                       /    
 |  /                       /     
 | /                       /      
 |/                       /       
 *-----------------------*        

Positions:
   0 Li     1.617037    1.617037   10.000000    ( 0.0000,  0.0000,  0.0000)
   1 Li     4.851111    1.617037   10.000000    ( 0.0000,  0.0000,  0.0000)
   2 Li     8.085185    1.617037   10.000000    ( 0.0000,  0.0000,  0.0000)
   3 Li     1.617037    4.851111   10.000000    ( 0.0000,  0.0000,  0.0000)
   4 Li     4.851111    4.851111   10.000000    ( 0.0000,  0.0000,  0.0000)
   5 Li     8.085185    4.851111   10.000000    ( 0.0000,  0.0000,  0.0000)
   6 Li     1.617037    8.085185   10.000000    ( 0.0000,  0.0000,  0.0000)
   7 Li     4.851111    8.085185   10.000000    ( 0.0000,  0.0000,  0.0000)
   8 Li     8.085185    8.085185   10.000000    ( 0.0000,  0.0000,  0.0000)
   9 Li     0.000000    0.000000   11.617037    ( 0.0000,  0.0000,  0.0000)
  10 Li     3.234074    0.000000   11.617037    ( 0.0000,  0.0000,  0.0000)
  11 Li     6.468148    0.000000   11.617037    ( 0.0000,  0.0000,  0.0000)
  12 Li     0.000000    3.234074   11.617037    ( 0.0000,  0.0000,  0.0000)
  13 Li     3.234074    3.234074   11.617037    ( 0.0000,  0.0000,  0.0000)
  14 Li     6.468148    3.234074   11.617037    ( 0.0000,  0.0000,  0.0000)
  15 Li     0.000000    6.468148   11.617037    ( 0.0000,  0.0000,  0.0000)
  16 Li     3.234074    6.468148   11.617037    ( 0.0000,  0.0000,  0.0000)
  17 Li     6.468148    6.468148   11.617037    ( 0.0000,  0.0000,  0.0000)
  18 Li     1.616640    1.617502   13.476289    ( 0.0000,  0.0000,  0.0000)
  19 Li     4.851805    1.617150   13.492857    ( 0.0000,  0.0000,  0.0000)
  20 Li     8.084930    1.616656   13.477433    ( 0.0000,  0.0000,  0.0000)
  21 Li     1.616230    4.846172   13.494145    ( 0.0000,  0.0000,  0.0000)
  22 Li     4.851048    4.850183   13.488912    ( 0.0000,  0.0000,  0.0000)
  23 Li     8.086193    4.849911   13.488529    ( 0.0000,  0.0000,  0.0000)
  24 Li     1.615966    8.090173   13.495911    ( 0.0000,  0.0000,  0.0000)
  25 Li     4.850465    8.085847   13.489079    ( 0.0000,  0.0000,  0.0000)
  26 Li     8.086520    8.086415   13.489729    ( 0.0000,  0.0000,  0.0000)
  27 Li    -0.038182   -0.013880   15.384522    ( 0.0000,  0.0000,  0.0000)
  28 Li     3.260603   -0.024915   15.375678    ( 0.0000,  0.0000,  0.0000)
  29 Li     6.462536   -0.003669   15.432763    ( 0.0000,  0.0000,  0.0000)
  30 Li    -0.013552    3.232822   15.467144    ( 0.0000,  0.0000,  0.0000)
  31 Li     3.260782    3.265948   15.370699    ( 0.0000,  0.0000,  0.0000)
  32 Li     6.461870    3.237225   15.430013    ( 0.0000,  0.0000,  0.0000)
  33 Li     0.003456    6.467859   15.432961    ( 0.0000,  0.0000,  0.0000)
  34 Li     3.231071    6.468863   15.436517    ( 0.0000,  0.0000,  0.0000)
  35 Li     6.467875    6.468730   15.437923    ( 0.0000,  0.0000,  0.0000)
  36 O      0.013868    1.644876   18.414644    ( 0.0000,  0.0000,  0.0000)
  37 C      1.186613    0.811535   18.478237    ( 0.0000,  0.0000,  0.0000)
  38 C      2.468196    1.614004   18.477359    ( 0.0000,  0.0000,  0.0000)
  39 H      1.155665    0.113015   19.319946    ( 0.0000,  0.0000,  0.0000)
  40 H      1.145783    0.175488   17.580996    ( 0.0000,  0.0000,  0.0000)
  41 H      3.344005    0.961183   18.417765    ( 0.0000,  0.0000,  0.0000)
  42 H      2.483416    2.252561   17.588610    ( 0.0000,  0.0000,  0.0000)
  43 H      2.548425    2.261640   19.353154    ( 0.0000,  0.0000,  0.0000)
  44 H      0.010792    2.203987   19.203519    ( 0.0000,  0.0000,  0.0000)

Unit cell:
           periodic     x           y           z      points  spacing
  1. axis:    yes    9.702222    0.000000    0.000000    60     0.1617
  2. axis:    yes    0.000000    9.702222    0.000000    60     0.1617
  3. axis:    no     0.000000    0.000000   24.851111   156     0.1593

  Lengths:   9.702222   9.702222  24.851111
  Angles:   90.000000  90.000000  90.000000

Effective grid spacing dv^(1/3) = 0.1609

     iter     time        total  log10-change:
                         energy  eigst   dens
iter:   1 03:00:09  -272.492200  -1.29
iter:   2 03:00:36  -272.465986  -1.83  -1.74
iter:   3 03:01:02  -272.461565  -2.52  -2.11
iter:   4 03:01:29  -272.457922c -2.53  -2.30
Writing to output.gpw (mode='')

iter:   5 03:01:58  -272.457835c -3.09  -2.55
iter:   6 03:02:28  -272.457305c -2.88  -2.62
iter:   7 03:02:53  -272.457209c -2.49  -2.78
iter:   8 03:03:19  -272.457158c -3.39  -2.99
iter:   9 03:03:46  -272.457178c -3.43  -3.08
Writing to output.gpw (mode='')

iter:  10 03:04:12  -272.457256c -3.11  -3.09
iter:  11 03:04:40  -272.457158c -3.90  -3.17
iter:  12 03:05:06  -272.457169c -4.40  -3.35
iter:  13 03:05:33  -272.457180c -4.20  -3.59
iter:  14 03:05:58  -272.457173c -4.59  -3.57
Writing to output.gpw (mode='')

iter:  15 03:06:37  -272.457161c -4.99  -3.72
iter:  16 03:07:03  -272.457159c -5.08  -3.81
iter:  17 03:07:29  -272.457158c -5.38  -3.90
iter:  18 03:07:55  -272.457148c -5.31  -3.93
iter:  19 03:08:21  -272.457148c -5.88  -4.22c
Writing to output.gpw (mode='')

iter:  20 03:08:52  -272.457150c -6.00  -4.35c
iter:  21 03:09:22  -272.457150c -6.12  -4.44c
iter:  22 03:09:50  -272.457151c -6.18  -4.49c
iter:  23 03:10:18  -272.457152c -6.25  -4.55c
iter:  24 03:10:45  -272.457152c -6.54  -4.77c
Writing to output.gpw (mode='')

iter:  25 03:11:23  -272.457152c -6.59  -4.87c
iter:  26 03:12:11  -272.457152c -6.63  -5.11c
iter:  27 03:12:43  -272.457153c -6.86  -5.19c
iter:  28 03:13:43  -272.457153c -6.86  -5.22c
iter:  29 03:14:20  -272.457153c -6.92  -5.28c
Writing to output.gpw (mode='')

iter:  30 03:15:16  -272.457153c -7.10  -5.45c
iter:  31 03:17:18  -272.457153c -7.09  -5.56c
iter:  32 03:17:52  -272.457153c -7.14  -5.60c
iter:  33 03:18:57  -272.457153c -7.27  -5.65c
iter:  34 03:19:55  -272.457153c -7.35  -5.83c
Writing to output.gpw (mode='')

iter:  35 03:20:25  -272.457153c -7.33  -5.91c
iter:  36 03:21:35  -272.457153c -7.47c -5.95c

Converged after 36 iterations.

Dipole moment: (-9.927740, -9.199178, 0.337468) |e|*Ang

Energy contributions relative to reference atoms: (reference = -11471.411034)

Kinetic:       +128.323614
Potential:     -119.999624
External:        +0.000000
XC:            -280.949453
Entropy (-ST):   -0.151429
Local:           +0.244025
--------------------------
Free energy:   -272.532867
Extrapolated:  -272.457153

Dipole-layer corrected work functions: 3.389562, 2.740833 eV

Showing only first 2 kpts
 Kpt  Band  Eigenvalues  Occupancy
  0    26     -3.31777    1.98728
  0    27     -3.23707    1.93771
  0    28     -2.89207    0.06080
  0    29     -2.81194    0.01255

  1    26     -3.07908    1.13794
  1    27     -3.05669    0.91514
  1    28     -3.02920    0.65481
  1    29     -3.02198    0.59287


Fermi level: -3.06520

No gap
Writing to output.gpw (mode='')


Forces in eV/Ang:
  0 Li    0.00241   -0.00035   -0.27528
  1 Li    0.00282   -0.00063   -0.27593
  2 Li   -0.00545   -0.00019   -0.27410
  3 Li   -0.00030    0.00317   -0.27358
  4 Li   -0.00115   -0.00199   -0.27704
  5 Li    0.00168   -0.00014   -0.27395
  6 Li    0.00032   -0.00308   -0.27540
  7 Li   -0.00150    0.00332   -0.27564
  8 Li    0.00114    0.00046   -0.27606
  9 Li   -0.00236   -0.00676    0.28024
 10 Li    0.00639   -0.00207    0.28040
 11 Li   -0.00348   -0.00278    0.27205
 12 Li   -0.00359    0.00606    0.27467
 13 Li    0.00839    0.00229    0.28078
 14 Li   -0.00493    0.00248    0.26961
 15 Li    0.00551    0.00215    0.27377
 16 Li   -0.00818   -0.00013    0.28344
 17 Li    0.00246   -0.00029    0.28362
 18 Li   -0.00841    0.00690   -0.01389
 19 Li    0.01620   -0.00020   -0.02599
 20 Li   -0.00899    0.01328   -0.01320
 21 Li   -0.01737    0.00214   -0.00506
 22 Li    0.01627    0.01939   -0.02205
 23 Li    0.00360   -0.00317    0.00694
 24 Li   -0.00501   -0.01089   -0.01773
 25 Li    0.01449   -0.01756   -0.01906
 26 Li   -0.01370   -0.01486   -0.01658
 27 Li   -0.01890   -0.01085   -0.02642
 28 Li    0.00798   -0.00765   -0.04599
 29 Li   -0.00555   -0.00190   -0.00383
 30 Li   -0.00884   -0.01422    0.05378
 31 Li    0.01395    0.01184   -0.03874
 32 Li   -0.00225    0.00119   -0.00807
 33 Li    0.00002   -0.00213   -0.00224
 34 Li    0.00193    0.00145    0.00091
 35 Li   -0.00130    0.00119    0.00199
 36 O     0.07055   -0.09663    0.06137
 37 C    -0.01980   -0.20967   -0.18212
 38 C     0.07687    0.13209   -0.20138
 39 H    -0.14146    0.07941    0.21064
 40 H    -0.02513    0.13526    0.05112
 41 H     0.00126    0.00439    0.14624
 42 H     0.02902    0.05811    0.04876
 43 H     0.05683   -0.05502    0.08225
 44 H    -0.05129   -0.01326   -0.05642

System changes: positions 

Initializing position-dependent things.

Density initialized from wave functions
       .-----------------------.  
      /|                       |  
     / |                       |  
    /  |                       |  
   /   |                       |  
  /    |                       |  
 *     |                       |  
 |     |                       |  
 |     |                       |  
 |     |                       |  
 |     |                       |  
 |     | H                     |  
 |H    |       Li      Li      Li 
 |O H  |C H                    |  
 |   Li| H   Li      Li        |  
 |  H  |  Li      Li      Li   |  
 |     |   Li      Li      Li  |  
 |     |Li      Li      Li     |  
 |     |                       |  
 |   LLi     LLi     LLi       |  
 |     |  Li      Li      Li   |  
 | Li  |   Li      Li          |  
 |     |Li      Li      Li     |  
 Li    | Li      Li            |  
 |    Li      Li      Li       |  
 |     |                       |  
 |     |                       |  
 |     |                       |  
 |     |                       |  
 |     |                       |  
 |     |                       |  
 |     .-----------------------.  
 |    /                       /   
 |   /                       /    
 |  /                       /     
 | /                       /      
 |/                       /       
 *-----------------------*        

Positions:
   0 Li     1.617037    1.617037   10.000000    ( 0.0000,  0.0000,  0.0000)
   1 Li     4.851111    1.617037   10.000000    ( 0.0000,  0.0000,  0.0000)
   2 Li     8.085185    1.617037   10.000000    ( 0.0000,  0.0000,  0.0000)
   3 Li     1.617037    4.851111   10.000000    ( 0.0000,  0.0000,  0.0000)
   4 Li     4.851111    4.851111   10.000000    ( 0.0000,  0.0000,  0.0000)
   5 Li     8.085185    4.851111   10.000000    ( 0.0000,  0.0000,  0.0000)
   6 Li     1.617037    8.085185   10.000000    ( 0.0000,  0.0000,  0.0000)
   7 Li     4.851111    8.085185   10.000000    ( 0.0000,  0.0000,  0.0000)
   8 Li     8.085185    8.085185   10.000000    ( 0.0000,  0.0000,  0.0000)
   9 Li     0.000000    0.000000   11.617037    ( 0.0000,  0.0000,  0.0000)
  10 Li     3.234074    0.000000   11.617037    ( 0.0000,  0.0000,  0.0000)
  11 Li     6.468148    0.000000   11.617037    ( 0.0000,  0.0000,  0.0000)
  12 Li     0.000000    3.234074   11.617037    ( 0.0000,  0.0000,  0.0000)
  13 Li     3.234074    3.234074   11.617037    ( 0.0000,  0.0000,  0.0000)
  14 Li     6.468148    3.234074   11.617037    ( 0.0000,  0.0000,  0.0000)
  15 Li     0.000000    6.468148   11.617037    ( 0.0000,  0.0000,  0.0000)
  16 Li     3.234074    6.468148   11.617037    ( 0.0000,  0.0000,  0.0000)
  17 Li     6.468148    6.468148   11.617037    ( 0.0000,  0.0000,  0.0000)
  18 Li     1.616371    1.617741   13.476801    ( 0.0000,  0.0000,  0.0000)
  19 Li     4.852313    1.617160   13.495251    ( 0.0000,  0.0000,  0.0000)
  20 Li     8.084665    1.616946   13.478114    ( 0.0000,  0.0000,  0.0000)
  21 Li     1.615677    4.845573   13.497248    ( 0.0000,  0.0000,  0.0000)
  22 Li     4.851457    4.850558   13.490886    ( 0.0000,  0.0000,  0.0000)
  23 Li     8.086418    4.849670   13.491197    ( 0.0000,  0.0000,  0.0000)
  24 Li     1.615696    8.090555   13.498925    ( 0.0000,  0.0000,  0.0000)
  25 Li     4.850751    8.085484   13.491152    ( 0.0000,  0.0000,  0.0000)
  26 Li     8.086346    8.086197   13.491952    ( 0.0000,  0.0000,  0.0000)
  27 Li    -0.043728   -0.015998   15.375699    ( 0.0000,  0.0000,  0.0000)
  28 Li     3.264327   -0.028412   15.365187    ( 0.0000,  0.0000,  0.0000)
  29 Li     6.461650   -0.004204   15.430921    ( 0.0000,  0.0000,  0.0000)
  30 Li    -0.015576    3.232292   15.471333    ( 0.0000,  0.0000,  0.0000)
  31 Li     3.264677    3.270474   15.359738    ( 0.0000,  0.0000,  0.0000)
  32 Li     6.460981    3.237672   15.427697    ( 0.0000,  0.0000,  0.0000)
  33 Li     0.003914    6.467767   15.431185    ( 0.0000,  0.0000,  0.0000)
  34 Li     3.230722    6.468996   15.435293    ( 0.0000,  0.0000,  0.0000)
  35 Li     6.467806    6.468839   15.436913    ( 0.0000,  0.0000,  0.0000)
  36 O      0.017502    1.646012   18.411754    ( 0.0000,  0.0000,  0.0000)
  37 C      1.187159    0.808515   18.478541    ( 0.0000,  0.0000,  0.0000)
  38 C      2.470135    1.615909   18.478652    ( 0.0000,  0.0000,  0.0000)
  39 H      1.149632    0.114687   19.326384    ( 0.0000,  0.0000,  0.0000)
  40 H      1.150102    0.176477   17.585967    ( 0.0000,  0.0000,  0.0000)
  41 H      3.344067    0.960755   18.421172    ( 0.0000,  0.0000,  0.0000)
  42 H      2.481871    2.252373   17.593207    ( 0.0000,  0.0000,  0.0000)
  43 H      2.551370    2.261836   19.358321    ( 0.0000,  0.0000,  0.0000)
  44 H      0.005785    2.204248   19.200861    ( 0.0000,  0.0000,  0.0000)

Unit cell:
           periodic     x           y           z      points  spacing
  1. axis:    yes    9.702222    0.000000    0.000000    60     0.1617
  2. axis:    yes    0.000000    9.702222    0.000000    60     0.1617
  3. axis:    no     0.000000    0.000000   24.851111   156     0.1593

  Lengths:   9.702222   9.702222  24.851111
  Angles:   90.000000  90.000000  90.000000

Effective grid spacing dv^(1/3) = 0.1609

     iter     time        total  log10-change:
                         energy  eigst   dens
iter:   1 03:23:12  -272.469253  -1.85
iter:   2 03:23:41  -272.463717  -2.43  -2.07
iter:   3 03:24:07  -272.462842c -3.10  -2.41
iter:   4 03:24:31  -272.461961c -3.04  -2.58
Writing to output.gpw (mode='')

iter:   5 03:24:57  -272.461865c -3.40  -2.83
iter:   6 03:25:23  -272.461766c -3.19  -2.95
iter:   7 03:25:48  -272.461797c -3.27  -3.15
iter:   8 03:26:15  -272.461746c -3.96  -3.21
iter:   9 03:26:43  -272.461749c -4.32  -3.36
Writing to output.gpw (mode='')

iter:  10 03:27:12  -272.461766c -4.10  -3.38
iter:  11 03:27:40  -272.461751c -4.76  -3.65
iter:  12 03:28:08  -272.461753c -5.30  -3.84
iter:  13 03:28:34  -272.461754c -5.42  -3.88
iter:  14 03:29:03  -272.461752c -5.39  -3.91
Writing to output.gpw (mode='')

iter:  15 03:29:32  -272.461747c -5.28  -4.05c
iter:  16 03:30:02  -272.461746c -5.72  -4.11c
iter:  17 03:30:31  -272.461746c -6.15  -4.19c
iter:  18 03:31:01  -272.461748c -5.84  -4.38c
iter:  19 03:31:31  -272.461747c -6.40  -4.52c
Writing to output.gpw (mode='')

iter:  20 03:32:00  -272.461746c -6.40  -4.59c
iter:  21 03:32:28  -272.461746c -6.69  -4.72c
iter:  22 03:32:56  -272.461746c -6.83  -4.88c
iter:  23 03:33:26  -272.461746c -6.99  -4.93c
iter:  24 03:33:52  -272.461746c -6.92  -4.98c
Writing to output.gpw (mode='')

iter:  25 03:34:22  -272.461747c -7.09  -5.11c
iter:  26 03:34:50  -272.461747c -7.26  -5.19c
iter:  27 03:35:20  -272.461747c -7.37  -5.24c
iter:  28 03:35:49  -272.461747c -7.52c -5.46c

Converged after 28 iterations.

Dipole moment: (-9.997104, -9.134562, 0.335704) |e|*Ang

Energy contributions relative to reference atoms: (reference = -11471.411034)

Kinetic:       +128.507581
Potential:     -120.127838
External:        +0.000000
XC:            -281.009907
Entropy (-ST):   -0.151294
Local:           +0.244064
--------------------------
Free energy:   -272.537394
Extrapolated:  -272.461747

Dipole-layer corrected work functions: 3.389551, 2.744211 eV

Showing only first 2 kpts
 Kpt  Band  Eigenvalues  Occupancy
  0    26     -3.31967    1.98734
  0    27     -3.23901    1.93801
  0    28     -2.89283    0.05971
  0    29     -2.81392    0.01262

  1    26     -3.08033    1.13365
  1    27     -3.05778    0.90924
  1    28     -3.03135    0.65897
  1    29     -3.02418    0.59719


Fermi level: -3.06688

No gap
Writing to output.gpw (mode='')


Forces in eV/Ang:
  0 Li    0.00239   -0.00036   -0.27596
  1 Li    0.00292   -0.00068   -0.27654
  2 Li   -0.00555   -0.00025   -0.27431
  3 Li   -0.00017    0.00319   -0.27391
  4 Li   -0.00127   -0.00190   -0.27754
  5 Li    0.00175   -0.00026   -0.27391
  6 Li    0.00042   -0.00310   -0.27602
  7 Li   -0.00160    0.00335   -0.27581
  8 Li    0.00109    0.00060   -0.27646
  9 Li   -0.00262   -0.00748    0.28249
 10 Li    0.00683   -0.00245    0.28351
 11 Li   -0.00356   -0.00326    0.27404
 12 Li   -0.00380    0.00671    0.27579
 13 Li    0.00903    0.00281    0.28366
 14 Li   -0.00546    0.00328    0.27116
 15 Li    0.00539    0.00235    0.27605
 16 Li   -0.00877   -0.00037    0.28636
 17 Li    0.00313   -0.00068    0.28506
 18 Li   -0.00962    0.00765   -0.01660
 19 Li    0.01835   -0.00019   -0.03570
 20 Li   -0.00999    0.01521   -0.01664
 21 Li   -0.01968    0.00363   -0.01198
 22 Li    0.01871    0.02243   -0.03020
 23 Li    0.00392   -0.00337    0.00296
 24 Li   -0.00550   -0.01374   -0.02676
 25 Li    0.01681   -0.02030   -0.02693
 26 Li   -0.01608   -0.01746   -0.02415
 27 Li   -0.01293   -0.00895   -0.01694
 28 Li    0.00269   -0.00197   -0.03386
 29 Li   -0.00464   -0.00119   -0.00112
 30 Li   -0.00665   -0.01603    0.05486
 31 Li    0.00905    0.00533   -0.02557
 32 Li   -0.00095    0.00059   -0.00498
 33 Li   -0.00093   -0.00228    0.00099
 34 Li    0.00294    0.00143    0.00328
 35 Li   -0.00135    0.00117    0.00451
 36 O     0.00611   -0.12134    0.00917
 37 C     0.04075   -0.01837    0.05360
 38 C     0.00808    0.00799   -0.02853
 39 H    -0.11073    0.10227    0.14611
 40 H    -0.04740    0.02548   -0.08322
 41 H     0.02178    0.01504    0.12736
 42 H     0.04375    0.12164   -0.04281
 43 H     0.03979   -0.09192    0.01975
 44 H    -0.01855   -0.02686   -0.04544

System changes: positions 

Initializing position-dependent things.

Density initialized from wave functions
       .-----------------------.  
      /|                       |  
     / |                       |  
    /  |                       |  
   /   |                       |  
  /    |                       |  
 *     |                       |  
 |     |                       |  
 |     |                       |  
 |     |                       |  
 |     |                       |  
 |     | H                     |  
 |H    |       Li      Li      Li 
 |O H  |C H                    |  
 |   Li| H   Li      Li        |  
[...]
iter:  34 20:24:05  -272.870479c -6.95  -5.01c
Writing to output.gpw (mode='')

iter:  35 20:29:15  -272.870479c -7.02  -5.05c
iter:  36 20:34:20  -272.870479c -7.14  -5.13c
iter:  37 20:40:23  -272.870479c -7.20  -5.28c
iter:  38 20:48:40  -272.870479c -7.56c -5.36c

Converged after 38 iterations.

Dipole moment: (-14.027451, -2.091847, 0.414894) |e|*Ang

Energy contributions relative to reference atoms: (reference = -11471.411034)

Kinetic:       +128.272518
Potential:     -120.289743
External:        +0.000000
XC:            -281.030473
Entropy (-ST):   -0.151722
Local:           +0.253081
--------------------------
Free energy:   -272.946340
Extrapolated:  -272.870479

Dipole-layer corrected work functions: 3.376106, 2.578537 eV

Showing only first 2 kpts
 Kpt  Band  Eigenvalues  Occupancy
  0    26     -3.23508    1.98853
  0    27     -3.14026    1.92598
  0    28     -2.81024    0.06834
  0    29     -2.73084    0.01435

  1    26     -3.00477    1.26784
  1    27     -2.97445    0.97125
  1    28     -2.93368    0.58935
  1    29     -2.91928    0.47705


Fermi level: -2.97732

No gap
Writing to output.gpw (mode='')


Forces in eV/Ang:
  0 Li    0.00256   -0.00209   -0.27408
  1 Li   -0.00118    0.00301   -0.27873
  2 Li   -0.01042   -0.00116   -0.27222
  3 Li   -0.00223    0.00663   -0.26903
  4 Li   -0.00070   -0.00045   -0.28393
  5 Li   -0.00150    0.00264   -0.26983
  6 Li   -0.00353   -0.00074   -0.28132
  7 Li   -0.00476    0.00566   -0.26072
  8 Li    0.00227   -0.00130   -0.28194
  9 Li    0.00450   -0.00556    0.29148
 10 Li    0.00385   -0.00456    0.27439
 11 Li    0.04393   -0.00331    0.26065
 12 Li    0.00416    0.01013    0.23178
 13 Li    0.02496    0.01036    0.28322
 14 Li    0.04041    0.01811    0.26760
 15 Li   -0.00087   -0.02158    0.26542
 16 Li   -0.01946   -0.04284    0.27534
 17 Li    0.05421   -0.03731    0.25799
 18 Li   -0.01023   -0.00083   -0.00472
 19 Li   -0.02213    0.02213    0.02936
 20 Li   -0.01008    0.00316   -0.01210
 21 Li   -0.00313   -0.00746    0.01489
 22 Li   -0.01592    0.00458    0.01036
 23 Li    0.01002   -0.02400   -0.00461
 24 Li    0.00758   -0.00455   -0.00271
 25 Li    0.00198    0.00476    0.00138
 26 Li   -0.02865   -0.01856   -0.01337
 27 Li    0.01003    0.02100    0.02124
 28 Li    0.00438   -0.00427   -0.00820
 29 Li   -0.00149   -0.00539   -0.00824
 30 Li   -0.02138   -0.03422    0.00008
 31 Li    0.00380    0.01159   -0.01088
 32 Li   -0.02237    0.01930    0.00284
 33 Li   -0.01953   -0.03261    0.00783
 34 Li   -0.00071   -0.01157   -0.00586
 35 Li    0.02806   -0.01025    0.01615
 36 O    -0.07838    0.12169    0.10054
 37 C    -0.00205   -0.03744    0.01865
 38 C    -0.04964   -0.03729    0.01168
 39 H     0.04550    0.01133   -0.04733
 40 H     0.00741   -0.01170   -0.00200
 41 H    -0.02196    0.01528    0.03813
 42 H    -0.00997    0.03149   -0.02532
 43 H     0.05259    0.00510    0.01261
 44 H     0.04663   -0.00880   -0.09373

System changes: positions 

Initializing position-dependent things.

Density initialized from wave functions
       .-----------------------.  
      /|                       |  
     / |                       |  
    /  |                       |  
   /   |                       |  
  /    |                       |  
 *     |                       |  
 |     |                       |  
 |     |                       |  
 |     |                       |  
 |     |                       |  
 |     |H                      |  
 |     |CH     Li      Li H    Li 
 | HC  |  H                    |  
 |   Li|     Li      Li        |  
 | LiH |  Li      Li      Li   |  
 |     |   Li      Li          |  
 |     |Li      Li      Li     |  
 |     |                       |  
 |   LLi     LLi     LLi       |  
 |     |  Li      Li      Li   |  
 | Li  |   Li      Li          |  
 |     |Li      Li      Li     |  
 Li    | Li      Li            |  
 |    Li      Li      Li       |  
 |     |                       |  
 |     |                       |  
 |     |                       |  
 |     |                       |  
 |     |                       |  
 |     |                       |  
 |     .-----------------------.  
 |    /                       /   
 |   /                       /    
 |  /                       /     
 | /                       /      
 |/                       /       
 *-----------------------*        

Positions:
   0 Li     1.617037    1.617037   10.000000    ( 0.0000,  0.0000,  0.0000)
   1 Li     4.851111    1.617037   10.000000    ( 0.0000,  0.0000,  0.0000)
   2 Li     8.085185    1.617037   10.000000    ( 0.0000,  0.0000,  0.0000)
   3 Li     1.617037    4.851111   10.000000    ( 0.0000,  0.0000,  0.0000)
   4 Li     4.851111    4.851111   10.000000    ( 0.0000,  0.0000,  0.0000)
   5 Li     8.085185    4.851111   10.000000    ( 0.0000,  0.0000,  0.0000)
   6 Li     1.617037    8.085185   10.000000    ( 0.0000,  0.0000,  0.0000)
   7 Li     4.851111    8.085185   10.000000    ( 0.0000,  0.0000,  0.0000)
   8 Li     8.085185    8.085185   10.000000    ( 0.0000,  0.0000,  0.0000)
   9 Li     0.000000    0.000000   11.617037    ( 0.0000,  0.0000,  0.0000)
  10 Li     3.234074    0.000000   11.617037    ( 0.0000,  0.0000,  0.0000)
  11 Li     6.468148    0.000000   11.617037    ( 0.0000,  0.0000,  0.0000)
  12 Li     0.000000    3.234074   11.617037    ( 0.0000,  0.0000,  0.0000)
  13 Li     3.234074    3.234074   11.617037    ( 0.0000,  0.0000,  0.0000)
  14 Li     6.468148    3.234074   11.617037    ( 0.0000,  0.0000,  0.0000)
  15 Li     0.000000    6.468148   11.617037    ( 0.0000,  0.0000,  0.0000)
  16 Li     3.234074    6.468148   11.617037    ( 0.0000,  0.0000,  0.0000)
  17 Li     6.468148    6.468148   11.617037    ( 0.0000,  0.0000,  0.0000)
  18 Li     1.630601    1.632979   13.474040    ( 0.0000,  0.0000,  0.0000)
  19 Li     4.918049    1.591878   13.429235    ( 0.0000,  0.0000,  0.0000)
  20 Li     8.145136    1.643385   13.495704    ( 0.0000,  0.0000,  0.0000)
  21 Li     1.601429    4.803168   13.524645    ( 0.0000,  0.0000,  0.0000)
  22 Li     4.905220    4.861953   13.453164    ( 0.0000,  0.0000,  0.0000)
  23 Li     8.149776    4.828634   13.551436    ( 0.0000,  0.0000,  0.0000)
  24 Li     1.621678    8.046425   13.445112    ( 0.0000,  0.0000,  0.0000)
  25 Li     4.862040    8.059564   13.441705    ( 0.0000,  0.0000,  0.0000)
  26 Li     8.069444    8.055498   13.454707    ( 0.0000,  0.0000,  0.0000)
  27 Li    -0.025962   -0.147800   15.273105    ( 0.0000,  0.0000,  0.0000)
  28 Li     3.263319   -0.026710   15.298094    ( 0.0000,  0.0000,  0.0000)
  29 Li     6.448496   -0.011509   15.399125    ( 0.0000,  0.0000,  0.0000)
  30 Li     0.224108    3.060174   15.841915    ( 0.0000,  0.0000,  0.0000)
  31 Li     3.427831    3.225226   15.318840    ( 0.0000,  0.0000,  0.0000)
  32 Li     6.536099    3.215662   15.405578    ( 0.0000,  0.0000,  0.0000)
  33 Li     0.021425    6.476815   15.440288    ( 0.0000,  0.0000,  0.0000)
  34 Li     3.241188    6.479915   15.411085    ( 0.0000,  0.0000,  0.0000)
  35 Li     6.446082    6.479962   15.425283    ( 0.0000,  0.0000,  0.0000)
  36 O      0.294600    2.377902   17.678790    ( 0.0000,  0.0000,  0.0000)
  37 C      1.058977    1.367006   18.401864    ( 0.0000,  0.0000,  0.0000)
  38 C      2.286970    1.941386   19.082224    ( 0.0000,  0.0000,  0.0000)
  39 H      0.393436    0.871686   19.116426    ( 0.0000,  0.0000,  0.0000)
  40 H      1.349716    0.635142   17.643604    ( 0.0000,  0.0000,  0.0000)
  41 H      2.839385    1.135624   19.573597    ( 0.0000,  0.0000,  0.0000)
  42 H      2.953381    2.403997   18.351751    ( 0.0000,  0.0000,  0.0000)
  43 H      2.013814    2.685658   19.833187    ( 0.0000,  0.0000,  0.0000)
  44 H     -0.249708    2.861495   18.315235    ( 0.0000,  0.0000,  0.0000)

Unit cell:
           periodic     x           y           z      points  spacing
  1. axis:    yes    9.702222    0.000000    0.000000    60     0.1617
  2. axis:    yes    0.000000    9.702222    0.000000    60     0.1617
  3. axis:    no     0.000000    0.000000   24.851111   156     0.1593

  Lengths:   9.702222   9.702222  24.851111
  Angles:   90.000000  90.000000  90.000000

Effective grid spacing dv^(1/3) = 0.1609

     iter     time        total  log10-change:
                         energy  eigst   dens
iter:   1 20:53:19  -272.879871  -1.94
iter:   2 20:58:47  -272.873081  -2.61  -2.07
iter:   3 21:07:24  -272.872055c -3.48  -2.38
iter:   4 21:15:33  -272.871438c -3.36  -2.67
Writing to output.gpw (mode='')

iter:   5 21:22:59  -272.871391c -3.79  -2.97
iter:   6 21:28:45  -272.871315c -3.26  -3.02
iter:   7 21:34:44  -272.871308c -3.49  -3.18
iter:   8 21:40:37  -272.871286c -4.12  -3.25
iter:   9 21:44:59  -272.871287c -4.47  -3.53
Writing to output.gpw (mode='')

iter:  10 21:50:59  -272.871290c -4.75  -3.60
iter:  11 21:55:30  -272.871286c -4.88  -3.75
iter:  12 22:02:23  -272.871293c -4.87  -3.87
iter:  13 22:07:30  -272.871291c -5.53  -3.89
iter:  14 22:11:44  -272.871292c -5.41  -3.99
Writing to output.gpw (mode='')

iter:  15 22:16:29  -272.871296c -5.57  -4.18c
iter:  16 22:20:57  -272.871296c -5.51  -4.08c
iter:  17 22:27:10  -272.871296c -5.60  -4.32c
iter:  18 22:31:47  -272.871296c -6.10  -4.38c
iter:  19 22:36:05  -272.871296c -6.05  -4.55c
Writing to output.gpw (mode='')

iter:  20 22:40:21  -272.871296c -6.27  -4.61c
iter:  21 22:45:10  -272.871296c -6.51  -4.64c
iter:  22 22:50:02  -272.871296c -6.55  -4.74c
iter:  23 22:54:22  -272.871296c -6.71  -4.79c
iter:  24 22:59:20  -272.871296c -7.03  -4.90c
Writing to output.gpw (mode='')

iter:  25 23:03:48  -272.871296c -7.19  -5.03c
iter:  26 23:06:59  -272.871296c -6.97  -5.09c
iter:  27 23:10:37  -272.871296c -7.31  -5.22c
iter:  28 23:13:49  -272.871296c -7.36  -5.31c
iter:  29 23:17:47  -272.871296c -7.43c -5.34c

Converged after 29 iterations.

Dipole moment: (-13.953543, -2.144232, 0.415170) |e|*Ang

Energy contributions relative to reference atoms: (reference = -11471.411034)

Kinetic:       +128.416383
Potential:     -120.396533
External:        +0.000000
XC:            -281.068182
Entropy (-ST):   -0.151777
Local:           +0.252925
--------------------------
Free energy:   -272.947185
Extrapolated:  -272.871296

Dipole-layer corrected work functions: 3.376158, 2.578060 eV

Showing only first 2 kpts
 Kpt  Band  Eigenvalues  Occupancy
  0    26     -3.23444    1.98843
  0    27     -3.14001    1.92592
  0    28     -2.81000    0.06831
  0    29     -2.73019    0.01423

  1    26     -3.00421    1.26453
  1    27     -2.97444    0.97335
  1    28     -2.93366    0.59094
  1    29     -2.91952    0.48030


Fermi level: -2.97711

No gap
Writing to output.gpw (mode='')


Forces in eV/Ang:
  0 Li    0.00257   -0.00204   -0.27423
  1 Li   -0.00127    0.00311   -0.27913
  2 Li   -0.01025   -0.00094   -0.27227
  3 Li   -0.00206    0.00668   -0.26914
  4 Li   -0.00075   -0.00072   -0.28422
  5 Li   -0.00158    0.00279   -0.26967
  6 Li   -0.00328   -0.00063   -0.28133
  7 Li   -0.00481    0.00580   -0.26083
  8 Li    0.00215   -0.00133   -0.28182
  9 Li    0.00485   -0.00569    0.29274
 10 Li    0.00357   -0.00366    0.27560
 11 Li    0.04299   -0.00229    0.26204
 12 Li    0.00451    0.00875    0.23253
 13 Li    0.02420    0.00920    0.28487
 14 Li    0.04010    0.01731    0.26901
 15 Li   -0.00020   -0.02325    0.26425
 16 Li   -0.01708   -0.04384    0.27673
 17 Li    0.05030   -0.03934    0.25901
 18 Li   -0.01013    0.00120   -0.01221
 19 Li   -0.02066    0.02159    0.02355
 20 Li   -0.01054    0.00324   -0.01411
 21 Li   -0.00369   -0.00774    0.01433
 22 Li   -0.01414    0.01123    0.00348
 23 Li    0.00957   -0.02480   -0.00415
 24 Li    0.00331   -0.00237   -0.00069
 25 Li    0.00379   -0.00017   -0.00359
 26 Li   -0.02409   -0.01237   -0.00511
 27 Li    0.00620    0.01491    0.01714
 28 Li    0.00454   -0.00577   -0.00369
 29 Li    0.00114   -0.00652   -0.00680
 30 Li   -0.01958   -0.03294   -0.00154
 31 Li    0.00096    0.01116   -0.00576
 32 Li   -0.01966    0.01892    0.00514
 33 Li   -0.01881   -0.03003    0.00600
 34 Li   -0.00042   -0.01131   -0.00390
 35 Li    0.02675   -0.01000    0.01497
 36 O    -0.01788    0.02991    0.03202
 37 C    -0.01075   -0.02100   -0.01680
 38 C    -0.00509   -0.00296   -0.00658
 39 H     0.02033    0.00580   -0.04212
 40 H    -0.01858   -0.00139    0.00305
 41 H    -0.01553    0.00449    0.03867
 42 H    -0.00461    0.02960   -0.00564
 43 H     0.03194    0.00876    0.01683
 44 H    -0.01000    0.03736   -0.00744

Timing:                                      incl.     excl.
-------------------------------------------------------------------
Density initialized from wave functions:   642.375   642.370   0.1% |
 Symmetrize density:                         0.005     0.005   0.0% |
Forces:                                    490.476   490.476   0.1% |
Hamiltonian:                             13132.989     0.021   0.0% |
 Atomic:                                    12.920     0.220   0.0% |
  XC Correction:                            12.700    12.700   0.0% |
 Calculate atomic Hamiltonians:              7.050     7.050   0.0% |
 Communicate:                              191.627   191.627   0.0% |
 Hartree integrate/restrict:                 8.824     8.824   0.0% |
 Initialize Hamiltonian:                     0.000     0.000   0.0% |
 Poisson:                                  227.764   106.026   0.0% |
  Communicate from 1D:                      15.254    15.254   0.0% |
  Communicate from 2D:                      33.040    33.040   0.0% |
  Communicate to 1D:                         3.698     3.698   0.0% |
  Communicate to 2D:                        30.034    30.034   0.0% |
  FFT 1D:                                   19.817    19.817   0.0% |
  FFT 2D:                                   19.897    19.897   0.0% |
 XC 3D grid:                             12683.881   743.731   0.1% |
  VdW-DF integral:                       11940.150    13.444   0.0% |
   Convolution:                            159.513   159.513   0.0% |
   FFT:                                     67.242    67.242   0.0% |
   gather:                               10315.930 10315.930   2.0% ||
   hmm1:                                    51.862    51.862   0.0% |
   hmm2:                                    58.577    58.577   0.0% |
   iFFT:                                    67.517    67.517   0.0% |
   potential:                             1199.230     7.543   0.0% |
    collect:                                82.251    82.251   0.0% |
    p1:                                    217.244   217.244   0.0% |
    p2:                                     83.093    83.093   0.0% |
    sum:                                   809.099   809.099   0.2% |
   splines:                                  6.835     6.835   0.0% |
 vbar:                                       0.902     0.902   0.0% |
LCAO initialization:                         4.362     0.236   0.0% |
 LCAO eigensolver:                           1.422     0.001   0.0% |
  Calculate projections:                     0.000     0.000   0.0% |
  DenseAtomicCorrection:                     0.000     0.000   0.0% |
  Distribute overlap matrix:                 1.405     1.405   0.0% |
  Orbital Layouts:                           0.015     0.015   0.0% |
  Potential matrix:                          0.001     0.001   0.0% |
  Sum over cells:                            0.001     0.001   0.0% |
 LCAO to grid:                               2.055     2.055   0.0% |
 Set positions (LCAO WFS):                   0.649     0.487   0.0% |
  Basic WFS set positions:                   0.002     0.002   0.0% |
  Basis functions set positions:             0.000     0.000   0.0% |
  P tci:                                     0.001     0.001   0.0% |
  ST tci:                                    0.097     0.097   0.0% |
  mktci:                                     0.062     0.062   0.0% |
Redistribute:                                0.154     0.154   0.0% |
SCF-cycle:                               496941.159 45604.905   8.9% |---|
 Davidson:                               46305.055 19078.277   3.7% ||
  Apply hamiltonian:                      3791.365  3791.365   0.7% |
  Subspace diag:                          6198.617     0.992   0.0% |
   calc_h_matrix:                         4228.779   581.732   0.1% |
    Apply hamiltonian:                    3647.047  3647.047   0.7% |
   diagonalize:                            320.184   320.184   0.1% |
   rotate_psi:                            1648.663  1648.663   0.3% |
  calc. matrices:                        14049.860  5492.263   1.1% |
   Apply hamiltonian:                     8557.596  8557.596   1.7% ||
  diagonalize:                              24.166    24.166   0.0% |
  rotate_psi:                             3162.770  3162.770   0.6% |
 Density:                                 2430.027     0.128   0.0% |
  Atomic density matrices:                1441.169  1441.169   0.3% |
  Mix:                                     436.740   436.740   0.1% |
  Multipole moments:                         8.032     8.032   0.0% |
  Pseudo density:                          543.958   543.648   0.1% |
   Symmetrize density:                       0.310     0.310   0.0% |
 Hamiltonian:                            402535.194     0.843   0.0% |
  Atomic:                                  409.920     4.875   0.0% |
   XC Correction:                          405.045   405.045   0.1% |
  Calculate atomic Hamiltonians:           233.766   233.766   0.0% |
  Communicate:                            6333.226  6333.226   1.2% |
  Hartree integrate/restrict:              245.142   245.142   0.0% |
  Poisson:                                7387.046  3475.177   0.7% |
   Communicate from 1D:                    533.863   533.863   0.1% |
   Communicate from 2D:                   1099.951  1099.951   0.2% |
   Communicate to 1D:                      121.175   121.175   0.0% |
   Communicate to 2D:                      899.612   899.612   0.2% |
   FFT 1D:                                 633.438   633.438   0.1% |
   FFT 2D:                                 623.830   623.830   0.1% |
  XC 3D grid:                            387895.893 22883.922   4.5% |-|
   VdW-DF integral:                      365011.971   408.259   0.1% |
    Convolution:                          5204.755  5204.755   1.0% |
    FFT:                                  2109.052  2109.052   0.4% |
    gather:                              312630.207 312630.207  61.1% |-----------------------|
    hmm1:                                 1629.543  1629.543   0.3% |
    hmm2:                                 1855.810  1855.810   0.4% |
    iFFT:                                 2144.983  2144.983   0.4% |
    potential:                           39029.219   235.485   0.0% |
     collect:                             3135.873  3135.873   0.6% |
     p1:                                  6743.799  6743.799   1.3% ||
     p2:                                  2623.341  2623.341   0.5% |
     sum:                                26290.721 26290.721   5.1% |-|
    splines:                                 0.143     0.143   0.0% |
  vbar:                                     29.358    29.358   0.0% |
 Orthonormalize:                            65.978     0.025   0.0% |
  calc_s_matrix:                            10.441    10.441   0.0% |
  inverse-cholesky:                         28.496    28.496   0.0% |
  projections:                               0.007     0.007   0.0% |
  rotate_psi_s:                             27.009    27.009   0.0% |
Set symmetry:                                0.002     0.002   0.0% |
Other:                                     723.450   723.450   0.1% |
-------------------------------------------------------------------
Total:                                             511934.968 100.0%

Memory usage: 1.40 GiB
Date: Sun Jan 22 23:17:54 2023
