
  ___ ___ ___ _ _ _  
 |   |   |_  | | | | 
 | | | | | . | | | | 
 |__ |  _|___|_____|  22.8.0
 |___|_|             

User:   vazumah@c14.hercules
Date:   Fri Feb 24 17:38:21 2023
Arch:   x86_64
Pid:    10124
CWD:    /home/vazumah/Python_projects/LiNRR/Li_adsorb_studies/proton_donors/on_pure_surface/Li_BCC100/adsorbates/CH3CH2OH_x/bridge/0.0_1.617
Python: 3.10.8
gpaw:   /home/vazumah/.conda/envs/GPAW/lib/python3.10/site-packages/gpaw
_gpaw:  /home/vazumah/.conda/envs/GPAW/lib/python3.10/site-packages/
        _gpaw.cpython-310-x86_64-linux-gnu.so
ase:    /home/vazumah/.conda/envs/GPAW/lib/python3.10/site-packages/ase (version 3.22.1)
numpy:  /home/vazumah/.conda/envs/GPAW/lib/python3.10/site-packages/numpy (version 1.24.1)
scipy:  /home/vazumah/.conda/envs/GPAW/lib/python3.10/site-packages/scipy (version 1.10.0)
libxc:  5.2.3
units:  Angstrom and eV
cores: 24
OpenMP: True
OMP_NUM_THREADS: 1

Input parameters:
  h: 0.16
  kpts: {size: [4, 4, 1]}
  occupations: {name: fermi-dirac,
                width: 0.05}
  poissonsolver: {dipolelayer: xy}
  symmetry: {point_group: False}
  xc: RPBE

System changes: positions, numbers, cell, pbc, initial_charges, initial_magmoms 

Initialize ...

species:
  Li:
    name: Lithium
    id: dcbe5181e2282205f1343ba35d013394
    Z: 3.0
    valence: 1
    core: 2
    charge: 0.0
    file: /home/vazumah/.conda/envs/GPAW/share/gpaw/Li.RPBE.gz
    compensation charges: {type: gauss,
                           rc: 0.33,
                           lmax: 2}
    cutoffs: {filter: 1.91,
              core: 2.55}
    valence states:
      #              energy  rcut
      - 2s(1.00)    -2.901   1.058
      - 2p(0.00)    -1.114   1.058
      -  s          24.311   1.058
  
    # Using partial waves for Li as LCAO basis

  O:
    name: Oxygen
    id: 08071ca1eed670e7821b24b7eb4d558c
    Z: 8.0
    valence: 6
    core: 2
    charge: 0.0
    file: /home/vazumah/.conda/envs/GPAW/share/gpaw/O.RPBE.gz
    compensation charges: {type: gauss,
                           rc: 0.21,
                           lmax: 2}
    cutoffs: {filter: 1.17,
              core: 0.83}
    valence states:
      #              energy  rcut
      - 2s(2.00)   -24.041   0.688
      - 2p(4.00)    -8.984   0.598
      -  s           3.170   0.688
      -  p          18.228   0.598
      -  d           0.000   0.619
  
    # Using partial waves for O as LCAO basis

  C:
    name: Carbon
    id: 5e1162da8ccece2d28d8b78a977ec463
    Z: 6.0
    valence: 4
    core: 2
    charge: 0.0
    file: /home/vazumah/.conda/envs/GPAW/share/gpaw/C.RPBE.gz
    compensation charges: {type: gauss,
                           rc: 0.20,
                           lmax: 2}
    cutoffs: {filter: 1.14,
              core: 1.14}
    valence states:
      #              energy  rcut
      - 2s(2.00)   -13.815   0.635
      - 2p(2.00)    -5.254   0.635
      -  s          13.396   0.635
      -  p          21.957   0.635
      -  d           0.000   0.635
  
    # Using partial waves for C as LCAO basis

  H:
    name: Hydrogen
    id: ea3f9156a1dc40d47a60fdce8f8bd75d
    Z: 1.0
    valence: 1
    core: 0
    charge: 0.0
    file: /home/vazumah/.conda/envs/GPAW/share/gpaw/H.RPBE.gz
    compensation charges: {type: gauss,
                           rc: 0.15,
                           lmax: 2}
    cutoffs: {filter: 0.85,
              core: 0.53}
    valence states:
      #              energy  rcut
      - 1s(1.00)    -6.572   0.476
      -  s          20.639   0.476
      -  p           0.000   0.476
  
    # Using partial waves for H as LCAO basis

Reference energy: -11509.077619  # eV

Spin-paired calculation

Convergence criteria:
 Maximum [total energy] change in last 3 cyles: 0.0005 eV / electron
 Maximum integral of absolute [dens]ity change: 0.0001 electrons / valence electron
 Maximum integral of absolute [eigenst]ate change: 4e-08 eV^2 / valence electron
 Maximum number of scf [iter]ations: 333
 (Square brackets indicate name in SCF output, whereas a 'c' in
 the SCF output indicates the quantity has converged.)

Symmetries present (total): 1

  ( 1  0  0)
  ( 0  1  0)
  ( 0  0  1)

16 k-points: 4 x 4 x 1 Monkhorst-Pack grid
8 k-points in the irreducible part of the Brillouin zone
       k-points in crystal coordinates                weights
   0:     0.12500000   -0.37500000    0.00000000          2/16
   1:     0.12500000   -0.12500000    0.00000000          2/16
   2:     0.12500000    0.12500000    0.00000000          2/16
   3:     0.12500000    0.37500000    0.00000000          2/16
   4:     0.37500000   -0.37500000    0.00000000          2/16
   5:     0.37500000   -0.12500000    0.00000000          2/16
   6:     0.37500000    0.12500000    0.00000000          2/16
   7:     0.37500000    0.37500000    0.00000000          2/16

Wave functions: Uniform real-space grid
  Kinetic energy operator: 6*3+1=19 point O(h^6) finite-difference Laplacian
  ScaLapack parameters: grid=1x1, blocksize=None
  Wavefunction extrapolation:
    Improved wavefunction reuse through dual PAW basis 

Occupation numbers: Fermi-Dirac:
  width: 0.0500  # eV
 

Eigensolver
   Davidson(niter=2) 

Densities:
  Coarse grid: 60*60*156 grid
  Fine grid: 120*120*312 grid
  Total Charge: 0.000000 

Density mixing:
  Method: separate
  Backend: pulay
  Linear mixing parameter: 0.05
  old densities: 5
  Damping of long wavelength oscillations: 50 

Hamiltonian:
  XC and Coulomb potentials evaluated on a 120*120*312 grid
  Using the RPBE Exchange-Correlation functional
  Interpolation: tri-quintic (5. degree polynomial)
  Poisson solver: FastPoissonSolver using
    Stencil: 6*3+1=19 point O(h^6) finite-difference Laplacian
    FFT axes: [0, 1]
    FST axes: [2]

Dipole correction along z-axis 

XC parameters: RPBE with 2 nearest neighbor stencil

Memory estimate:
  Process memory now: 210.17 MiB
  Calculator: 377.21 MiB
    Density: 117.35 MiB
      Arrays: 36.75 MiB
      Localized functions: 66.59 MiB
      Mixer: 14.01 MiB
    Hamiltonian: 29.29 MiB
      Arrays: 24.03 MiB
      XC: 0.00 MiB
      Poisson: 0.00 MiB
      vbar: 5.26 MiB
    Wavefunctions: 230.57 MiB
      Arrays psit_nG: 106.46 MiB
      Eigensolver: 120.69 MiB
      Projections: 0.05 MiB
      Projectors: 3.38 MiB

Total number of cores used: 24
Parallelization over k-points: 8
Domain decomposition: 1 x 1 x 3

Number of atoms: 45
Number of atomic orbitals: 162
Number of bands in calculation: 38
Number of valence electrons: 56
Bands to converge: occupied

... initialized

Initializing position-dependent things.

Density initialized from atomic densities
Creating initial wave functions:
  38 bands from LCAO basis set

       .-----------------------.  
      /|                       |  
     / |                       |  
    /  |                       |  
   /   |                       |  
  /    |                       |  
 *     |                       |  
 |     |                       |  
 |     |                       |  
 |     |                       |  
 |     |                       |  
 |     |H                      |  
 |     |CH     Li      Li H    Li 
 | HC  |  H                    |  
 |   Li|     Li      Li        |  
 | LiH |  Li      Li      Li   |  
 |     |   Li      Li          |  
 |     |Li      Li      Li     |  
 |     |                       |  
 |   LLi     LLi     LLi       |  
 |     |  Li      Li      Li   |  
 | Li  |   Li      Li          |  
 |     |Li      Li      Li     |  
 Li    | Li      Li            |  
 |    Li      Li      Li       |  
 |     |                       |  
 |     |                       |  
 |     |                       |  
 |     |                       |  
 |     |                       |  
 |     |                       |  
 |     .-----------------------.  
 |    /                       /   
 |   /                       /    
 |  /                       /     
 | /                       /      
 |/                       /       
 *-----------------------*        

Positions:
   0 Li     1.617037    1.617037   10.000000    ( 0.0000,  0.0000,  0.0000)
   1 Li     4.851111    1.617037   10.000000    ( 0.0000,  0.0000,  0.0000)
   2 Li     8.085185    1.617037   10.000000    ( 0.0000,  0.0000,  0.0000)
   3 Li     1.617037    4.851111   10.000000    ( 0.0000,  0.0000,  0.0000)
   4 Li     4.851111    4.851111   10.000000    ( 0.0000,  0.0000,  0.0000)
   5 Li     8.085185    4.851111   10.000000    ( 0.0000,  0.0000,  0.0000)
   6 Li     1.617037    8.085185   10.000000    ( 0.0000,  0.0000,  0.0000)
   7 Li     4.851111    8.085185   10.000000    ( 0.0000,  0.0000,  0.0000)
   8 Li     8.085185    8.085185   10.000000    ( 0.0000,  0.0000,  0.0000)
   9 Li     0.000000    0.000000   11.617037    ( 0.0000,  0.0000,  0.0000)
  10 Li     3.234074    0.000000   11.617037    ( 0.0000,  0.0000,  0.0000)
  11 Li     6.468148    0.000000   11.617037    ( 0.0000,  0.0000,  0.0000)
  12 Li     0.000000    3.234074   11.617037    ( 0.0000,  0.0000,  0.0000)
  13 Li     3.234074    3.234074   11.617037    ( 0.0000,  0.0000,  0.0000)
  14 Li     6.468148    3.234074   11.617037    ( 0.0000,  0.0000,  0.0000)
  15 Li     0.000000    6.468148   11.617037    ( 0.0000,  0.0000,  0.0000)
  16 Li     3.234074    6.468148   11.617037    ( 0.0000,  0.0000,  0.0000)
  17 Li     6.468148    6.468148   11.617037    ( 0.0000,  0.0000,  0.0000)
  18 Li     1.630601    1.632979   13.474040    ( 0.0000,  0.0000,  0.0000)
  19 Li     4.918049    1.591878   13.429235    ( 0.0000,  0.0000,  0.0000)
  20 Li     8.145136    1.643385   13.495704    ( 0.0000,  0.0000,  0.0000)
  21 Li     1.601429    4.803168   13.524645    ( 0.0000,  0.0000,  0.0000)
  22 Li     4.905220    4.861953   13.453164    ( 0.0000,  0.0000,  0.0000)
  23 Li     8.149776    4.828634   13.551436    ( 0.0000,  0.0000,  0.0000)
  24 Li     1.621678    8.046425   13.445112    ( 0.0000,  0.0000,  0.0000)
  25 Li     4.862040    8.059564   13.441705    ( 0.0000,  0.0000,  0.0000)
  26 Li     8.069444    8.055498   13.454707    ( 0.0000,  0.0000,  0.0000)
  27 Li    -0.025962   -0.147800   15.273105    ( 0.0000,  0.0000,  0.0000)
  28 Li     3.263319   -0.026710   15.298094    ( 0.0000,  0.0000,  0.0000)
  29 Li     6.448496   -0.011509   15.399125    ( 0.0000,  0.0000,  0.0000)
  30 Li     0.224108    3.060174   15.841915    ( 0.0000,  0.0000,  0.0000)
  31 Li     3.427831    3.225226   15.318840    ( 0.0000,  0.0000,  0.0000)
  32 Li     6.536099    3.215662   15.405578    ( 0.0000,  0.0000,  0.0000)
  33 Li     0.021425    6.476815   15.440288    ( 0.0000,  0.0000,  0.0000)
  34 Li     3.241188    6.479915   15.411085    ( 0.0000,  0.0000,  0.0000)
  35 Li     6.446082    6.479962   15.425283    ( 0.0000,  0.0000,  0.0000)
  36 O      0.294600    2.377902   17.678790    ( 0.0000,  0.0000,  0.0000)
  37 C      1.058977    1.367006   18.401864    ( 0.0000,  0.0000,  0.0000)
  38 C      2.286970    1.941386   19.082224    ( 0.0000,  0.0000,  0.0000)
  39 H      0.393436    0.871686   19.116426    ( 0.0000,  0.0000,  0.0000)
  40 H      1.349716    0.635142   17.643604    ( 0.0000,  0.0000,  0.0000)
  41 H      2.839385    1.135624   19.573597    ( 0.0000,  0.0000,  0.0000)
  42 H      2.953381    2.403997   18.351751    ( 0.0000,  0.0000,  0.0000)
  43 H      2.013814    2.685658   19.833187    ( 0.0000,  0.0000,  0.0000)
  44 H     -0.249708    2.861495   18.315235    ( 0.0000,  0.0000,  0.0000)

Unit cell:
           periodic     x           y           z      points  spacing
  1. axis:    yes    9.702222    0.000000    0.000000    60     0.1617
  2. axis:    yes    0.000000    9.702222    0.000000    60     0.1617
  3. axis:    no     0.000000    0.000000   24.851111   156     0.1593

  Lengths:   9.702222   9.702222  24.851111
  Angles:   90.000000  90.000000  90.000000

Effective grid spacing dv^(1/3) = 0.1609

     iter     time        total  log10-change:
                         energy  eigst   dens
iter:   1 17:39:45  -238.737186
iter:   2 17:40:35    11.985984  +2.31  -0.09
iter:   3 17:41:27    22.288706  +3.30  -0.21
iter:   4 17:42:16     2.880110  +2.63  -0.18
iter:   5 17:43:05   -73.300496  +2.83  -0.41
iter:   6 17:43:55   -70.345734  +2.43  -0.39
iter:   7 17:44:44  -157.428037  +2.96  -0.53
iter:   8 17:45:34  -145.820705  +2.39  -0.32
iter:   9 17:46:23  -113.288706  +1.97  -0.41
iter:  10 17:47:14  -120.105264  +1.71  -0.68
iter:  11 17:48:03  -142.874157  +1.62  -0.60
iter:  12 17:48:53  -126.614022  +0.93  -0.52
iter:  13 17:49:44  -112.217588  +1.20  -0.55
iter:  14 17:50:35  -109.142087  +0.96  -0.70
iter:  15 17:51:25  -109.509456  +1.09  -0.79
iter:  16 17:52:15  -120.220795  +1.85  -0.74
iter:  17 17:53:06  -105.969075  +0.86  -0.55
iter:  18 17:53:55  -107.602141  +1.29  -0.96
iter:  19 17:54:43  -106.234605  +0.53  -0.85
iter:  20 17:55:33  -105.747663  -0.17  -0.94
iter:  21 17:56:24  -106.734695  +0.80  -1.04
iter:  22 17:57:15  -105.308688  +0.38  -0.93
iter:  23 17:58:04  -105.431569  +0.32  -1.33
iter:  24 17:58:52  -105.197998  -0.58  -1.37
iter:  25 17:59:41  -105.192779  -1.01  -1.52
iter:  26 18:00:29  -105.186596c -0.90  -1.55
iter:  27 18:01:19  -105.179976c -1.02  -1.66
iter:  28 18:02:08  -105.168388c -1.32  -1.74
iter:  29 18:02:57  -105.159937c -1.28  -1.80
iter:  30 18:03:46  -105.160716c -1.46  -2.15
iter:  31 18:04:35  -105.161448c -1.82  -2.30
iter:  32 18:05:24  -105.161612c -1.98  -2.32
iter:  33 18:06:13  -105.162995c -1.98  -2.39
iter:  34 18:07:01  -105.163969c -2.21  -2.53
iter:  35 18:07:51  -105.164484c -2.31  -2.58
iter:  36 18:08:39  -105.165035c -2.27  -2.63
iter:  37 18:09:28  -105.165460c -2.56  -2.76
iter:  38 18:10:16  -105.165690c -2.81  -2.86
iter:  39 18:11:05  -105.165846c -2.81  -2.89
iter:  40 18:11:53  -105.166006c -2.96  -3.23
iter:  41 18:12:43  -105.166142c -3.09  -3.36
iter:  42 18:13:32  -105.166262c -3.05  -3.37
iter:  43 18:14:21  -105.166387c -3.07  -3.43
iter:  44 18:15:10  -105.166477c -3.18  -3.65
iter:  45 18:15:59  -105.166547c -3.32  -3.70
iter:  46 18:16:48  -105.166612c -3.28  -3.73
iter:  47 18:17:37  -105.166672c -3.39  -3.79
iter:  48 18:18:27  -105.166720c -3.49  -3.88
iter:  49 18:19:17  -105.166760c -3.57  -4.03c
iter:  50 18:20:05  -105.166795c -3.55  -4.05c
iter:  51 18:20:53  -105.166825c -3.57  -4.04c
iter:  52 18:21:42  -105.166852c -3.77  -3.96
iter:  53 18:22:32  -105.166872c -3.88  -4.23c
iter:  54 18:23:21  -105.166887c -3.98  -4.40c
iter:  55 18:24:10  -105.166900c -4.05  -4.39c
iter:  56 18:25:00  -105.166912c -3.93  -4.32c
iter:  57 18:25:50  -105.166921c -4.07  -4.31c
iter:  58 18:26:39  -105.166929c -4.14  -4.35c
iter:  59 18:27:31  -105.166938c -4.10  -4.33c
iter:  60 18:28:21  -105.166944c -4.11  -4.35c
iter:  61 18:29:10  -105.166949c -4.17  -4.32c
iter:  62 18:30:00  -105.166953c -4.40  -4.24c
iter:  63 18:30:50  -105.166957c -4.40  -4.15c
iter:  64 18:31:39  -105.166959c -4.45  -4.18c
iter:  65 18:32:28  -105.166962c -4.50  -4.20c
iter:  66 18:33:18  -105.166964c -4.40  -4.28c
iter:  67 18:34:10  -105.166966c -4.69  -4.31c
iter:  68 18:34:59  -105.166967c -4.84  -4.41c
iter:  69 18:35:48  -105.166968c -4.83  -4.39c
iter:  70 18:36:36  -105.166969c -5.07  -4.59c
iter:  71 18:37:26  -105.166969c -4.89  -4.65c
iter:  72 18:38:17  -105.166969c -5.07  -4.68c
iter:  73 18:39:06  -105.166969c -5.09  -4.76c
iter:  74 18:39:56  -105.166969c -5.18  -4.81c
iter:  75 18:40:44  -105.166969c -5.28  -4.93c
iter:  76 18:41:33  -105.166969c -5.49  -5.14c
iter:  77 18:42:22  -105.166969c -5.41  -5.18c
iter:  78 18:43:11  -105.166969c -5.28  -5.23c
iter:  79 18:44:00  -105.166969c -5.53  -5.41c
iter:  80 18:44:50  -105.166969c -5.64  -5.49c
iter:  81 18:45:41  -105.166969c -5.58  -5.56c
iter:  82 18:46:29  -105.166968c -5.48  -5.61c
iter:  83 18:47:19  -105.166968c -5.66  -5.68c
iter:  84 18:48:09  -105.166968c -5.78  -5.62c
iter:  85 18:48:59  -105.166968c -5.85  -5.50c
iter:  86 18:49:48  -105.166968c -5.92  -5.44c
iter:  87 18:50:38  -105.166968c -5.86  -5.43c
iter:  88 18:51:27  -105.166968c -6.03  -5.48c
iter:  89 18:52:18  -105.166968c -5.92  -5.40c
iter:  90 18:53:07  -105.166968c -6.20  -5.38c
iter:  91 18:53:56  -105.166968c -6.10  -5.31c
iter:  92 18:54:46  -105.166968c -6.11  -5.33c
iter:  93 18:55:36  -105.166968c -6.42  -5.37c
iter:  94 18:56:27  -105.166967c -6.35  -5.31c
iter:  95 18:57:17  -105.166967c -6.36  -5.42c
iter:  96 18:58:05  -105.166967c -6.30  -5.54c
iter:  97 18:58:53  -105.166967c -6.62  -5.55c
iter:  98 18:59:41  -105.166967c -6.66  -5.46c
iter:  99 19:00:30  -105.166967c -6.82  -5.62c
iter: 100 19:01:18  -105.166967c -6.79  -5.63c
iter: 101 19:02:07  -105.166967c -6.79  -5.61c
iter: 102 19:02:56  -105.166967c -6.83  -5.38c
iter: 103 19:03:45  -105.166967c -6.89  -5.62c
iter: 104 19:04:35  -105.166967c -7.01  -5.75c
iter: 105 19:05:26  -105.166967c -7.08  -5.78c
iter: 106 19:06:13  -105.166967c -6.97  -5.80c
iter: 107 19:07:03  -105.166967c -6.93  -5.84c
iter: 108 19:07:53  -105.166967c -7.27  -5.94c
iter: 109 19:08:43  -105.166967c -7.25  -5.96c
iter: 110 19:09:32  -105.166967c -7.49c -6.06c

Converged after 110 iterations.

Dipole moment: (-14.001954, -2.140469, 0.447329) |e|*Ang

Energy contributions relative to reference atoms: (reference = -11509.077619)

Kinetic:       +115.212286
Potential:     -109.469175
External:        +0.000000
XC:            -111.093631
Entropy (-ST):   -0.151686
Local:           +0.259395
--------------------------
Free energy:   -105.242810
Extrapolated:  -105.166967

Dipole-layer corrected work functions: 3.129116, 2.269197 eV

Showing only first 2 kpts
 Kpt  Band  Eigenvalues  Occupancy
  0    26     -2.95319    1.98764
  0    27     -2.86018    1.92320
  0    28     -2.53573    0.07333
  0    29     -2.44556    0.01246

  1    26     -2.72968    1.29605
  1    27     -2.69957    1.00418
  1    28     -2.65337    0.57165
  1    29     -2.64055    0.47295


Fermi level: -2.69916

No gap

Forces in eV/Ang:
  0 Li    0.00240   -0.00174   -0.34363
  1 Li   -0.00158    0.00343   -0.34887
  2 Li   -0.01026   -0.00075   -0.34068
  3 Li   -0.00253    0.00631   -0.33724
  4 Li   -0.00076   -0.00042   -0.35452
  5 Li   -0.00141    0.00279   -0.33688
  6 Li   -0.00378   -0.00032   -0.35097
  7 Li   -0.00449    0.00553   -0.33022
  8 Li    0.00191   -0.00137   -0.35192
  9 Li    0.00454   -0.00663    0.29665
 10 Li    0.00257   -0.00252    0.28011
 11 Li    0.04560   -0.00167    0.26696
 12 Li    0.00426    0.00955    0.23626
 13 Li    0.02486    0.00961    0.28969
 14 Li    0.04099    0.01873    0.27263
 15 Li   -0.00072   -0.02348    0.26771
 16 Li   -0.01815   -0.04629    0.28216
 17 Li    0.05275   -0.04197    0.26239
 18 Li   -0.01234    0.00192   -0.00818
 19 Li   -0.02010    0.02193    0.02508
 20 Li   -0.00934    0.00674   -0.00845
 21 Li   -0.00555   -0.00792    0.01951
 22 Li   -0.01528    0.01140    0.00615
 23 Li    0.01231   -0.02729    0.00393
 24 Li    0.00432   -0.00317    0.00081
 25 Li    0.00428    0.00000   -0.00006
 26 Li   -0.02617   -0.01342   -0.00354
 27 Li    0.00822    0.02335    0.06783
 28 Li    0.00318   -0.00596    0.04663
 29 Li   -0.00063   -0.00939    0.04399
 30 Li   -0.02930    0.01000   -0.08764
 31 Li   -0.00106    0.01289    0.04382
 32 Li   -0.01478    0.02205    0.05468
 33 Li   -0.02191   -0.03651    0.05658
 34 Li    0.00135   -0.01218    0.04899
 35 Li    0.02815   -0.01035    0.07330
 36 O     0.06061   -0.06357   -0.14309
 37 C    -0.04204    0.15764    0.01747
 38 C    -0.06116   -0.05001   -0.00513
 39 H    -0.13287   -0.13739    0.13075
 40 H     0.05381   -0.20372   -0.18491
 41 H     0.12976   -0.17277    0.16469
 42 H     0.16871    0.13903   -0.16857
 43 H    -0.01626    0.18960    0.21093
 44 H    -0.18425    0.18861    0.21201

System changes: positions 

Initializing position-dependent things.

Density initialized from wave functions
       .-----------------------.  
      /|                       |  
     / |                       |  
    /  |                       |  
   /   |                       |  
  /    |                       |  
 *     |                       |  
 |     |                       |  
 |     |                       |  
 |     |                       |  
 |     |                       |  
 |     |H                      |  
 |     |CH     Li      Li H    Li 
 | HC  |  H                    |  
 |   Li|     Li      Li        |  
 | LiH |  Li      Li      Li   |  
 |     |   Li      Li          |  
 |     |Li      Li      Li     |  
 |     |                       |  
 |   LLi     LLi     LLi       |  
 |     |  Li      Li      Li   |  
 | Li  |   Li      Li          |  
 |     |Li      Li      Li     |  
 Li    | Li      Li            |  
 |    Li      Li      Li       |  
 |     |                       |  
 |     |                       |  
 |     |                       |  
 |     |                       |  
 |     |                       |  
 |     |                       |  
 |     .-----------------------.  
 |    /                       /   
 |   /                       /    
 |  /                       /     
 | /                       /      
 |/                       /       
 *-----------------------*        

Positions:
   0 Li     1.617037    1.617037   10.000000    ( 0.0000,  0.0000,  0.0000)
   1 Li     4.851111    1.617037   10.000000    ( 0.0000,  0.0000,  0.0000)
   2 Li     8.085185    1.617037   10.000000    ( 0.0000,  0.0000,  0.0000)
   3 Li     1.617037    4.851111   10.000000    ( 0.0000,  0.0000,  0.0000)
   4 Li     4.851111    4.851111   10.000000    ( 0.0000,  0.0000,  0.0000)
   5 Li     8.085185    4.851111   10.000000    ( 0.0000,  0.0000,  0.0000)
   6 Li     1.617037    8.085185   10.000000    ( 0.0000,  0.0000,  0.0000)
   7 Li     4.851111    8.085185   10.000000    ( 0.0000,  0.0000,  0.0000)
   8 Li     8.085185    8.085185   10.000000    ( 0.0000,  0.0000,  0.0000)
   9 Li     0.000000    0.000000   11.617037    ( 0.0000,  0.0000,  0.0000)
  10 Li     3.234074    0.000000   11.617037    ( 0.0000,  0.0000,  0.0000)
  11 Li     6.468148    0.000000   11.617037    ( 0.0000,  0.0000,  0.0000)
  12 Li     0.000000    3.234074   11.617037    ( 0.0000,  0.0000,  0.0000)
  13 Li     3.234074    3.234074   11.617037    ( 0.0000,  0.0000,  0.0000)
  14 Li     6.468148    3.234074   11.617037    ( 0.0000,  0.0000,  0.0000)
  15 Li     0.000000    6.468148   11.617037    ( 0.0000,  0.0000,  0.0000)
  16 Li     3.234074    6.468148   11.617037    ( 0.0000,  0.0000,  0.0000)
  17 Li     6.468148    6.468148   11.617037    ( 0.0000,  0.0000,  0.0000)
  18 Li     1.630601    1.632979   13.474040    ( 0.0000,  0.0000,  0.0000)
  19 Li     4.918049    1.591878   13.429235    ( 0.0000,  0.0000,  0.0000)
  20 Li     8.145136    1.643385   13.495704    ( 0.0000,  0.0000,  0.0000)
  21 Li     1.601429    4.803168   13.524645    ( 0.0000,  0.0000,  0.0000)
  22 Li     4.905220    4.861953   13.453164    ( 0.0000,  0.0000,  0.0000)
  23 Li     8.149776    4.828634   13.551436    ( 0.0000,  0.0000,  0.0000)
  24 Li     1.621678    8.046425   13.445112    ( 0.0000,  0.0000,  0.0000)
  25 Li     4.862040    8.059564   13.441705    ( 0.0000,  0.0000,  0.0000)
  26 Li     8.069444    8.055498   13.454707    ( 0.0000,  0.0000,  0.0000)
  27 Li    -0.025962   -0.147800   15.273105    ( 0.0000,  0.0000,  0.0000)
  28 Li     3.263319   -0.026710   15.298094    ( 0.0000,  0.0000,  0.0000)
  29 Li     6.448496   -0.011509   15.399125    ( 0.0000,  0.0000,  0.0000)
  30 Li     0.224108    3.060174   15.841915    ( 0.0000,  0.0000,  0.0000)
  31 Li     3.427831    3.225226   15.318840    ( 0.0000,  0.0000,  0.0000)
  32 Li     6.536099    3.215662   15.405578    ( 0.0000,  0.0000,  0.0000)
  33 Li     0.021425    6.476815   15.440288    ( 0.0000,  0.0000,  0.0000)
  34 Li     3.241188    6.479915   15.411085    ( 0.0000,  0.0000,  0.0000)
  35 Li     6.446082    6.479962   15.425283    ( 0.0000,  0.0000,  0.0000)
  36 O      0.284600    2.377902   17.678790    ( 0.0000,  0.0000,  0.0000)
  37 C      1.058977    1.367006   18.401864    ( 0.0000,  0.0000,  0.0000)
  38 C      2.286970    1.941386   19.082224    ( 0.0000,  0.0000,  0.0000)
  39 H      0.393436    0.871686   19.116426    ( 0.0000,  0.0000,  0.0000)
  40 H      1.349716    0.635142   17.643604    ( 0.0000,  0.0000,  0.0000)
  41 H      2.839385    1.135624   19.573597    ( 0.0000,  0.0000,  0.0000)
  42 H      2.953381    2.403997   18.351751    ( 0.0000,  0.0000,  0.0000)
  43 H      2.013814    2.685658   19.833187    ( 0.0000,  0.0000,  0.0000)
  44 H     -0.249708    2.861495   18.315235    ( 0.0000,  0.0000,  0.0000)

Unit cell:
           periodic     x           y           z      points  spacing
  1. axis:    yes    9.702222    0.000000    0.000000    60     0.1617
  2. axis:    yes    0.000000    9.702222    0.000000    60     0.1617
  3. axis:    no     0.000000    0.000000   24.851111   156     0.1593

  Lengths:   9.702222   9.702222  24.851111
  Angles:   90.000000  90.000000  90.000000

Effective grid spacing dv^(1/3) = 0.1609

     iter     time        total  log10-change:
                         energy  eigst   dens
iter:   1 19:10:53  -105.165652  -2.40
iter:   2 19:11:42  -105.165297  -3.24  -2.68
iter:   3 19:12:32  -105.165230c -3.77  -2.82
iter:   4 19:13:20  -105.164953c -3.36  -3.02
iter:   5 19:14:09  -105.164885c -3.46  -3.17
iter:   6 19:15:02  -105.164873c -3.82  -3.25
iter:   7 19:15:50  -105.164888c -3.99  -3.44
iter:   8 19:16:40  -105.164878c -4.42  -3.48
iter:   9 19:17:29  -105.164878c -5.12  -3.64
iter:  10 19:18:18  -105.164881c -4.99  -3.71
iter:  11 19:19:07  -105.164875c -5.19  -3.91
iter:  12 19:19:57  -105.164876c -5.18  -4.03c
iter:  13 19:20:46  -105.164878c -5.63  -4.02c
iter:  14 19:21:38  -105.164879c -5.75  -4.14c
iter:  15 19:22:27  -105.164879c -5.97  -4.27c
iter:  16 19:23:16  -105.164878c -6.30  -4.34c
iter:  17 19:24:04  -105.164878c -6.64  -4.67c
iter:  18 19:24:53  -105.164878c -7.04  -4.81c
iter:  19 19:25:43  -105.164878c -7.02  -4.87c
iter:  20 19:26:33  -105.164878c -7.21  -5.01c
iter:  21 19:27:22  -105.164878c -7.27  -5.11c
iter:  22 19:28:11  -105.164878c -7.56c -5.18c

Converged after 22 iterations.

Dipole moment: (-14.293770, -2.143820, 0.449836) |e|*Ang

Energy contributions relative to reference atoms: (reference = -11509.077619)

Kinetic:       +115.244896
Potential:     -109.491952
External:        +0.000000
XC:            -111.101984
Entropy (-ST):   -0.151677
Local:           +0.259999
--------------------------
Free energy:   -105.240716
Extrapolated:  -105.164878

Dipole-layer corrected work functions: 3.129085, 2.264347 eV

Showing only first 2 kpts
 Kpt  Band  Eigenvalues  Occupancy
  0    26     -2.95074    1.98764
  0    27     -2.85774    1.92320
  0    28     -2.53330    0.07335
  0    29     -2.44313    0.01246

  1    26     -2.72731    1.29677
  1    27     -2.69712    1.00405
  1    28     -2.65095    0.57179
  1    29     -2.63800    0.47215


Fermi level: -2.69672

No gap

Forces in eV/Ang:
  0 Li    0.00246   -0.00173   -0.34363
  1 Li   -0.00166    0.00344   -0.34887
  2 Li   -0.01025   -0.00077   -0.34068
  3 Li   -0.00254    0.00628   -0.33724
  4 Li   -0.00075   -0.00045   -0.35454
  5 Li   -0.00141    0.00287   -0.33690
  6 Li   -0.00381   -0.00030   -0.35098
  7 Li   -0.00447    0.00554   -0.33025
  8 Li    0.00193   -0.00144   -0.35192
  9 Li    0.00456   -0.00663    0.29669
 10 Li    0.00258   -0.00243    0.28010
 11 Li    0.04558   -0.00174    0.26701
 12 Li    0.00423    0.00956    0.23636
 13 Li    0.02494    0.00958    0.28955
 14 Li    0.04097    0.01874    0.27272
 15 Li   -0.00070   -0.02349    0.26769
 16 Li   -0.01816   -0.04635    0.28228
 17 Li    0.05274   -0.04190    0.26231
 18 Li   -0.01236    0.00204   -0.00778
 19 Li   -0.01994    0.02193    0.02517
 20 Li   -0.00941    0.00664   -0.00920
 21 Li   -0.00559   -0.00811    0.01970
 22 Li   -0.01516    0.01141    0.00619
 23 Li    0.01223   -0.02715    0.00363
 24 Li    0.00431   -0.00313    0.00085
 25 Li    0.00427   -0.00000   -0.00011
 26 Li   -0.02616   -0.01342   -0.00343
 27 Li    0.00831    0.02305    0.06755
 28 Li    0.00321   -0.00576    0.04638
 29 Li   -0.00099   -0.00974    0.04379
 30 Li   -0.03039    0.01105   -0.08715
 31 Li   -0.00101    0.01282    0.04348
 32 Li   -0.01531    0.02219    0.05441
 33 Li   -0.02179   -0.03636    0.05652
 34 Li    0.00128   -0.01224    0.04918
 35 Li    0.02812   -0.01023    0.07318
 36 O     0.34914   -0.26537   -0.27803
 37 C    -0.12244    0.20145   -0.00869
 38 C    -0.08004   -0.02120   -0.02518
 39 H    -0.12503   -0.14061    0.13250
 40 H     0.04343   -0.18793   -0.19386
 41 H     0.12399   -0.17600    0.16068
 42 H     0.17128    0.13978   -0.16735
 43 H    -0.01407    0.18905    0.21182
 44 H    -0.33881    0.32603    0.40339

System changes: positions 

Initializing position-dependent things.

Density initialized from wave functions
       .-----------------------.  
      /|                       |  
     / |                       |  
    /  |                       |  
   /   |                       |  
  /    |                       |  
 *     |                       |  
 |     |                       |  
 |     |                       |  
 |     |                       |  
 |     |                       |  
 |     |H                      |  
 |     |CH     Li      Li H    Li 
 | HC  |  H                    |  
 |   Li|     Li      Li        |  
 | LiH |  Li      Li      Li   |  
 |     |   Li      Li          |  
 |     |Li      Li      Li     |  
 |     |                       |  
 |   LLi     LLi     LLi       |  
 |     |  Li      Li      Li   |  
 | Li  |   Li      Li          |  
 |     |Li      Li      Li     |  
 Li    | Li      Li            |  
 |    Li      Li      Li       |  
 |     |                       |  
 |     |                       |  
 |     |                       |  
 |     |                       |  
 |     |                       |  
 |     |                       |  
 |     .-----------------------.  
 |    /                       /   
 |   /                       /    
 |  /                       /     
 | /                       /      
 |/                       /       
 *-----------------------*        

Positions:
   0 Li     1.617037    1.617037   10.000000    ( 0.0000,  0.0000,  0.0000)
   1 Li     4.851111    1.617037   10.000000    ( 0.0000,  0.0000,  0.0000)
   2 Li     8.085185    1.617037   10.000000    ( 0.0000,  0.0000,  0.0000)
   3 Li     1.617037    4.851111   10.000000    ( 0.0000,  0.0000,  0.0000)
   4 Li     4.851111    4.851111   10.000000    ( 0.0000,  0.0000,  0.0000)
   5 Li     8.085185    4.851111   10.000000    ( 0.0000,  0.0000,  0.0000)
   6 Li     1.617037    8.085185   10.000000    ( 0.0000,  0.0000,  0.0000)
   7 Li     4.851111    8.085185   10.000000    ( 0.0000,  0.0000,  0.0000)
   8 Li     8.085185    8.085185   10.000000    ( 0.0000,  0.0000,  0.0000)
   9 Li     0.000000    0.000000   11.617037    ( 0.0000,  0.0000,  0.0000)
  10 Li     3.234074    0.000000   11.617037    ( 0.0000,  0.0000,  0.0000)
  11 Li     6.468148    0.000000   11.617037    ( 0.0000,  0.0000,  0.0000)
  12 Li     0.000000    3.234074   11.617037    ( 0.0000,  0.0000,  0.0000)
  13 Li     3.234074    3.234074   11.617037    ( 0.0000,  0.0000,  0.0000)
  14 Li     6.468148    3.234074   11.617037    ( 0.0000,  0.0000,  0.0000)
  15 Li     0.000000    6.468148   11.617037    ( 0.0000,  0.0000,  0.0000)
  16 Li     3.234074    6.468148   11.617037    ( 0.0000,  0.0000,  0.0000)
  17 Li     6.468148    6.468148   11.617037    ( 0.0000,  0.0000,  0.0000)
  18 Li     1.630601    1.632979   13.474040    ( 0.0000,  0.0000,  0.0000)
  19 Li     4.918049    1.591878   13.429235    ( 0.0000,  0.0000,  0.0000)
  20 Li     8.145136    1.643385   13.495704    ( 0.0000,  0.0000,  0.0000)
  21 Li     1.601429    4.803168   13.524645    ( 0.0000,  0.0000,  0.0000)
  22 Li     4.905220    4.861953   13.453164    ( 0.0000,  0.0000,  0.0000)
  23 Li     8.149776    4.828634   13.551436    ( 0.0000,  0.0000,  0.0000)
  24 Li     1.621678    8.046425   13.445112    ( 0.0000,  0.0000,  0.0000)
  25 Li     4.862040    8.059564   13.441705    ( 0.0000,  0.0000,  0.0000)
  26 Li     8.069444    8.055498   13.454707    ( 0.0000,  0.0000,  0.0000)
  27 Li    -0.025962   -0.147800   15.273105    ( 0.0000,  0.0000,  0.0000)
  28 Li     3.263319   -0.026710   15.298094    ( 0.0000,  0.0000,  0.0000)
  29 Li     6.448496   -0.011509   15.399125    ( 0.0000,  0.0000,  0.0000)
  30 Li     0.224108    3.060174   15.841915    ( 0.0000,  0.0000,  0.0000)
  31 Li     3.427831    3.225226   15.318840    ( 0.0000,  0.0000,  0.0000)
  32 Li     6.536099    3.215662   15.405578    ( 0.0000,  0.0000,  0.0000)
  33 Li     0.021425    6.476815   15.440288    ( 0.0000,  0.0000,  0.0000)
  34 Li     3.241188    6.479915   15.411085    ( 0.0000,  0.0000,  0.0000)
  35 Li     6.446082    6.479962   15.425283    ( 0.0000,  0.0000,  0.0000)
  36 O      0.304600    2.377902   17.678790    ( 0.0000,  0.0000,  0.0000)
  37 C      1.058977    1.367006   18.401864    ( 0.0000,  0.0000,  0.0000)
  38 C      2.286970    1.941386   19.082224    ( 0.0000,  0.0000,  0.0000)
  39 H      0.393436    0.871686   19.116426    ( 0.0000,  0.0000,  0.0000)
  40 H      1.349716    0.635142   17.643604    ( 0.0000,  0.0000,  0.0000)
  41 H      2.839385    1.135624   19.573597    ( 0.0000,  0.0000,  0.0000)
  42 H      2.953381    2.403997   18.351751    ( 0.0000,  0.0000,  0.0000)
  43 H      2.013814    2.685658   19.833187    ( 0.0000,  0.0000,  0.0000)
  44 H     -0.249708    2.861495   18.315235    ( 0.0000,  0.0000,  0.0000)

Unit cell:
           periodic     x           y           z      points  spacing
  1. axis:    yes    9.702222    0.000000    0.000000    60     0.1617
  2. axis:    yes    0.000000    9.702222    0.000000    60     0.1617
  3. axis:    no     0.000000    0.000000   24.851111   156     0.1593

  Lengths:   9.702222   9.702222  24.851111
  Angles:   90.000000  90.000000  90.000000

Effective grid spacing dv^(1/3) = 0.1609

     iter     time        total  log10-change:
                         energy  eigst   dens
iter:   1 19:29:33  -105.168452  -1.79
iter:   2 19:30:22  -105.167771  -2.54  -2.38
iter:   3 19:31:12  -105.167332c -3.14  -2.52
iter:   4 19:32:03  -105.166223c -2.72  -2.71
iter:   5 19:32:51  -105.166130c -2.87  -2.86
iter:   6 19:33:40  -105.166028c -3.17  -2.96
iter:   7 19:34:28  -105.166029c -3.41  -3.14
iter:   8 19:35:17  -105.166036c -3.83  -3.21
iter:   9 19:36:07  -105.166022c -4.43  -3.34
iter:  10 19:36:55  -105.166015c -4.32  -3.45
iter:  11 19:37:43  -105.166022c -4.55  -3.62
iter:  12 19:38:33  -105.166019c -4.72  -3.72
iter:  13 19:39:22  -105.166013c -4.96  -3.73
iter:  14 19:40:12  -105.166012c -5.32  -3.86
iter:  15 19:41:02  -105.166012c -5.20  -3.92
iter:  16 19:41:51  -105.166012c -5.63  -4.21c
iter:  17 19:42:41  -105.166012c -5.90  -4.25c
iter:  18 19:43:30  -105.166013c -6.22  -4.52c
iter:  19 19:44:19  -105.166012c -6.63  -4.66c
iter:  20 19:45:07  -105.166012c -6.54  -4.70c
iter:  21 19:45:57  -105.166013c -6.82  -4.80c
iter:  22 19:46:46  -105.166012c -7.04  -4.87c
iter:  23 19:47:36  -105.166012c -6.88  -4.91c
iter:  24 19:48:25  -105.166012c -7.35  -5.08c
iter:  25 19:49:13  -105.166012c -7.18  -5.20c
iter:  26 19:50:02  -105.166012c -7.65c -5.22c

Converged after 26 iterations.

Dipole moment: (-13.702892, -2.137090, 0.444767) |e|*Ang

Energy contributions relative to reference atoms: (reference = -11509.077619)

Kinetic:       +115.185749
Potential:     -109.449747
External:        +0.000000
XC:            -111.085530
Entropy (-ST):   -0.151697
Local:           +0.259364
--------------------------
Free energy:   -105.241860
Extrapolated:  -105.166012

Dipole-layer corrected work functions: 3.129124, 2.274131 eV

Showing only first 2 kpts
 Kpt  Band  Eigenvalues  Occupancy
  0    26     -2.95566    1.98764
  0    27     -2.86265    1.92320
  0    28     -2.53819    0.07332
  0    29     -2.44802    0.01246

  1    26     -2.73207    1.29533
  1    27     -2.70206    1.00437
  1    28     -2.65582    0.57151
  1    29     -2.64313    0.47375


Fermi level: -2.70163

No gap

Forces in eV/Ang:
  0 Li    0.00234   -0.00176   -0.34364
  1 Li   -0.00151    0.00340   -0.34887
  2 Li   -0.01025   -0.00073   -0.34066
  3 Li   -0.00253    0.00635   -0.33724
  4 Li   -0.00077   -0.00038   -0.35450
  5 Li   -0.00140    0.00270   -0.33685
  6 Li   -0.00374   -0.00034   -0.35095
  7 Li   -0.00453    0.00553   -0.33019
  8 Li    0.00190   -0.00130   -0.35191
  9 Li    0.00452   -0.00662    0.29661
 10 Li    0.00258   -0.00262    0.28011
 11 Li    0.04561   -0.00159    0.26693
 12 Li    0.00428    0.00954    0.23617
 13 Li    0.02477    0.00964    0.28984
 14 Li    0.04102    0.01872    0.27257
 15 Li   -0.00073   -0.02348    0.26776
 16 Li   -0.01815   -0.04622    0.28204
 17 Li    0.05276   -0.04204    0.26248
 18 Li   -0.01232    0.00180   -0.00854
 19 Li   -0.02026    0.02194    0.02498
 20 Li   -0.00926    0.00683   -0.00774
 21 Li   -0.00551   -0.00773    0.01930
 22 Li   -0.01540    0.01138    0.00612
 23 Li    0.01239   -0.02743    0.00419
 24 Li    0.00432   -0.00321    0.00078
 25 Li    0.00431    0.00000    0.00001
 26 Li   -0.02619   -0.01344   -0.00363
 27 Li    0.00816    0.02364    0.06808
 28 Li    0.00314   -0.00614    0.04687
 29 Li   -0.00027   -0.00907    0.04417
 30 Li   -0.02821    0.00889   -0.08799
 31 Li   -0.00113    0.01295    0.04412
 32 Li   -0.01426    0.02190    0.05495
 33 Li   -0.02202   -0.03666    0.05662
 34 Li    0.00143   -0.01213    0.04880
 35 Li    0.02816   -0.01045    0.07337
 36 O    -0.24104    0.14655   -0.02416
 37 C     0.04026    0.11098    0.04533
 38 C    -0.04208   -0.07927    0.01522
 39 H    -0.14088   -0.13389    0.12875
 40 H     0.06424   -0.21980   -0.17593
 41 H     0.13559   -0.16958    0.16875
 42 H     0.16609    0.13821   -0.16985
 43 H    -0.01850    0.19014    0.21001
 44 H    -0.03070    0.05751    0.02778

System changes: positions 

Initializing position-dependent things.

Density initialized from wave functions
       .-----------------------.  
      /|                       |  
     / |                       |  
    /  |                       |  
   /   |                       |  
  /    |                       |  
 *     |                       |  
 |     |                       |  
 |     |                       |  
 |     |                       |  
 |     |                       |  
 |     |H                      |  
 |     |CH     Li      Li H    Li 
 | HC  |  H                    |  
 |   Li|     Li      Li        |  
 | LiH |  Li      Li      Li   |  
 |     |   Li      Li          |  
 |     |Li      Li      Li     |  
 |     |                       |  
 |   LLi     LLi     LLi       |  
 |     |  Li      Li      Li   |  
 | Li  |   Li      Li          |  
 |     |Li      Li      Li     |  
 Li    | Li      Li            |  
 |    Li      Li      Li       |  
 |     |                       |  
 |     |                       |  
 |     |                       |  
 |     |                       |  
 |     |                       |  
 |     |                       |  
 |     .-----------------------.  
 |    /                       /   
 |   /                       /    
 |  /                       /     
 | /                       /      
 |/                       /       
 *-----------------------*        

Positions:
   0 Li     1.617037    1.617037   10.000000    ( 0.0000,  0.0000,  0.0000)
   1 Li     4.851111    1.617037   10.000000    ( 0.0000,  0.0000,  0.0000)
   2 Li     8.085185    1.617037   10.000000    ( 0.0000,  0.0000,  0.0000)
   3 Li     1.617037    4.851111   10.000000    ( 0.0000,  0.0000,  0.0000)
   4 Li     4.851111    4.851111   10.000000    ( 0.0000,  0.0000,  0.0000)
   5 Li     8.085185    4.851111   10.000000    ( 0.0000,  0.0000,  0.0000)
   6 Li     1.617037    8.085185   10.000000    ( 0.0000,  0.0000,  0.0000)
   7 Li     4.851111    8.085185   10.000000    ( 0.0000,  0.0000,  0.0000)
   8 Li     8.085185    8.085185   10.000000    ( 0.0000,  0.0000,  0.0000)
   9 Li     0.000000    0.000000   11.617037    ( 0.0000,  0.0000,  0.0000)
  10 Li     3.234074    0.000000   11.617037    ( 0.0000,  0.0000,  0.0000)
  11 Li     6.468148    0.000000   11.617037    ( 0.0000,  0.0000,  0.0000)
  12 Li     0.000000    3.234074   11.617037    ( 0.0000,  0.0000,  0.0000)
  13 Li     3.234074    3.234074   11.617037    ( 0.0000,  0.0000,  0.0000)
  14 Li     6.468148    3.234074   11.617037    ( 0.0000,  0.0000,  0.0000)
  15 Li     0.000000    6.468148   11.617037    ( 0.0000,  0.0000,  0.0000)
  16 Li     3.234074    6.468148   11.617037    ( 0.0000,  0.0000,  0.0000)
  17 Li     6.468148    6.468148   11.617037    ( 0.0000,  0.0000,  0.0000)
  18 Li     1.630601    1.632979   13.474040    ( 0.0000,  0.0000,  0.0000)
  19 Li     4.918049    1.591878   13.429235    ( 0.0000,  0.0000,  0.0000)
  20 Li     8.145136    1.643385   13.495704    ( 0.0000,  0.0000,  0.0000)
  21 Li     1.601429    4.803168   13.524645    ( 0.0000,  0.0000,  0.0000)
  22 Li     4.905220    4.861953   13.453164    ( 0.0000,  0.0000,  0.0000)
  23 Li     8.149776    4.828634   13.551436    ( 0.0000,  0.0000,  0.0000)
  24 Li     1.621678    8.046425   13.445112    ( 0.0000,  0.0000,  0.0000)
  25 Li     4.862040    8.059564   13.441705    ( 0.0000,  0.0000,  0.0000)
  26 Li     8.069444    8.055498   13.454707    ( 0.0000,  0.0000,  0.0000)
  27 Li    -0.025962   -0.147800   15.273105    ( 0.0000,  0.0000,  0.0000)
  28 Li     3.263319   -0.026710   15.298094    ( 0.0000,  0.0000,  0.0000)
  29 Li     6.448496   -0.011509   15.399125    ( 0.0000,  0.0000,  0.0000)
  30 Li     0.224108    3.060174   15.841915    ( 0.0000,  0.0000,  0.0000)
  31 Li     3.427831    3.225226   15.318840    ( 0.0000,  0.0000,  0.0000)
  32 Li     6.536099    3.215662   15.405578    ( 0.0000,  0.0000,  0.0000)
  33 Li     0.021425    6.476815   15.440288    ( 0.0000,  0.0000,  0.0000)
  34 Li     3.241188    6.479915   15.411085    ( 0.0000,  0.0000,  0.0000)
  35 Li     6.446082    6.479962   15.425283    ( 0.0000,  0.0000,  0.0000)
  36 O      0.294600    2.367902   17.678790    ( 0.0000,  0.0000,  0.0000)
  37 C      1.058977    1.367006   18.401864    ( 0.0000,  0.0000,  0.0000)
  38 C      2.286970    1.941386   19.082224    ( 0.0000,  0.0000,  0.0000)
  39 H      0.393436    0.871686   19.116426    ( 0.0000,  0.0000,  0.0000)
  40 H      1.349716    0.635142   17.643604    ( 0.0000,  0.0000,  0.0000)
  41 H      2.839385    1.135624   19.573597    ( 0.0000,  0.0000,  0.0000)
  42 H      2.953381    2.403997   18.351751    ( 0.0000,  0.0000,  0.0000)
  43 H      2.013814    2.685658   19.833187    ( 0.0000,  0.0000,  0.0000)
  44 H     -0.249708    2.861495   18.315235    ( 0.0000,  0.0000,  0.0000)

Unit cell:
           periodic     x           y           z      points  spacing
  1. axis:    yes    9.702222    0.000000    0.000000    60     0.1617
  2. axis:    yes    0.000000    9.702222    0.000000    60     0.1617
  3. axis:    no     0.000000    0.000000   24.851111   156     0.1593

  Lengths:   9.702222   9.702222  24.851111
  Angles:   90.000000  90.000000  90.000000

Effective grid spacing dv^(1/3) = 0.1609

     iter     time        total  log10-change:
                         energy  eigst   dens
iter:   1 19:51:26  -105.166119  -2.17
iter:   2 19:52:15  -105.166236  -2.97  -2.92
iter:   3 19:53:05  -105.166301c -3.43  -3.02
iter:   4 19:53:55  -105.166360c -3.74  -3.08
iter:   5 19:54:45  -105.166290c -3.14  -3.07
iter:   6 19:55:34  -105.166180c -3.87  -3.08
iter:   7 19:56:24  -105.166185c -3.98  -3.35
iter:   8 19:57:14  -105.166203c -4.24  -3.48
iter:   9 19:58:05  -105.166202c -4.68  -3.50
iter:  10 19:58:55  -105.166189c -3.97  -3.50
iter:  11 19:59:46  -105.166194c -4.64  -3.70
iter:  12 20:00:35  -105.166191c -5.13  -3.74
iter:  13 20:01:25  -105.166188c -5.57  -3.77
iter:  14 20:02:14  -105.166182c -5.12  -3.91
iter:  15 20:03:03  -105.166182c -6.01  -4.07c
iter:  16 20:03:52  -105.166184c -5.48  -4.20c
iter:  17 20:04:42  -105.166183c -6.36  -4.25c
iter:  18 20:05:32  -105.166183c -6.65  -4.54c
iter:  19 20:06:21  -105.166184c -6.53  -4.72c
iter:  20 20:07:11  -105.166183c -7.28  -4.73c
iter:  21 20:08:02  -105.166183c -7.12  -4.78c
iter:  22 20:08:52  -105.166183c -7.42c -4.96c

Converged after 22 iterations.

Dipole moment: (-13.999579, -2.134934, 0.444808) |e|*Ang

Energy contributions relative to reference atoms: (reference = -11509.077619)

Kinetic:       +115.255072
Potential:     -109.498665
External:        +0.000000
XC:            -111.106035
Entropy (-ST):   -0.151684
Local:           +0.259287
--------------------------
Free energy:   -105.242025
Extrapolated:  -105.166183

Dipole-layer corrected work functions: 3.129221, 2.274148 eV

Showing only first 2 kpts
 Kpt  Band  Eigenvalues  Occupancy
  0    26     -2.95573    1.98765
  0    27     -2.86270    1.92319
  0    28     -2.53819    0.07324
  0    29     -2.44810    0.01247

  1    26     -2.73203    1.29444
  1    27     -2.70226    1.00570
  1    28     -2.65587    0.57144
  1    29     -2.64315    0.47343


Fermi level: -2.70168

No gap

Forces in eV/Ang:
  0 Li    0.00244   -0.00168   -0.34370
  1 Li   -0.00163    0.00344   -0.34893
  2 Li   -0.01026   -0.00067   -0.34071
  3 Li   -0.00248    0.00633   -0.33730
  4 Li   -0.00086   -0.00036   -0.35457
  5 Li   -0.00135    0.00277   -0.33692
  6 Li   -0.00368   -0.00041   -0.35100
  7 Li   -0.00459    0.00548   -0.33025
  8 Li    0.00189   -0.00142   -0.35197
  9 Li    0.00454   -0.00653    0.29681
 10 Li    0.00262   -0.00260    0.28003
 11 Li    0.04557   -0.00165    0.26695
 12 Li    0.00427    0.00953    0.23614
 13 Li    0.02484    0.00965    0.28964
 14 Li    0.04098    0.01877    0.27264
 15 Li   -0.00068   -0.02353    0.26765
 16 Li   -0.01820   -0.04624    0.28200
 17 Li    0.05276   -0.04205    0.26242
 18 Li   -0.01226    0.00188   -0.00838
 19 Li   -0.02009    0.02190    0.02510
 20 Li   -0.00944    0.00678   -0.00853
 21 Li   -0.00563   -0.00797    0.01999
 22 Li   -0.01530    0.01142    0.00596
 23 Li    0.01242   -0.02745    0.00436
 24 Li    0.00428   -0.00306    0.00066
 25 Li    0.00431   -0.00000    0.00010
 26 Li   -0.02615   -0.01335   -0.00359
 27 Li    0.00816    0.02383    0.06862
 28 Li    0.00309   -0.00589    0.04698
 29 Li   -0.00068   -0.00936    0.04393
 30 Li   -0.02793    0.00573   -0.08163
 31 Li   -0.00132    0.01297    0.04405
 32 Li   -0.01454    0.02220    0.05484
 33 Li   -0.02193   -0.03722    0.05686
 34 Li    0.00118   -0.01246    0.04908
 35 Li    0.02831   -0.01044    0.07343
 36 O    -0.14147    0.22849   -0.07423
 37 C    -0.00301    0.04646    0.06716
 38 C    -0.05572   -0.04743   -0.00333
 39 H    -0.11667   -0.15741    0.14495
 40 H     0.07170   -0.22502   -0.16970
 41 H     0.12896   -0.17106    0.16462
 42 H     0.16948    0.14057   -0.16898
 43 H    -0.01644    0.19144    0.21196
 44 H    -0.04524    0.06661    0.05668

System changes: positions 

Initializing position-dependent things.

Density initialized from wave functions
       .-----------------------.  
      /|                       |  
     / |                       |  
    /  |                       |  
   /   |                       |  
  /    |                       |  
 *     |                       |  
 |     |                       |  
 |     |                       |  
 |     |                       |  
 |     |                       |  
 |     |H                      |  
 |     |CH     Li      Li H    Li 
 | HC  |  H                    |  
 |   Li|     Li      Li        |  
 | LiH |  Li      Li      Li   |  
 |     |   Li      Li          |  
 |     |Li      Li      Li     |  
 |     |                       |  
 |   LLi     LLi     LLi       |  
 |     |  Li      Li      Li   |  
 | Li  |   Li      Li          |  
 |     |Li      Li      Li     |  
 Li    | Li      Li            |  
 |    Li      Li      Li       |  
 |     |                       |  
 |     |                       |  
 |     |                       |  
 |     |                       |  
 |     |                       |  
 |     |                       |  
 |     .-----------------------.  
 |    /                       /   
 |   /                       /    
 |  /                       /     
 | /                       /      
 |/                       /       
 *-----------------------*        

Positions:
   0 Li     1.617037    1.617037   10.000000    ( 0.0000,  0.0000,  0.0000)
   1 Li     4.851111    1.617037   10.000000    ( 0.0000,  0.0000,  0.0000)
   2 Li     8.085185    1.617037   10.000000    ( 0.0000,  0.0000,  0.0000)
   3 Li     1.617037    4.851111   10.000000    ( 0.0000,  0.0000,  0.0000)
   4 Li     4.851111    4.851111   10.000000    ( 0.0000,  0.0000,  0.0000)
   5 Li     8.085185    4.851111   10.000000    ( 0.0000,  0.0000,  0.0000)
   6 Li     1.617037    8.085185   10.000000    ( 0.0000,  0.0000,  0.0000)
   7 Li     4.851111    8.085185   10.000000    ( 0.0000,  0.0000,  0.0000)
   8 Li     8.085185    8.085185   10.000000    ( 0.0000,  0.0000,  0.0000)
   9 Li     0.000000    0.000000   11.617037    ( 0.0000,  0.0000,  0.0000)
  10 Li     3.234074    0.000000   11.617037    ( 0.0000,  0.0000,  0.0000)
  11 Li     6.468148    0.000000   11.617037    ( 0.0000,  0.0000,  0.0000)
  12 Li     0.000000    3.234074   11.617037    ( 0.0000,  0.0000,  0.0000)
  13 Li     3.234074    3.234074   11.617037    ( 0.0000,  0.0000,  0.0000)
  14 Li     6.468148    3.234074   11.617037    ( 0.0000,  0.0000,  0.0000)
  15 Li     0.000000    6.468148   11.617037    ( 0.0000,  0.0000,  0.0000)
  16 Li     3.234074    6.468148   11.617037    ( 0.0000,  0.0000,  0.0000)
  17 Li     6.468148    6.468148   11.617037    ( 0.0000,  0.0000,  0.0000)
  18 Li     1.630601    1.632979   13.474040    ( 0.0000,  0.0000,  0.0000)
  19 Li     4.918049    1.591878   13.429235    ( 0.0000,  0.0000,  0.0000)
  20 Li     8.145136    1.643385   13.495704    ( 0.0000,  0.0000,  0.0000)
  21 Li     1.601429    4.803168   13.524645    ( 0.0000,  0.0000,  0.0000)
  22 Li     4.905220    4.861953   13.453164    ( 0.0000,  0.0000,  0.0000)
  23 Li     8.149776    4.828634   13.551436    ( 0.0000,  0.0000,  0.0000)
  24 Li     1.621678    8.046425   13.445112    ( 0.0000,  0.0000,  0.0000)
  25 Li     4.862040    8.059564   13.441705    ( 0.0000,  0.0000,  0.0000)
  26 Li     8.069444    8.055498   13.454707    ( 0.0000,  0.0000,  0.0000)
  27 Li    -0.025962   -0.147800   15.273105    ( 0.0000,  0.0000,  0.0000)
  28 Li     3.263319   -0.026710   15.298094    ( 0.0000,  0.0000,  0.0000)
  29 Li     6.448496   -0.011509   15.399125    ( 0.0000,  0.0000,  0.0000)
  30 Li     0.224108    3.060174   15.841915    ( 0.0000,  0.0000,  0.0000)
  31 Li     3.427831    3.225226   15.318840    ( 0.0000,  0.0000,  0.0000)
  32 Li     6.536099    3.215662   15.405578    ( 0.0000,  0.0000,  0.0000)
  33 Li     0.021425    6.476815   15.440288    ( 0.0000,  0.0000,  0.0000)
  34 Li     3.241188    6.479915   15.411085    ( 0.0000,  0.0000,  0.0000)
  35 Li     6.446082    6.479962   15.425283    ( 0.0000,  0.0000,  0.0000)
  36 O      0.294600    2.387902   17.678790    ( 0.0000,  0.0000,  0.0000)
  37 C      1.058977    1.367006   18.401864    ( 0.0000,  0.0000,  0.0000)
  38 C      2.286970    1.941386   19.082224    ( 0.0000,  0.0000,  0.0000)
  39 H      0.393436    0.871686   19.116426    ( 0.0000,  0.0000,  0.0000)
  40 H      1.349716    0.635142   17.643604    ( 0.0000,  0.0000,  0.0000)
  41 H      2.839385    1.135624   19.573597    ( 0.0000,  0.0000,  0.0000)
  42 H      2.953381    2.403997   18.351751    ( 0.0000,  0.0000,  0.0000)
  43 H      2.013814    2.685658   19.833187    ( 0.0000,  0.0000,  0.0000)
  44 H     -0.249708    2.861495   18.315235    ( 0.0000,  0.0000,  0.0000)

Unit cell:
           periodic     x           y           z      points  spacing
  1. axis:    yes    9.702222    0.000000    0.000000    60     0.1617
  2. axis:    yes    0.000000    9.702222    0.000000    60     0.1617
  3. axis:    no     0.000000    0.000000   24.851111   156     0.1593

  Lengths:   9.702222   9.702222  24.851111
  Angles:   90.000000  90.000000  90.000000

Effective grid spacing dv^(1/3) = 0.1609

     iter     time        total  log10-change:
                         energy  eigst   dens
iter:   1 20:10:17  -105.167201  -1.86
iter:   2 20:11:05  -105.166769  -2.66  -2.52
iter:   3 20:11:55  -105.166594c -3.17  -2.62
iter:   4 20:12:44  -105.165173c -2.68  -2.75
iter:   5 20:13:34  -105.165107c -2.91  -2.88
iter:   6 20:14:23  -105.165044c -3.17  -2.98
iter:   7 20:15:13  -105.165041c -3.53  -3.19
iter:   8 20:16:02  -105.165036c -3.78  -3.31
iter:   9 20:16:51  -105.165026c -4.46  -3.32
iter:  10 20:17:39  -105.165030c -4.09  -3.56
iter:  11 20:18:29  -105.165025c -4.79  -3.61
iter:  12 20:19:20  -105.165026c -5.57  -3.74
iter:  13 20:20:11  -105.165025c -5.13  -3.77
iter:  14 20:21:03  -105.165030c -5.06  -4.04c
iter:  15 20:21:53  -105.165027c -5.85  -4.03c
iter:  16 20:22:42  -105.165028c -6.14  -4.08c
iter:  17 20:23:32  -105.165026c -5.71  -4.14c
iter:  18 20:24:21  -105.165027c -5.83  -4.19c
iter:  19 20:25:10  -105.165026c -6.33  -4.28c
iter:  20 20:25:59  -105.165025c -5.98  -4.48c
iter:  21 20:26:49  -105.165025c -6.94  -4.64c
iter:  22 20:27:38  -105.165025c -6.70  -4.85c
iter:  23 20:28:28  -105.165025c -7.18  -4.86c
iter:  24 20:29:17  -105.165026c -7.31  -4.97c
iter:  25 20:30:06  -105.165026c -7.48c -5.07c

Converged after 25 iterations.

Dipole moment: (-14.004382, -2.145965, 0.449843) |e|*Ang

Energy contributions relative to reference atoms: (reference = -11509.077619)

Kinetic:       +115.178168
Potential:     -109.444948
External:        +0.000000
XC:            -111.081792
Entropy (-ST):   -0.151689
Local:           +0.259390
--------------------------
Free energy:   -105.240870
Extrapolated:  -105.165026

Dipole-layer corrected work functions: 3.129064, 2.264311 eV

Showing only first 2 kpts
 Kpt  Band  Eigenvalues  Occupancy
  0    26     -2.95071    1.98764
  0    27     -2.85771    1.92320
  0    28     -2.53333    0.07343
  0    29     -2.44309    0.01246

  1    26     -2.72738    1.29760
  1    27     -2.69696    1.00271
  1    28     -2.65092    0.57185
  1    29     -2.63801    0.47244


Fermi level: -2.69669

No gap

Forces in eV/Ang:
  0 Li    0.00238   -0.00178   -0.34357
  1 Li   -0.00160    0.00347   -0.34885
  2 Li   -0.01023   -0.00078   -0.34064
  3 Li   -0.00250    0.00632   -0.33725
  4 Li   -0.00073   -0.00043   -0.35451
  5 Li   -0.00148    0.00281   -0.33691
  6 Li   -0.00381   -0.00027   -0.35095
  7 Li   -0.00449    0.00548   -0.33022
  8 Li    0.00195   -0.00138   -0.35190
  9 Li    0.00457   -0.00671    0.29650
 10 Li    0.00251   -0.00248    0.28017
 11 Li    0.04562   -0.00167    0.26704
 12 Li    0.00426    0.00952    0.23636
 13 Li    0.02487    0.00956    0.28962
 14 Li    0.04099    0.01868    0.27259
 15 Li   -0.00071   -0.02341    0.26773
 16 Li   -0.01809   -0.04630    0.28216
 17 Li    0.05268   -0.04189    0.26226
 18 Li   -0.01244    0.00193   -0.00798
 19 Li   -0.02009    0.02192    0.02507
 20 Li   -0.00923    0.00669   -0.00837
 21 Li   -0.00551   -0.00787    0.01907
 22 Li   -0.01525    0.01137    0.00633
 23 Li    0.01222   -0.02715    0.00358
 24 Li    0.00436   -0.00327    0.00093
 25 Li    0.00426    0.00006   -0.00022
 26 Li   -0.02621   -0.01348   -0.00346
 27 Li    0.00827    0.02294    0.06714
 28 Li    0.00328   -0.00600    0.04628
 29 Li   -0.00056   -0.00939    0.04412
 30 Li   -0.03075    0.01419   -0.09379
 31 Li   -0.00079    0.01277    0.04359
 32 Li   -0.01494    0.02184    0.05463
 33 Li   -0.02189   -0.03584    0.05632
 34 Li    0.00149   -0.01188    0.04897
 35 Li    0.02802   -0.01025    0.07324
 36 O     0.26693   -0.32499   -0.22027
 37 C    -0.07786    0.26517   -0.02958
 38 C    -0.06640   -0.05230   -0.00696
 39 H    -0.14902   -0.11769    0.11712
 40 H     0.03640   -0.18297   -0.20013
 41 H     0.13053   -0.17450    0.16471
 42 H     0.16800    0.13749   -0.16814
 43 H    -0.01604    0.18779    0.20993
 44 H    -0.32846    0.31012    0.37235

System changes: positions 

Initializing position-dependent things.

Density initialized from wave functions
       .-----------------------.  
      /|                       |  
     / |                       |  
    /  |                       |  
   /   |                       |  
  /    |                       |  
 *     |                       |  
 |     |                       |  
 |     |                       |  
 |     |                       |  
 |     |                       |  
 |     |H                      |  
 |     |CH     Li      Li H    Li 
 | HC  |  H                    |  
 |   Li|     Li      Li        |  
 | LiH |  Li      Li      Li   |  
 |     |   Li      Li          |  
 |     |Li      Li      Li     |  
 |     |                       |  
 |   LLi     LLi     LLi       |  
 |     |  Li      Li      Li   |  
 | Li  |   Li      Li          |  
 |     |Li      Li      Li     |  
 Li    | Li      Li            |  
 |    Li      Li      Li       |  
 |     |                       |  
 |     |                       |  
 |     |                       |  
 |     |                       |  
 |     |                       |  
 |     |                       |  
 |     .-----------------------.  
 |    /                       /   
 |   /                       /    
 |  /                       /     
 | /                       /      
 |/                       /       
 *-----------------------*        

Positions:
   0 Li     1.617037    1.617037   10.000000    ( 0.0000,  0.0000,  0.0000)
   1 Li     4.851111    1.617037   10.000000    ( 0.0000,  0.0000,  0.0000)
   2 Li     8.085185    1.617037   10.000000    ( 0.0000,  0.0000,  0.0000)
   3 Li     1.617037    4.851111   10.000000    ( 0.0000,  0.0000,  0.0000)
   4 Li     4.851111    4.851111   10.000000    ( 0.0000,  0.0000,  0.0000)
   5 Li     8.085185    4.851111   10.000000    ( 0.0000,  0.0000,  0.0000)
   6 Li     1.617037    8.085185   10.000000    ( 0.0000,  0.0000,  0.0000)
   7 Li     4.851111    8.085185   10.000000    ( 0.0000,  0.0000,  0.0000)
   8 Li     8.085185    8.085185   10.000000    ( 0.0000,  0.0000,  0.0000)
   9 Li     0.000000    0.000000   11.617037    ( 0.0000,  0.0000,  0.0000)
  10 Li     3.234074    0.000000   11.617037    ( 0.0000,  0.0000,  0.0000)
  11 Li     6.468148    0.000000   11.617037    ( 0.0000,  0.0000,  0.0000)
  12 Li     0.000000    3.234074   11.617037    ( 0.0000,  0.0000,  0.0000)
  13 Li     3.234074    3.234074   11.617037    ( 0.0000,  0.0000,  0.0000)
  14 Li     6.468148    3.234074   11.617037    ( 0.0000,  0.0000,  0.0000)
  15 Li     0.000000    6.468148   11.617037    ( 0.0000,  0.0000,  0.0000)
  16 Li     3.234074    6.468148   11.617037    ( 0.0000,  0.0000,  0.0000)
  17 Li     6.468148    6.468148   11.617037    ( 0.0000,  0.0000,  0.0000)
  18 Li     1.630601    1.632979   13.474040    ( 0.0000,  0.0000,  0.0000)
  19 Li     4.918049    1.591878   13.429235    ( 0.0000,  0.0000,  0.0000)
  20 Li     8.145136    1.643385   13.495704    ( 0.0000,  0.0000,  0.0000)
  21 Li     1.601429    4.803168   13.524645    ( 0.0000,  0.0000,  0.0000)
  22 Li     4.905220    4.861953   13.453164    ( 0.0000,  0.0000,  0.0000)
  23 Li     8.149776    4.828634   13.551436    ( 0.0000,  0.0000,  0.0000)
  24 Li     1.621678    8.046425   13.445112    ( 0.0000,  0.0000,  0.0000)
  25 Li     4.862040    8.059564   13.441705    ( 0.0000,  0.0000,  0.0000)
  26 Li     8.069444    8.055498   13.454707    ( 0.0000,  0.0000,  0.0000)
  27 Li    -0.025962   -0.147800   15.273105    ( 0.0000,  0.0000,  0.0000)
  28 Li     3.263319   -0.026710   15.298094    ( 0.0000,  0.0000,  0.0000)
  29 Li     6.448496   -0.011509   15.399125    ( 0.0000,  0.0000,  0.0000)
  30 Li     0.224108    3.060174   15.841915    ( 0.0000,  0.0000,  0.0000)
  31 Li     3.427831    3.225226   15.318840    ( 0.0000,  0.0000,  0.0000)
  32 Li     6.536099    3.215662   15.405578    ( 0.0000,  0.0000,  0.0000)
  33 Li     0.021425    6.476815   15.440288    ( 0.0000,  0.0000,  0.0000)
  34 Li     3.241188    6.479915   15.411085    ( 0.0000,  0.0000,  0.0000)
  35 Li     6.446082    6.479962   15.425283    ( 0.0000,  0.0000,  0.0000)
  36 O      0.294600    2.377902   17.668790    ( 0.0000,  0.0000,  0.0000)
  37 C      1.058977    1.367006   18.401864    ( 0.0000,  0.0000,  0.0000)
  38 C      2.286970    1.941386   19.082224    ( 0.0000,  0.0000,  0.0000)
  39 H      0.393436    0.871686   19.116426    ( 0.0000,  0.0000,  0.0000)
  40 H      1.349716    0.635142   17.643604    ( 0.0000,  0.0000,  0.0000)
  41 H      2.839385    1.135624   19.573597    ( 0.0000,  0.0000,  0.0000)
  42 H      2.953381    2.403997   18.351751    ( 0.0000,  0.0000,  0.0000)
  43 H      2.013814    2.685658   19.833187    ( 0.0000,  0.0000,  0.0000)
  44 H     -0.249708    2.861495   18.315235    ( 0.0000,  0.0000,  0.0000)

Unit cell:
           periodic     x           y           z      points  spacing
  1. axis:    yes    9.702222    0.000000    0.000000    60     0.1617
  2. axis:    yes    0.000000    9.702222    0.000000    60     0.1617
  3. axis:    no     0.000000    0.000000   24.851111   156     0.1593

  Lengths:   9.702222   9.702222  24.851111
  Angles:   90.000000  90.000000  90.000000

Effective grid spacing dv^(1/3) = 0.1609

     iter     time        total  log10-change:
                         energy  eigst   dens
iter:   1 20:31:31  -105.172850  -2.12
iter:   2 20:32:21  -105.169260  -2.40  -2.16
iter:   3 20:33:10  -105.167885c -3.16  -2.35
iter:   4 20:33:59  -105.166788c -2.41  -2.64
iter:   5 20:34:48  -105.166787c -3.07  -2.71
iter:   6 20:35:38  -105.166472c -2.90  -2.77
iter:   7 20:36:28  -105.166464c -3.30  -3.06
iter:   8 20:37:18  -105.166456c -3.68  -3.24
iter:   9 20:38:08  -105.166455c -3.92  -3.35
iter:  10 20:38:58  -105.166453c -4.45  -3.42
iter:  11 20:39:46  -105.166455c -4.11  -3.51
iter:  12 20:40:34  -105.166452c -4.66  -3.61
iter:  13 20:41:22  -105.166452c -4.52  -3.66
iter:  14 20:42:10  -105.166452c -5.05  -3.77
iter:  15 20:43:00  -105.166447c -5.13  -3.83
iter:  16 20:43:48  -105.166450c -5.39  -4.11c
iter:  17 20:44:39  -105.166452c -5.03  -4.15c
iter:  18 20:45:28  -105.166451c -5.80  -3.92
iter:  19 20:46:18  -105.166448c -5.52  -4.12c
iter:  20 20:47:07  -105.166449c -6.24  -4.53c
iter:  21 20:47:57  -105.166449c -6.28  -4.61c
iter:  22 20:48:47  -105.166449c -6.36  -4.66c
iter:  23 20:49:37  -105.166449c -6.68  -4.66c
iter:  24 20:50:26  -105.166449c -6.65  -4.80c
iter:  25 20:51:15  -105.166449c -6.97  -4.96c
iter:  26 20:52:04  -105.166449c -6.99  -4.97c
iter:  27 20:52:54  -105.166449c -7.17  -5.06c
iter:  28 20:53:43  -105.166449c -7.12  -5.29c
iter:  29 20:54:32  -105.166449c -7.36  -5.38c
iter:  30 20:55:22  -105.166449c -7.52c -5.42c

Converged after 30 iterations.

Dipole moment: (-14.010257, -2.145100, 0.449920) |e|*Ang

Energy contributions relative to reference atoms: (reference = -11509.077619)

Kinetic:       +114.787045
Potential:     -109.164615
External:        +0.000000
XC:            -110.972400
Entropy (-ST):   -0.151675
Local:           +0.259358
--------------------------
Free energy:   -105.242286
Extrapolated:  -105.166449

Dipole-layer corrected work functions: 3.128850, 2.263949 eV

Showing only first 2 kpts
 Kpt  Band  Eigenvalues  Occupancy
  0    26     -2.95045    1.98765
  0    27     -2.85731    1.92303
  0    28     -2.53298    0.07335
  0    29     -2.44283    0.01247

  1    26     -2.72702    1.29700
  1    27     -2.69692    1.00523
  1    28     -2.65067    0.57214
  1    29     -2.63752    0.47094


Fermi level: -2.69640

No gap

Forces in eV/Ang:
  0 Li    0.00242   -0.00175   -0.34366
  1 Li   -0.00162    0.00343   -0.34884
  2 Li   -0.01025   -0.00075   -0.34071
  3 Li   -0.00253    0.00631   -0.33727
  4 Li   -0.00076   -0.00043   -0.35449
  5 Li   -0.00141    0.00282   -0.33691
  6 Li   -0.00378   -0.00030   -0.35094
  7 Li   -0.00449    0.00552   -0.33016
  8 Li    0.00193   -0.00140   -0.35188
  9 Li    0.00454   -0.00662    0.29675
 10 Li    0.00259   -0.00252    0.28013
 11 Li    0.04559   -0.00168    0.26704
 12 Li    0.00428    0.00953    0.23641
 13 Li    0.02486    0.00958    0.28973
 14 Li    0.04101    0.01873    0.27268
 15 Li   -0.00071   -0.02349    0.26769
 16 Li   -0.01814   -0.04624    0.28220
 17 Li    0.05273   -0.04196    0.26238
 18 Li   -0.01218    0.00181   -0.00865
 19 Li   -0.02006    0.02197    0.02523
 20 Li   -0.00952    0.00668   -0.00917
 21 Li   -0.00553   -0.00783    0.01918
 22 Li   -0.01530    0.01138    0.00628
 23 Li    0.01227   -0.02721    0.00365
 24 Li    0.00426   -0.00311    0.00095
 25 Li    0.00430   -0.00001   -0.00019
 26 Li   -0.02616   -0.01339   -0.00340
 27 Li    0.00820    0.02343    0.06808
 28 Li    0.00337   -0.00615    0.04660
 29 Li   -0.00098   -0.00963    0.04391
 30 Li   -0.03020    0.02002   -0.11347
 31 Li   -0.00086    0.01285    0.04369
 32 Li   -0.01531    0.02219    0.05468
 33 Li   -0.02195   -0.03615    0.05648
 34 Li    0.00145   -0.01203    0.04898
 35 Li    0.02811   -0.01027    0.07330
 36 O    -0.05988    0.01016    0.24719
 37 C    -0.04044    0.17383   -0.08649
 38 C    -0.07756   -0.03075   -0.01618
 39 H    -0.15197   -0.11388    0.11772
 40 H     0.06263   -0.21494   -0.17248
 41 H     0.12528   -0.17523    0.16372
 42 H     0.16920    0.13791   -0.16733
 43 H    -0.01424    0.19071    0.21217
 44 H    -0.02920    0.06604   -0.03102

System changes: positions 

Initializing position-dependent things.

Density initialized from wave functions
       .-----------------------.  
      /|                       |  
     / |                       |  
    /  |                       |  
   /   |                       |  
  /    |                       |  
 *     |                       |  
 |     |                       |  
 |     |                       |  
 |     |                       |  
 |     |                       |  
 |     |H                      |  
 |     |CH     Li      Li H    Li 
 | HC  |  H                    |  
 |   Li|     Li      Li        |  
 | LiH |  Li      Li      Li   |  
 |     |   Li      Li          |  
 |     |Li      Li      Li     |  
 |     |                       |  
 |   LLi     LLi     LLi       |  
 |     |  Li      Li      Li   |  
 | Li  |   Li      Li          |  
 |     |Li      Li      Li     |  
 Li    | Li      Li            |  
 |    Li      Li      Li       |  
 |     |                       |  
 |     |                       |  
 |     |                       |  
 |     |                       |  
 |     |                       |  
 |     |                       |  
 |     .-----------------------.  
 |    /                       /   
 |   /                       /    
 |  /                       /     
 | /                       /      
 |/                       /       
 *-----------------------*        

Positions:
   0 Li     1.617037    1.617037   10.000000    ( 0.0000,  0.0000,  0.0000)
   1 Li     4.851111    1.617037   10.000000    ( 0.0000,  0.0000,  0.0000)
   2 Li     8.085185    1.617037   10.000000    ( 0.0000,  0.0000,  0.0000)
   3 Li     1.617037    4.851111   10.000000    ( 0.0000,  0.0000,  0.0000)
   4 Li     4.851111    4.851111   10.000000    ( 0.0000,  0.0000,  0.0000)
   5 Li     8.085185    4.851111   10.000000    ( 0.0000,  0.0000,  0.0000)
   6 Li     1.617037    8.085185   10.000000    ( 0.0000,  0.0000,  0.0000)
   7 Li     4.851111    8.085185   10.000000    ( 0.0000,  0.0000,  0.0000)
   8 Li     8.085185    8.085185   10.000000    ( 0.0000,  0.0000,  0.0000)
   9 Li     0.000000    0.000000   11.617037    ( 0.0000,  0.0000,  0.0000)
  10 Li     3.234074    0.000000   11.617037    ( 0.0000,  0.0000,  0.0000)
  11 Li     6.468148    0.000000   11.617037    ( 0.0000,  0.0000,  0.0000)
  12 Li     0.000000    3.234074   11.617037    ( 0.0000,  0.0000,  0.0000)
  13 Li     3.234074    3.234074   11.617037    ( 0.0000,  0.0000,  0.0000)
  14 Li     6.468148    3.234074   11.617037    ( 0.0000,  0.0000,  0.0000)
  15 Li     0.000000    6.468148   11.617037    ( 0.0000,  0.0000,  0.0000)
  16 Li     3.234074    6.468148   11.617037    ( 0.0000,  0.0000,  0.0000)
  17 Li     6.468148    6.468148   11.617037    ( 0.0000,  0.0000,  0.0000)
  18 Li     1.630601    1.632979   13.474040    ( 0.0000,  0.0000,  0.0000)
  19 Li     4.918049    1.591878   13.429235    ( 0.0000,  0.0000,  0.0000)
  20 Li     8.145136    1.643385   13.495704    ( 0.0000,  0.0000,  0.0000)
  21 Li     1.601429    4.803168   13.524645    ( 0.0000,  0.0000,  0.0000)
  22 Li     4.905220    4.861953   13.453164    ( 0.0000,  0.0000,  0.0000)
  23 Li     8.149776    4.828634   13.551436    ( 0.0000,  0.0000,  0.0000)
  24 Li     1.621678    8.046425   13.445112    ( 0.0000,  0.0000,  0.0000)
  25 Li     4.862040    8.059564   13.441705    ( 0.0000,  0.0000,  0.0000)
  26 Li     8.069444    8.055498   13.454707    ( 0.0000,  0.0000,  0.0000)
  27 Li    -0.025962   -0.147800   15.273105    ( 0.0000,  0.0000,  0.0000)
  28 Li     3.263319   -0.026710   15.298094    ( 0.0000,  0.0000,  0.0000)
  29 Li     6.448496   -0.011509   15.399125    ( 0.0000,  0.0000,  0.0000)
  30 Li     0.224108    3.060174   15.841915    ( 0.0000,  0.0000,  0.0000)
  31 Li     3.427831    3.225226   15.318840    ( 0.0000,  0.0000,  0.0000)
  32 Li     6.536099    3.215662   15.405578    ( 0.0000,  0.0000,  0.0000)
  33 Li     0.021425    6.476815   15.440288    ( 0.0000,  0.0000,  0.0000)
  34 Li     3.241188    6.479915   15.411085    ( 0.0000,  0.0000,  0.0000)
  35 Li     6.446082    6.479962   15.425283    ( 0.0000,  0.0000,  0.0000)
  36 O      0.294600    2.377902   17.688790    ( 0.0000,  0.0000,  0.0000)
  37 C      1.058977    1.367006   18.401864    ( 0.0000,  0.0000,  0.0000)
  38 C      2.286970    1.941386   19.082224    ( 0.0000,  0.0000,  0.0000)
  39 H      0.393436    0.871686   19.116426    ( 0.0000,  0.0000,  0.0000)
  40 H      1.349716    0.635142   17.643604    ( 0.0000,  0.0000,  0.0000)
  41 H      2.839385    1.135624   19.573597    ( 0.0000,  0.0000,  0.0000)
  42 H      2.953381    2.403997   18.351751    ( 0.0000,  0.0000,  0.0000)
  43 H      2.013814    2.685658   19.833187    ( 0.0000,  0.0000,  0.0000)
  44 H     -0.249708    2.861495   18.315235    ( 0.0000,  0.0000,  0.0000)

Unit cell:
           periodic     x           y           z      points  spacing
  1. axis:    yes    9.702222    0.000000    0.000000    60     0.1617
  2. axis:    yes    0.000000    9.702222    0.000000    60     0.1617
  3. axis:    no     0.000000    0.000000   24.851111   156     0.1593

  Lengths:   9.702222   9.702222  24.851111
  Angles:   90.000000  90.000000  90.000000

Effective grid spacing dv^(1/3) = 0.1609

     iter     time        total  log10-change:
                         energy  eigst   dens
iter:   1 20:56:49  -105.184833  -1.75
iter:   2 20:57:38  -105.171756  -2.05  -1.93
iter:   3 20:58:30  -105.168400c -2.74  -2.13
iter:   4 20:59:19  -105.165090c -1.92  -2.42
iter:   5 21:00:08  -105.164164c -2.73  -2.39
iter:   6 21:00:56  -105.163989c -2.35  -2.60
iter:   7 21:01:45  -105.163778c -2.51  -2.82
iter:   8 21:02:33  -105.163962c -2.78  -2.86
iter:   9 21:03:21  -105.163574c -2.90  -2.67
iter:  10 21:04:12  -105.163513c -3.88  -3.23
iter:  11 21:05:02  -105.163535c -3.77  -3.36
iter:  12 21:05:51  -105.163531c -3.97  -3.38
iter:  13 21:06:39  -105.163551c -4.14  -3.43
iter:  14 21:07:29  -105.163541c -4.26  -3.59
iter:  15 21:08:18  -105.163537c -5.06  -3.60
iter:  16 21:09:09  -105.163533c -4.98  -3.74
iter:  17 21:09:59  -105.163535c -5.51  -4.02c
iter:  18 21:10:48  -105.163536c -5.53  -4.04c
iter:  19 21:11:41  -105.163537c -5.22  -4.12c
iter:  20 21:12:31  -105.163538c -5.47  -4.12c
iter:  21 21:13:19  -105.163537c -6.11  -4.36c
iter:  22 21:14:07  -105.163537c -6.18  -4.47c
iter:  23 21:14:57  -105.163537c -6.04  -4.51c
iter:  24 21:15:46  -105.163537c -6.23  -4.63c
iter:  25 21:16:35  -105.163537c -6.36  -4.78c
iter:  26 21:17:24  -105.163537c -6.70  -4.88c
iter:  27 21:18:15  -105.163537c -6.69  -4.90c
iter:  28 21:19:05  -105.163537c -6.73  -4.94c
iter:  29 21:19:54  -105.163537c -6.92  -5.07c
iter:  30 21:20:43  -105.163538c -7.07  -5.07c
iter:  31 21:21:33  -105.163537c -7.27  -5.29c
iter:  32 21:22:23  -105.163538c -7.39  -5.37c
iter:  33 21:23:14  -105.163538c -7.37  -5.54c
iter:  34 21:24:04  -105.163538c -7.49c -5.57c

Converged after 34 iterations.

Dipole moment: (-13.993603, -2.135792, 0.444666) |e|*Ang

Energy contributions relative to reference atoms: (reference = -11509.077619)

Kinetic:       +115.646903
Potential:     -109.778685
External:        +0.000000
XC:            -111.215531
Entropy (-ST):   -0.151700
Local:           +0.259625
--------------------------
Free energy:   -105.239387
Extrapolated:  -105.163538

Dipole-layer corrected work functions: 3.129369, 2.274569 eV

Showing only first 2 kpts
 Kpt  Band  Eigenvalues  Occupancy
  0    26     -2.95598    1.98764
  0    27     -2.86310    1.92336
  0    28     -2.53854    0.07333
  0    29     -2.44835    0.01246

  1    26     -2.73238    1.29507
  1    27     -2.70228    1.00314
  1    28     -2.65613    0.57121
  1    29     -2.64364    0.47493


Fermi level: -2.70197

No gap

Forces in eV/Ang:
  0 Li    0.00237   -0.00172   -0.34360
  1 Li   -0.00155    0.00343   -0.34890
  2 Li   -0.01025   -0.00074   -0.34064
  3 Li   -0.00254    0.00631   -0.33721
  4 Li   -0.00076   -0.00041   -0.35455
  5 Li   -0.00140    0.00276   -0.33686
  6 Li   -0.00378   -0.00033   -0.35099
  7 Li   -0.00450    0.00554   -0.33026
  8 Li    0.00190   -0.00135   -0.35194
  9 Li    0.00455   -0.00664    0.29653
 10 Li    0.00256   -0.00252    0.28008
 11 Li    0.04560   -0.00166    0.26686
 12 Li    0.00424    0.00956    0.23608
 13 Li    0.02485    0.00963    0.28963
 14 Li    0.04097    0.01872    0.27257
 15 Li   -0.00072   -0.02347    0.26771
 16 Li   -0.01815   -0.04632    0.28210
 17 Li    0.05276   -0.04197    0.26236
 18 Li   -0.01251    0.00203   -0.00770
 19 Li   -0.02013    0.02189    0.02492
 20 Li   -0.00915    0.00680   -0.00772
 21 Li   -0.00557   -0.00801    0.01984
 22 Li   -0.01526    0.01141    0.00603
 23 Li    0.01235   -0.02737    0.00423
 24 Li    0.00438   -0.00324    0.00066
 25 Li    0.00427    0.00002    0.00008
 26 Li   -0.02620   -0.01346   -0.00366
 27 Li    0.00825    0.02330    0.06761
 28 Li    0.00299   -0.00576    0.04669
 29 Li   -0.00028   -0.00915    0.04408
 30 Li   -0.02846    0.00065   -0.06320
 31 Li   -0.00128    0.01293    0.04396
 32 Li   -0.01425    0.02190    0.05469
 33 Li   -0.02188   -0.03689    0.05668
 34 Li    0.00126   -0.01233    0.04901
 35 Li    0.02819   -0.01043    0.07330
 36 O     0.19403   -0.13391   -0.54175
 37 C    -0.04241    0.13957    0.12303
 38 C    -0.04442   -0.06943    0.00597
 39 H    -0.11365   -0.16136    0.14395
 40 H     0.04482   -0.19236   -0.19758
 41 H     0.13428   -0.17035    0.16562
 42 H     0.16823    0.14014   -0.16983
 43 H    -0.01827    0.18843    0.20965
 44 H    -0.34901    0.31917    0.46071

System changes: positions 

Initializing position-dependent things.

Density initialized from wave functions
       .-----------------------.  
      /|                       |  
     / |                       |  
    /  |                       |  
   /   |                       |  
  /    |                       |  
 *     |                       |  
 |     |                       |  
 |     |                       |  
 |     |                       |  
 |     |                       |  
 |     |H                      |  
 |     |CH     Li      Li H    Li 
 | HC  |  H                    |  
 |   Li|     Li      Li        |  
 | LiH |  Li      Li      Li   |  
 |     |   Li      Li          |  
 |     |Li      Li      Li     |  
 |     |                       |  
 |   LLi     LLi     LLi       |  
 |     |  Li      Li      Li   |  
 | Li  |   Li      Li          |  
 |     |Li      Li      Li     |  
 Li    | Li      Li            |  
 |    Li      Li      Li       |  
 |     |                       |  
 |     |                       |  
 |     |                       |  
 |     |                       |  
 |     |                       |  
 |     |                       |  
 |     .-----------------------.  
 |    /                       /   
 |   /                       /    
 |  /                       /     
 | /                       /      
 |/                       /       
 *-----------------------*        

Positions:
   0 Li     1.617037    1.617037   10.000000    ( 0.0000,  0.0000,  0.0000)
   1 Li     4.851111    1.617037   10.000000    ( 0.0000,  0.0000,  0.0000)
   2 Li     8.085185    1.617037   10.000000    ( 0.0000,  0.0000,  0.0000)
   3 Li     1.617037    4.851111   10.000000    ( 0.0000,  0.0000,  0.0000)
   4 Li     4.851111    4.851111   10.000000    ( 0.0000,  0.0000,  0.0000)
   5 Li     8.085185    4.851111   10.000000    ( 0.0000,  0.0000,  0.0000)
   6 Li     1.617037    8.085185   10.000000    ( 0.0000,  0.0000,  0.0000)
   7 Li     4.851111    8.085185   10.000000    ( 0.0000,  0.0000,  0.0000)
   8 Li     8.085185    8.085185   10.000000    ( 0.0000,  0.0000,  0.0000)
   9 Li     0.000000    0.000000   11.617037    ( 0.0000,  0.0000,  0.0000)
  10 Li     3.234074    0.000000   11.617037    ( 0.0000,  0.0000,  0.0000)
  11 Li     6.468148    0.000000   11.617037    ( 0.0000,  0.0000,  0.0000)
  12 Li     0.000000    3.234074   11.617037    ( 0.0000,  0.0000,  0.0000)
  13 Li     3.234074    3.234074   11.617037    ( 0.0000,  0.0000,  0.0000)
  14 Li     6.468148    3.234074   11.617037    ( 0.0000,  0.0000,  0.0000)
  15 Li     0.000000    6.468148   11.617037    ( 0.0000,  0.0000,  0.0000)
  16 Li     3.234074    6.468148   11.617037    ( 0.0000,  0.0000,  0.0000)
  17 Li     6.468148    6.468148   11.617037    ( 0.0000,  0.0000,  0.0000)
  18 Li     1.630601    1.632979   13.474040    ( 0.0000,  0.0000,  0.0000)
  19 Li     4.918049    1.591878   13.429235    ( 0.0000,  0.0000,  0.0000)
  20 Li     8.145136    1.643385   13.495704    ( 0.0000,  0.0000,  0.0000)
  21 Li     1.601429    4.803168   13.524645    ( 0.0000,  0.0000,  0.0000)
  22 Li     4.905220    4.861953   13.453164    ( 0.0000,  0.0000,  0.0000)
  23 Li     8.149776    4.828634   13.551436    ( 0.0000,  0.0000,  0.0000)
  24 Li     1.621678    8.046425   13.445112    ( 0.0000,  0.0000,  0.0000)
  25 Li     4.862040    8.059564   13.441705    ( 0.0000,  0.0000,  0.0000)
  26 Li     8.069444    8.055498   13.454707    ( 0.0000,  0.0000,  0.0000)
  27 Li    -0.025962   -0.147800   15.273105    ( 0.0000,  0.0000,  0.0000)
  28 Li     3.263319   -0.026710   15.298094    ( 0.0000,  0.0000,  0.0000)
  29 Li     6.448496   -0.011509   15.399125    ( 0.0000,  0.0000,  0.0000)
  30 Li     0.224108    3.060174   15.841915    ( 0.0000,  0.0000,  0.0000)
  31 Li     3.427831    3.225226   15.318840    ( 0.0000,  0.0000,  0.0000)
  32 Li     6.536099    3.215662   15.405578    ( 0.0000,  0.0000,  0.0000)
  33 Li     0.021425    6.476815   15.440288    ( 0.0000,  0.0000,  0.0000)
  34 Li     3.241188    6.479915   15.411085    ( 0.0000,  0.0000,  0.0000)
  35 Li     6.446082    6.479962   15.425283    ( 0.0000,  0.0000,  0.0000)
  36 O      0.294600    2.377902   17.678790    ( 0.0000,  0.0000,  0.0000)
  37 C      1.048977    1.367006   18.401864    ( 0.0000,  0.0000,  0.0000)
  38 C      2.286970    1.941386   19.082224    ( 0.0000,  0.0000,  0.0000)
  39 H      0.393436    0.871686   19.116426    ( 0.0000,  0.0000,  0.0000)
  40 H      1.349716    0.635142   17.643604    ( 0.0000,  0.0000,  0.0000)
[...]
  39 H      0.393436    0.871686   19.116426    ( 0.0000,  0.0000,  0.0000)
  40 H      1.349716    0.635142   17.643604    ( 0.0000,  0.0000,  0.0000)
  41 H      2.839385    1.135624   19.573597    ( 0.0000,  0.0000,  0.0000)
  42 H      2.953381    2.403997   18.351751    ( 0.0000,  0.0000,  0.0000)
  43 H      2.013814    2.685658   19.833187    ( 0.0000,  0.0000,  0.0000)
  44 H     -0.249708    2.861495   18.305235    ( 0.0000,  0.0000,  0.0000)

Unit cell:
           periodic     x           y           z      points  spacing
  1. axis:    yes    9.702222    0.000000    0.000000    60     0.1617
  2. axis:    yes    0.000000    9.702222    0.000000    60     0.1617
  3. axis:    no     0.000000    0.000000   24.851111   156     0.1593

  Lengths:   9.702222   9.702222  24.851111
  Angles:   90.000000  90.000000  90.000000

Effective grid spacing dv^(1/3) = 0.1609

     iter     time        total  log10-change:
                         energy  eigst   dens
iter:   1 10:39:18  -105.168380  -2.46
iter:   2 10:40:07  -105.165574  -2.74  -2.28
iter:   3 10:40:56  -105.164857c -3.49  -2.47
iter:   4 10:41:46  -105.164263c -2.48  -2.80
iter:   5 10:42:35  -105.163747c -3.33  -2.59
iter:   6 10:43:23  -105.163716c -2.83  -2.88
iter:   7 10:44:14  -105.163686c -3.29  -3.22
iter:   8 10:45:05  -105.163673c -3.74  -3.23
iter:   9 10:45:53  -105.163633c -3.58  -3.12
iter:  10 10:46:42  -105.163625c -4.57  -3.50
iter:  11 10:47:31  -105.163626c -4.75  -3.61
iter:  12 10:48:21  -105.163639c -4.61  -3.68
iter:  13 10:49:09  -105.163630c -4.93  -3.77
iter:  14 10:50:00  -105.163630c -4.78  -3.85
iter:  15 10:50:48  -105.163627c -5.39  -3.84
iter:  16 10:51:37  -105.163630c -5.26  -4.01c
iter:  17 10:52:25  -105.163631c -5.21  -4.06c
iter:  18 10:53:14  -105.163632c -5.80  -4.12c
iter:  19 10:54:02  -105.163632c -5.81  -4.43c
iter:  20 10:54:52  -105.163632c -6.30  -4.52c
iter:  21 10:55:41  -105.163632c -6.04  -4.55c
iter:  22 10:56:32  -105.163632c -6.58  -4.71c
iter:  23 10:57:22  -105.163632c -6.72  -4.79c
iter:  24 10:58:11  -105.163632c -6.93  -4.81c
iter:  25 10:59:00  -105.163632c -6.97  -4.89c
iter:  26 10:59:49  -105.163632c -7.16  -4.94c
iter:  27 11:00:39  -105.163631c -7.21  -4.99c
iter:  28 11:01:27  -105.163632c -7.38  -5.09c
iter:  29 11:02:16  -105.163632c -7.58c -5.18c

Converged after 29 iterations.

Dipole moment: (-13.999155, -2.140914, 0.446554) |e|*Ang

Energy contributions relative to reference atoms: (reference = -11509.077619)

Kinetic:       +115.504637
Potential:     -109.679627
External:        +0.000000
XC:            -111.172691
Entropy (-ST):   -0.151674
Local:           +0.259886
--------------------------
Free energy:   -105.239469
Extrapolated:  -105.163632

Dipole-layer corrected work functions: 3.129154, 2.270725 eV

Showing only first 2 kpts
 Kpt  Band  Eigenvalues  Occupancy
  0    26     -2.95397    1.98764
  0    27     -2.86092    1.92313
  0    28     -2.53655    0.07339
  0    29     -2.44634    0.01246

  1    26     -2.73047    1.29611
  1    27     -2.70038    1.00440
  1    28     -2.65411    0.57128
  1    29     -2.64135    0.47305


Fermi level: -2.69994

No gap

Forces in eV/Ang:
  0 Li    0.00241   -0.00175   -0.34364
  1 Li   -0.00156    0.00344   -0.34887
  2 Li   -0.01029   -0.00073   -0.34067
  3 Li   -0.00256    0.00633   -0.33723
  4 Li   -0.00074   -0.00043   -0.35452
  5 Li   -0.00140    0.00278   -0.33686
  6 Li   -0.00379   -0.00033   -0.35097
  7 Li   -0.00450    0.00554   -0.33023
  8 Li    0.00192   -0.00138   -0.35192
  9 Li    0.00453   -0.00660    0.29667
 10 Li    0.00262   -0.00256    0.28006
 11 Li    0.04557   -0.00164    0.26691
 12 Li    0.00428    0.00951    0.23622
 13 Li    0.02486    0.00962    0.28971
 14 Li    0.04094    0.01876    0.27252
 15 Li   -0.00074   -0.02346    0.26764
 16 Li   -0.01821   -0.04626    0.28213
 17 Li    0.05282   -0.04204    0.26239
 18 Li   -0.01221    0.00184   -0.00850
 19 Li   -0.02016    0.02193    0.02509
 20 Li   -0.00942    0.00679   -0.00841
 21 Li   -0.00558   -0.00790    0.01956
 22 Li   -0.01535    0.01143    0.00607
 23 Li    0.01240   -0.02741    0.00424
 24 Li    0.00430   -0.00309    0.00084
 25 Li    0.00432   -0.00004   -0.00005
 26 Li   -0.02618   -0.01337   -0.00360
 27 Li    0.00815    0.02328    0.06778
 28 Li    0.00332   -0.00610    0.04652
 29 Li   -0.00064   -0.00932    0.04403
 30 Li   -0.02712    0.00807   -0.09027
 31 Li   -0.00090    0.01297    0.04375
 32 Li   -0.01474    0.02211    0.05462
 33 Li   -0.02195   -0.03669    0.05672
 34 Li    0.00129   -0.01217    0.04904
 35 Li    0.02825   -0.01046    0.07344
 36 O     0.25299   -0.22557   -0.39134
 37 C    -0.05664    0.17164    0.02863
 38 C    -0.06170   -0.04827   -0.00458
 39 H    -0.13332   -0.13633    0.13119
 40 H     0.05182   -0.20154   -0.18584
 41 H     0.12948   -0.17292    0.16409
 42 H     0.16890    0.13888   -0.16866
 43 H    -0.01627    0.18900    0.21046
 44 H    -0.36084    0.33458    0.45831

System changes: positions 

Initializing position-dependent things.

Density initialized from wave functions
       .-----------------------.  
      /|                       |  
     / |                       |  
    /  |                       |  
   /   |                       |  
  /    |                       |  
 *     |                       |  
 |     |                       |  
 |     |                       |  
 |     |                       |  
 |     |                       |  
 |     |H                      |  
 |     |CH     Li      Li H    Li 
 | HC  |  H                    |  
 |   Li|     Li      Li        |  
 | LiH |  Li      Li      Li   |  
 |     |   Li      Li          |  
 |     |Li      Li      Li     |  
 |     |                       |  
 |   LLi     LLi     LLi       |  
 |     |  Li      Li      Li   |  
 | Li  |   Li      Li          |  
 |     |Li      Li      Li     |  
 Li    | Li      Li            |  
 |    Li      Li      Li       |  
 |     |                       |  
 |     |                       |  
 |     |                       |  
 |     |                       |  
 |     |                       |  
 |     |                       |  
 |     .-----------------------.  
 |    /                       /   
 |   /                       /    
 |  /                       /     
 | /                       /      
 |/                       /       
 *-----------------------*        

Positions:
   0 Li     1.617037    1.617037   10.000000    ( 0.0000,  0.0000,  0.0000)
   1 Li     4.851111    1.617037   10.000000    ( 0.0000,  0.0000,  0.0000)
   2 Li     8.085185    1.617037   10.000000    ( 0.0000,  0.0000,  0.0000)
   3 Li     1.617037    4.851111   10.000000    ( 0.0000,  0.0000,  0.0000)
   4 Li     4.851111    4.851111   10.000000    ( 0.0000,  0.0000,  0.0000)
   5 Li     8.085185    4.851111   10.000000    ( 0.0000,  0.0000,  0.0000)
   6 Li     1.617037    8.085185   10.000000    ( 0.0000,  0.0000,  0.0000)
   7 Li     4.851111    8.085185   10.000000    ( 0.0000,  0.0000,  0.0000)
   8 Li     8.085185    8.085185   10.000000    ( 0.0000,  0.0000,  0.0000)
   9 Li     0.000000    0.000000   11.617037    ( 0.0000,  0.0000,  0.0000)
  10 Li     3.234074    0.000000   11.617037    ( 0.0000,  0.0000,  0.0000)
  11 Li     6.468148    0.000000   11.617037    ( 0.0000,  0.0000,  0.0000)
  12 Li     0.000000    3.234074   11.617037    ( 0.0000,  0.0000,  0.0000)
  13 Li     3.234074    3.234074   11.617037    ( 0.0000,  0.0000,  0.0000)
  14 Li     6.468148    3.234074   11.617037    ( 0.0000,  0.0000,  0.0000)
  15 Li     0.000000    6.468148   11.617037    ( 0.0000,  0.0000,  0.0000)
  16 Li     3.234074    6.468148   11.617037    ( 0.0000,  0.0000,  0.0000)
  17 Li     6.468148    6.468148   11.617037    ( 0.0000,  0.0000,  0.0000)
  18 Li     1.630601    1.632979   13.474040    ( 0.0000,  0.0000,  0.0000)
  19 Li     4.918049    1.591878   13.429235    ( 0.0000,  0.0000,  0.0000)
  20 Li     8.145136    1.643385   13.495704    ( 0.0000,  0.0000,  0.0000)
  21 Li     1.601429    4.803168   13.524645    ( 0.0000,  0.0000,  0.0000)
  22 Li     4.905220    4.861953   13.453164    ( 0.0000,  0.0000,  0.0000)
  23 Li     8.149776    4.828634   13.551436    ( 0.0000,  0.0000,  0.0000)
  24 Li     1.621678    8.046425   13.445112    ( 0.0000,  0.0000,  0.0000)
  25 Li     4.862040    8.059564   13.441705    ( 0.0000,  0.0000,  0.0000)
  26 Li     8.069444    8.055498   13.454707    ( 0.0000,  0.0000,  0.0000)
  27 Li    -0.025962   -0.147800   15.273105    ( 0.0000,  0.0000,  0.0000)
  28 Li     3.263319   -0.026710   15.298094    ( 0.0000,  0.0000,  0.0000)
  29 Li     6.448496   -0.011509   15.399125    ( 0.0000,  0.0000,  0.0000)
  30 Li     0.224108    3.060174   15.841915    ( 0.0000,  0.0000,  0.0000)
  31 Li     3.427831    3.225226   15.318840    ( 0.0000,  0.0000,  0.0000)
  32 Li     6.536099    3.215662   15.405578    ( 0.0000,  0.0000,  0.0000)
  33 Li     0.021425    6.476815   15.440288    ( 0.0000,  0.0000,  0.0000)
  34 Li     3.241188    6.479915   15.411085    ( 0.0000,  0.0000,  0.0000)
  35 Li     6.446082    6.479962   15.425283    ( 0.0000,  0.0000,  0.0000)
  36 O      0.294600    2.377902   17.678790    ( 0.0000,  0.0000,  0.0000)
  37 C      1.058977    1.367006   18.401864    ( 0.0000,  0.0000,  0.0000)
  38 C      2.286970    1.941386   19.082224    ( 0.0000,  0.0000,  0.0000)
  39 H      0.393436    0.871686   19.116426    ( 0.0000,  0.0000,  0.0000)
  40 H      1.349716    0.635142   17.643604    ( 0.0000,  0.0000,  0.0000)
  41 H      2.839385    1.135624   19.573597    ( 0.0000,  0.0000,  0.0000)
  42 H      2.953381    2.403997   18.351751    ( 0.0000,  0.0000,  0.0000)
  43 H      2.013814    2.685658   19.833187    ( 0.0000,  0.0000,  0.0000)
  44 H     -0.249708    2.861495   18.325235    ( 0.0000,  0.0000,  0.0000)

Unit cell:
           periodic     x           y           z      points  spacing
  1. axis:    yes    9.702222    0.000000    0.000000    60     0.1617
  2. axis:    yes    0.000000    9.702222    0.000000    60     0.1617
  3. axis:    no     0.000000    0.000000   24.851111   156     0.1593

  Lengths:   9.702222   9.702222  24.851111
  Angles:   90.000000  90.000000  90.000000

Effective grid spacing dv^(1/3) = 0.1609

     iter     time        total  log10-change:
                         energy  eigst   dens
iter:   1 11:03:39  -105.173230  -2.24
iter:   2 11:04:28  -105.170625  -2.62  -2.22
iter:   3 11:05:17  -105.169417c -3.38  -2.41
iter:   4 11:06:06  -105.168941c -2.33  -2.74
iter:   5 11:06:55  -105.168198c -3.15  -2.49
iter:   6 11:07:46  -105.167915c -2.65  -2.79
iter:   7 11:08:36  -105.168035c -3.22  -3.12
iter:   8 11:09:27  -105.168024c -3.65  -3.18
iter:   9 11:10:19  -105.167885c -3.45  -3.06
iter:  10 11:11:08  -105.167883c -4.43  -3.42
iter:  11 11:11:58  -105.167884c -4.64  -3.53
iter:  12 11:12:48  -105.167882c -4.46  -3.60
iter:  13 11:13:37  -105.167883c -4.93  -3.63
iter:  14 11:14:26  -105.167895c -4.49  -3.73
iter:  15 11:15:16  -105.167892c -4.95  -3.69
iter:  16 11:16:06  -105.167886c -4.91  -3.84
iter:  17 11:16:56  -105.167886c -5.61  -4.10c
iter:  18 11:17:46  -105.167885c -5.66  -4.24c
iter:  19 11:18:36  -105.167885c -6.28  -4.31c
iter:  20 11:19:25  -105.167885c -6.29  -4.34c
iter:  21 11:20:14  -105.167885c -6.21  -4.39c
iter:  22 11:21:03  -105.167884c -6.15  -4.44c
iter:  23 11:21:52  -105.167884c -6.60  -4.31c
iter:  24 11:22:41  -105.167884c -6.33  -4.38c
iter:  25 11:23:31  -105.167885c -6.58  -4.52c
iter:  26 11:24:20  -105.167884c -6.80  -4.58c
iter:  27 11:25:10  -105.167885c -6.58  -4.74c
iter:  28 11:26:01  -105.167885c -7.40c -5.03c

Converged after 28 iterations.

Dipole moment: (-14.004881, -2.139973, 0.447962) |e|*Ang

Energy contributions relative to reference atoms: (reference = -11509.077619)

Kinetic:       +114.924333
Potential:     -109.260560
External:        +0.000000
XC:            -111.014841
Entropy (-ST):   -0.151699
Local:           +0.259033
--------------------------
Free energy:   -105.243735
Extrapolated:  -105.167885

Dipole-layer corrected work functions: 3.129087, 2.267951 eV

Showing only first 2 kpts
 Kpt  Band  Eigenvalues  Occupancy
  0    26     -2.95257    1.98765
  0    27     -2.85959    1.92326
  0    28     -2.53504    0.07327
  0    29     -2.44494    0.01247

  1    26     -2.72901    1.29584
  1    27     -2.69891    1.00390
  1    28     -2.65278    0.57207
  1    29     -2.63990    0.47289


Fermi level: -2.69852

No gap

Forces in eV/Ang:
  0 Li    0.00239   -0.00173   -0.34363
  1 Li   -0.00160    0.00343   -0.34889
  2 Li   -0.01022   -0.00077   -0.34069
  3 Li   -0.00252    0.00629   -0.33726
  4 Li   -0.00077   -0.00042   -0.35452
  5 Li   -0.00141    0.00280   -0.33688
  6 Li   -0.00378   -0.00030   -0.35100
  7 Li   -0.00449    0.00552   -0.33025
  8 Li    0.00191   -0.00137   -0.35190
  9 Li    0.00455   -0.00668    0.29659
 10 Li    0.00252   -0.00246    0.28013
 11 Li    0.04565   -0.00170    0.26694
 12 Li    0.00423    0.00959    0.23622
 13 Li    0.02486    0.00960    0.28965
 14 Li    0.04103    0.01871    0.27266
 15 Li   -0.00072   -0.02349    0.26771
 16 Li   -0.01809   -0.04634    0.28214
 17 Li    0.05269   -0.04191    0.26232
 18 Li   -0.01245    0.00198   -0.00789
 19 Li   -0.02007    0.02194    0.02507
 20 Li   -0.00924    0.00667   -0.00852
 21 Li   -0.00550   -0.00794    0.01944
 22 Li   -0.01523    0.01135    0.00619
 23 Li    0.01221   -0.02716    0.00360
 24 Li    0.00433   -0.00322    0.00077
 25 Li    0.00424    0.00005   -0.00007
 26 Li   -0.02616   -0.01348   -0.00351
 27 Li    0.00830    0.02339    0.06795
 28 Li    0.00305   -0.00582    0.04684
 29 Li   -0.00063   -0.00947    0.04404
 30 Li   -0.03145    0.01196   -0.08501
 31 Li   -0.00121    0.01280    0.04396
 32 Li   -0.01486    0.02198    0.05484
 33 Li   -0.02186   -0.03631    0.05652
 34 Li    0.00142   -0.01218    0.04904
 35 Li    0.02803   -0.01022    0.07325
 36 O    -0.12264    0.09034    0.10044
 37 C    -0.02804    0.14416    0.00668
 38 C    -0.06079   -0.05172   -0.00537
 39 H    -0.13234   -0.13850    0.13043
 40 H     0.05583   -0.20599   -0.18406
 41 H     0.13005   -0.17262    0.16534
 42 H     0.16855    0.13925   -0.16847
 43 H    -0.01628    0.19020    0.21141
 44 H    -0.01694    0.05085   -0.02601

Timing:                                      incl.     excl.
-------------------------------------------------------------------
Density initialized from wave functions:   101.494   101.493   0.2% |
 Symmetrize density:                         0.002     0.002   0.0% |
Forces:                                    359.017   359.017   0.6% |
Hamiltonian:                               375.844     0.017   0.0% |
 Atomic:                                     4.069     0.060   0.0% |
  XC Correction:                             4.008     4.008   0.0% |
 Calculate atomic Hamiltonians:             24.266    24.266   0.0% |
 Communicate:                               18.010    18.010   0.0% |
 Hartree integrate/restrict:                 8.716     8.716   0.0% |
 Initialize Hamiltonian:                     0.001     0.001   0.0% |
 Poisson:                                  191.441    89.728   0.1% |
  Communicate from 1D:                      12.955    12.955   0.0% |
  Communicate from 2D:                      22.171    22.171   0.0% |
  Communicate to 1D:                         6.059     6.059   0.0% |
  Communicate to 2D:                        22.175    22.175   0.0% |
  FFT 1D:                                   19.100    19.100   0.0% |
  FFT 2D:                                   19.253    19.253   0.0% |
 XC 3D grid:                               127.509   127.509   0.2% |
 vbar:                                       1.814     1.814   0.0% |
LCAO initialization:                        11.584     0.440   0.0% |
 LCAO eigensolver:                           4.016     0.001   0.0% |
  Calculate projections:                     0.000     0.000   0.0% |
  DenseAtomicCorrection:                     0.000     0.000   0.0% |
  Distribute overlap matrix:                 3.782     3.782   0.0% |
  Orbital Layouts:                           0.115     0.115   0.0% |
  Potential matrix:                          0.113     0.113   0.0% |
  Sum over cells:                            0.005     0.005   0.0% |
 LCAO to grid:                               5.307     5.307   0.0% |
 Set positions (LCAO WFS):                   1.820     1.363   0.0% |
  Basic WFS set positions:                   0.004     0.004   0.0% |
  Basis functions set positions:             0.001     0.001   0.0% |
  P tci:                                     0.000     0.000   0.0% |
  ST tci:                                    0.355     0.355   0.0% |
  mktci:                                     0.097     0.097   0.0% |
Redistribute:                                0.059     0.059   0.0% |
SCF-cycle:                               62204.382  1705.337   2.7% ||
 Davidson:                               49404.255 20404.947  31.8% |------------|
  Apply hamiltonian:                      3129.368  3129.368   4.9% |-|
  Subspace diag:                          6915.072     0.381   0.0% |
   calc_h_matrix:                         4240.176  1193.493   1.9% ||
    Apply hamiltonian:                    3046.682  3046.682   4.8% |-|
   diagonalize:                            234.001   234.001   0.4% |
   rotate_psi:                            2440.515  2440.515   3.8% |-|
  calc. matrices:                        14366.938  8684.572  13.6% |----|
   Apply hamiltonian:                     5682.366  5682.366   8.9% |---|
  diagonalize:                              19.621    19.621   0.0% |
  rotate_psi:                             4568.310  4568.310   7.1% |--|
 Density:                                 1046.711     0.071   0.0% |
  Atomic density matrices:                 243.763   243.763   0.4% |
  Mix:                                     368.869   368.869   0.6% |
  Multipole moments:                         4.648     4.648   0.0% |
  Pseudo density:                          429.360   429.306   0.7% |
   Symmetrize density:                       0.054     0.054   0.0% |
 Hamiltonian:                             9905.548     0.381   0.0% |
  Atomic:                                  104.010     2.337   0.0% |
   XC Correction:                          101.673   101.673   0.2% |
  Calculate atomic Hamiltonians:           642.362   642.362   1.0% |
  Communicate:                             587.679   587.679   0.9% |
  Hartree integrate/restrict:              227.016   227.016   0.4% |
  Poisson:                                5004.653  2333.683   3.6% ||
   Communicate from 1D:                    340.932   340.932   0.5% |
   Communicate from 2D:                    577.533   577.533   0.9% |
   Communicate to 1D:                      156.849   156.849   0.2% |
   Communicate to 2D:                      573.254   573.254   0.9% |
   FFT 1D:                                 510.338   510.338   0.8% |
   FFT 2D:                                 512.065   512.065   0.8% |
  XC 3D grid:                             3287.800  3287.800   5.1% |-|
  vbar:                                     51.648    51.648   0.1% |
 Orthonormalize:                           142.530     0.015   0.0% |
  calc_s_matrix:                            21.086    21.086   0.0% |
  inverse-cholesky:                          3.724     3.724   0.0% |
  projections:                              67.799    67.799   0.1% |
  rotate_psi_s:                             49.905    49.905   0.1% |
Set symmetry:                                0.002     0.002   0.0% |
Other:                                    1015.729  1015.729   1.6% ||
-------------------------------------------------------------------
Total:                                             64068.112 100.0%

Memory usage: 721.88 MiB
Date: Sat Feb 25 11:26:09 2023
