
  ___ ___ ___ _ _ _  
 |   |   |_  | | | | 
 | | | | | . | | | | 
 |__ |  _|___|_____|  22.8.0
 |___|_|             

User:   vazumah@r238.ib.bridges2.psc.edu
Date:   Fri Mar 10 11:10:08 2023
Arch:   x86_64
Pid:    30995
CWD:    /jet/home/vazumah/Calcs/LiMEAS/proton_donors/methanol_y/bridge/0.0_1.617/N2_y
Python: 3.11.0
gpaw:   /jet/home/vazumah/.conda/envs/GPAW_mpich/lib/python3.11/site-packages/gpaw
_gpaw:  /jet/home/vazumah/.conda/envs/GPAW_mpich/lib/python3.11/site-packages/
        _gpaw.cpython-311-x86_64-linux-gnu.so
ase:    /jet/home/vazumah/.conda/envs/GPAW_mpich/lib/python3.11/site-packages/ase (version 3.22.1)
numpy:  /jet/home/vazumah/.conda/envs/GPAW_mpich/lib/python3.11/site-packages/numpy (version 1.24.2)
scipy:  /jet/home/vazumah/.conda/envs/GPAW_mpich/lib/python3.11/site-packages/scipy (version 1.10.1)
libxc:  5.2.3
units:  Angstrom and eV
cores: 128
OpenMP: True
OMP_NUM_THREADS: 1

Input parameters:
  h: 0.16
  kpts: {size: [4, 4, 1]}
  occupations: {name: fermi-dirac,
                width: 0.05}
  poissonsolver: {dipolelayer: xy}
  xc: BEEF-vdW

System changes: positions, numbers, cell, pbc, initial_charges, initial_magmoms 

Initialize ...

species:
  Li:
    name: Lithium
    id: 830b4218f175192f93f959cfc0aad614
    Z: 3.0
    valence: 1
    core: 2
    charge: 0.0
    file: /jet/home/vazumah/datasets/gpaw-setups-0.9.20000/Li.PBE.gz
    compensation charges: {type: gauss,
                           rc: 0.33,
                           lmax: 2}
    cutoffs: {filter: 1.91,
              core: 2.55}
    valence states:
      #              energy  rcut
      - 2s(1.00)    -2.874   1.058
      - 2p(0.00)    -1.090   1.058
      -  s          24.337   1.058
  
    # Using partial waves for Li as LCAO basis

  O:
    name: Oxygen
    id: 32ecd46bf208036f09c70b0ec9a88b78
    Z: 8.0
    valence: 6
    core: 2
    charge: 0.0
    file: /jet/home/vazumah/datasets/gpaw-setups-0.9.20000/O.PBE.gz
    compensation charges: {type: gauss,
                           rc: 0.21,
                           lmax: 2}
    cutoffs: {filter: 1.17,
              core: 0.83}
    valence states:
      #              energy  rcut
      - 2s(2.00)   -23.961   0.688
      - 2p(4.00)    -9.029   0.598
      -  s           3.251   0.688
      -  p          18.182   0.598
      -  d           0.000   0.619
  
    # Using partial waves for O as LCAO basis

  C:
    name: Carbon
    id: 4aa54d4b901d75f77cc0ea3eec22967b
    Z: 6.0
    valence: 4
    core: 2
    charge: 0.0
    file: /jet/home/vazumah/datasets/gpaw-setups-0.9.20000/C.PBE.gz
    compensation charges: {type: gauss,
                           rc: 0.20,
                           lmax: 2}
    cutoffs: {filter: 1.14,
              core: 1.14}
    valence states:
      #              energy  rcut
      - 2s(2.00)   -13.751   0.635
      - 2p(2.00)    -5.284   0.635
      -  s          13.461   0.635
      -  p          21.927   0.635
      -  d           0.000   0.635
  
    # Using partial waves for C as LCAO basis

  H:
    name: Hydrogen
    id: d65de229564ff8ea4db303e23b6d1ecf
    Z: 1.0
    valence: 1
    core: 0
    charge: 0.0
    file: /jet/home/vazumah/datasets/gpaw-setups-0.9.20000/H.PBE.gz
    compensation charges: {type: gauss,
                           rc: 0.15,
                           lmax: 2}
    cutoffs: {filter: 0.85,
              core: 0.53}
    valence states:
      #              energy  rcut
      - 1s(1.00)    -6.494   0.476
      -  s          20.717   0.476
      -  p           0.000   0.476
  
    # Using partial waves for H as LCAO basis

  N:
    name: Nitrogen
    id: f7500608b86eaa90eef8b1d9a670dc53
    Z: 7.0
    valence: 5
    core: 2
    charge: 0.0
    file: /jet/home/vazumah/datasets/gpaw-setups-0.9.20000/N.PBE.gz
    compensation charges: {type: gauss,
                           rc: 0.18,
                           lmax: 2}
    cutoffs: {filter: 1.11,
              core: 0.96}
    valence states:
      #              energy  rcut
      - 2s(2.00)   -18.583   0.603
      - 2p(3.00)    -7.089   0.529
      -  s           8.629   0.603
      -  p          20.123   0.529
      -  d           0.000   0.577
  
    # Using partial waves for N as LCAO basis

Reference energy: -13382.245603  # eV

Spin-paired calculation

Convergence criteria:
 Maximum [total energy] change in last 3 cyles: 0.0005 eV / electron
 Maximum integral of absolute [dens]ity change: 0.0001 electrons / valence electron
 Maximum integral of absolute [eigenst]ate change: 4e-08 eV^2 / valence electron
 Maximum number of scf [iter]ations: 333
 (Square brackets indicate name in SCF output, whereas a 'c' in
 the SCF output indicates the quantity has converged.)

Symmetries present (total): 1

  ( 1  0  0)
  ( 0  1  0)
  ( 0  0  1)

16 k-points: 4 x 4 x 1 Monkhorst-Pack grid
8 k-points in the irreducible part of the Brillouin zone
       k-points in crystal coordinates                weights
   0:     0.12500000   -0.37500000    0.00000000          2/16
   1:     0.12500000   -0.12500000    0.00000000          2/16
   2:     0.12500000    0.12500000    0.00000000          2/16
   3:     0.12500000    0.37500000    0.00000000          2/16
   4:     0.37500000   -0.37500000    0.00000000          2/16
   5:     0.37500000   -0.12500000    0.00000000          2/16
   6:     0.37500000    0.12500000    0.00000000          2/16
   7:     0.37500000    0.37500000    0.00000000          2/16

Wave functions: Uniform real-space grid
  Kinetic energy operator: 6*3+1=19 point O(h^6) finite-difference Laplacian
  ScaLapack parameters: grid=1x1, blocksize=None
  Wavefunction extrapolation:
    Improved wavefunction reuse through dual PAW basis 

Occupation numbers: Fermi-Dirac:
  width: 0.0500  # eV
 

Eigensolver
   Davidson(niter=2) 

Densities:
  Coarse grid: 60*60*168 grid
  Fine grid: 120*120*336 grid
  Total Charge: 0.000000 

Density mixing:
  Method: separate
  Backend: pulay
  Linear mixing parameter: 0.05
  old densities: 5
  Damping of long wavelength oscillations: 50 

Hamiltonian:
  XC and Coulomb potentials evaluated on a 120*120*336 grid
  Using the BEEF-vdW Exchange-Correlation functional
  Interpolation: tri-quintic (5. degree polynomial)
  Poisson solver: FastPoissonSolver using
    Stencil: 6*3+1=19 point O(h^6) finite-difference Laplacian
    FFT axes: [0, 1]
    FST axes: [2]

Dipole correction along z-axis 

XC parameters: BEEF-vdW with 2 nearest neighbor stencil

Memory estimate:
  Process memory now: 135.26 MiB
  Calculator: 77.36 MiB
    Density: 22.77 MiB
      Arrays: 7.40 MiB
      Localized functions: 12.55 MiB
      Mixer: 2.82 MiB
    Hamiltonian: 5.83 MiB
      Arrays: 4.84 MiB
      XC: 0.00 MiB
      Poisson: 0.00 MiB
      vbar: 0.99 MiB
    Wavefunctions: 48.76 MiB
      Arrays psit_nG: 22.52 MiB
      Eigensolver: 25.58 MiB
      Projections: 0.01 MiB
      Projectors: 0.64 MiB

Total number of cores used: 128
Parallelization over k-points: 8
Domain decomposition: 2 x 2 x 4

Number of atoms: 44
Number of atomic orbitals: 164
Number of bands in calculation: 40
Number of valence electrons: 60
Bands to converge: occupied

... initialized

Initializing position-dependent things.

Density initialized from atomic densities
Creating initial wave functions:
  40 bands from LCAO basis set

       .-----------------------.  
      /|                       |  
     / |                       |  
    /  |                       |  
   /   |                       |  
  /    |                       |  
 *     |                       |  
 |     |                       |  
 |     |                       |  
 |     |                      H|  
 |     |                       |  
 |     | H                   H |  
 |     |                       |  
 |     |                       |  
 |     |                       |  
 |O    |                H      |  
 | N Li|     Li      Li  C     |  
 |N    |  Li      Li      Li   |  
 | Li  |   Li      Li          |  
 |     |Li      Li      Li     |  
 Li    | Li      Li            |  
 |   LLi     LLi     LLi       |  
 |     |  Li      Li      Li   |  
 | Li  |   Li      Li          |  
 |     |Li      Li      Li     |  
 Li    | Li      Li            |  
 |    Li      Li      Li       |  
 |     |                       |  
 |     |                       |  
 |     |                       |  
 |     |                       |  
 |     |                       |  
 |     |                       |  
 |     .-----------------------.  
 |    /                       /   
 |   /                       /    
 |  /                       /     
 | /                       /      
 |/                       /       
 *-----------------------*        

Positions:
   0 Li     1.617037    1.617037   10.000000    ( 0.0000,  0.0000,  0.0000)
   1 Li     4.851111    1.617037   10.000000    ( 0.0000,  0.0000,  0.0000)
   2 Li     8.085185    1.617037   10.000000    ( 0.0000,  0.0000,  0.0000)
   3 Li     1.617037    4.851111   10.000000    ( 0.0000,  0.0000,  0.0000)
   4 Li     4.851111    4.851111   10.000000    ( 0.0000,  0.0000,  0.0000)
   5 Li     8.085185    4.851111   10.000000    ( 0.0000,  0.0000,  0.0000)
   6 Li     1.617037    8.085185   10.000000    ( 0.0000,  0.0000,  0.0000)
   7 Li     4.851111    8.085185   10.000000    ( 0.0000,  0.0000,  0.0000)
   8 Li     8.085185    8.085185   10.000000    ( 0.0000,  0.0000,  0.0000)
   9 Li     0.000000    0.000000   11.617037    ( 0.0000,  0.0000,  0.0000)
  10 Li     3.234074    0.000000   11.617037    ( 0.0000,  0.0000,  0.0000)
  11 Li     6.468148    0.000000   11.617037    ( 0.0000,  0.0000,  0.0000)
  12 Li     0.000000    3.234074   11.617037    ( 0.0000,  0.0000,  0.0000)
  13 Li     3.234074    3.234074   11.617037    ( 0.0000,  0.0000,  0.0000)
  14 Li     6.468148    3.234074   11.617037    ( 0.0000,  0.0000,  0.0000)
  15 Li     0.000000    6.468148   11.617037    ( 0.0000,  0.0000,  0.0000)
  16 Li     3.234074    6.468148   11.617037    ( 0.0000,  0.0000,  0.0000)
  17 Li     6.468148    6.468148   11.617037    ( 0.0000,  0.0000,  0.0000)
  18 Li     1.617038    1.617038   13.469728    ( 0.0000,  0.0000,  0.0000)
  19 Li     4.851111    1.617038   13.469729    ( 0.0000,  0.0000,  0.0000)
  20 Li     8.085184    1.617038   13.469728    ( 0.0000,  0.0000,  0.0000)
  21 Li     1.617038    4.851111   13.469729    ( 0.0000,  0.0000,  0.0000)
  22 Li     4.851111    4.851111   13.469730    ( 0.0000,  0.0000,  0.0000)
  23 Li     8.085184    4.851111   13.469729    ( 0.0000,  0.0000,  0.0000)
  24 Li     1.617038    8.085184   13.469728    ( 0.0000,  0.0000,  0.0000)
  25 Li     4.851111    8.085184   13.469729    ( 0.0000,  0.0000,  0.0000)
  26 Li     8.085184    8.085184   13.469728    ( 0.0000,  0.0000,  0.0000)
  27 Li    -0.000000   -0.000000   15.445939    ( 0.0000,  0.0000,  0.0000)
  28 Li     3.234074    0.000000   15.445939    ( 0.0000,  0.0000,  0.0000)
  29 Li     6.468148    0.000000   15.445939    ( 0.0000,  0.0000,  0.0000)
  30 Li     0.000000    3.234074   15.445939    ( 0.0000,  0.0000,  0.0000)
  31 Li     3.234076    3.234076   15.445938    ( 0.0000,  0.0000,  0.0000)
  32 Li     6.468146    3.234076   15.445938    ( 0.0000,  0.0000,  0.0000)
  33 Li     0.000000    6.468148   15.445939    ( 0.0000,  0.0000,  0.0000)
  34 Li     3.234076    6.468146   15.445938    ( 0.0000,  0.0000,  0.0000)
  35 Li     6.468146    6.468146   15.445938    ( 0.0000,  0.0000,  0.0000)
  36 O      0.000000    1.617037   18.445939    ( 0.0000,  0.0000,  0.0000)
  37 C     -0.015074    0.187074   18.451439    ( 0.0000,  0.0000,  0.0000)
  38 H     -0.765027   -0.217197   17.764289    ( 0.0000,  0.0000,  0.0000)
  39 H     -0.193483   -0.216438   19.453228    ( 0.0000,  0.0000,  0.0000)
  40 H      0.970641   -0.132369   18.118510    ( 0.0000,  0.0000,  0.0000)
  41 H     -0.863129    1.928692   18.736944    ( 0.0000,  0.0000,  0.0000)
  42 N      0.000000    1.617000   17.195939    ( 0.0000,  0.0000,  0.0000)
  43 N      0.000000    2.713622   17.195939    ( 0.0000,  0.0000,  0.0000)

Unit cell:
           periodic     x           y           z      points  spacing
  1. axis:    yes    9.702222    0.000000    0.000000    60     0.1617
  2. axis:    yes    0.000000    9.702222    0.000000    60     0.1617
  3. axis:    no     0.000000    0.000000   26.601111   168     0.1583

  Lengths:   9.702222   9.702222  26.601111
  Angles:   90.000000  90.000000  90.000000

Effective grid spacing dv^(1/3) = 0.1606

     iter     time        total  log10-change:
                         energy  eigst   dens
iter:   1 11:10:23  -442.172424
iter:   2 11:10:30  -146.999036  +2.43  -0.07
iter:   3 11:10:37  -169.422085  +3.34  -0.23
iter:   4 11:10:44  -206.350476  +2.82  -0.22
Writing to output.gpw (mode='')

iter:   5 11:10:51  -225.931943  +2.65  -0.34
iter:   6 11:10:58  -248.825680  +2.38  -0.54
iter:   7 11:11:05  -296.629258  +2.48  -0.58
iter:   8 11:11:12  -305.798216  +2.10  -0.51
iter:   9 11:11:19  -288.032519  +1.91  -0.50
Writing to output.gpw (mode='')

iter:  10 11:11:26  -293.515490  +1.64  -0.53
iter:  11 11:11:33  -333.860482  +2.15  -0.49
iter:  12 11:11:40  -354.965532  +2.07  -0.45
iter:  13 11:11:47  -296.791960  +1.30  -0.37
iter:  14 11:11:54  -294.585597  +1.69  -0.58
Writing to output.gpw (mode='')

iter:  15 11:12:01  -288.025303  +1.13  -0.50
iter:  16 11:12:08  -280.973428  +1.59  -0.54
iter:  17 11:12:15  -279.171243  +0.81  -0.71
iter:  18 11:12:22  -277.252195  +0.28  -0.76
iter:  19 11:12:29  -274.787956  +0.95  -0.82
Writing to output.gpw (mode='')

iter:  20 11:12:36  -273.585582  +0.28  -0.95
iter:  21 11:12:43  -273.821466  +0.41  -1.06
iter:  22 11:12:50  -273.055079  +0.17  -1.11
iter:  23 11:12:57  -272.846325  +0.52  -1.17
iter:  24 11:13:04  -272.768265  +0.17  -1.23
Writing to output.gpw (mode='')

iter:  25 11:13:11  -272.700950  -0.28  -1.44
iter:  26 11:13:18  -272.694568  -0.40  -1.47
iter:  27 11:13:25  -272.687700c -0.38  -1.47
iter:  28 11:13:32  -272.693660c -0.71  -1.53
iter:  29 11:13:39  -272.668573c -0.56  -1.72
Writing to output.gpw (mode='')

iter:  30 11:13:47  -272.664347c -1.15  -1.74
iter:  31 11:13:54  -272.663967c -0.68  -1.77
iter:  32 11:14:01  -272.655840c -1.26  -1.95
iter:  33 11:14:08  -272.656213c -1.47  -2.20
iter:  34 11:14:15  -272.658025c -1.61  -2.21
Writing to output.gpw (mode='')

iter:  35 11:14:28  -272.657686c -1.71  -2.29
iter:  36 11:14:35  -272.658908c -1.93  -2.59
iter:  37 11:14:42  -272.660541c -2.04  -2.63
iter:  38 11:14:49  -272.661625c -1.89  -2.64
iter:  39 11:14:57  -272.662672c -2.20  -2.87
Writing to output.gpw (mode='')

iter:  40 11:15:04  -272.663487c -2.28  -2.97
iter:  41 11:15:11  -272.664366c -2.27  -3.01
iter:  42 11:15:18  -272.665183c -2.21  -3.07
iter:  43 11:15:25  -272.665780c -2.43  -3.11
iter:  44 11:15:32  -272.666492c -2.51  -3.15
Writing to output.gpw (mode='')

iter:  45 11:15:39  -272.666908c -2.64  -3.37
iter:  46 11:15:46  -272.667377c -2.46  -3.46
iter:  47 11:15:53  -272.667736c -2.64  -3.54
iter:  48 11:16:00  -272.668043c -2.64  -3.44
iter:  49 11:16:07  -272.668275c -2.94  -3.38
Writing to output.gpw (mode='')

iter:  50 11:16:14  -272.668463c -3.01  -3.32
iter:  51 11:16:21  -272.668648c -2.94  -3.28
iter:  52 11:16:28  -272.668816c -3.08  -3.23
iter:  53 11:16:35  -272.668936c -2.99  -3.22
iter:  54 11:16:42  -272.669098c -3.20  -3.13
Writing to output.gpw (mode='')

iter:  55 11:16:49  -272.669194c -3.34  -3.16
iter:  56 11:16:56  -272.669322c -3.20  -3.13
iter:  57 11:17:03  -272.669421c -3.37  -3.12
iter:  58 11:17:10  -272.669492c -3.20  -3.13
iter:  59 11:17:17  -272.669749c -3.11  -2.99
Writing to output.gpw (mode='')

iter:  60 11:17:24  -272.669915c -3.22  -3.20
iter:  61 11:17:31  -272.669838c -3.44  -3.24
iter:  62 11:17:38  -272.670035c -3.36  -3.09
iter:  63 11:17:45  -272.670098c -3.79  -3.30
iter:  64 11:17:52  -272.670168c -3.88  -3.28
Writing to output.gpw (mode='')

iter:  65 11:17:59  -272.670224c -3.74  -3.34
iter:  66 11:18:06  -272.670272c -3.76  -3.31
iter:  67 11:18:13  -272.670283c -3.82  -3.32
iter:  68 11:18:20  -272.670356c -3.95  -3.35
iter:  69 11:18:27  -272.670331c -3.93  -3.49
Writing to output.gpw (mode='')

iter:  70 11:18:34  -272.670374c -4.05  -3.67
iter:  71 11:18:41  -272.670390c -3.99  -3.79
iter:  72 11:18:48  -272.670414c -4.16  -3.85
iter:  73 11:18:56  -272.670411c -4.32  -3.93
iter:  74 11:19:03  -272.670412c -4.28  -4.03c
Writing to output.gpw (mode='')

iter:  75 11:19:10  -272.670425c -4.13  -4.16c
iter:  76 11:19:17  -272.670427c -4.61  -4.36c
iter:  77 11:19:28  -272.670432c -4.41  -4.41c
iter:  78 11:19:35  -272.670436c -4.52  -4.52c
iter:  79 11:19:42  -272.670440c -4.74  -4.50c
Writing to output.gpw (mode='')

iter:  80 11:19:49  -272.670442c -4.76  -4.53c
iter:  81 11:19:57  -272.670443c -4.75  -4.49c
iter:  82 11:20:04  -272.670444c -4.65  -4.51c
iter:  83 11:20:11  -272.670445c -4.78  -4.55c
iter:  84 11:20:18  -272.670447c -5.02  -4.51c
Writing to output.gpw (mode='')

iter:  85 11:20:25  -272.670444c -5.12  -4.45c
iter:  86 11:20:32  -272.670446c -5.11  -4.43c
iter:  87 11:20:39  -272.670447c -5.07  -4.39c
iter:  88 11:20:46  -272.670447c -5.12  -4.40c
iter:  89 11:20:53  -272.670452c -5.00  -4.37c
Writing to output.gpw (mode='')

iter:  90 11:21:00  -272.670454c -5.28  -4.39c
iter:  91 11:21:09  -272.670458c -5.15  -4.41c
iter:  92 11:21:17  -272.670459c -5.37  -4.39c
iter:  93 11:21:24  -272.670463c -5.39  -4.38c
iter:  94 11:21:31  -272.670466c -5.15  -4.45c
Writing to output.gpw (mode='')

iter:  95 11:21:38  -272.670469c -5.48  -4.57c
iter:  96 11:21:45  -272.670469c -5.37  -4.64c
iter:  97 11:21:52  -272.670471c -5.52  -4.68c
iter:  98 11:21:59  -272.670469c -5.62  -4.76c
iter:  99 11:22:06  -272.670470c -5.71  -4.84c
Writing to output.gpw (mode='')

iter: 100 11:22:13  -272.670471c -5.78  -4.93c
iter: 101 11:22:20  -272.670470c -5.76  -5.10c
iter: 102 11:22:27  -272.670470c -5.72  -5.18c
iter: 103 11:22:34  -272.670471c -5.70  -5.26c
iter: 104 11:22:41  -272.670470c -5.98  -5.42c
Writing to output.gpw (mode='')

iter: 105 11:22:48  -272.670470c -5.94  -5.40c
iter: 106 11:22:55  -272.670471c -5.99  -5.56c
iter: 107 11:23:03  -272.670471c -5.93  -5.61c
iter: 108 11:23:10  -272.670471c -6.22  -5.59c
iter: 109 11:23:17  -272.670471c -6.11  -5.74c
Writing to output.gpw (mode='')

iter: 110 11:23:24  -272.670471c -6.18  -5.77c
iter: 111 11:23:31  -272.670471c -6.16  -5.70c
iter: 112 11:23:38  -272.670471c -6.36  -5.63c
iter: 113 11:23:45  -272.670471c -6.22  -5.58c
iter: 114 11:23:52  -272.670471c -6.29  -5.52c
Writing to output.gpw (mode='')

iter: 115 11:23:59  -272.670471c -6.57  -5.47c
iter: 116 11:24:06  -272.670471c -6.61  -5.47c
iter: 117 11:24:13  -272.670471c -6.65  -5.47c
iter: 118 11:24:25  -272.670471c -6.53  -5.44c
iter: 119 11:24:34  -272.670470c -6.50  -5.37c
Writing to output.gpw (mode='')

iter: 120 11:24:41  -272.670471c -6.74  -5.32c
iter: 121 11:24:48  -272.670471c -6.84  -5.38c
iter: 122 11:24:55  -272.670471c -6.76  -5.39c
iter: 123 11:25:02  -272.670472c -6.71  -5.37c
iter: 124 11:25:09  -272.670471c -6.80  -5.40c
Writing to output.gpw (mode='')

iter: 125 11:25:16  -272.670472c -6.77  -5.50c
iter: 126 11:25:23  -272.670472c -6.72  -5.61c
iter: 127 11:25:30  -272.670472c -6.89  -5.79c
iter: 128 11:25:37  -272.670472c -6.94  -5.89c
iter: 129 11:25:44  -272.670472c -7.08  -6.05c
Writing to output.gpw (mode='')

iter: 130 11:25:51  -272.670472c -7.07  -6.19c
iter: 131 11:25:59  -272.670472c -7.09  -6.22c
iter: 132 11:26:06  -272.670472c -7.11  -6.31c
iter: 133 11:26:13  -272.670472c -7.14  -6.36c
iter: 134 11:26:20  -272.670472c -7.21  -6.42c
Writing to output.gpw (mode='')

iter: 135 11:26:27  -272.670472c -7.36  -6.58c
iter: 136 11:26:34  -272.670472c -7.35  -6.61c
iter: 137 11:26:41  -272.670472c -7.42c -6.61c

Converged after 137 iterations.

Dipole moment: (-12.705059, -6.486401, 0.384859) |e|*Ang

Energy contributions relative to reference atoms: (reference = -13382.245603)

Kinetic:       +186.979719
Potential:     -160.682152
External:        +0.000000
XC:            -299.549880
Entropy (-ST):   -0.157620
Local:           +0.660651
--------------------------
Free energy:   -272.749282
Extrapolated:  -272.670472

Dipole-layer corrected work functions: 3.375249, 2.635418 eV

Showing only first 2 kpts
 Kpt  Band  Eigenvalues  Occupancy
  0    28     -3.25641    1.98690
  0    29     -3.15118    1.89735
  0    30     -2.88371    0.16147
  0    31     -2.77792    0.02095

  1    28     -3.05435    1.45434
  1    29     -3.01739    1.12000
  1    30     -2.95263    0.51689
  1    31     -2.91610    0.28745


Fermi level: -3.00533

Gap: 0.021 eV
Transition (v -> c):
  (s=0, k=1, n=29, [0.12, -0.12, 0.00]) -> (s=0, k=4, n=30, [0.38, -0.38, 0.00])
Writing to output.gpw (mode='')


Forces in eV/Ang:
  0 Li    0.01584   -0.00452   -0.27286
  1 Li    0.00141    0.00175   -0.26855
  2 Li   -0.01753   -0.00198   -0.27669
  3 Li    0.00178    0.01547   -0.27244
  4 Li    0.00150   -0.00552   -0.26990
  5 Li   -0.00242    0.01270   -0.27725
  6 Li   -0.00377   -0.01053   -0.26686
  7 Li   -0.00012    0.00094   -0.27809
  8 Li    0.00574   -0.01007   -0.26459
  9 Li    0.00009   -0.00121    0.29051
 10 Li    0.00652   -0.00707    0.26280
 11 Li   -0.00689   -0.00319    0.26296
 12 Li    0.00106   -0.00325    0.32776
 13 Li    0.01944    0.00047    0.26232
 14 Li   -0.01822   -0.00004    0.25715
 15 Li    0.00221    0.00084    0.24766
 16 Li   -0.00834    0.00855    0.25359
 17 Li    0.00433    0.00530    0.26241
 18 Li    0.03644   -0.00772   -0.09036
 19 Li   -0.00186    0.00454    0.06602
 20 Li   -0.03424   -0.00927   -0.08227
 21 Li    0.01019   -0.00532   -0.00981
 22 Li   -0.00494    0.01215    0.04047
 23 Li   -0.00777   -0.00537   -0.01287
 24 Li   -0.01649    0.01588    0.08110
 25 Li    0.00057   -0.01525    0.01313
 26 Li    0.01503    0.01911    0.08366
 27 Li    0.01853    0.07168    0.01698
 28 Li    0.09130   -0.05329   -0.08219
 29 Li   -0.08750   -0.04422   -0.06921
 30 Li    0.00176    0.78923   -1.15455
 31 Li    0.06567    0.02676   -0.03333
 32 Li   -0.06191    0.02084   -0.01785
 33 Li   -0.00025    0.04535   -0.03392
 34 Li   -0.00607    0.02172   -0.02383
 35 Li    0.00789    0.02067   -0.01520
 36 O     0.58290   -9.78647   16.41402
 37 C     0.15129   -6.47214    3.84478
 38 H    -0.03011    0.05808    0.36912
 39 H     0.05049    0.13381    0.04602
 40 H    -0.06612   -0.02300    0.05009
 41 H    -1.50935    0.88760    1.05910
 42 N     0.85876   -5.51226   -9.37076
 43 N    -0.09235   19.80219  -11.07051

System changes: positions 

Initializing position-dependent things.

Density initialized from wave functions
       .-----------------------.  
      /|                       |  
     / |                       |  
    /  |                       |  
   /   |                       |  
  /    |                       |  
 *     |                       |  
 |     |                       |  
 |     |                       |  
 |     |                      H|  
 |     |                       |  
 |     | H                   H |  
 |     |                       |  
 |     |                       |  
 |     |       Li      Li      |  
 |O    |                H      |  
 |     |     Li      Li  C N Li|  
 |N    |  Li      Li      Li   |  
 | Li  |   Li      Li          |  
 |     |Li      Li      Li     |  
 Li    |                       |  
 |   LLi     LLi     LLi       |  
 |     |  Li      Li      Li   |  
 | Li  |   Li      Li          |  
 |     |Li      Li      Li     |  
 Li    | Li      Li            |  
 |    Li      Li      Li       |  
 |     |                       |  
 |     |                       |  
 |     |                       |  
 |     |                       |  
 |     |                       |  
 |     |                       |  
 |     .-----------------------.  
 |    /                       /   
 |   /                       /    
 |  /                       /     
 | /                       /      
 |/                       /       
 *-----------------------*        

Positions:
   0 Li     1.617037    1.617037   10.000000    ( 0.0000,  0.0000,  0.0000)
   1 Li     4.851111    1.617037   10.000000    ( 0.0000,  0.0000,  0.0000)
   2 Li     8.085185    1.617037   10.000000    ( 0.0000,  0.0000,  0.0000)
   3 Li     1.617037    4.851111   10.000000    ( 0.0000,  0.0000,  0.0000)
   4 Li     4.851111    4.851111   10.000000    ( 0.0000,  0.0000,  0.0000)
   5 Li     8.085185    4.851111   10.000000    ( 0.0000,  0.0000,  0.0000)
   6 Li     1.617037    8.085185   10.000000    ( 0.0000,  0.0000,  0.0000)
   7 Li     4.851111    8.085185   10.000000    ( 0.0000,  0.0000,  0.0000)
   8 Li     8.085185    8.085185   10.000000    ( 0.0000,  0.0000,  0.0000)
   9 Li     0.000000    0.000000   11.617037    ( 0.0000,  0.0000,  0.0000)
  10 Li     3.234074    0.000000   11.617037    ( 0.0000,  0.0000,  0.0000)
  11 Li     6.468148    0.000000   11.617037    ( 0.0000,  0.0000,  0.0000)
  12 Li     0.000000    3.234074   11.617037    ( 0.0000,  0.0000,  0.0000)
  13 Li     3.234074    3.234074   11.617037    ( 0.0000,  0.0000,  0.0000)
  14 Li     6.468148    3.234074   11.617037    ( 0.0000,  0.0000,  0.0000)
  15 Li     0.000000    6.468148   11.617037    ( 0.0000,  0.0000,  0.0000)
  16 Li     3.234074    6.468148   11.617037    ( 0.0000,  0.0000,  0.0000)
  17 Li     6.468148    6.468148   11.617037    ( 0.0000,  0.0000,  0.0000)
  18 Li     1.617102    1.617024   13.469569    ( 0.0000,  0.0000,  0.0000)
  19 Li     4.851108    1.617046   13.469846    ( 0.0000,  0.0000,  0.0000)
  20 Li     8.085124    1.617022   13.469583    ( 0.0000,  0.0000,  0.0000)
  21 Li     1.617056    4.851102   13.469712    ( 0.0000,  0.0000,  0.0000)
  22 Li     4.851102    4.851132   13.469802    ( 0.0000,  0.0000,  0.0000)
  23 Li     8.085170    4.851102   13.469707    ( 0.0000,  0.0000,  0.0000)
  24 Li     1.617009    8.085212   13.469871    ( 0.0000,  0.0000,  0.0000)
  25 Li     4.851112    8.085157   13.469753    ( 0.0000,  0.0000,  0.0000)
  26 Li     8.085210    8.085218   13.469875    ( 0.0000,  0.0000,  0.0000)
  27 Li     0.000033    0.000126   15.445969    ( 0.0000,  0.0000,  0.0000)
  28 Li     3.234235   -0.000094   15.445794    ( 0.0000,  0.0000,  0.0000)
  29 Li     6.467994   -0.000078   15.445817    ( 0.0000,  0.0000,  0.0000)
  30 Li     0.000003    3.235465   15.443903    ( 0.0000,  0.0000,  0.0000)
  31 Li     3.234192    3.234124   15.445879    ( 0.0000,  0.0000,  0.0000)
  32 Li     6.468036    3.234113   15.445907    ( 0.0000,  0.0000,  0.0000)
  33 Li    -0.000000    6.468228   15.445879    ( 0.0000,  0.0000,  0.0000)
  34 Li     3.234066    6.468184   15.445896    ( 0.0000,  0.0000,  0.0000)
  35 Li     6.468159    6.468182   15.445911    ( 0.0000,  0.0000,  0.0000)
  36 O      0.001028    1.599782   18.474880    ( 0.0000,  0.0000,  0.0000)
  37 C     -0.014807    0.175663   18.458218    ( 0.0000,  0.0000,  0.0000)
  38 H     -0.765080   -0.217095   17.764940    ( 0.0000,  0.0000,  0.0000)
  39 H     -0.193394   -0.216202   19.453309    ( 0.0000,  0.0000,  0.0000)
  40 H      0.970525   -0.132410   18.118599    ( 0.0000,  0.0000,  0.0000)
  41 H     -0.865790    1.930257   18.738812    ( 0.0000,  0.0000,  0.0000)
  42 N      0.001514    1.607281   17.179417    ( 0.0000,  0.0000,  0.0000)
  43 N     -0.000163    2.748536   17.176421    ( 0.0000,  0.0000,  0.0000)

Unit cell:
           periodic     x           y           z      points  spacing
  1. axis:    yes    9.702222    0.000000    0.000000    60     0.1617
  2. axis:    yes    0.000000    9.702222    0.000000    60     0.1617
  3. axis:    no     0.000000    0.000000   26.601111   168     0.1583

  Lengths:   9.702222   9.702222  26.601111
  Angles:   90.000000  90.000000  90.000000

Effective grid spacing dv^(1/3) = 0.1606

     iter     time        total  log10-change:
                         energy  eigst   dens
iter:   1 11:26:49  -275.161733  -0.12
iter:   2 11:26:56  -274.686343  -0.18  -1.25
iter:   3 11:27:04  -274.382686  -0.78  -1.26
iter:   4 11:27:11  -274.296052  -1.00  -1.59
Writing to output.gpw (mode='')

iter:   5 11:27:18  -274.287990  -1.61  -1.87
iter:   6 11:27:25  -274.289566c -1.00  -2.06
iter:   7 11:27:32  -274.277554c -1.16  -1.82
iter:   8 11:27:39  -274.269117c -1.97  -2.11
iter:   9 11:27:46  -274.264681c -1.84  -2.20
Writing to output.gpw (mode='')

iter:  10 11:27:54  -274.266298c -1.69  -2.21
iter:  11 11:28:01  -274.263339c -2.25  -2.35
iter:  12 11:28:08  -274.265763c -2.38  -2.61
iter:  13 11:28:15  -274.261650c -2.91  -2.51
iter:  14 11:28:22  -274.260581c -3.04  -2.86
Writing to output.gpw (mode='')

iter:  15 11:28:29  -274.260844c -3.54  -3.03
iter:  16 11:28:36  -274.260878c -3.26  -3.07
iter:  17 11:28:43  -274.260863c -3.45  -3.04
iter:  18 11:28:51  -274.261014c -4.06  -3.19
iter:  19 11:28:58  -274.261015c -3.98  -3.17
Writing to output.gpw (mode='')

iter:  20 11:29:05  -274.260843c -3.84  -3.20
iter:  21 11:29:12  -274.260923c -4.31  -3.55
iter:  22 11:29:25  -274.260895c -4.55  -3.63
iter:  23 11:29:34  -274.260927c -4.58  -3.77
iter:  24 11:29:42  -274.260910c -4.60  -3.80
Writing to output.gpw (mode='')

iter:  25 11:29:57  -274.260913c -4.67  -3.89
iter:  26 11:30:05  -274.260922c -4.94  -4.05c
iter:  27 11:30:14  -274.260930c -5.04  -4.21c
iter:  28 11:30:21  -274.260919c -5.08  -4.29c
iter:  29 11:30:28  -274.260921c -5.47  -4.30c
Writing to output.gpw (mode='')

iter:  30 11:30:35  -274.260924c -5.42  -4.32c
iter:  31 11:30:42  -274.260921c -5.50  -4.38c
iter:  32 11:30:50  -274.260925c -5.71  -4.52c
iter:  33 11:30:57  -274.260926c -5.64  -4.55c
iter:  34 11:31:04  -274.260926c -5.88  -4.64c
Writing to output.gpw (mode='')

iter:  35 11:31:11  -274.260925c -5.93  -4.88c
iter:  36 11:31:18  -274.260925c -5.90  -4.93c
iter:  37 11:31:26  -274.260925c -5.97  -4.92c
iter:  38 11:31:33  -274.260922c -6.10  -4.97c
iter:  39 11:31:40  -274.260923c -6.27  -5.00c
Writing to output.gpw (mode='')

iter:  40 11:31:47  -274.260923c -6.33  -5.11c
iter:  41 11:31:54  -274.260924c -6.18  -5.20c
iter:  42 11:32:02  -274.260924c -6.42  -5.32c
iter:  43 11:32:09  -274.260924c -6.50  -5.33c
iter:  44 11:32:16  -274.260925c -6.48  -5.35c
Writing to output.gpw (mode='')

iter:  45 11:32:23  -274.260925c -6.42  -5.30c
iter:  46 11:32:30  -274.260925c -6.66  -5.23c
iter:  47 11:32:38  -274.260924c -6.77  -5.23c
iter:  48 11:32:45  -274.260924c -6.87  -5.41c
iter:  49 11:32:52  -274.260923c -6.79  -5.44c
Writing to output.gpw (mode='')

iter:  50 11:32:59  -274.260923c -6.78  -5.48c
iter:  51 11:33:06  -274.260923c -6.94  -5.70c
iter:  52 11:33:13  -274.260923c -7.17  -5.79c
iter:  53 11:33:21  -274.260923c -7.19  -5.79c
iter:  54 11:33:28  -274.260923c -7.18  -5.79c
Writing to output.gpw (mode='')

iter:  55 11:33:35  -274.260923c -7.24  -5.82c
iter:  56 11:33:42  -274.260923c -7.33  -6.02c
iter:  57 11:33:49  -274.260923c -7.38  -5.91c
iter:  58 11:33:56  -274.260923c -7.46c -5.75c

Converged after 58 iterations.

Dipole moment: (-12.982450, -6.476070, 0.380814) |e|*Ang

Energy contributions relative to reference atoms: (reference = -13382.245603)

Kinetic:       +175.602185
Potential:     -152.670102
External:        +0.000000
XC:            -297.777926
Entropy (-ST):   -0.158762
Local:           +0.664301
--------------------------
Free energy:   -274.340304
Extrapolated:  -274.260923

Dipole-layer corrected work functions: 3.376607, 2.644552 eV

Showing only first 2 kpts
 Kpt  Band  Eigenvalues  Occupancy
  0    28     -3.26136    1.98682
  0    29     -3.15387    1.89226
  0    30     -2.89737    0.18828
  0    31     -2.78350    0.02109

  1    28     -3.05808    1.44224
  1    29     -3.03112    1.20257
  1    30     -2.95244    0.47629
  1    31     -2.91612    0.26269


Fermi level: -3.01058

Gap: 0.031 eV
Transition (v -> c):
  (s=0, k=1, n=29, [0.12, -0.12, 0.00]) -> (s=0, k=7, n=30, [0.38, 0.38, 0.00])
Writing to output.gpw (mode='')


Forces in eV/Ang:
  0 Li    0.01665   -0.00447   -0.27435
  1 Li    0.00171    0.00189   -0.26891
  2 Li   -0.01865   -0.00219   -0.27763
  3 Li    0.00147    0.01615   -0.27322
  4 Li    0.00148   -0.00656   -0.26862
  5 Li   -0.00216    0.01351   -0.27776
  6 Li   -0.00477   -0.01113   -0.26646
  7 Li    0.00004    0.00176   -0.27801
  8 Li    0.00622   -0.01029   -0.26470
  9 Li   -0.00011   -0.00232    0.29062
 10 Li    0.00651   -0.00645    0.26377
 11 Li   -0.00657   -0.00280    0.26309
 12 Li    0.00071   -0.00250    0.33044
 13 Li    0.01917    0.00005    0.26325
 14 Li   -0.01790   -0.00059    0.25738
 15 Li    0.00217    0.00073    0.24826
 16 Li   -0.00667    0.00892    0.25341
 17 Li    0.00305    0.00558    0.26159
 18 Li    0.03532   -0.00846   -0.09788
 19 Li   -0.00125    0.00562    0.06929
 20 Li   -0.03345   -0.00975   -0.08807
 21 Li    0.01218   -0.00393   -0.01480
 22 Li   -0.00428    0.01057    0.04198
 23 Li   -0.01021   -0.00451   -0.01786
 24 Li   -0.01667    0.01590    0.08121
 25 Li    0.00007   -0.01543    0.01314
 26 Li    0.01607    0.01884    0.08421
 27 Li    0.01915    0.09512    0.04707
 28 Li    0.09326   -0.05614   -0.08019
 29 Li   -0.08918   -0.04849   -0.07072
 30 Li    0.00293    0.82691   -1.33713
 31 Li    0.05906    0.02762   -0.02367
 32 Li   -0.05659    0.02284   -0.01476
 33 Li    0.00019    0.04297   -0.03190
 34 Li   -0.00576    0.02192   -0.02359
 35 Li    0.00685    0.02143   -0.01604
 36 O     0.47165   -8.26296   12.75578
 37 C     0.10496   -5.59526    3.41857
 38 H    -0.03789    0.03245    0.38845
 39 H     0.01105   -0.10079    0.30857
 40 H    -0.02643   -0.08079    0.07897
 41 H    -1.27917    0.79223    0.95076
 42 N     0.86709    0.06380   -7.62950
 43 N    -0.15984   12.12765   -8.73747

System changes: positions 

Initializing position-dependent things.

Density initialized from wave functions
       .-----------------------.  
      /|                       |  
     / |                       |  
    /  |                       |  
   /   |                       |  
  /    |                       |  
 *     |                       |  
 |     |                       |  
 |     |                       |  
 |     |                      H|  
 |     |                       |  
 |     | H                   H |  
 |     |                       |  
 |     |                       |  
 |     |       Li      Li      |  
 |O    |                H      |  
 |   Li|     Li      Li  C N   |  
 |N    |  Li      Li      Li   |  
 | Li  |   Li      Li          |  
 |     |Li      Li      Li     |  
 Li    |                       |  
 |   LLi     LLi     LLi       |  
 |     |  Li      Li      Li   |  
 | Li  |   Li      Li          |  
 |     |Li      Li      Li     |  
 Li    | Li      Li            |  
 |    Li      Li      Li       |  
 |     |                       |  
 |     |                       |  
 |     |                       |  
 |     |                       |  
 |     |                       |  
 |     |                       |  
 |     .-----------------------.  
 |    /                       /   
 |   /                       /    
 |  /                       /     
 | /                       /      
 |/                       /       
 *-----------------------*        

Positions:
   0 Li     1.617037    1.617037   10.000000    ( 0.0000,  0.0000,  0.0000)
   1 Li     4.851111    1.617037   10.000000    ( 0.0000,  0.0000,  0.0000)
   2 Li     8.085185    1.617037   10.000000    ( 0.0000,  0.0000,  0.0000)
   3 Li     1.617037    4.851111   10.000000    ( 0.0000,  0.0000,  0.0000)
   4 Li     4.851111    4.851111   10.000000    ( 0.0000,  0.0000,  0.0000)
   5 Li     8.085185    4.851111   10.000000    ( 0.0000,  0.0000,  0.0000)
   6 Li     1.617037    8.085185   10.000000    ( 0.0000,  0.0000,  0.0000)
   7 Li     4.851111    8.085185   10.000000    ( 0.0000,  0.0000,  0.0000)
   8 Li     8.085185    8.085185   10.000000    ( 0.0000,  0.0000,  0.0000)
   9 Li     0.000000    0.000000   11.617037    ( 0.0000,  0.0000,  0.0000)
  10 Li     3.234074    0.000000   11.617037    ( 0.0000,  0.0000,  0.0000)
  11 Li     6.468148    0.000000   11.617037    ( 0.0000,  0.0000,  0.0000)
  12 Li     0.000000    3.234074   11.617037    ( 0.0000,  0.0000,  0.0000)
  13 Li     3.234074    3.234074   11.617037    ( 0.0000,  0.0000,  0.0000)
  14 Li     6.468148    3.234074   11.617037    ( 0.0000,  0.0000,  0.0000)
  15 Li     0.000000    6.468148   11.617037    ( 0.0000,  0.0000,  0.0000)
  16 Li     3.234074    6.468148   11.617037    ( 0.0000,  0.0000,  0.0000)
  17 Li     6.468148    6.468148   11.617037    ( 0.0000,  0.0000,  0.0000)
  18 Li     1.617229    1.616990   13.469170    ( 0.0000,  0.0000,  0.0000)
  19 Li     4.851106    1.617072   13.470119    ( 0.0000,  0.0000,  0.0000)
  20 Li     8.085002    1.616983   13.469229    ( 0.0000,  0.0000,  0.0000)
  21 Li     1.617110    4.851093   13.469635    ( 0.0000,  0.0000,  0.0000)
  22 Li     4.851089    4.851165   13.469965    ( 0.0000,  0.0000,  0.0000)
  23 Li     8.085121    4.851088   13.469618    ( 0.0000,  0.0000,  0.0000)
  24 Li     1.616946    8.085271   13.470175    ( 0.0000,  0.0000,  0.0000)
  25 Li     4.851110    8.085098   13.469802    ( 0.0000,  0.0000,  0.0000)
  26 Li     8.085275    8.085287   13.470192    ( 0.0000,  0.0000,  0.0000)
  27 Li     0.000107    0.000583   15.446275    ( 0.0000,  0.0000,  0.0000)
  28 Li     3.234591   -0.000316   15.445503    ( 0.0000,  0.0000,  0.0000)
  29 Li     6.467654   -0.000277   15.445546    ( 0.0000,  0.0000,  0.0000)
  30 Li     0.000019    3.238716   15.438119    ( 0.0000,  0.0000,  0.0000)
  31 Li     3.234384    3.234231   15.445833    ( 0.0000,  0.0000,  0.0000)
  32 Li     6.467848    3.234207   15.445865    ( 0.0000,  0.0000,  0.0000)
  33 Li     0.000002    6.468378   15.445769    ( 0.0000,  0.0000,  0.0000)
  34 Li     3.234046    6.468267   15.445809    ( 0.0000,  0.0000,  0.0000)
  35 Li     6.468181    6.468265   15.445848    ( 0.0000,  0.0000,  0.0000)
  36 O      0.002307    1.575528   18.506662    ( 0.0000,  0.0000,  0.0000)
  37 C     -0.014616    0.158569   18.469136    ( 0.0000,  0.0000,  0.0000)
  38 H     -0.765255   -0.217084   17.766474    ( 0.0000,  0.0000,  0.0000)
  39 H     -0.193523   -0.217594   19.455598    ( 0.0000,  0.0000,  0.0000)
  40 H      0.970598   -0.132962   18.119019    ( 0.0000,  0.0000,  0.0000)
  41 H     -0.869569    1.932802   18.741892    ( 0.0000,  0.0000,  0.0000)
  42 N      0.004788    1.631676   17.158472    ( 0.0000,  0.0000,  0.0000)
  43 N     -0.001052    2.760573   17.153902    ( 0.0000,  0.0000,  0.0000)

Unit cell:
           periodic     x           y           z      points  spacing
  1. axis:    yes    9.702222    0.000000    0.000000    60     0.1617
  2. axis:    yes    0.000000    9.702222    0.000000    60     0.1617
  3. axis:    no     0.000000    0.000000   26.601111   168     0.1583

  Lengths:   9.702222   9.702222  26.601111
  Angles:   90.000000  90.000000  90.000000

Effective grid spacing dv^(1/3) = 0.1606

     iter     time        total  log10-change:
                         energy  eigst   dens
iter:   1 11:34:05  -275.535588  -0.50
iter:   2 11:34:12  -275.464256  -0.67  -1.55
iter:   3 11:34:23  -275.441459  -1.20  -1.68
iter:   4 11:34:33  -275.423926  -1.05  -2.06
Writing to output.gpw (mode='')

iter:   5 11:34:40  -275.445948c -1.46  -2.16
iter:   6 11:34:47  -275.480923  -1.26  -2.08
iter:   7 11:34:54  -275.427604  -1.51  -1.84
iter:   8 11:35:01  -275.419180  -1.54  -2.23
iter:   9 11:35:09  -275.421543c -2.24  -2.54
Writing to output.gpw (mode='')

iter:  10 11:35:16  -275.425784c -2.40  -2.56
iter:  11 11:35:23  -275.420535c -1.80  -2.40
iter:  12 11:35:30  -275.421049c -2.55  -2.60
iter:  13 11:35:38  -275.421291c -2.86  -2.87
iter:  14 11:35:45  -275.421112c -2.87  -2.88
Writing to output.gpw (mode='')

iter:  15 11:35:52  -275.421615c -2.95  -3.04
iter:  16 11:35:59  -275.421355c -3.37  -3.02
iter:  17 11:36:06  -275.421570c -3.40  -3.12
iter:  18 11:36:13  -275.421554c -3.77  -3.31
iter:  19 11:36:21  -275.421587c -3.71  -3.43
Writing to output.gpw (mode='')

iter:  20 11:36:28  -275.421598c -4.00  -3.61
iter:  21 11:36:35  -275.421654c -4.01  -3.57
iter:  22 11:36:42  -275.421661c -4.07  -3.60
iter:  23 11:36:49  -275.421650c -4.45  -3.61
iter:  24 11:36:56  -275.421661c -4.46  -3.88
Writing to output.gpw (mode='')

iter:  25 11:37:06  -275.421686c -4.79  -3.94
iter:  26 11:37:13  -275.421684c -4.92  -4.02c
iter:  27 11:37:20  -275.421695c -4.81  -4.04c
iter:  28 11:37:28  -275.421688c -5.03  -4.17c
iter:  29 11:37:35  -275.421693c -5.02  -4.29c
Writing to output.gpw (mode='')

iter:  30 11:37:42  -275.421699c -5.21  -4.27c
iter:  31 11:37:49  -275.421706c -5.31  -4.34c
iter:  32 11:37:56  -275.421708c -5.40  -4.49c
iter:  33 11:38:03  -275.421706c -5.82  -4.58c
iter:  34 11:38:11  -275.421706c -5.85  -4.67c
Writing to output.gpw (mode='')

iter:  35 11:38:18  -275.421704c -5.74  -4.72c
iter:  36 11:38:25  -275.421707c -5.87  -4.88c
iter:  37 11:38:32  -275.421707c -6.03  -4.85c
iter:  38 11:38:39  -275.421710c -5.99  -4.87c
iter:  39 11:38:46  -275.421708c -6.12  -4.90c
Writing to output.gpw (mode='')

iter:  40 11:38:53  -275.421709c -6.35  -4.88c
iter:  41 11:39:01  -275.421708c -6.42  -4.94c
iter:  42 11:39:08  -275.421708c -6.54  -4.86c
iter:  43 11:39:15  -275.421708c -6.51  -4.92c
iter:  44 11:39:27  -275.421707c -6.58  -4.93c
Writing to output.gpw (mode='')

iter:  45 11:39:35  -275.421710c -6.66  -4.82c
iter:  46 11:39:42  -275.421710c -6.89  -4.99c
iter:  47 11:39:50  -275.421711c -6.79  -4.95c
iter:  48 11:39:57  -275.421712c -6.90  -4.95c
iter:  49 11:40:04  -275.421714c -6.97  -5.05c
Writing to output.gpw (mode='')

iter:  50 11:40:11  -275.421714c -6.96  -5.04c
iter:  51 11:40:18  -275.421716c -7.09  -5.09c
iter:  52 11:40:26  -275.421714c -7.45c -5.27c

Converged after 52 iterations.

Dipole moment: (-13.324697, -6.393671, 0.406769) |e|*Ang

Energy contributions relative to reference atoms: (reference = -13382.245603)

Kinetic:       +172.693639
Potential:     -151.431626
External:        +0.000000
XC:            -297.276672
Entropy (-ST):   -0.156432
Local:           +0.671160
--------------------------
Free energy:   -275.499930
Extrapolated:  -275.421714

Dipole-layer corrected work functions: 3.374858, 2.592910 eV

Showing only first 2 kpts
 Kpt  Band  Eigenvalues  Occupancy
  0    28     -3.23586    1.98713
  0    29     -3.13034    1.89853
  0    30     -2.85785    0.14884
  0    31     -2.75766    0.02145

  1    28     -3.03208    1.44778
  1    29     -3.00646    1.22203
  1    30     -2.92585    0.47710
  1    31     -2.89430    0.28572


Fermi level: -2.98388

Gap: 0.031 eV
Transition (v -> c):
  (s=0, k=1, n=29, [0.12, -0.12, 0.00]) -> (s=0, k=7, n=30, [0.38, 0.38, 0.00])
Writing to output.gpw (mode='')


Forces in eV/Ang:
  0 Li    0.01668   -0.00449   -0.27372
  1 Li    0.00219    0.00199   -0.26872
  2 Li   -0.01912   -0.00225   -0.27717
  3 Li    0.00100    0.01669   -0.27312
  4 Li    0.00136   -0.00687   -0.26806
  5 Li   -0.00170    0.01381   -0.27747
  6 Li   -0.00529   -0.01170   -0.26588
  7 Li    0.00000    0.00185   -0.27819
  8 Li    0.00662   -0.01024   -0.26461
  9 Li   -0.00021   -0.00281    0.28986
 10 Li    0.00726   -0.00618    0.26378
 11 Li   -0.00719   -0.00249    0.26295
 12 Li    0.00063   -0.00269    0.33126
 13 Li    0.01945    0.00008    0.26299
 14 Li   -0.01829   -0.00072    0.25645
 15 Li    0.00240    0.00120    0.24701
 16 Li   -0.00657    0.00914    0.25338
 17 Li    0.00293    0.00527    0.26154
 18 Li    0.03531   -0.00934   -0.09605
 19 Li   -0.00111    0.00577    0.06867
 20 Li   -0.03383   -0.01009   -0.08599
 21 Li    0.01233   -0.00377   -0.01195
 22 Li   -0.00374    0.01091    0.04250
 23 Li   -0.01062   -0.00467   -0.01583
 24 Li   -0.01644    0.01699    0.08146
 25 Li   -0.00024   -0.01605    0.01112
 26 Li    0.01620    0.01931    0.08421
 27 Li    0.02008    0.08549    0.03139
 28 Li    0.09199   -0.05587   -0.07947
 29 Li   -0.08773   -0.04739   -0.07015
 30 Li    0.00113    0.87207   -1.53587
 31 Li    0.06812    0.02820   -0.03058
 32 Li   -0.06730    0.02285   -0.02532
 33 Li    0.00094    0.04443   -0.03621
 34 Li   -0.00817    0.02047   -0.02264
 35 Li    0.00830    0.02039   -0.01592
 36 O     0.11113   -6.80299   10.95460
 37 C     0.03427   -4.38881    2.63479
 38 H    -0.04139    0.00044    0.37582
 39 H    -0.04310   -0.41084    0.62604
 40 H     0.02261   -0.15785    0.09894
 41 H    -0.80695    0.46412    0.82913
 42 N     0.87758   -0.59083   -6.73920
 43 N    -0.18755   10.88972   -7.08126

System changes: positions 

Initializing position-dependent things.

Density initialized from wave functions
       .-----------------------.  
      /|                       |  
     / |                       |  
    /  |                       |  
   /   |                       |  
  /    |                       |  
 *     |                       |  
 |     |                       |  
 |     |                       |  
 |     |                      H|  
 |     |                       |  
 |     | H                   H |  
 |     |                       |  
 |     |                       |  
 |     |       Li      Li      |  
 |     |                H O    |  
 |   Li|     Li      Li  C N   |  
 |N    |  Li      Li      Li   |  
 | Li  |   Li      Li          |  
 |     |Li      Li      Li     |  
 Li    |                       |  
 |   LLi     LLi     LLi       |  
 |     |  Li      Li      Li   |  
 | Li  |   Li      Li          |  
 |     |Li      Li      Li     |  
 Li    | Li      Li            |  
 |    Li      Li      Li       |  
 |     |                       |  
 |     |                       |  
 |     |                       |  
 |     |                       |  
 |     |                       |  
 |     |                       |  
 |     .-----------------------.  
 |    /                       /   
 |   /                       /    
 |  /                       /     
 | /                       /      
 |/                       /       
 *-----------------------*        

Positions:
   0 Li     1.617037    1.617037   10.000000    ( 0.0000,  0.0000,  0.0000)
   1 Li     4.851111    1.617037   10.000000    ( 0.0000,  0.0000,  0.0000)
   2 Li     8.085185    1.617037   10.000000    ( 0.0000,  0.0000,  0.0000)
   3 Li     1.617037    4.851111   10.000000    ( 0.0000,  0.0000,  0.0000)
   4 Li     4.851111    4.851111   10.000000    ( 0.0000,  0.0000,  0.0000)
   5 Li     8.085185    4.851111   10.000000    ( 0.0000,  0.0000,  0.0000)
   6 Li     1.617037    8.085185   10.000000    ( 0.0000,  0.0000,  0.0000)
   7 Li     4.851111    8.085185   10.000000    ( 0.0000,  0.0000,  0.0000)
   8 Li     8.085185    8.085185   10.000000    ( 0.0000,  0.0000,  0.0000)
   9 Li     0.000000    0.000000   11.617037    ( 0.0000,  0.0000,  0.0000)
  10 Li     3.234074    0.000000   11.617037    ( 0.0000,  0.0000,  0.0000)
  11 Li     6.468148    0.000000   11.617037    ( 0.0000,  0.0000,  0.0000)
  12 Li     0.000000    3.234074   11.617037    ( 0.0000,  0.0000,  0.0000)
  13 Li     3.234074    3.234074   11.617037    ( 0.0000,  0.0000,  0.0000)
  14 Li     6.468148    3.234074   11.617037    ( 0.0000,  0.0000,  0.0000)
  15 Li     0.000000    6.468148   11.617037    ( 0.0000,  0.0000,  0.0000)
  16 Li     3.234074    6.468148   11.617037    ( 0.0000,  0.0000,  0.0000)
  17 Li     6.468148    6.468148   11.617037    ( 0.0000,  0.0000,  0.0000)
  18 Li     1.617447    1.616919   13.468537    ( 0.0000,  0.0000,  0.0000)
  19 Li     4.851103    1.617116   13.470566    ( 0.0000,  0.0000,  0.0000)
  20 Li     8.084788    1.616914   13.468671    ( 0.0000,  0.0000,  0.0000)
  21 Li     1.617201    4.851078   13.469558    ( 0.0000,  0.0000,  0.0000)
  22 Li     4.851074    4.851229   13.470247    ( 0.0000,  0.0000,  0.0000)
  23 Li     8.085037    4.851062   13.469510    ( 0.0000,  0.0000,  0.0000)
  24 Li     1.616843    8.085389   13.470694    ( 0.0000,  0.0000,  0.0000)
  25 Li     4.851103    8.084990   13.469854    ( 0.0000,  0.0000,  0.0000)
  26 Li     8.085384    8.085412   13.470729    ( 0.0000,  0.0000,  0.0000)
  27 Li     0.000246    0.001165   15.446495    ( 0.0000,  0.0000,  0.0000)
  28 Li     3.235174   -0.000683   15.445017    ( 0.0000,  0.0000,  0.0000)
  29 Li     6.467101   -0.000591   15.445098    ( 0.0000,  0.0000,  0.0000)
  30 Li     0.000016    3.244857   15.425598    ( 0.0000,  0.0000,  0.0000)
  31 Li     3.234862    3.234419   15.445628    ( 0.0000,  0.0000,  0.0000)
  32 Li     6.467353    3.234363   15.445625    ( 0.0000,  0.0000,  0.0000)
  33 Li     0.000017    6.468660   15.445511    ( 0.0000,  0.0000,  0.0000)
  34 Li     3.233974    6.468384   15.445675    ( 0.0000,  0.0000,  0.0000)
  35 Li     6.468241    6.468389   15.445743    ( 0.0000,  0.0000,  0.0000)
  36 O     -0.000849    1.553812   18.540105    ( 0.0000,  0.0000,  0.0000)
  37 C     -0.015287    0.146382   18.476455    ( 0.0000,  0.0000,  0.0000)
  38 H     -0.765592   -0.217509   17.768847    ( 0.0000,  0.0000,  0.0000)
  39 H     -0.194499   -0.224269   19.463855    ( 0.0000,  0.0000,  0.0000)
  40 H      0.971399   -0.134971   18.119982    ( 0.0000,  0.0000,  0.0000)
  41 H     -0.869173    1.932263   18.745465    ( 0.0000,  0.0000,  0.0000)
  42 N      0.010492    1.652073   17.133182    ( 0.0000,  0.0000,  0.0000)
  43 N     -0.002856    2.777045   17.136562    ( 0.0000,  0.0000,  0.0000)

Unit cell:
           periodic     x           y           z      points  spacing
  1. axis:    yes    9.702222    0.000000    0.000000    60     0.1617
  2. axis:    yes    0.000000    9.702222    0.000000    60     0.1617
  3. axis:    no     0.000000    0.000000   26.601111   168     0.1583

  Lengths:   9.702222   9.702222  26.601111
  Angles:   90.000000  90.000000  90.000000

Effective grid spacing dv^(1/3) = 0.1606

     iter     time        total  log10-change:
                         energy  eigst   dens
iter:   1 11:40:34  -276.467196  -0.53
iter:   2 11:40:41  -276.455177  -0.89  -1.75
iter:   3 11:40:49  -276.450726c -1.27  -1.87
iter:   4 11:40:56  -276.455366c -1.43  -2.19
Writing to output.gpw (mode='')

iter:   5 11:41:03  -276.451382c -1.26  -2.19
iter:   6 11:41:10  -276.444474c -1.85  -1.94
iter:   7 11:41:18  -276.447083c -1.49  -2.07
iter:   8 11:41:25  -276.452182c -1.46  -2.27
iter:   9 11:41:32  -276.451774c -1.87  -2.27
Writing to output.gpw (mode='')

iter:  10 11:41:39  -276.443470c -2.07  -2.03
iter:  11 11:41:46  -276.440719c -1.72  -2.18
iter:  12 11:41:53  -276.437869c -2.43  -2.20
iter:  13 11:42:00  -276.438054c -1.92  -2.31
iter:  14 11:42:08  -276.436832c -2.85  -2.34
Writing to output.gpw (mode='')

iter:  15 11:42:15  -276.437060c -2.15  -2.48
iter:  16 11:42:22  -276.437071c -2.44  -2.57
iter:  17 11:42:29  -276.436258c -3.29  -2.57
iter:  18 11:42:36  -276.436225c -3.19  -2.82
iter:  19 11:42:43  -276.436306c -3.57  -2.88
Writing to output.gpw (mode='')

iter:  20 11:42:50  -276.436106c -3.14  -2.89
iter:  21 11:42:57  -276.436121c -3.50  -3.16
iter:  22 11:43:04  -276.436032c -3.84  -3.25
iter:  23 11:43:12  -276.436046c -4.62  -3.53
iter:  24 11:43:19  -276.436049c -4.95  -3.66
Writing to output.gpw (mode='')

iter:  25 11:43:26  -276.436073c -4.81  -3.67
iter:  26 11:43:33  -276.436054c -4.69  -3.80
iter:  27 11:43:40  -276.436052c -5.46  -3.89
iter:  28 11:43:47  -276.436040c -5.00  -3.96
iter:  29 11:43:54  -276.436044c -5.40  -3.95
Writing to output.gpw (mode='')

iter:  30 11:44:02  -276.436046c -5.69  -4.37c
iter:  31 11:44:09  -276.436046c -5.86  -4.40c
iter:  32 11:44:16  -276.436047c -5.64  -4.47c
iter:  33 11:44:29  -276.436048c -6.04  -4.46c
iter:  34 11:44:36  -276.436048c -6.14  -4.68c
Writing to output.gpw (mode='')

iter:  35 11:44:43  -276.436049c -6.16  -4.87c
iter:  36 11:44:50  -276.436048c -6.42  -4.98c
iter:  37 11:44:58  -276.436049c -6.46  -5.00c
iter:  38 11:45:05  -276.436049c -6.41  -5.08c
iter:  39 11:45:12  -276.436049c -6.70  -5.22c
Writing to output.gpw (mode='')

iter:  40 11:45:19  -276.436048c -6.65  -5.25c
iter:  41 11:45:26  -276.436049c -6.81  -5.31c
iter:  42 11:45:33  -276.436049c -6.74  -5.42c
iter:  43 11:45:41  -276.436049c -6.97  -5.42c
iter:  44 11:45:48  -276.436048c -6.93  -5.44c
Writing to output.gpw (mode='')

iter:  45 11:45:55  -276.436048c -7.12  -5.53c
iter:  46 11:46:02  -276.436049c -7.34  -5.72c
iter:  47 11:46:10  -276.436048c -7.25  -5.80c
iter:  48 11:46:17  -276.436049c -7.18  -5.84c
iter:  49 11:46:24  -276.436049c -7.47c -5.93c

Converged after 49 iterations.

Dipole moment: (-13.337373, -6.248021, 0.416477) |e|*Ang

Energy contributions relative to reference atoms: (reference = -13382.245603)

Kinetic:       +169.346917
Potential:     -149.687520
External:        +0.000000
XC:            -296.692765
Entropy (-ST):   -0.154589
Local:           +0.674613
--------------------------
Free energy:   -276.513343
Extrapolated:  -276.436049

Dipole-layer corrected work functions: 3.374422, 2.573812 eV

Showing only first 2 kpts
 Kpt  Band  Eigenvalues  Occupancy
  0    28     -3.22727    1.98743
  0    29     -3.12357    1.90415
  0    30     -2.83982    0.12763
  0    31     -2.74581    0.02058

  1    28     -3.02128    1.43953
  1    29     -3.00015    1.25459
  1    30     -2.91452    0.46581
  1    31     -2.88763    0.30122


Fermi level: -2.97412

Gap: 0.028 eV
Transition (v -> c):
  (s=0, k=7, n=29, [0.38, 0.38, 0.00]) -> (s=0, k=7, n=30, [0.38, 0.38, 0.00])
Writing to output.gpw (mode='')


Forces in eV/Ang:
  0 Li    0.01693   -0.00446   -0.27370
  1 Li    0.00249    0.00197   -0.26852
  2 Li   -0.01966   -0.00240   -0.27698
  3 Li    0.00054    0.01718   -0.27339
  4 Li    0.00124   -0.00737   -0.26729
  5 Li   -0.00125    0.01421   -0.27735
  6 Li   -0.00580   -0.01208   -0.26510
  7 Li   -0.00002    0.00223   -0.27866
  8 Li    0.00697   -0.01021   -0.26446
  9 Li   -0.00034   -0.00380    0.28894
 10 Li    0.00825   -0.00582    0.26369
 11 Li   -0.00801   -0.00226    0.26243
 12 Li    0.00036   -0.00263    0.33339
 13 Li    0.01959    0.00014    0.26275
 14 Li   -0.01833   -0.00084    0.25576
 15 Li    0.00243    0.00168    0.24607
 16 Li   -0.00596    0.00914    0.25330
 17 Li    0.00255    0.00528    0.26110
 18 Li    0.03510   -0.01095   -0.09512
 19 Li   -0.00085    0.00617    0.06844
 20 Li   -0.03396   -0.01142   -0.08446
 21 Li    0.01383   -0.00201   -0.01176
 22 Li   -0.00309    0.01064    0.04311
 23 Li   -0.01247   -0.00307   -0.01581
 24 Li   -0.01600    0.01765    0.08063
 25 Li   -0.00064   -0.01650    0.00944
 26 Li    0.01623    0.01956    0.08306
 27 Li    0.02128    0.07933    0.02520
 28 Li    0.09014   -0.05511   -0.07780
 29 Li   -0.08614   -0.04664   -0.07018
 30 Li   -0.00065    0.87242   -1.62089
 31 Li    0.07366    0.02844   -0.03488
 32 Li   -0.07513    0.02316   -0.03486
 33 Li    0.00151    0.04435   -0.03950
 34 Li   -0.00978    0.01863   -0.02197
 35 Li    0.00910    0.01858   -0.01624
 36 O     0.13193   -5.45481    9.63049
 37 C    -0.05454   -3.62939    2.31127
 38 H    -0.07242   -0.04671    0.33090
 39 H    -0.04124   -0.59466    0.58651
 40 H     0.01620   -0.17672    0.12397
 41 H    -0.67050    0.21907    0.75395
 42 N     0.82579   -0.36963   -6.20960
 43 N    -0.16727    9.04279   -5.66858

System changes: positions 

Initializing position-dependent things.

Density initialized from wave functions
       .-----------------------.  
      /|                       |  
     / |                       |  
    /  |                       |  
   /   |                       |  
  /    |                       |  
 *     |                       |  
 |     |                       |  
 |     |                       |  
 |     |                      H|  
 |     |                       |  
 |     | H                   H |  
 |     |                       |  
 |     |                       |  
 |     |       Li      Li      |  
 |     |                H O    |  
 |   Li|     Li      Li  C N   |  
 |N    |  Li      Li      Li   |  
 |     |   Li      Li      Li  |  
 |     |Li      Li      Li     |  
 Li    |                       |  
 |   LLi     LLi     LLi       |  
 |     |  Li      Li      Li   |  
 | Li  |   Li      Li          |  
 |     |Li      Li      Li     |  
 Li    | Li      Li            |  
 |    Li      Li      Li       |  
 |     |                       |  
 |     |                       |  
 |     |                       |  
 |     |                       |  
 |     |                       |  
 |     |                       |  
 |     .-----------------------.  
 |    /                       /   
 |   /                       /    
 |  /                       /     
 | /                       /      
 |/                       /       
 *-----------------------*        

Positions:
   0 Li     1.617037    1.617037   10.000000    ( 0.0000,  0.0000,  0.0000)
   1 Li     4.851111    1.617037   10.000000    ( 0.0000,  0.0000,  0.0000)
   2 Li     8.085185    1.617037   10.000000    ( 0.0000,  0.0000,  0.0000)
   3 Li     1.617037    4.851111   10.000000    ( 0.0000,  0.0000,  0.0000)
   4 Li     4.851111    4.851111   10.000000    ( 0.0000,  0.0000,  0.0000)
   5 Li     8.085185    4.851111   10.000000    ( 0.0000,  0.0000,  0.0000)
   6 Li     1.617037    8.085185   10.000000    ( 0.0000,  0.0000,  0.0000)
   7 Li     4.851111    8.085185   10.000000    ( 0.0000,  0.0000,  0.0000)
   8 Li     8.085185    8.085185   10.000000    ( 0.0000,  0.0000,  0.0000)
   9 Li     0.000000    0.000000   11.617037    ( 0.0000,  0.0000,  0.0000)
  10 Li     3.234074    0.000000   11.617037    ( 0.0000,  0.0000,  0.0000)
  11 Li     6.468148    0.000000   11.617037    ( 0.0000,  0.0000,  0.0000)
  12 Li     0.000000    3.234074   11.617037    ( 0.0000,  0.0000,  0.0000)
  13 Li     3.234074    3.234074   11.617037    ( 0.0000,  0.0000,  0.0000)
  14 Li     6.468148    3.234074   11.617037    ( 0.0000,  0.0000,  0.0000)
  15 Li     0.000000    6.468148   11.617037    ( 0.0000,  0.0000,  0.0000)
  16 Li     3.234074    6.468148   11.617037    ( 0.0000,  0.0000,  0.0000)
  17 Li     6.468148    6.468148   11.617037    ( 0.0000,  0.0000,  0.0000)
  18 Li     1.617724    1.616809   13.467754    ( 0.0000,  0.0000,  0.0000)
  19 Li     4.851102    1.617175   13.471128    ( 0.0000,  0.0000,  0.0000)
  20 Li     8.084514    1.616808   13.467988    ( 0.0000,  0.0000,  0.0000)
  21 Li     1.617333    4.851081   13.469464    ( 0.0000,  0.0000,  0.0000)
  22 Li     4.851061    4.851308   13.470611    ( 0.0000,  0.0000,  0.0000)
  23 Li     8.084909    4.851051   13.469374    ( 0.0000,  0.0000,  0.0000)
  24 Li     1.616717    8.085545   13.471342    ( 0.0000,  0.0000,  0.0000)
  25 Li     4.851090    8.084848   13.469903    ( 0.0000,  0.0000,  0.0000)
  26 Li     8.085522    8.085574   13.471395    ( 0.0000,  0.0000,  0.0000)
  27 Li     0.000436    0.001799   15.446675    ( 0.0000,  0.0000,  0.0000)
  28 Li     3.235889   -0.001135   15.444415    ( 0.0000,  0.0000,  0.0000)
  29 Li     6.466420   -0.000975   15.444529    ( 0.0000,  0.0000,  0.0000)
  30 Li    -0.000010    3.252459   15.409436    ( 0.0000,  0.0000,  0.0000)
  31 Li     3.235536    3.234659   15.445309    ( 0.0000,  0.0000,  0.0000)
  32 Li     6.466633    3.234562   15.445210    ( 0.0000,  0.0000,  0.0000)
  33 Li     0.000042    6.469019   15.445145    ( 0.0000,  0.0000,  0.0000)
  34 Li     3.233866    6.468512   15.445511    ( 0.0000,  0.0000,  0.0000)
  35 Li     6.468326    6.468523   15.445607    ( 0.0000,  0.0000,  0.0000)
  36 O     -0.003136    1.537937   18.576749    ( 0.0000,  0.0000,  0.0000)
  37 C     -0.017115    0.136176   18.484520    ( 0.0000,  0.0000,  0.0000)
  38 H     -0.766447   -0.218583   17.771215    ( 0.0000,  0.0000,  0.0000)
  39 H     -0.195454   -0.233954   19.472202    ( 0.0000,  0.0000,  0.0000)
  40 H      0.972081   -0.137433   18.121452    ( 0.0000,  0.0000,  0.0000)
  41 H     -0.868713    1.929274   18.749541    ( 0.0000,  0.0000,  0.0000)
  42 N      0.016948    1.672160   17.102217    ( 0.0000,  0.0000,  0.0000)
  43 N     -0.004627    2.790683   17.124906    ( 0.0000,  0.0000,  0.0000)

Unit cell:
           periodic     x           y           z      points  spacing
  1. axis:    yes    9.702222    0.000000    0.000000    60     0.1617
  2. axis:    yes    0.000000    9.702222    0.000000    60     0.1617
  3. axis:    no     0.000000    0.000000   26.601111   168     0.1583

  Lengths:   9.702222   9.702222  26.601111
  Angles:   90.000000  90.000000  90.000000

Effective grid spacing dv^(1/3) = 0.1606

     iter     time        total  log10-change:
                         energy  eigst   dens
iter:   1 11:46:32  -277.344786  -0.47
iter:   2 11:46:40  -277.338425  -0.87  -1.78
iter:   3 11:46:47  -277.335524c -1.22  -1.90
iter:   4 11:46:54  -277.348793c -1.33  -2.17
Writing to output.gpw (mode='')

iter:   5 11:47:01  -277.312902  -1.45  -2.12
iter:   6 11:47:08  -277.316394  -2.05  -2.22
iter:   7 11:47:15  -277.311834c -2.00  -2.29
iter:   8 11:47:23  -277.308719c -1.84  -2.38
iter:   9 11:47:30  -277.308988c -2.27  -2.47
Writing to output.gpw (mode='')

iter:  10 11:47:37  -277.309731c -2.28  -2.68
iter:  11 11:47:44  -277.310798c -2.45  -2.73
iter:  12 11:47:51  -277.309568c -2.95  -2.64
iter:  13 11:47:59  -277.308940c -2.58  -2.72
iter:  14 11:48:06  -277.309017c -3.43  -3.00
Writing to output.gpw (mode='')

iter:  15 11:48:13  -277.309324c -3.35  -3.04
iter:  16 11:48:20  -277.308971c -3.19  -2.90
iter:  17 11:48:27  -277.308851c -3.49  -3.23
iter:  18 11:48:34  -277.308879c -3.65  -3.45
iter:  19 11:48:42  -277.308882c -4.34  -3.50
Writing to output.gpw (mode='')

iter:  20 11:48:49  -277.308929c -4.12  -3.63
iter:  21 11:48:56  -277.308896c -4.32  -3.63
iter:  22 11:49:03  -277.308897c -4.82  -3.76
iter:  23 11:49:10  -277.308898c -4.68  -3.91
iter:  24 11:49:19  -277.308902c -5.17  -3.93
Writing to output.gpw (mode='')

iter:  25 11:49:32  -277.308913c -4.85  -3.97
iter:  26 11:49:39  -277.308912c -4.79  -4.07c
iter:  27 11:49:46  -277.308908c -5.25  -4.17c
iter:  28 11:49:53  -277.308913c -5.12  -4.22c
iter:  29 11:50:00  -277.308913c -5.69  -4.32c
Writing to output.gpw (mode='')

iter:  30 11:50:08  -277.308916c -5.52  -4.40c
iter:  31 11:50:15  -277.308918c -5.62  -4.46c
iter:  32 11:50:22  -277.308914c -5.68  -4.65c
iter:  33 11:50:29  -277.308918c -5.81  -4.61c
iter:  34 11:50:36  -277.308917c -5.93  -4.64c
Writing to output.gpw (mode='')

iter:  35 11:50:43  -277.308916c -5.98  -4.57c
iter:  36 11:50:51  -277.308916c -5.90  -4.72c
iter:  37 11:50:58  -277.308917c -6.11  -4.75c
iter:  38 11:51:05  -277.308918c -6.14  -4.71c
iter:  39 11:51:12  -277.308918c -6.54  -4.67c
Writing to output.gpw (mode='')

iter:  40 11:51:19  -277.308919c -6.45  -4.79c
iter:  41 11:51:26  -277.308920c -6.67  -5.06c
iter:  42 11:51:33  -277.308921c -6.47  -5.10c
iter:  43 11:51:41  -277.308920c -6.72  -5.15c
iter:  44 11:51:48  -277.308920c -6.80  -5.22c
Writing to output.gpw (mode='')

iter:  45 11:51:55  -277.308920c -6.72  -5.25c
iter:  46 11:52:02  -277.308920c -6.85  -5.37c
iter:  47 11:52:09  -277.308920c -6.78  -5.35c
iter:  48 11:52:16  -277.308920c -7.26  -5.39c
iter:  49 11:52:23  -277.308920c -7.13  -5.42c
Writing to output.gpw (mode='')

iter:  50 11:52:31  -277.308921c -7.29  -5.51c
iter:  51 11:52:38  -277.308920c -7.31  -5.75c
iter:  52 11:52:45  -277.308921c -7.55c -5.71c

Converged after 52 iterations.

Dipole moment: (-13.392735, -6.066951, 0.408197) |e|*Ang

Energy contributions relative to reference atoms: (reference = -13382.245603)

Kinetic:       +166.691286
Potential:     -148.403083
External:        +0.000000
XC:            -296.197825
Entropy (-ST):   -0.152910
Local:           +0.677156
--------------------------
Free energy:   -277.385375
Extrapolated:  -277.308921

Dipole-layer corrected work functions: 3.375166, 2.590472 eV

Showing only first 2 kpts
 Kpt  Band  Eigenvalues  Occupancy
  0    28     -3.23725    1.98774
  0    29     -3.13625    1.91117
  0    30     -2.84199    0.11288
  0    31     -2.75069    0.01908

  1    28     -3.02800    1.42335
  1    29     -3.01159    1.28003
  1    30     -2.92127    0.45202
  1    31     -2.89948    0.31773


Fermi level: -2.98282

Gap: 0.025 eV
Transition (v -> c):
  (s=0, k=7, n=29, [0.38, 0.38, 0.00]) -> (s=0, k=7, n=30, [0.38, 0.38, 0.00])
Writing to output.gpw (mode='')


Forces in eV/Ang:
  0 Li    0.01721   -0.00439   -0.27384
  1 Li    0.00261    0.00186   -0.26824
  2 Li   -0.02004   -0.00259   -0.27676
  3 Li    0.00014    0.01752   -0.27382
  4 Li    0.00106   -0.00779   -0.26662
  5 Li   -0.00083    0.01460   -0.27725
  6 Li   -0.00611   -0.01231   -0.26423
  7 Li   -0.00006    0.00265   -0.27943
  8 Li    0.00713   -0.01019   -0.26426
  9 Li   -0.00045   -0.00506    0.28768
 10 Li    0.00957   -0.00548    0.26315
 11 Li   -0.00920   -0.00211    0.26150
 12 Li    0.00005   -0.00250    0.33588
 13 Li    0.01955    0.00033    0.26222
 14 Li   -0.01816   -0.00083    0.25510
 15 Li    0.00228    0.00237    0.24497
 16 Li   -0.00519    0.00894    0.25314
 17 Li    0.00219    0.00535    0.26039
 18 Li    0.03456   -0.01297   -0.09281
 19 Li   -0.00066    0.00661    0.06793
 20 Li   -0.03369   -0.01322   -0.08170
 21 Li    0.01563    0.00064   -0.01200
 22 Li   -0.00244    0.01009    0.04368
 23 Li   -0.01462   -0.00054   -0.01575
 24 Li   -0.01521    0.01805    0.07886
 25 Li   -0.00101   -0.01678    0.00808
 26 Li    0.01588    0.01971    0.08102
 27 Li    0.02254    0.07091    0.01931
 28 Li    0.08713   -0.05337   -0.07572
 29 Li   -0.08366   -0.04545   -0.07036
 30 Li   -0.00237    0.84227   -1.61411
 31 Li    0.07871    0.02837   -0.03955
 32 Li   -0.08245    0.02351   -0.04483
 33 Li    0.00183    0.04338   -0.04279
 34 Li   -0.01103    0.01617   -0.02158
 35 Li    0.00980    0.01602   -0.01683
 36 O     0.25125   -4.46774    8.63407
 37 C    -0.08431   -2.95729    2.04602
 38 H    -0.08994   -0.06815    0.30796
 39 H    -0.04390   -0.75798    0.51947
 40 H    -0.03674   -0.17016    0.16183
 41 H    -0.62331    0.01464    0.67846
 42 N     0.78551   -0.31192   -5.84678
 43 N    -0.13105    7.76425   -4.66667

System changes: positions 

Initializing position-dependent things.

Density initialized from wave functions
       .-----------------------.  
      /|                       |  
     / |                       |  
    /  |                       |  
   /   |                       |  
  /    |                       |  
 *     |                       |  
 |     |                       |  
 |     |                       |  
 |     |                      H|  
 |     |                       |  
 |     | H                   H |  
 |     |                       |  
 |     |                       |  
 |     |       Li      Li      |  
 |     |                H O    |  
 |   Li|     Li      Li  C N   |  
 |N    |  Li      Li      Li   |  
 |     |   Li      Li      Li  |  
 |     |Li      Li      Li     |  
 Li    |                       |  
 |   LLi     LLi     LLi       |  
 |     |  Li      Li      Li   |  
 | Li  |   Li      Li          |  
 |     |Li      Li      Li     |  
 Li    | Li      Li            |  
 |    Li      Li      Li       |  
 |     |                       |  
 |     |                       |  
 |     |                       |  
 |     |                       |  
 |     |                       |  
 |     |                       |  
 |     .-----------------------.  
 |    /                       /   
 |   /                       /    
 |  /                       /     
 | /                       /      
 |/                       /       
 *-----------------------*        

Positions:
   0 Li     1.617037    1.617037   10.000000    ( 0.0000,  0.0000,  0.0000)
   1 Li     4.851111    1.617037   10.000000    ( 0.0000,  0.0000,  0.0000)
   2 Li     8.085185    1.617037   10.000000    ( 0.0000,  0.0000,  0.0000)
   3 Li     1.617037    4.851111   10.000000    ( 0.0000,  0.0000,  0.0000)
   4 Li     4.851111    4.851111   10.000000    ( 0.0000,  0.0000,  0.0000)
   5 Li     8.085185    4.851111   10.000000    ( 0.0000,  0.0000,  0.0000)
   6 Li     1.617037    8.085185   10.000000    ( 0.0000,  0.0000,  0.0000)
   7 Li     4.851111    8.085185   10.000000    ( 0.0000,  0.0000,  0.0000)
   8 Li     8.085185    8.085185   10.000000    ( 0.0000,  0.0000,  0.0000)
   9 Li     0.000000    0.000000   11.617037    ( 0.0000,  0.0000,  0.0000)
  10 Li     3.234074    0.000000   11.617037    ( 0.0000,  0.0000,  0.0000)
  11 Li     6.468148    0.000000   11.617037    ( 0.0000,  0.0000,  0.0000)
  12 Li     0.000000    3.234074   11.617037    ( 0.0000,  0.0000,  0.0000)
  13 Li     3.234074    3.234074   11.617037    ( 0.0000,  0.0000,  0.0000)
  14 Li     6.468148    3.234074   11.617037    ( 0.0000,  0.0000,  0.0000)
  15 Li     0.000000    6.468148   11.617037    ( 0.0000,  0.0000,  0.0000)
  16 Li     3.234074    6.468148   11.617037    ( 0.0000,  0.0000,  0.0000)
  17 Li     6.468148    6.468148   11.617037    ( 0.0000,  0.0000,  0.0000)
  18 Li     1.618032    1.616661   13.466899    ( 0.0000,  0.0000,  0.0000)
  19 Li     4.851102    1.617246   13.471758    ( 0.0000,  0.0000,  0.0000)
  20 Li     8.084206    1.616666   13.467250    ( 0.0000,  0.0000,  0.0000)
  21 Li     1.617504    4.851117   13.469352    ( 0.0000,  0.0000,  0.0000)
  22 Li     4.851052    4.851392   13.471028    ( 0.0000,  0.0000,  0.0000)
  23 Li     8.084740    4.851069   13.469223    ( 0.0000,  0.0000,  0.0000)
  24 Li     1.616585    8.085724   13.472055    ( 0.0000,  0.0000,  0.0000)
  25 Li     4.851073    8.084685   13.469946    ( 0.0000,  0.0000,  0.0000)
  26 Li     8.085672    8.085759   13.472124    ( 0.0000,  0.0000,  0.0000)
  27 Li     0.000666    0.002409   15.446809    ( 0.0000,  0.0000,  0.0000)
  28 Li     3.236662   -0.001622   15.443754    ( 0.0000,  0.0000,  0.0000)
  29 Li     6.465676   -0.001392   15.443880    ( 0.0000,  0.0000,  0.0000)
  30 Li    -0.000057    3.260536   15.391935    ( 0.0000,  0.0000,  0.0000)
  31 Li     3.236350    3.234929   15.444892    ( 0.0000,  0.0000,  0.0000)
  32 Li     6.465744    3.234790   15.444634    ( 0.0000,  0.0000,  0.0000)
  33 Li     0.000071    6.469411   15.444696    ( 0.0000,  0.0000,  0.0000)
  34 Li     3.233733    6.468628   15.445327    ( 0.0000,  0.0000,  0.0000)
  35 Li     6.468430    6.468643   15.445445    ( 0.0000,  0.0000,  0.0000)
  36 O     -0.003266    1.526608   18.614353    ( 0.0000,  0.0000,  0.0000)
  37 C     -0.019240    0.129219   18.492589    ( 0.0000,  0.0000,  0.0000)
  38 H     -0.767586   -0.219918   17.773677    ( 0.0000,  0.0000,  0.0000)
  39 H     -0.196432   -0.246023   19.479917    ( 0.0000,  0.0000,  0.0000)
  40 H      0.971985   -0.139886   18.123533    ( 0.0000,  0.0000,  0.0000)
  41 H     -0.868975    1.924247   18.753612    ( 0.0000,  0.0000,  0.0000)
  42 N      0.023788    1.690874   17.067532    ( 0.0000,  0.0000,  0.0000)
  43 N     -0.006044    2.802286   17.117224    ( 0.0000,  0.0000,  0.0000)

Unit cell:
           periodic     x           y           z      points  spacing
  1. axis:    yes    9.702222    0.000000    0.000000    60     0.1617
  2. axis:    yes    0.000000    9.702222    0.000000    60     0.1617
  3. axis:    no     0.000000    0.000000   26.601111   168     0.1583

  Lengths:   9.702222   9.702222  26.601111
  Angles:   90.000000  90.000000  90.000000

Effective grid spacing dv^(1/3) = 0.1606

     iter     time        total  log10-change:
                         energy  eigst   dens
iter:   1 11:52:53  -278.098660  -0.48
iter:   2 11:53:03  -278.096046  -0.90  -1.83
iter:   3 11:53:10  -278.093923c -1.25  -1.95
iter:   4 11:53:17  -278.108356c -1.34  -2.20
Writing to output.gpw (mode='')

iter:   5 11:53:24  -278.069914  -1.52  -2.14
iter:   6 11:53:32  -278.074224  -2.12  -2.25
iter:   7 11:53:39  -278.067377c -2.01  -2.33
iter:   8 11:53:46  -278.064853c -1.82  -2.42
iter:   9 11:53:53  -278.065222c -2.35  -2.51
Writing to output.gpw (mode='')

iter:  10 11:54:01  -278.065570c -2.58  -2.73
iter:  11 11:54:08  -278.066389c -2.67  -2.74
iter:  12 11:54:15  -278.065121c -2.90  -2.64
iter:  13 11:54:29  -278.065116c -2.55  -2.89
iter:  14 11:54:36  -278.065171c -3.22  -3.02
Writing to output.gpw (mode='')

iter:  15 11:54:43  -278.065167c -3.58  -3.10
iter:  16 11:54:50  -278.065180c -3.63  -3.37
iter:  17 11:54:58  -278.065165c -3.90  -3.39
iter:  18 11:55:05  -278.065183c -3.85  -3.47
iter:  19 11:55:12  -278.065200c -3.98  -3.50
Writing to output.gpw (mode='')

iter:  20 11:55:19  -278.065227c -4.36  -3.72
iter:  21 11:55:26  -278.065217c -4.31  -3.80
iter:  22 11:55:34  -278.065210c -4.54  -3.85
iter:  23 11:55:41  -278.065211c -4.83  -3.99
iter:  24 11:55:48  -278.065223c -4.72  -4.09c
Writing to output.gpw (mode='')

iter:  25 11:55:55  -278.065231c -4.79  -4.12c
iter:  26 11:56:02  -278.065225c -5.00  -4.14c
iter:  27 11:56:10  -278.065229c -5.01  -4.31c
iter:  28 11:56:17  -278.065238c -5.10  -4.39c
iter:  29 11:56:24  -278.065235c -5.12  -4.47c
Writing to output.gpw (mode='')

iter:  30 11:56:31  -278.065239c -5.21  -4.60c
iter:  31 11:56:39  -278.065238c -5.51  -4.64c
iter:  32 11:56:46  -278.065241c -5.54  -4.69c
iter:  33 11:56:53  -278.065242c -5.71  -4.79c
iter:  34 11:57:00  -278.065241c -5.62  -4.99c
Writing to output.gpw (mode='')

iter:  35 11:57:07  -278.065241c -5.62  -5.02c
iter:  36 11:57:14  -278.065243c -5.85  -5.05c
iter:  37 11:57:21  -278.065243c -6.01  -5.11c
iter:  38 11:57:28  -278.065244c -6.01  -5.14c
iter:  39 11:57:36  -278.065244c -6.09  -5.20c
Writing to output.gpw (mode='')

iter:  40 11:57:43  -278.065245c -6.10  -5.25c
iter:  41 11:57:50  -278.065245c -6.36  -5.37c
iter:  42 11:57:57  -278.065245c -6.50  -5.38c
iter:  43 11:58:04  -278.065245c -6.46  -5.33c
iter:  44 11:58:11  -278.065245c -6.53  -5.47c
Writing to output.gpw (mode='')

iter:  45 11:58:18  -278.065245c -6.46  -5.49c
iter:  46 11:58:25  -278.065245c -6.47  -5.45c
iter:  47 11:58:33  -278.065245c -6.60  -5.44c
iter:  48 11:58:40  -278.065245c -6.62  -5.31c
iter:  49 11:58:47  -278.065245c -6.94  -5.28c
Writing to output.gpw (mode='')

iter:  50 11:58:54  -278.065245c -6.78  -5.31c
iter:  51 11:59:01  -278.065246c -7.08  -5.27c
iter:  52 11:59:08  -278.065247c -7.12  -5.30c
iter:  53 11:59:15  -278.065247c -7.26  -5.58c
iter:  54 11:59:29  -278.065246c -7.22  -5.52c
Writing to output.gpw (mode='')

iter:  55 11:59:37  -278.065246c -7.19  -5.36c
iter:  56 11:59:46  -278.065247c -7.33  -5.41c
iter:  57 12:00:01  -278.065247c -7.36  -5.59c
iter:  58 12:00:10  -278.065247c -7.51c -5.67c

Converged after 58 iterations.

Dipole moment: (-13.670036, -5.911788, 0.379830) |e|*Ang

Energy contributions relative to reference atoms: (reference = -13382.245603)

Kinetic:       +164.312321
Potential:     -147.207833
External:        +0.000000
XC:            -295.772957
Entropy (-ST):   -0.151613
Local:           +0.679028
--------------------------
Free energy:   -278.141053
Extrapolated:  -278.065247

Dipole-layer corrected work functions: 3.377149, 2.646986 eV

Showing only first 2 kpts
 Kpt  Band  Eigenvalues  Occupancy
  0    28     -3.26774    1.98804
  0    29     -3.17030    1.91897
  0    30     -2.86664    0.10347
  0    31     -2.77645    0.01781

  1    28     -3.05601    1.41316
  1    29     -3.04133    1.28453
  1    30     -2.94841    0.43747
  1    31     -2.93116    0.33093


Fermi level: -3.01207

No gap
Writing to output.gpw (mode='')


Forces in eV/Ang:
  0 Li    0.01736   -0.00436   -0.27406
  1 Li    0.00261    0.00165   -0.26790
  2 Li   -0.02018   -0.00284   -0.27657
  3 Li   -0.00018    0.01776   -0.27433
  4 Li    0.00088   -0.00802   -0.26617
  5 Li   -0.00045    0.01497   -0.27724
  6 Li   -0.00625   -0.01241   -0.26343
  7 Li   -0.00005    0.00309   -0.28044
  8 Li    0.00714   -0.01017   -0.26405
  9 Li   -0.00055   -0.00647    0.28623
 10 Li    0.01105   -0.00518    0.26228
 11 Li   -0.01058   -0.00200    0.26036
 12 Li   -0.00019   -0.00236    0.33839
 13 Li    0.01924    0.00054    0.26169
 14 Li   -0.01775   -0.00079    0.25462
 15 Li    0.00204    0.00328    0.24381
 16 Li   -0.00434    0.00868    0.25281
 17 Li    0.00179    0.00545    0.25946
 18 Li    0.03356   -0.01517   -0.08955
 19 Li   -0.00052    0.00701    0.06715
 20 Li   -0.03290   -0.01523   -0.07827
 21 Li    0.01754    0.00405   -0.01286
 22 Li   -0.00190    0.00923    0.04417
 23 Li   -0.01686    0.00277   -0.01614
 24 Li   -0.01417    0.01808    0.07617
 25 Li   -0.00131   -0.01672    0.00736
 26 Li    0.01517    0.01966    0.07826
 27 Li    0.02394    0.06489    0.01713
 28 Li    0.08335   -0.05099   -0.07337
 29 Li   -0.08055   -0.04406   -0.07038
 30 Li   -0.00349    0.79536   -1.55916
 31 Li    0.08230    0.02804   -0.04349
 32 Li   -0.08809    0.02384   -0.05335
 33 Li    0.00200    0.04142   -0.04532
 34 Li   -0.01181    0.01341   -0.02149
 35 Li    0.01022    0.01327   -0.01767
 36 O     0.32505   -3.63209    7.79009
 37 C    -0.08136   -2.41504    1.81644
 38 H    -0.08925   -0.05703    0.30714
 39 H    -0.04617   -0.88010    0.42419
 40 H    -0.09336   -0.15800    0.19657
 41 H    -0.58191   -0.13600    0.60372
 42 N     0.66036   -0.39698   -5.43114
 43 N    -0.09894    6.83496   -3.83330

System changes: positions 

Initializing position-dependent things.

Density initialized from wave functions
       .-----------------------.  
      /|                       |  
     / |                       |  
    /  |                       |  
   /   |                       |  
  /    |                       |  
 *     |                       |  
 |     |                       |  
 |     |                       |  
 |     |                      H|  
 |     |                       |  
 |     | H                   H |  
 |     |                       |  
 |     |                       |  
 |     |       Li      Li      |  
 |     |                H O    |  
 |   Li|     Li      Li  C N   |  
 |N    |  Li      Li      Li   |  
 |     |   Li      Li      Li  |  
 |     |Li      Li      Li     |  
 Li    |                       |  
 |   LLi     LLi     LLi       |  
 |     |  Li      Li      Li   |  
 | Li  |   Li      Li          |  
 |     |Li      Li      Li     |  
 Li    | Li      Li            |  
 |    Li      Li      Li       |  
 |     |                       |  
 |     |                       |  
 |     |                       |  
 |     |                       |  
 |     |                       |  
 |     |                       |  
 |     .-----------------------.  
 |    /                       /   
 |   /                       /    
 |  /                       /     
 | /                       /      
 |/                       /       
 *-----------------------*        

Positions:
   0 Li     1.617037    1.617037   10.000000    ( 0.0000,  0.0000,  0.0000)
   1 Li     4.851111    1.617037   10.000000    ( 0.0000,  0.0000,  0.0000)
   2 Li     8.085185    1.617037   10.000000    ( 0.0000,  0.0000,  0.0000)
   3 Li     1.617037    4.851111   10.000000    ( 0.0000,  0.0000,  0.0000)
   4 Li     4.851111    4.851111   10.000000    ( 0.0000,  0.0000,  0.0000)
   5 Li     8.085185    4.851111   10.000000    ( 0.0000,  0.0000,  0.0000)
   6 Li     1.617037    8.085185   10.000000    ( 0.0000,  0.0000,  0.0000)
   7 Li     4.851111    8.085185   10.000000    ( 0.0000,  0.0000,  0.0000)
   8 Li     8.085185    8.085185   10.000000    ( 0.0000,  0.0000,  0.0000)
   9 Li     0.000000    0.000000   11.617037    ( 0.0000,  0.0000,  0.0000)
  10 Li     3.234074    0.000000   11.617037    ( 0.0000,  0.0000,  0.0000)
  11 Li     6.468148    0.000000   11.617037    ( 0.0000,  0.0000,  0.0000)
  12 Li     0.000000    3.234074   11.617037    ( 0.0000,  0.0000,  0.0000)
  13 Li     3.234074    3.234074   11.617037    ( 0.0000,  0.0000,  0.0000)
[...]
iter:  14 19:02:56  -283.257824c -5.97  -4.10c
Writing to output.gpw (mode='')

iter:  15 19:03:03  -283.257829c -5.47  -4.15c
iter:  16 19:03:10  -283.257826c -5.44  -3.98
iter:  17 19:03:18  -283.257826c -6.44  -4.28c
iter:  18 19:03:25  -283.257826c -6.25  -4.40c
iter:  19 19:03:32  -283.257825c -6.52  -4.55c
Writing to output.gpw (mode='')

iter:  20 19:03:39  -283.257826c -6.70  -4.83c
iter:  21 19:03:46  -283.257826c -7.09  -4.87c
iter:  22 19:03:53  -283.257827c -7.27  -4.93c
iter:  23 19:04:00  -283.257826c -7.09  -5.02c
iter:  24 19:04:07  -283.257826c -7.65c -5.06c

Converged after 24 iterations.

Dipole moment: (-7.773285, 5.019905, -0.363456) |e|*Ang

Energy contributions relative to reference atoms: (reference = -13382.245603)

Kinetic:       +132.491080
Potential:     -125.883220
External:        +0.000000
XC:            -290.503221
Entropy (-ST):   -0.148538
Local:           +0.711804
--------------------------
Free energy:   -283.332095
Extrapolated:  -283.257826

Dipole-layer corrected work functions: 3.410015, 4.108703 eV

Showing only first 2 kpts
 Kpt  Band  Eigenvalues  Occupancy
  0    28     -4.01197    1.98729
  0    29     -3.95258    1.95891
  0    30     -3.62449    0.12626
  0    31     -3.54774    0.02862

  1    28     -3.81041    1.47034
  1    29     -3.74782    0.88513
  1    30     -3.70926    0.53707
  1    31     -3.65875    0.23587


Fermi level: -3.75936

No gap
Writing to output.gpw (mode='')


Forces in eV/Ang:
  0 Li    0.01646   -0.00755   -0.26607
  1 Li    0.00445   -0.00669   -0.27110
  2 Li   -0.01961   -0.00627   -0.26620
  3 Li   -0.00266    0.01697   -0.27323
  4 Li    0.00091   -0.00481   -0.28327
  5 Li    0.00040    0.01313   -0.27516
  6 Li   -0.00372   -0.01888   -0.27116
  7 Li    0.00076   -0.00342   -0.28472
  8 Li    0.00179   -0.01568   -0.27409
  9 Li   -0.00526   -0.00284    0.27623
 10 Li    0.00846   -0.01001    0.26736
 11 Li   -0.00585   -0.00083    0.26336
 12 Li   -0.00526    0.02844    0.30371
 13 Li    0.01423    0.03176    0.28359
 14 Li   -0.01167    0.02537    0.27514
 15 Li   -0.00503    0.03149    0.22034
 16 Li   -0.04283    0.01805    0.27112
 17 Li    0.05151    0.01410    0.27333
 18 Li    0.00363   -0.00108   -0.00070
 19 Li    0.00211    0.01754    0.00550
 20 Li    0.00099    0.00068    0.00167
 21 Li    0.00953   -0.00755   -0.00151
 22 Li   -0.00116    0.00148    0.00586
 23 Li   -0.00831   -0.00906   -0.00449
 24 Li    0.00914    0.00540    0.00267
 25 Li   -0.00157   -0.00673    0.00445
 26 Li   -0.00584    0.00473    0.00153
 27 Li   -0.00431   -0.00037    0.00482
 28 Li    0.01739   -0.00602    0.00487
 29 Li   -0.00909   -0.00481    0.00264
 30 Li    0.00009   -0.02472   -0.01042
 31 Li   -0.00416   -0.00411    0.00164
 32 Li    0.00944   -0.00109   -0.00276
 33 Li   -0.00215   -0.02446    0.00064
 34 Li   -0.01073    0.00392   -0.00171
 35 Li    0.01212    0.00358    0.00036
 36 O     0.01636    0.02503   -0.04373
 37 C     0.02314   -0.03403    0.01571
 38 H    -0.00369    0.00360    0.01821
 39 H    -0.01920    0.01173    0.00130
 40 H    -0.00057    0.01078   -0.00606
 41 H     0.00201   -0.05086    0.03040
 42 N     0.01847   -0.00778    0.02174
 43 N    -0.03273   -0.02141    0.00727

System changes: positions 

Initializing position-dependent things.

Density initialized from wave functions
       .-----------------------.  
      /|                       |  
     / |                       |  
    /  |                       |  
   /   |                       |  
  /    |                       |  
 *     |                       |  
 |     |                       |  
 |     |                       |  
 |     | H                   HC|  
 |     |                    H  |  
 |     |                       |  
 |     |                       |  
 |     |                OH     |  
 |     |       Li      Li      |  
 |     |                       |  
 | N Li|     Li      Li        |  
 |N    |  Li      Li      Li   |  
 |     |   Li      Li      Li  |  
 |     |Li      Li      Li     |  
 Li    |                       |  
 |   LLi     LLi     LLi       |  
 |     |  Li      Li      Li   |  
 | Li  |   Li      Li          |  
 |     |Li      Li      Li     |  
 Li    | Li      Li            |  
 |    Li      Li      Li       |  
 |     |                       |  
 |     |                       |  
 |     |                       |  
 |     |                       |  
 |     |                       |  
 |     |                       |  
 |     .-----------------------.  
 |    /                       /   
 |   /                       /    
 |  /                       /     
 | /                       /      
 |/                       /       
 *-----------------------*        

Positions:
   0 Li     1.617037    1.617037   10.000000    ( 0.0000,  0.0000,  0.0000)
   1 Li     4.851111    1.617037   10.000000    ( 0.0000,  0.0000,  0.0000)
   2 Li     8.085185    1.617037   10.000000    ( 0.0000,  0.0000,  0.0000)
   3 Li     1.617037    4.851111   10.000000    ( 0.0000,  0.0000,  0.0000)
   4 Li     4.851111    4.851111   10.000000    ( 0.0000,  0.0000,  0.0000)
   5 Li     8.085185    4.851111   10.000000    ( 0.0000,  0.0000,  0.0000)
   6 Li     1.617037    8.085185   10.000000    ( 0.0000,  0.0000,  0.0000)
   7 Li     4.851111    8.085185   10.000000    ( 0.0000,  0.0000,  0.0000)
   8 Li     8.085185    8.085185   10.000000    ( 0.0000,  0.0000,  0.0000)
   9 Li     0.000000    0.000000   11.617037    ( 0.0000,  0.0000,  0.0000)
  10 Li     3.234074    0.000000   11.617037    ( 0.0000,  0.0000,  0.0000)
  11 Li     6.468148    0.000000   11.617037    ( 0.0000,  0.0000,  0.0000)
  12 Li     0.000000    3.234074   11.617037    ( 0.0000,  0.0000,  0.0000)
  13 Li     3.234074    3.234074   11.617037    ( 0.0000,  0.0000,  0.0000)
  14 Li     6.468148    3.234074   11.617037    ( 0.0000,  0.0000,  0.0000)
  15 Li     0.000000    6.468148   11.617037    ( 0.0000,  0.0000,  0.0000)
  16 Li     3.234074    6.468148   11.617037    ( 0.0000,  0.0000,  0.0000)
  17 Li     6.468148    6.468148   11.617037    ( 0.0000,  0.0000,  0.0000)
  18 Li     1.601973    1.650777   13.439377    ( 0.0000,  0.0000,  0.0000)
  19 Li     4.849251    1.591635   13.458103    ( 0.0000,  0.0000,  0.0000)
  20 Li     8.096556    1.650094   13.461471    ( 0.0000,  0.0000,  0.0000)
  21 Li     1.581287    4.891371   13.502101    ( 0.0000,  0.0000,  0.0000)
  22 Li     4.856247    4.878703   13.454821    ( 0.0000,  0.0000,  0.0000)
  23 Li     8.119923    4.887252   13.513747    ( 0.0000,  0.0000,  0.0000)
  24 Li     1.583683    8.124595   13.503957    ( 0.0000,  0.0000,  0.0000)
  25 Li     4.857423    8.065678   13.459065    ( 0.0000,  0.0000,  0.0000)
  26 Li     8.116901    8.127537   13.514114    ( 0.0000,  0.0000,  0.0000)
  27 Li     0.013967    0.193659   15.527349    ( 0.0000,  0.0000,  0.0000)
  28 Li     3.256747   -0.024671   15.385906    ( 0.0000,  0.0000,  0.0000)
  29 Li     6.446033   -0.013826   15.405368    ( 0.0000,  0.0000,  0.0000)
  30 Li    -0.000351    3.382888   15.546510    ( 0.0000,  0.0000,  0.0000)
  31 Li     3.298925    3.259163   15.347499    ( 0.0000,  0.0000,  0.0000)
  32 Li     6.405060    3.242863   15.368117    ( 0.0000,  0.0000,  0.0000)
  33 Li     0.007677    6.618059   15.503560    ( 0.0000,  0.0000,  0.0000)
  34 Li     3.236707    6.457994   15.436133    ( 0.0000,  0.0000,  0.0000)
  35 Li     6.461891    6.454691   15.442065    ( 0.0000,  0.0000,  0.0000)
  36 O     -0.537576    0.698758   20.478487    ( 0.0000,  0.0000,  0.0000)
  37 C     -0.220819   -0.454126   19.698804    ( 0.0000,  0.0000,  0.0000)
  38 H     -0.883151   -0.559548   18.829505    ( 0.0000,  0.0000,  0.0000)
  39 H     -0.359936   -1.318529   20.346832    ( 0.0000,  0.0000,  0.0000)
  40 H      0.818878   -0.444878   19.349820    ( 0.0000,  0.0000,  0.0000)
  41 H     -0.357470    1.483266   19.946320    ( 0.0000,  0.0000,  0.0000)
  42 N      0.133739    1.609956   16.909808    ( 0.0000,  0.0000,  0.0000)
  43 N      0.194544    2.488661   17.631803    ( 0.0000,  0.0000,  0.0000)

Unit cell:
           periodic     x           y           z      points  spacing
  1. axis:    yes    9.702222    0.000000    0.000000    60     0.1617
  2. axis:    yes    0.000000    9.702222    0.000000    60     0.1617
  3. axis:    no     0.000000    0.000000   26.601111   168     0.1583

  Lengths:   9.702222   9.702222  26.601111
  Angles:   90.000000  90.000000  90.000000

Effective grid spacing dv^(1/3) = 0.1606

     iter     time        total  log10-change:
                         energy  eigst   dens
iter:   1 19:04:16  -283.261248  -2.03
iter:   2 19:04:27  -283.259914  -2.62  -2.33
iter:   3 19:04:35  -283.258733c -3.40  -2.43
iter:   4 19:04:42  -283.258416c -3.89  -2.78
Writing to output.gpw (mode='')

iter:   5 19:04:49  -283.258304c -3.80  -2.90
iter:   6 19:04:56  -283.258198c -3.23  -3.02
iter:   7 19:05:03  -283.258165c -4.06  -3.19
iter:   8 19:05:11  -283.258190c -3.93  -3.29
iter:   9 19:05:18  -283.258173c -4.49  -3.45
Writing to output.gpw (mode='')

iter:  10 19:05:25  -283.258176c -4.49  -3.51
iter:  11 19:05:32  -283.258169c -4.85  -3.58
iter:  12 19:05:39  -283.258182c -4.49  -3.62
iter:  13 19:05:46  -283.258161c -4.88  -3.53
iter:  14 19:05:53  -283.258150c -4.55  -3.71
Writing to output.gpw (mode='')

iter:  15 19:06:00  -283.258151c -5.61  -3.98
iter:  16 19:06:07  -283.258155c -5.84  -4.09c
iter:  17 19:06:15  -283.258153c -5.99  -4.15c
iter:  18 19:06:22  -283.258154c -5.38  -4.23c
iter:  19 19:06:29  -283.258159c -5.48  -4.13c
Writing to output.gpw (mode='')

iter:  20 19:06:36  -283.258158c -6.47  -4.28c
iter:  21 19:06:43  -283.258158c -6.38  -4.64c
iter:  22 19:06:50  -283.258158c -7.19  -4.73c
iter:  23 19:06:57  -283.258157c -7.07  -4.87c
iter:  24 19:07:04  -283.258157c -6.99  -5.01c
Writing to output.gpw (mode='')

iter:  25 19:07:11  -283.258157c -7.45c -5.11c

Converged after 25 iterations.

Dipole moment: (-7.797783, 4.871910, -0.364169) |e|*Ang

Energy contributions relative to reference atoms: (reference = -13382.245603)

Kinetic:       +132.556930
Potential:     -125.935726
External:        +0.000000
XC:            -290.516826
Entropy (-ST):   -0.148564
Local:           +0.711747
--------------------------
Free energy:   -283.332439
Extrapolated:  -283.258157

Dipole-layer corrected work functions: 3.410058, 4.110116 eV

Showing only first 2 kpts
 Kpt  Band  Eigenvalues  Occupancy
  0    28     -4.01238    1.98721
  0    29     -3.95342    1.95900
  0    30     -3.62495    0.12563
  0    31     -3.54905    0.02895

  1    28     -3.81103    1.46949
  1    29     -3.74845    0.88417
  1    30     -3.71032    0.53969
  1    31     -3.65990    0.23760


Fermi level: -3.76009

No gap

Forces in eV/Ang:
  0 Li    0.01640   -0.00739   -0.26585
  1 Li    0.00442   -0.00664   -0.27111
  2 Li   -0.01958   -0.00612   -0.26612
  3 Li   -0.00245    0.01700   -0.27336
  4 Li    0.00090   -0.00478   -0.28322
  5 Li    0.00017    0.01320   -0.27538
  6 Li   -0.00383   -0.01884   -0.27108
  7 Li    0.00071   -0.00337   -0.28452
  8 Li    0.00196   -0.01561   -0.27392
  9 Li   -0.00521   -0.00232    0.27626
 10 Li    0.00750   -0.00962    0.26677
 11 Li   -0.00466   -0.00063    0.26314
 12 Li   -0.00529    0.02930    0.30512
 13 Li    0.01440    0.03192    0.28361
 14 Li   -0.01132    0.02513    0.27578
 15 Li   -0.00483    0.02792    0.22180
 16 Li   -0.04299    0.01695    0.27068
 17 Li    0.05167    0.01332    0.27291
 18 Li    0.00392   -0.00247   -0.00225
 19 Li    0.00215    0.01827    0.00992
 20 Li    0.00014    0.00036   -0.00083
 21 Li    0.00494   -0.00611   -0.00530
 22 Li   -0.00178   -0.00104    0.00630
 23 Li   -0.00354   -0.00858   -0.00778
 24 Li    0.01117    0.00694    0.00582
 25 Li   -0.00172   -0.00610    0.00985
 26 Li   -0.00776    0.00661    0.00315
 27 Li   -0.00418   -0.00228    0.00262
 28 Li    0.02172   -0.00844    0.00212
 29 Li   -0.01366   -0.00741    0.00060
 30 Li    0.00009   -0.02187   -0.00907
 31 Li   -0.00062   -0.00433    0.00058
 32 Li    0.00581   -0.00149   -0.00361
 33 Li   -0.00226   -0.02709    0.00118
 34 Li   -0.01000    0.00634   -0.00258
 35 Li    0.01166    0.00615    0.00031
 36 O     0.00267    0.00862   -0.01665
 37 C     0.00607   -0.01208    0.00268
 38 H    -0.00122   -0.00629    0.00490
 39 H    -0.01081    0.00230    0.01125
 40 H     0.00988   -0.00054   -0.00905
 41 H     0.00988   -0.02056    0.01075
 42 N     0.02297    0.00531    0.01717
 43 N    -0.02807   -0.01549    0.01433

Timing:                                      incl.     excl.
-------------------------------------------------------------------
Density initialized from wave functions:     4.564     4.562   0.0% |
 Symmetrize density:                         0.003     0.003   0.0% |
Forces:                                     36.889    36.889   0.1% |
Hamiltonian:                               587.274     0.013   0.0% |
 Atomic:                                     0.021     0.021   0.0% |
  XC Correction:                             0.000     0.000   0.0% |
 Calculate atomic Hamiltonians:              0.034     0.034   0.0% |
 Communicate:                               12.876    12.876   0.0% |
 Hartree integrate/restrict:                 2.276     2.276   0.0% |
 Initialize Hamiltonian:                     0.000     0.000   0.0% |
 Poisson:                                   27.390    10.093   0.0% |
  Communicate from 1D:                       2.716     2.716   0.0% |
  Communicate from 2D:                       2.726     2.726   0.0% |
  Communicate to 1D:                         1.473     1.473   0.0% |
  Communicate to 2D:                         3.388     3.388   0.0% |
  FFT 1D:                                    3.551     3.551   0.0% |
  FFT 2D:                                    3.443     3.443   0.0% |
 XC 3D grid:                               544.204    85.561   0.3% |
  VdW-DF integral:                         458.643     3.830   0.0% |
   Convolution:                             41.191    41.191   0.1% |
   FFT:                                     18.142    18.142   0.1% |
   gather:                                 156.535   156.535   0.5% |
   hmm1:                                    15.034    15.034   0.1% |
   hmm2:                                    20.054    20.054   0.1% |
   iFFT:                                    18.519    18.519   0.1% |
   potential:                              181.757     5.045   0.0% |
    collect:                                27.758    27.758   0.1% |
    p1:                                     82.528    82.528   0.3% |
    p2:                                     30.311    30.311   0.1% |
    sum:                                    36.115    36.115   0.1% |
   splines:                                  3.579     3.579   0.0% |
 vbar:                                       0.462     0.462   0.0% |
LCAO initialization:                         0.978     0.183   0.0% |
 LCAO eigensolver:                           0.178     0.000   0.0% |
  Calculate projections:                     0.000     0.000   0.0% |
  DenseAtomicCorrection:                     0.000     0.000   0.0% |
  Distribute overlap matrix:                 0.160     0.160   0.0% |
  Orbital Layouts:                           0.016     0.016   0.0% |
  Potential matrix:                          0.001     0.001   0.0% |
  Sum over cells:                            0.001     0.001   0.0% |
 LCAO to grid:                               0.519     0.519   0.0% |
 Set positions (LCAO WFS):                   0.098     0.057   0.0% |
  Basic WFS set positions:                   0.001     0.001   0.0% |
  Basis functions set positions:             0.000     0.000   0.0% |
  P tci:                                     0.000     0.000   0.0% |
  ST tci:                                    0.012     0.012   0.0% |
  mktci:                                     0.028     0.028   0.0% |
Redistribute:                                0.063     0.063   0.0% |
SCF-cycle:                               27907.131   412.148   1.4% ||
 Davidson:                                6486.284  1932.959   6.8% |--|
  Apply hamiltonian:                       415.762   415.762   1.5% ||
  Subspace diag:                          1233.647     0.435   0.0% |
   calc_h_matrix:                          595.928   171.916   0.6% |
    Apply hamiltonian:                     424.013   424.013   1.5% ||
   diagonalize:                             76.342    76.342   0.3% |
   rotate_psi:                             560.942   560.942   2.0% ||
  calc. matrices:                         1990.974   995.909   3.5% ||
   Apply hamiltonian:                      995.065   995.065   3.5% ||
  diagonalize:                              16.816    16.816   0.1% |
  rotate_psi:                              896.126   896.126   3.1% ||
 Density:                                  134.736     0.101   0.0% |
  Atomic density matrices:                  14.406    14.406   0.1% |
  Mix:                                      60.396    60.396   0.2% |
  Multipole moments:                         8.507     8.507   0.0% |
  Pseudo density:                           51.326    51.247   0.2% |
   Symmetrize density:                       0.079     0.079   0.0% |
 Hamiltonian:                            20857.614     0.453   0.0% |
  Atomic:                                    0.946     0.937   0.0% |
   XC Correction:                            0.009     0.009   0.0% |
  Calculate atomic Hamiltonians:             1.335     1.335   0.0% |
  Communicate:                             310.544   310.544   1.1% |
  Hartree integrate/restrict:               81.403    81.403   0.3% |
  Poisson:                                 999.528   370.614   1.3% ||
   Communicate from 1D:                     99.272    99.272   0.3% |
   Communicate from 2D:                    100.159   100.159   0.3% |
   Communicate to 1D:                       55.216    55.216   0.2% |
   Communicate to 2D:                      120.517   120.517   0.4% |
   FFT 1D:                                 128.501   128.501   0.4% |
   FFT 2D:                                 125.250   125.250   0.4% |
  XC 3D grid:                            19446.249  3059.510  10.7% |---|
   VdW-DF integral:                      16386.739   136.442   0.5% |
    Convolution:                          1485.759  1485.759   5.2% |-|
    FFT:                                   641.292   641.292   2.2% ||
    gather:                               5657.330  5657.330  19.8% |-------|
    hmm1:                                  541.286   541.286   1.9% ||
    hmm2:                                  711.607   711.607   2.5% ||
    iFFT:                                  669.723   669.723   2.3% ||
    potential:                            6543.267   182.659   0.6% |
     collect:                             1009.517  1009.517   3.5% ||
     p1:                                  2932.977  2932.977  10.2% |---|
     p2:                                  1090.977  1090.977   3.8% |-|
     sum:                                 1327.138  1327.138   4.6% |-|
    splines:                                 0.033     0.033   0.0% |
  vbar:                                     17.155    17.155   0.1% |
 Orthonormalize:                            16.350     0.014   0.0% |
  calc_s_matrix:                             2.255     2.255   0.0% |
  inverse-cholesky:                          4.789     4.789   0.0% |
  projections:                               0.002     0.002   0.0% |
  rotate_psi_s:                              9.289     9.289   0.0% |
Set symmetry:                                0.002     0.002   0.0% |
Other:                                      88.086    88.086   0.3% |
-------------------------------------------------------------------
Total:                                             28624.987 100.0%

Memory usage: 1.13 GiB
Date: Fri Mar 10 19:07:13 2023
