
  ___ ___ ___ _ _ _  
 |   |   |_  | | | | 
 | | | | | . | | | | 
 |__ |  _|___|_____|  22.8.0
 |___|_|             

User:   vazumah@c07.hercules
Date:   Sat Feb 25 22:25:10 2023
Arch:   x86_64
Pid:    20296
CWD:    /home/vazumah/Python_projects/LiNRR/Li_adsorb_studies/proton_donors/on_pure_surface/Li_BCC100/adsorbates/BH3/bridge/0.0_1.617
Python: 3.10.8
gpaw:   /home/vazumah/.conda/envs/GPAW/lib/python3.10/site-packages/gpaw
_gpaw:  /home/vazumah/.conda/envs/GPAW/lib/python3.10/site-packages/
        _gpaw.cpython-310-x86_64-linux-gnu.so
ase:    /home/vazumah/.conda/envs/GPAW/lib/python3.10/site-packages/ase (version 3.22.1)
numpy:  /home/vazumah/.conda/envs/GPAW/lib/python3.10/site-packages/numpy (version 1.24.1)
scipy:  /home/vazumah/.conda/envs/GPAW/lib/python3.10/site-packages/scipy (version 1.10.0)
libxc:  5.2.3
units:  Angstrom and eV
cores: 24
OpenMP: True
OMP_NUM_THREADS: 1

Reading from output.gpw
Reading input parameters:
  h: 0.16
  kpts: {size: [4, 4, 1]}
  occupations: {name: fermi-dirac,
                width: 0.05}
  poissonsolver: {dipolelayer: xy}
  xc: BEEF-vdW

Initialize ...

species:
  Li:
    name: Lithium
    id: 830b4218f175192f93f959cfc0aad614
    Z: 3.0
    valence: 1
    core: 2
    charge: 0.0
    file: /home/vazumah/.conda/envs/GPAW/share/gpaw/Li.PBE.gz
    compensation charges: {type: gauss,
                           rc: 0.33,
                           lmax: 2}
    cutoffs: {filter: 1.91,
              core: 2.55}
    valence states:
      #              energy  rcut
      - 2s(1.00)    -2.874   1.058
      - 2p(0.00)    -1.090   1.058
      -  s          24.337   1.058
  
    # Using partial waves for Li as LCAO basis

  B:
    name: Boron
    id: 6e91439235a05fd7549e31636e8f777c
    Z: 5.0
    valence: 3
    core: 2
    charge: 0.0
    file: /home/vazumah/.conda/envs/GPAW/share/gpaw/B.PBE.gz
    compensation charges: {type: gauss,
                           rc: 0.20,
                           lmax: 2}
    cutoffs: {filter: 1.14,
              core: 1.38}
    valence states:
      #              energy  rcut
      - 2s(2.00)    -9.443   0.635
      - 2p(1.00)    -3.606   0.635
      -  s          17.768   0.635
      -  p          23.605   0.635
      -  d           0.000   0.635
  
    # Using partial waves for B as LCAO basis

  H:
    name: Hydrogen
    id: d65de229564ff8ea4db303e23b6d1ecf
    Z: 1.0
    valence: 1
    core: 0
    charge: 0.0
    file: /home/vazumah/.conda/envs/GPAW/share/gpaw/H.PBE.gz
    compensation charges: {type: gauss,
                           rc: 0.15,
                           lmax: 2}
    cutoffs: {filter: 0.85,
              core: 0.53}
    valence states:
      #              energy  rcut
      - 1s(1.00)    -6.494   0.476
      -  s          20.717   0.476
      -  p           0.000   0.476
  
    # Using partial waves for H as LCAO basis

Reference energy: -8007.321583  # eV

Spin-paired calculation

Convergence criteria:
 Maximum [total energy] change in last 3 cyles: 0.0005 eV / electron
 Maximum integral of absolute [dens]ity change: 0.0001 electrons / valence electron
 Maximum integral of absolute [eigenst]ate change: 4e-08 eV^2 / valence electron
 Maximum number of scf [iter]ations: 333
 (Square brackets indicate name in SCF output, whereas a 'c' in
 the SCF output indicates the quantity has converged.)

Symmetries present (total): 1

  ( 1  0  0)
  ( 0  1  0)
  ( 0  0  1)

16 k-points: 4 x 4 x 1 Monkhorst-Pack grid
8 k-points in the irreducible part of the Brillouin zone
       k-points in crystal coordinates                weights
   0:     0.12500000   -0.37500000    0.00000000          2/16
   1:     0.12500000   -0.12500000    0.00000000          2/16
   2:     0.12500000    0.12500000    0.00000000          2/16
   3:     0.12500000    0.37500000    0.00000000          2/16
   4:     0.37500000   -0.37500000    0.00000000          2/16
   5:     0.37500000   -0.12500000    0.00000000          2/16
   6:     0.37500000    0.12500000    0.00000000          2/16
   7:     0.37500000    0.37500000    0.00000000          2/16

Wave functions: Uniform real-space grid
  Kinetic energy operator: 6*3+1=19 point O(h^6) finite-difference Laplacian
  ScaLapack parameters: grid=1x1, blocksize=None
  Wavefunction extrapolation:
    Improved wavefunction reuse through dual PAW basis 

Occupation numbers: Fermi-Dirac:
  width: 0.0500  # eV
 

Eigensolver
   Davidson(niter=2) 

Densities:
  Coarse grid: 60*60*156 grid
  Fine grid: 120*120*312 grid
  Total Charge: 0.000000 

Density mixing:
  Method: separate
  Backend: pulay
  Linear mixing parameter: 0.05
  old densities: 5
  Damping of long wavelength oscillations: 50 

Hamiltonian:
  XC and Coulomb potentials evaluated on a 120*120*312 grid
  Using the BEEF-vdW Exchange-Correlation functional
  Interpolation: tri-quintic (5. degree polynomial)
  Poisson solver: FastPoissonSolver using
    Stencil: 6*3+1=19 point O(h^6) finite-difference Laplacian
    FFT axes: [0, 1]
    FST axes: [2]

Dipole correction along z-axis 

XC parameters: BEEF-vdW with 2 nearest neighbor stencil

Memory estimate:
  Process memory now: 219.18 MiB
  Calculator: 330.73 MiB
    Density: 116.01 MiB
      Arrays: 36.75 MiB
      Localized functions: 65.25 MiB
      Mixer: 14.01 MiB
    Hamiltonian: 29.19 MiB
      Arrays: 24.03 MiB
      XC: 0.00 MiB
      Poisson: 0.00 MiB
      vbar: 5.16 MiB
    Wavefunctions: 185.52 MiB
      Arrays psit_nG: 84.05 MiB
      Eigensolver: 98.19 MiB
      Projections: 0.03 MiB
      Projectors: 3.26 MiB

Total number of cores used: 24
Parallelization over k-points: 8
Domain decomposition: 1 x 1 x 3

Number of atoms: 40
Number of atomic orbitals: 151
Number of bands in calculation: 30
Number of valence electrons: 42
Bands to converge: occupied

... initialized

Initializing position-dependent things.

Creating initial wave functions:
  30 bands from LCAO basis set

       .-----------------------.  
      /|                       |  
     / |                       |  
    /  |                       |  
   /   |                       |  
  /    |                       |  
 *     |                       |  
 |     |                       |  
 |     |                       |  
 |     |                       |  
 |     |                       |  
 |     |                       |  
 |     Li             Li       |  
 |     |                       |  
 |     |     Li      Li      Li|  
 |   H |  Li      Li      LLi  |  
 | HB  | Li       Li     H     |  
 |     |Li      Li      Li     |  
 |     | Li                    |  
 |   LLi     LLi     LiLi      |  
 |     |  Li      Li      Li   |  
 | Li  |   Li      Li          |  
 |     |Li      Li      Li     |  
 Li    | Li      Li            |  
 |    Li      Li      Li       |  
 |     |                       |  
 |     |                       |  
 |     |                       |  
 |     |                       |  
 |     |                       |  
 |     |                       |  
 |     .-----------------------.  
 |    /                       /   
 |   /                       /    
 |  /                       /     
 | /                       /      
 |/                       /       
 *-----------------------*        

Positions:
   0 Li     1.617037    1.617037   10.000000    ( 0.0000,  0.0000,  0.0000)
   1 Li     4.851111    1.617037   10.000000    ( 0.0000,  0.0000,  0.0000)
   2 Li     8.085185    1.617037   10.000000    ( 0.0000,  0.0000,  0.0000)
   3 Li     1.617037    4.851111   10.000000    ( 0.0000,  0.0000,  0.0000)
   4 Li     4.851111    4.851111   10.000000    ( 0.0000,  0.0000,  0.0000)
   5 Li     8.085185    4.851111   10.000000    ( 0.0000,  0.0000,  0.0000)
   6 Li     1.617037    8.085185   10.000000    ( 0.0000,  0.0000,  0.0000)
   7 Li     4.851111    8.085185   10.000000    ( 0.0000,  0.0000,  0.0000)
   8 Li     8.085185    8.085185   10.000000    ( 0.0000,  0.0000,  0.0000)
   9 Li     0.000000    0.000000   11.617037    ( 0.0000,  0.0000,  0.0000)
  10 Li     3.234074    0.000000   11.617037    ( 0.0000,  0.0000,  0.0000)
  11 Li     6.468148    0.000000   11.617037    ( 0.0000,  0.0000,  0.0000)
  12 Li     0.000000    3.234074   11.617037    ( 0.0000,  0.0000,  0.0000)
  13 Li     3.234074    3.234074   11.617037    ( 0.0000,  0.0000,  0.0000)
  14 Li     6.468148    3.234074   11.617037    ( 0.0000,  0.0000,  0.0000)
  15 Li     0.000000    6.468148   11.617037    ( 0.0000,  0.0000,  0.0000)
  16 Li     3.234074    6.468148   11.617037    ( 0.0000,  0.0000,  0.0000)
  17 Li     6.468148    6.468148   11.617037    ( 0.0000,  0.0000,  0.0000)
  18 Li     1.544909    1.522352   13.535674    ( 0.0000,  0.0000,  0.0000)
  19 Li     4.860298    1.624301   13.467278    ( 0.0000,  0.0000,  0.0000)
  20 Li     8.297115    1.687893   13.719922    ( 0.0000,  0.0000,  0.0000)
  21 Li     1.647874    4.845052   13.340284    ( 0.0000,  0.0000,  0.0000)
  22 Li     4.752767    4.768107   13.515742    ( 0.0000,  0.0000,  0.0000)
  23 Li     7.964323    4.840051   13.402108    ( 0.0000,  0.0000,  0.0000)
  24 Li     1.659311    8.088531   13.325257    ( 0.0000,  0.0000,  0.0000)
  25 Li     4.797042    8.044723   13.462834    ( 0.0000,  0.0000,  0.0000)
  26 Li     8.004751    8.205344   13.394948    ( 0.0000,  0.0000,  0.0000)
  27 Li     0.109032   -0.292546   15.475668    ( 0.0000,  0.0000,  0.0000)
  28 Li     3.050132    0.048838   15.363831    ( 0.0000,  0.0000,  0.0000)
  29 Li     6.238762   -0.080980   15.433934    ( 0.0000,  0.0000,  0.0000)
  30 Li    -0.090220    3.765280   15.485418    ( 0.0000,  0.0000,  0.0000)
  31 Li     2.638494    2.897951   15.448735    ( 0.0000,  0.0000,  0.0000)
  32 Li     6.170126    3.239902   15.480463    ( 0.0000,  0.0000,  0.0000)
  33 Li    -0.012026    6.556919   15.028620    ( 0.0000,  0.0000,  0.0000)
  34 Li     3.141683    6.424192   15.329340    ( 0.0000,  0.0000,  0.0000)
  35 Li     6.595681    6.468239   15.314031    ( 0.0000,  0.0000,  0.0000)
  36 B      0.653677    1.751789   15.961699    ( 0.0000,  0.0000,  0.0000)
  37 H      0.964006    2.733115   16.649382    ( 0.0000,  0.0000,  0.0000)
  38 H     -0.481790    1.970560   15.499898    ( 0.0000,  0.0000,  0.0000)
  39 H      0.504569    0.848258   16.773345    ( 0.0000,  0.0000,  0.0000)

Unit cell:
           periodic     x           y           z      points  spacing
  1. axis:    yes    9.702222    0.000000    0.000000    60     0.1617
  2. axis:    yes    0.000000    9.702222    0.000000    60     0.1617
  3. axis:    no     0.000000    0.000000   24.851111   156     0.1593

  Lengths:   9.702222   9.702222  24.851111
  Angles:   90.000000  90.000000  90.000000

Effective grid spacing dv^(1/3) = 0.1609

     iter     time        total  log10-change:
                         energy  eigst   dens
iter:   1 22:28:30  -219.851465  +0.96
iter:   2 22:30:45  -220.254610  +0.43  -1.69
iter:   3 22:32:59  -220.374160  -0.03  -1.92
iter:   4 22:35:12  -220.421870  -0.41  -2.15
Writing to output.gpw (mode='')

iter:   5 22:37:28  -220.443599  -0.75  -2.45
iter:   6 22:39:46  -220.454155  -1.06  -2.75
iter:   7 22:42:09  -220.459497c -1.34  -2.60
iter:   8 22:44:30  -220.462096c -1.61  -2.54
iter:   9 22:46:51  -220.463697c -1.83  -2.68
Writing to output.gpw (mode='')

iter:  10 22:49:18  -220.465241c -1.99  -2.78
iter:  11 22:51:39  -220.466050c -2.16  -2.54
iter:  12 22:53:50  -220.465884c -2.28  -2.51
iter:  13 22:56:10  -220.466264c -2.49  -3.11
iter:  14 22:58:21  -220.466464c -2.64  -3.04
Writing to output.gpw (mode='')

iter:  15 23:00:33  -220.466623c -2.77  -3.22
iter:  16 23:02:53  -220.466754c -2.95  -3.45
iter:  17 23:05:06  -220.466849c -3.09  -3.53
iter:  18 23:07:24  -220.466916c -3.23  -3.47
iter:  19 23:09:42  -220.466969c -3.31  -3.42
Writing to output.gpw (mode='')

iter:  20 23:11:58  -220.467010c -3.43  -3.33
iter:  21 23:14:24  -220.467041c -3.58  -3.25
iter:  22 23:16:44  -220.467069c -3.70  -3.27
iter:  23 23:19:04  -220.467085c -3.82  -3.40
iter:  24 23:21:16  -220.467102c -3.92  -3.39
Writing to output.gpw (mode='')

iter:  25 23:23:42  -220.467122c -4.01  -3.39
iter:  26 23:26:00  -220.467130c -4.14  -3.54
iter:  27 23:28:24  -220.467142c -4.15  -3.53
iter:  28 23:30:45  -220.467159c -4.26  -3.57
iter:  29 23:33:01  -220.467172c -4.29  -3.78
Writing to output.gpw (mode='')

iter:  30 23:35:22  -220.467173c -4.44  -3.89
iter:  31 23:37:38  -220.467176c -4.51  -3.96
iter:  32 23:40:02  -220.467177c -4.66  -3.98
iter:  33 23:42:25  -220.467179c -4.65  -4.13c
iter:  34 23:44:44  -220.467182c -4.65  -4.28c
Writing to output.gpw (mode='')

iter:  35 23:47:18  -220.467185c -4.98  -4.35c
iter:  36 23:49:36  -220.467187c -5.02  -4.44c
iter:  37 23:51:55  -220.467188c -5.18  -4.56c
iter:  38 23:54:15  -220.467190c -5.20  -4.66c
iter:  39 23:56:25  -220.467190c -5.36  -4.72c
Writing to output.gpw (mode='')

iter:  40 23:59:20  -220.467191c -5.34  -4.67c
iter:  41 00:01:37  -220.467191c -5.47  -4.64c
iter:  42 00:03:52  -220.467191c -5.59  -4.55c
iter:  43 00:06:07  -220.467192c -5.65  -4.57c
iter:  44 00:08:21  -220.467192c -5.79  -4.54c
Writing to output.gpw (mode='')

iter:  45 00:11:08  -220.467192c -5.86  -4.58c
iter:  46 00:13:32  -220.467192c -5.91  -4.53c
iter:  47 00:15:49  -220.467193c -5.96  -4.50c
iter:  48 00:18:05  -220.467192c -5.99  -4.51c
iter:  49 00:20:19  -220.467193c -6.18  -4.43c
Writing to output.gpw (mode='')

iter:  50 00:23:04  -220.467193c -6.21  -4.41c
iter:  51 00:25:19  -220.467194c -6.10  -4.46c
iter:  52 00:27:40  -220.467192c -6.27  -4.53c
iter:  53 00:30:02  -220.467194c -6.34  -4.31c
iter:  54 00:32:23  -220.467196c -6.19  -4.57c
Writing to output.gpw (mode='')

iter:  55 00:35:14  -220.467196c -6.50  -4.76c
iter:  56 00:37:32  -220.467197c -6.40  -4.85c
iter:  57 00:39:58  -220.467197c -6.65  -4.91c
iter:  58 00:42:17  -220.467197c -6.69  -5.00c
iter:  59 00:44:38  -220.467197c -6.64  -5.15c
Writing to output.gpw (mode='')

iter:  60 00:47:27  -220.467197c -6.78  -5.41c
iter:  61 00:49:49  -220.467197c -6.98  -5.48c
iter:  62 00:52:14  -220.467197c -7.06  -5.45c
iter:  63 00:54:32  -220.467197c -7.08  -5.47c
iter:  64 00:56:52  -220.467197c -7.17  -5.60c
Writing to output.gpw (mode='')

iter:  65 00:59:32  -220.467197c -7.16  -5.62c
iter:  66 01:01:44  -220.467197c -7.23  -5.62c
iter:  67 01:03:59  -220.467197c -7.40c -5.62c

Converged after 67 iterations.

Dipole moment: (-5.365190, 1.276947, 0.009101) |e|*Ang

Energy contributions relative to reference atoms: (reference = -8007.321583)

Kinetic:        +93.166115
Potential:      -80.354239
External:        +0.000000
XC:            -232.999439
Entropy (-ST):   -0.132306
Local:           -0.213482
--------------------------
Free energy:   -220.533350
Extrapolated:  -220.467197

Dipole-layer corrected work functions: 3.425898, 3.408402 eV

Showing only first 2 kpts
 Kpt  Band  Eigenvalues  Occupancy
  0    19     -3.64402    1.97882
  0    20     -3.62596    1.96975
  0    21     -3.31624    0.23460
  0    22     -3.15843    0.01125

  1    19     -3.68213    1.99006
  1    20     -3.38333    0.67412
  1    21     -3.33810    0.34129
  1    22     -3.20290    0.02718


Fermi level: -3.41715

No gap
Writing to output.gpw (mode='')


Forces in eV/Ang:
  0 Li    0.00708   -0.00369   -0.24043
  1 Li   -0.02537    0.00018   -0.31645
  2 Li    0.00541   -0.00260   -0.25449
  3 Li    0.01168    0.00630   -0.29390
  4 Li    0.01811   -0.00839   -0.26217
  5 Li   -0.00100    0.01803   -0.30973
  6 Li    0.01691    0.00330   -0.28328
  7 Li    0.01687    0.00895   -0.27951
  8 Li    0.00006   -0.02851   -0.29924
  9 Li   -0.03438    0.00505    0.21555
 10 Li    0.02416    0.07675    0.23360
 11 Li    0.02160    0.12589    0.31106
 12 Li   -0.00796    0.01101    0.23713
 13 Li   -0.03339   -0.11325    0.24688
 14 Li    0.05154   -0.09668    0.31043
 15 Li   -0.07866   -0.00133    0.26358
 16 Li    0.06130   -0.02857    0.16423
 17 Li   -0.09344    0.00687    0.26560
 18 Li   -0.06399    0.01544    0.02387
 19 Li   -0.02420   -0.02427    0.01259
 20 Li   -0.09565   -0.00805    0.00060
 21 Li   -0.03052    0.00706   -0.01209
 22 Li    0.00080    0.02429   -0.01216
 23 Li    0.00478    0.00103   -0.03911
 24 Li   -0.01184   -0.02190    0.00828
 25 Li   -0.01494    0.03263    0.01662
 26 Li    0.02497   -0.02024    0.00607
 27 Li   -0.10519    0.01401   -0.04908
 28 Li   -0.10810    0.02556    0.02724
 29 Li    0.02494   -0.01079   -0.02474
 30 Li   -0.07521   -0.12200    0.07399
 31 Li    0.20126    0.19403    0.08916
 32 Li   -0.01425    0.03035    0.00494
 33 Li   -0.00253    0.01160    0.01082
 34 Li    0.01687    0.00901    0.04967
 35 Li   -0.03392   -0.02023    0.04689
 36 B     0.39012   -0.12582   -0.02876
 37 H    -0.01694    0.03780   -0.05696
 38 H    -0.07529   -0.07878    0.04829
 39 H     0.06248    0.03551    0.09603

System changes: positions 

Initializing position-dependent things.

Density initialized from wave functions
       .-----------------------.  
      /|                       |  
     / |                       |  
    /  |                       |  
   /   |                       |  
  /    |                       |  
 *     |                       |  
 |     |                       |  
 |     |                       |  
 |     |                       |  
 |     |                       |  
 |     |                       |  
 |     Li             Li       |  
 |     |                       |  
 |     |     Li      Li      Li|  
 |   H |  Li      Li      LLi  |  
 | HB  | Li       Li     H     |  
 |     |Li      Li      Li     |  
 |     | Li                    |  
 |   LLi     LLi     LiLi      |  
 |     |  Li      Li      Li   |  
 | Li  |   Li      Li          |  
 |     |Li      Li      Li     |  
 Li    | Li      Li            |  
 |    Li      Li      Li       |  
 |     |                       |  
 |     |                       |  
 |     |                       |  
 |     |                       |  
 |     |                       |  
 |     |                       |  
 |     .-----------------------.  
 |    /                       /   
 |   /                       /    
 |  /                       /     
 | /                       /      
 |/                       /       
 *-----------------------*        

Positions:
   0 Li     1.617037    1.617037   10.000000    ( 0.0000,  0.0000,  0.0000)
   1 Li     4.851111    1.617037   10.000000    ( 0.0000,  0.0000,  0.0000)
   2 Li     8.085185    1.617037   10.000000    ( 0.0000,  0.0000,  0.0000)
   3 Li     1.617037    4.851111   10.000000    ( 0.0000,  0.0000,  0.0000)
   4 Li     4.851111    4.851111   10.000000    ( 0.0000,  0.0000,  0.0000)
   5 Li     8.085185    4.851111   10.000000    ( 0.0000,  0.0000,  0.0000)
   6 Li     1.617037    8.085185   10.000000    ( 0.0000,  0.0000,  0.0000)
   7 Li     4.851111    8.085185   10.000000    ( 0.0000,  0.0000,  0.0000)
   8 Li     8.085185    8.085185   10.000000    ( 0.0000,  0.0000,  0.0000)
   9 Li     0.000000    0.000000   11.617037    ( 0.0000,  0.0000,  0.0000)
  10 Li     3.234074    0.000000   11.617037    ( 0.0000,  0.0000,  0.0000)
  11 Li     6.468148    0.000000   11.617037    ( 0.0000,  0.0000,  0.0000)
  12 Li     0.000000    3.234074   11.617037    ( 0.0000,  0.0000,  0.0000)
  13 Li     3.234074    3.234074   11.617037    ( 0.0000,  0.0000,  0.0000)
  14 Li     6.468148    3.234074   11.617037    ( 0.0000,  0.0000,  0.0000)
  15 Li     0.000000    6.468148   11.617037    ( 0.0000,  0.0000,  0.0000)
  16 Li     3.234074    6.468148   11.617037    ( 0.0000,  0.0000,  0.0000)
  17 Li     6.468148    6.468148   11.617037    ( 0.0000,  0.0000,  0.0000)
  18 Li     1.538707    1.522683   13.542604    ( 0.0000,  0.0000,  0.0000)
  19 Li     4.859798    1.621757   13.464383    ( 0.0000,  0.0000,  0.0000)
  20 Li     8.291079    1.686460   13.715580    ( 0.0000,  0.0000,  0.0000)
  21 Li     1.638385    4.840323   13.349589    ( 0.0000,  0.0000,  0.0000)
  22 Li     4.751060    4.769252   13.510990    ( 0.0000,  0.0000,  0.0000)
  23 Li     7.971145    4.833981   13.411723    ( 0.0000,  0.0000,  0.0000)
  24 Li     1.648708    8.096144   13.338591    ( 0.0000,  0.0000,  0.0000)
  25 Li     4.796858    8.048419   13.462441    ( 0.0000,  0.0000,  0.0000)
  26 Li     8.017464    8.213437   13.408702    ( 0.0000,  0.0000,  0.0000)
  27 Li     0.105139   -0.287631   15.482450    ( 0.0000,  0.0000,  0.0000)
  28 Li     3.046242    0.056744   15.364112    ( 0.0000,  0.0000,  0.0000)
  29 Li     6.235783   -0.078039   15.434284    ( 0.0000,  0.0000,  0.0000)
  30 Li    -0.098448    3.760243   15.524238    ( 0.0000,  0.0000,  0.0000)
  31 Li     2.638213    2.896698   15.453387    ( 0.0000,  0.0000,  0.0000)
  32 Li     6.160782    3.238245   15.479555    ( 0.0000,  0.0000,  0.0000)
  33 Li    -0.012488    6.561487   15.043714    ( 0.0000,  0.0000,  0.0000)
  34 Li     3.140791    6.426170   15.324298    ( 0.0000,  0.0000,  0.0000)
  35 Li     6.595702    6.469089   15.309135    ( 0.0000,  0.0000,  0.0000)
  36 B      0.670069    1.747976   15.981340    ( 0.0000,  0.0000,  0.0000)
  37 H      0.963633    2.742623   16.664609    ( 0.0000,  0.0000,  0.0000)
  38 H     -0.457220    1.950711   15.499127    ( 0.0000,  0.0000,  0.0000)
  39 H      0.511512    0.844966   16.792024    ( 0.0000,  0.0000,  0.0000)

Unit cell:
           periodic     x           y           z      points  spacing
  1. axis:    yes    9.702222    0.000000    0.000000    60     0.1617
  2. axis:    yes    0.000000    9.702222    0.000000    60     0.1617
  3. axis:    no     0.000000    0.000000   24.851111   156     0.1593

  Lengths:   9.702222   9.702222  24.851111
  Angles:   90.000000  90.000000  90.000000

Effective grid spacing dv^(1/3) = 0.1609

     iter     time        total  log10-change:
                         energy  eigst   dens
iter:   1 01:07:15  -220.587535  -0.54
iter:   2 01:09:35  -220.496420  -1.35  -1.44
iter:   3 01:11:55  -220.491440  -2.05  -1.86
iter:   4 01:14:12  -220.478537c -1.68  -1.94
Writing to output.gpw (mode='')

iter:   5 01:16:57  -220.480913c -2.45  -2.31
iter:   6 01:19:21  -220.479579c -2.18  -2.22
iter:   7 01:21:39  -220.478716c -2.00  -2.34
iter:   8 01:23:58  -220.478711c -2.44  -2.59
iter:   9 01:26:13  -220.478836c -2.59  -2.83
Writing to output.gpw (mode='')

iter:  10 01:28:58  -220.478914c -2.78  -2.89
iter:  11 01:31:20  -220.478833c -3.19  -2.93
iter:  12 01:33:35  -220.478892c -3.62  -3.09
iter:  13 01:35:52  -220.478889c -3.82  -3.13
iter:  14 01:38:11  -220.478892c -3.82  -3.26
Writing to output.gpw (mode='')

iter:  15 01:40:53  -220.478888c -4.31  -3.39
iter:  16 01:43:11  -220.478879c -4.27  -3.45
iter:  17 01:45:24  -220.478885c -4.43  -3.58
iter:  18 01:47:38  -220.478894c -4.65  -3.67
iter:  19 01:49:49  -220.478900c -4.82  -3.76
Writing to output.gpw (mode='')

iter:  20 01:52:26  -220.478904c -5.07  -3.85
iter:  21 01:54:45  -220.478907c -5.04  -3.90
iter:  22 01:57:02  -220.478909c -5.17  -3.96
iter:  23 01:59:20  -220.478907c -5.47  -4.02c
iter:  24 02:01:35  -220.478906c -5.64  -4.17c
Writing to output.gpw (mode='')

iter:  25 02:04:05  -220.478907c -5.62  -4.29c
iter:  26 02:06:26  -220.478907c -5.87  -4.54c
iter:  27 02:08:45  -220.478907c -5.89  -4.59c
iter:  28 02:11:05  -220.478909c -6.00  -4.63c
iter:  29 02:13:23  -220.478910c -6.07  -4.77c
Writing to output.gpw (mode='')

iter:  30 02:15:53  -220.478909c -6.11  -4.87c
iter:  31 02:18:11  -220.478909c -6.39  -4.91c
iter:  32 02:20:25  -220.478909c -6.45  -4.96c
iter:  33 02:22:37  -220.478909c -6.52  -5.03c
iter:  34 02:24:52  -220.478909c -6.54  -5.14c
Writing to output.gpw (mode='')

iter:  35 02:27:29  -220.478909c -6.81  -5.27c
iter:  36 02:29:48  -220.478909c -6.86  -5.40c
iter:  37 02:32:08  -220.478909c -6.92  -5.46c
iter:  38 02:34:36  -220.478909c -6.97  -5.48c
iter:  39 02:36:55  -220.478909c -7.06  -5.62c
Writing to output.gpw (mode='')

iter:  40 02:39:31  -220.478909c -7.27  -5.53c
iter:  41 02:41:57  -220.478909c -7.35  -5.64c
iter:  42 02:44:11  -220.478909c -7.36  -5.59c
iter:  43 02:46:30  -220.478909c -7.35  -5.55c
iter:  44 02:48:48  -220.478909c -7.43c -5.37c

Converged after 44 iterations.

Dipole moment: (-4.906278, 1.129055, 0.007562) |e|*Ang

Energy contributions relative to reference atoms: (reference = -8007.321583)

Kinetic:        +92.978430
Potential:      -80.240366
External:        +0.000000
XC:            -232.937836
Entropy (-ST):   -0.132486
Local:           -0.212894
--------------------------
Free energy:   -220.545153
Extrapolated:  -220.478909

Dipole-layer corrected work functions: 3.425393, 3.410856 eV

Showing only first 2 kpts
 Kpt  Band  Eigenvalues  Occupancy
  0    19     -3.64422    1.97850
  0    20     -3.62651    1.96950
  0    21     -3.31877    0.24113
  0    22     -3.15630    0.01058

  1    19     -3.68616    1.99065
  1    20     -3.38423    0.67351
  1    21     -3.34002    0.34668
  1    22     -3.20584    0.02825


Fermi level: -3.41812

No gap
Writing to output.gpw (mode='')


Forces in eV/Ang:
  0 Li    0.00632   -0.00385   -0.24142
  1 Li   -0.02489   -0.00020   -0.31472
  2 Li    0.00594   -0.00273   -0.25493
  3 Li    0.01088    0.00519   -0.29328
  4 Li    0.01849   -0.00728   -0.26296
  5 Li   -0.00060    0.01750   -0.30919
  6 Li    0.01570    0.00400   -0.28351
  7 Li    0.01699    0.00817   -0.28080
  8 Li    0.00012   -0.02798   -0.29941
  9 Li   -0.03266    0.00983    0.21426
 10 Li    0.01652    0.07413    0.23840
 11 Li    0.02625    0.11932    0.31317
 12 Li   -0.00814    0.00634    0.23400
 13 Li   -0.03985   -0.11232    0.25126
 14 Li    0.05258   -0.09306    0.31058
 15 Li   -0.07748    0.00057    0.26804
 16 Li    0.04785   -0.02443    0.17809
 17 Li   -0.08128    0.00885    0.27822
 18 Li   -0.06073    0.01860    0.02436
 19 Li   -0.02540   -0.02079    0.01345
 20 Li   -0.10312   -0.00280    0.00047
 21 Li   -0.02912    0.01110   -0.01465
 22 Li    0.00175    0.02249   -0.00891
 23 Li    0.00642    0.00380   -0.04068
 24 Li    0.00106   -0.03167   -0.01424
 25 Li   -0.01505    0.03173    0.01580
 26 Li    0.00897   -0.02853   -0.01535
 27 Li   -0.10152    0.04224   -0.02549
 28 Li   -0.11423    0.02843    0.03870
 29 Li    0.02736   -0.01155   -0.02250
 30 Li   -0.09133   -0.11004    0.04517
 31 Li    0.21742    0.20537    0.09016
 32 Li   -0.01248    0.03243    0.00444
 33 Li   -0.00399   -0.00463    0.01131
 34 Li    0.02066    0.00886    0.05302
 35 Li   -0.03652   -0.02132    0.05024
 36 B     0.41618   -0.09464   -0.00126
 37 H    -0.02136   -0.05616   -0.07436
 38 H    -0.11745   -0.04162    0.01732
 39 H     0.07256    0.04234    0.09389

System changes: positions 

Initializing position-dependent things.

Density initialized from wave functions
       .-----------------------.  
      /|                       |  
     / |                       |  
    /  |                       |  
   /   |                       |  
  /    |                       |  
 *     |                       |  
 |     |                       |  
 |     |                       |  
 |     |                       |  
 |     |                       |  
 |     |                       |  
 |     Li             Li       |  
 |     |                       |  
 |   H |     Li      Li      Li|  
 |     |  Li      Li      LLi  |  
 | HB  | Li       Li     H     |  
 |     |Li      Li      Li     |  
 |     | Li                    |  
 |   LLi     LLi     LiLi      |  
 |     |  Li      Li      Li   |  
 | Li  |   Li      Li          |  
 |     |Li      Li      Li     |  
 Li    | Li      Li            |  
 |    Li      Li      Li       |  
 |     |                       |  
 |     |                       |  
 |     |                       |  
 |     |                       |  
 |     |                       |  
 |     |                       |  
 |     .-----------------------.  
 |    /                       /   
 |   /                       /    
 |  /                       /     
 | /                       /      
 |/                       /       
 *-----------------------*        

Positions:
   0 Li     1.617037    1.617037   10.000000    ( 0.0000,  0.0000,  0.0000)
   1 Li     4.851111    1.617037   10.000000    ( 0.0000,  0.0000,  0.0000)
   2 Li     8.085185    1.617037   10.000000    ( 0.0000,  0.0000,  0.0000)
   3 Li     1.617037    4.851111   10.000000    ( 0.0000,  0.0000,  0.0000)
   4 Li     4.851111    4.851111   10.000000    ( 0.0000,  0.0000,  0.0000)
   5 Li     8.085185    4.851111   10.000000    ( 0.0000,  0.0000,  0.0000)
   6 Li     1.617037    8.085185   10.000000    ( 0.0000,  0.0000,  0.0000)
   7 Li     4.851111    8.085185   10.000000    ( 0.0000,  0.0000,  0.0000)
   8 Li     8.085185    8.085185   10.000000    ( 0.0000,  0.0000,  0.0000)
   9 Li     0.000000    0.000000   11.617037    ( 0.0000,  0.0000,  0.0000)
  10 Li     3.234074    0.000000   11.617037    ( 0.0000,  0.0000,  0.0000)
  11 Li     6.468148    0.000000   11.617037    ( 0.0000,  0.0000,  0.0000)
  12 Li     0.000000    3.234074   11.617037    ( 0.0000,  0.0000,  0.0000)
  13 Li     3.234074    3.234074   11.617037    ( 0.0000,  0.0000,  0.0000)
  14 Li     6.468148    3.234074   11.617037    ( 0.0000,  0.0000,  0.0000)
  15 Li     0.000000    6.468148   11.617037    ( 0.0000,  0.0000,  0.0000)
  16 Li     3.234074    6.468148   11.617037    ( 0.0000,  0.0000,  0.0000)
  17 Li     6.468148    6.468148   11.617037    ( 0.0000,  0.0000,  0.0000)
  18 Li     1.530335    1.523468   13.552331    ( 0.0000,  0.0000,  0.0000)
  19 Li     4.858827    1.618918   13.463344    ( 0.0000,  0.0000,  0.0000)
  20 Li     8.285894    1.684631   13.715499    ( 0.0000,  0.0000,  0.0000)
  21 Li     1.629535    4.835972   13.358944    ( 0.0000,  0.0000,  0.0000)
  22 Li     4.750153    4.771567   13.507150    ( 0.0000,  0.0000,  0.0000)
  23 Li     7.978034    4.828099   13.420788    ( 0.0000,  0.0000,  0.0000)
  24 Li     1.638064    8.103019   13.353962    ( 0.0000,  0.0000,  0.0000)
  25 Li     4.796647    8.052078   13.463086    ( 0.0000,  0.0000,  0.0000)
  26 Li     8.030532    8.219877   13.423963    ( 0.0000,  0.0000,  0.0000)
  27 Li     0.099184   -0.283989   15.486330    ( 0.0000,  0.0000,  0.0000)
  28 Li     3.043171    0.062354   15.365913    ( 0.0000,  0.0000,  0.0000)
  29 Li     6.233592   -0.076459   15.434692    ( 0.0000,  0.0000,  0.0000)
  30 Li    -0.107578    3.753585   15.562608    ( 0.0000,  0.0000,  0.0000)
  31 Li     2.644793    2.901072   15.461181    ( 0.0000,  0.0000,  0.0000)
  32 Li     6.153730    3.237858   15.480428    ( 0.0000,  0.0000,  0.0000)
  33 Li    -0.012854    6.565491   15.058850    ( 0.0000,  0.0000,  0.0000)
  34 Li     3.140184    6.428105   15.322312    ( 0.0000,  0.0000,  0.0000)
  35 Li     6.594940    6.469450   15.307261    ( 0.0000,  0.0000,  0.0000)
  36 B      0.684598    1.743157   15.999895    ( 0.0000,  0.0000,  0.0000)
  37 H      0.965459    2.749311   16.675148    ( 0.0000,  0.0000,  0.0000)
  38 H     -0.438638    1.933601   15.502435    ( 0.0000,  0.0000,  0.0000)
  39 H      0.515581    0.841000   16.809531    ( 0.0000,  0.0000,  0.0000)

Unit cell:
           periodic     x           y           z      points  spacing
  1. axis:    yes    9.702222    0.000000    0.000000    60     0.1617
  2. axis:    yes    0.000000    9.702222    0.000000    60     0.1617
  3. axis:    no     0.000000    0.000000   24.851111   156     0.1593

  Lengths:   9.702222   9.702222  24.851111
  Angles:   90.000000  90.000000  90.000000

Effective grid spacing dv^(1/3) = 0.1609

     iter     time        total  log10-change:
                         energy  eigst   dens
iter:   1 02:51:55  -220.650004  -0.44
iter:   2 02:54:09  -220.509606  -1.25  -1.35
iter:   3 02:56:32  -220.503526  -1.97  -1.82
iter:   4 02:58:45  -220.489462c -1.35  -1.91
Writing to output.gpw (mode='')

iter:   5 03:01:18  -220.492712c -2.27  -2.34
iter:   6 03:03:37  -220.491742c -2.18  -2.22
iter:   7 03:05:57  -220.490840c -1.69  -2.32
iter:   8 03:08:15  -220.490896c -2.57  -2.62
iter:   9 03:10:34  -220.491082c -2.86  -2.89
Writing to output.gpw (mode='')

iter:  10 03:13:02  -220.491128c -2.98  -2.89
iter:  11 03:15:17  -220.491042c -3.06  -2.95
iter:  12 03:17:29  -220.491083c -3.69  -3.11
iter:  13 03:19:42  -220.491094c -3.75  -3.23
iter:  14 03:22:10  -220.491112c -3.87  -3.32
Writing to output.gpw (mode='')

iter:  15 03:24:36  -220.491129c -4.20  -3.36
iter:  16 03:26:46  -220.491131c -4.44  -3.59
iter:  17 03:28:57  -220.491136c -4.64  -3.71
iter:  18 03:31:16  -220.491140c -4.62  -3.75
iter:  19 03:33:31  -220.491144c -4.85  -3.82
Writing to output.gpw (mode='')

iter:  20 03:35:59  -220.491150c -4.95  -3.90
iter:  21 03:38:15  -220.491149c -5.22  -4.10c
iter:  22 03:40:22  -220.491149c -5.21  -4.02c
iter:  23 03:42:36  -220.491149c -5.42  -4.21c
iter:  24 03:44:51  -220.491150c -5.56  -4.38c
Writing to output.gpw (mode='')

iter:  25 03:47:31  -220.491151c -5.73  -4.49c
iter:  26 03:49:45  -220.491151c -5.65  -4.51c
iter:  27 03:52:00  -220.491151c -5.81  -4.59c
iter:  28 03:54:16  -220.491151c -6.01  -4.72c
iter:  29 03:56:33  -220.491151c -6.13  -4.76c
Writing to output.gpw (mode='')

iter:  30 03:59:15  -220.491152c -6.13  -4.77c
iter:  31 04:01:41  -220.491152c -6.21  -4.82c
iter:  32 04:04:01  -220.491152c -6.51  -4.91c
iter:  33 04:06:17  -220.491152c -6.65  -5.07c
iter:  34 04:08:39  -220.491152c -6.67  -5.13c
Writing to output.gpw (mode='')

iter:  35 04:11:14  -220.491152c -6.67  -5.18c
iter:  36 04:13:35  -220.491152c -6.99  -5.52c
iter:  37 04:15:45  -220.491152c -7.03  -5.47c
iter:  38 04:18:00  -220.491152c -7.00  -5.51c
iter:  39 04:20:20  -220.491152c -6.91  -5.56c
Writing to output.gpw (mode='')

iter:  40 04:22:57  -220.491152c -7.20  -5.77c
iter:  41 04:25:15  -220.491152c -7.24  -5.76c
iter:  42 04:27:28  -220.491152c -7.16  -5.77c
iter:  43 04:29:44  -220.491152c -7.30  -5.76c
iter:  44 04:31:58  -220.491152c -7.60c -5.72c

Converged after 44 iterations.

Dipole moment: (-4.472329, 1.032472, 0.006208) |e|*Ang

Energy contributions relative to reference atoms: (reference = -8007.321583)

Kinetic:        +92.706250
Potential:      -80.068043
External:        +0.000000
XC:            -232.850890
Entropy (-ST):   -0.132744
Local:           -0.212097
--------------------------
Free energy:   -220.557524
Extrapolated:  -220.491152

Dipole-layer corrected work functions: 3.424721, 3.412788 eV

Showing only first 2 kpts
 Kpt  Band  Eigenvalues  Occupancy
  0    19     -3.64362    1.97797
  0    20     -3.62601    1.96881
  0    21     -3.32056    0.24608
  0    22     -3.15323    0.00983

  1    19     -3.68911    1.99107
  1    20     -3.38547    0.67892
  1    21     -3.34190    0.35392
  1    22     -3.20828    0.02928


Fermi level: -3.41875

No gap
Writing to output.gpw (mode='')


Forces in eV/Ang:
  0 Li    0.00565   -0.00397   -0.24259
  1 Li   -0.02436   -0.00066   -0.31303
  2 Li    0.00650   -0.00281   -0.25574
  3 Li    0.01012    0.00416   -0.29257
  4 Li    0.01876   -0.00623   -0.26355
  5 Li   -0.00027    0.01712   -0.30861
  6 Li    0.01448    0.00465   -0.28373
  7 Li    0.01708    0.00751   -0.28193
  8 Li    0.00023   -0.02745   -0.29973
  9 Li   -0.03132    0.01420    0.21543
 10 Li    0.00810    0.07162    0.24499
 11 Li    0.03150    0.11279    0.31726
 12 Li   -0.00874    0.00105    0.23206
 13 Li   -0.04571   -0.11162    0.25662
 14 Li    0.05331   -0.09037    0.31186
 15 Li   -0.07572    0.00280    0.27274
 16 Li    0.03524   -0.01988    0.19127
 17 Li   -0.06989    0.01106    0.29002
 18 Li   -0.05199    0.02310    0.02469
 19 Li   -0.02585   -0.01585    0.01360
 20 Li   -0.10884    0.00294   -0.00194
 21 Li   -0.02774    0.01467   -0.01527
 22 Li    0.00245    0.01956   -0.00506
 23 Li    0.00753    0.00697   -0.04057
 24 Li    0.01510   -0.04059   -0.03988
 25 Li   -0.01514    0.02983    0.01427
 26 Li   -0.00949   -0.03610   -0.04021
 27 Li   -0.09432    0.07315    0.00425
 28 Li   -0.12088    0.03429    0.04939
 29 Li    0.02897   -0.01142   -0.01905
 30 Li   -0.10539   -0.09392    0.01422
 31 Li    0.21293    0.20051    0.08674
 32 Li   -0.01185    0.03353    0.00278
 33 Li   -0.00558   -0.02336    0.01417
 34 Li    0.02454    0.00820    0.05455
 35 Li   -0.03774   -0.02229    0.05187
 36 B     0.39605   -0.09083   -0.01809
 37 H    -0.01203   -0.11857   -0.05562
 38 H    -0.10227   -0.03376    0.00765
 39 H     0.09679    0.04484    0.11204

System changes: positions 

Initializing position-dependent things.

Density initialized from wave functions
       .-----------------------.  
      /|                       |  
     / |                       |  
    /  |                       |  
   /   |                       |  
  /    |                       |  
 *     |                       |  
 |     |                       |  
 |     |                       |  
 |     |                       |  
 |     |                       |  
 |     |                       |  
 |     Li             Li       |  
 |     |                       |  
 |   H |     Li      Li      Li|  
 | H   |  Li      Li      LLi  |  
 |  B  | Li       Li     H     |  
 |     |Li      Li      Li     |  
 |     | Li                    |  
 |   LLi     LLi     LiLi      |  
 |     |  Li      Li      Li   |  
 | Li  |   Li      Li          |  
 |     |Li      Li      Li     |  
 Li    | Li      Li            |  
 |    Li      Li      Li       |  
 |     |                       |  
 |     |                       |  
 |     |                       |  
 |     |                       |  
 |     |                       |  
 |     |                       |  
 |     .-----------------------.  
 |    /                       /   
 |   /                       /    
 |  /                       /     
 | /                       /      
 |/                       /       
 *-----------------------*        

Positions:
   0 Li     1.617037    1.617037   10.000000    ( 0.0000,  0.0000,  0.0000)
   1 Li     4.851111    1.617037   10.000000    ( 0.0000,  0.0000,  0.0000)
   2 Li     8.085185    1.617037   10.000000    ( 0.0000,  0.0000,  0.0000)
   3 Li     1.617037    4.851111   10.000000    ( 0.0000,  0.0000,  0.0000)
   4 Li     4.851111    4.851111   10.000000    ( 0.0000,  0.0000,  0.0000)
   5 Li     8.085185    4.851111   10.000000    ( 0.0000,  0.0000,  0.0000)
   6 Li     1.617037    8.085185   10.000000    ( 0.0000,  0.0000,  0.0000)
   7 Li     4.851111    8.085185   10.000000    ( 0.0000,  0.0000,  0.0000)
   8 Li     8.085185    8.085185   10.000000    ( 0.0000,  0.0000,  0.0000)
   9 Li     0.000000    0.000000   11.617037    ( 0.0000,  0.0000,  0.0000)
  10 Li     3.234074    0.000000   11.617037    ( 0.0000,  0.0000,  0.0000)
  11 Li     6.468148    0.000000   11.617037    ( 0.0000,  0.0000,  0.0000)
  12 Li     0.000000    3.234074   11.617037    ( 0.0000,  0.0000,  0.0000)
  13 Li     3.234074    3.234074   11.617037    ( 0.0000,  0.0000,  0.0000)
  14 Li     6.468148    3.234074   11.617037    ( 0.0000,  0.0000,  0.0000)
  15 Li     0.000000    6.468148   11.617037    ( 0.0000,  0.0000,  0.0000)
  16 Li     3.234074    6.468148   11.617037    ( 0.0000,  0.0000,  0.0000)
  17 Li     6.468148    6.468148   11.617037    ( 0.0000,  0.0000,  0.0000)
  18 Li     1.521140    1.524152   13.564506    ( 0.0000,  0.0000,  0.0000)
  19 Li     4.857897    1.615426   13.461651    ( 0.0000,  0.0000,  0.0000)
  20 Li     8.281110    1.682715   13.715263    ( 0.0000,  0.0000,  0.0000)
  21 Li     1.620088    4.833164   13.368005    ( 0.0000,  0.0000,  0.0000)
  22 Li     4.748773    4.772363   13.502746    ( 0.0000,  0.0000,  0.0000)
  23 Li     7.985560    4.823088   13.430261    ( 0.0000,  0.0000,  0.0000)
  24 Li     1.628221    8.107141   13.367092    ( 0.0000,  0.0000,  0.0000)
  25 Li     4.796587    8.057360   13.464356    ( 0.0000,  0.0000,  0.0000)
  26 Li     8.042825    8.223569   13.437055    ( 0.0000,  0.0000,  0.0000)
  27 Li     0.093432   -0.277619   15.494860    ( 0.0000,  0.0000,  0.0000)
  28 Li     3.036323    0.070703   15.366826    ( 0.0000,  0.0000,  0.0000)
  29 Li     6.233938   -0.073250   15.434759    ( 0.0000,  0.0000,  0.0000)
  30 Li    -0.118196    3.746564   15.600529    ( 0.0000,  0.0000,  0.0000)
  31 Li     2.648005    2.903135   15.467986    ( 0.0000,  0.0000,  0.0000)
  32 Li     6.146457    3.236516   15.480413    ( 0.0000,  0.0000,  0.0000)
  33 Li    -0.013303    6.570380   15.074430    ( 0.0000,  0.0000,  0.0000)
  34 Li     3.140397    6.430203   15.319596    ( 0.0000,  0.0000,  0.0000)
  35 Li     6.593313    6.470398   15.304581    ( 0.0000,  0.0000,  0.0000)
  36 B      0.701807    1.738162   16.020600    ( 0.0000,  0.0000,  0.0000)
  37 H      0.965839    2.753966   16.693417    ( 0.0000,  0.0000,  0.0000)
  38 H     -0.417204    1.915760   15.510110    ( 0.0000,  0.0000,  0.0000)
  39 H      0.522727    0.837355   16.830373    ( 0.0000,  0.0000,  0.0000)

Unit cell:
           periodic     x           y           z      points  spacing
  1. axis:    yes    9.702222    0.000000    0.000000    60     0.1617
  2. axis:    yes    0.000000    9.702222    0.000000    60     0.1617
  3. axis:    no     0.000000    0.000000   24.851111   156     0.1593

  Lengths:   9.702222   9.702222  24.851111
  Angles:   90.000000  90.000000  90.000000

Effective grid spacing dv^(1/3) = 0.1609

     iter     time        total  log10-change:
                         energy  eigst   dens
iter:   1 04:34:57  -220.645961  -0.45
iter:   2 04:37:12  -220.522488  -1.26  -1.37
iter:   3 04:39:27  -220.516367  -2.02  -1.82
iter:   4 04:41:47  -220.501075  -1.47  -1.91
Writing to output.gpw (mode='')

iter:   5 04:44:17  -220.504655c -2.41  -2.33
iter:   6 04:46:32  -220.503381c -2.25  -2.19
iter:   7 04:48:49  -220.501802c -1.72  -2.28
iter:   8 04:51:09  -220.501949c -2.58  -2.62
iter:   9 04:53:32  -220.502097c -2.76  -2.85
Writing to output.gpw (mode='')

iter:  10 04:56:08  -220.502135c -2.85  -2.87
iter:  11 04:58:23  -220.502049c -3.08  -2.93
iter:  12 05:00:42  -220.502087c -3.65  -3.05
iter:  13 05:03:00  -220.502091c -3.68  -3.12
iter:  14 05:05:16  -220.502083c -4.07  -3.36
Writing to output.gpw (mode='')

iter:  15 05:07:47  -220.502102c -4.23  -3.38
iter:  16 05:10:07  -220.502119c -4.20  -3.45
iter:  17 05:12:25  -220.502121c -4.47  -3.52
iter:  18 05:14:43  -220.502133c -4.63  -3.59
iter:  19 05:17:00  -220.502126c -4.84  -3.73
Writing to output.gpw (mode='')

iter:  20 05:19:26  -220.502129c -5.01  -3.88
iter:  21 05:21:37  -220.502131c -5.16  -3.93
iter:  22 05:23:52  -220.502133c -5.29  -3.97
iter:  23 05:26:10  -220.502134c -5.45  -4.08c
iter:  24 05:28:20  -220.502133c -5.68  -4.12c
Writing to output.gpw (mode='')

iter:  25 05:30:50  -220.502133c -5.73  -4.22c
iter:  26 05:33:11  -220.502132c -5.70  -4.28c
iter:  27 05:35:29  -220.502133c -5.96  -4.50c
iter:  28 05:37:54  -220.502136c -6.02  -4.58c
iter:  29 05:40:15  -220.502136c -6.33  -4.87c
Writing to output.gpw (mode='')

iter:  30 05:42:49  -220.502136c -6.40  -4.87c
iter:  31 05:45:05  -220.502136c -6.44  -4.88c
iter:  32 05:47:20  -220.502135c -6.58  -4.97c
iter:  33 05:49:35  -220.502135c -6.83  -5.19c
iter:  34 05:51:49  -220.502136c -6.88  -5.15c
Writing to output.gpw (mode='')

iter:  35 05:54:10  -220.502135c -6.71  -5.07c
iter:  36 05:56:25  -220.502135c -6.99  -5.16c
iter:  37 05:58:42  -220.502135c -6.94  -5.30c
iter:  38 06:00:54  -220.502135c -7.03  -5.41c
iter:  39 06:03:12  -220.502135c -7.18  -5.61c
Writing to output.gpw (mode='')

iter:  40 06:05:44  -220.502135c -7.14  -5.66c
iter:  41 06:08:00  -220.502135c -7.32  -5.78c
iter:  42 06:10:15  -220.502135c -7.38  -5.80c
iter:  43 06:12:28  -220.502135c -7.43c -5.84c

Converged after 43 iterations.

Dipole moment: (-3.966745, 0.855809, 0.004649) |e|*Ang

Energy contributions relative to reference atoms: (reference = -8007.321583)

Kinetic:        +92.455596
Potential:      -79.907970
External:        +0.000000
XC:            -232.771625
Entropy (-ST):   -0.133044
Local:           -0.211614
--------------------------
Free energy:   -220.568658
Extrapolated:  -220.502135

Dipole-layer corrected work functions: 3.423863, 3.414927 eV

Showing only first 2 kpts
 Kpt  Band  Eigenvalues  Occupancy
  0    19     -3.64282    1.97733
  0    20     -3.62543    1.96806
  0    21     -3.32289    0.25349
  0    22     -3.15052    0.00920

  1    19     -3.69256    1.99156
  1    20     -3.38632    0.68084
  1    21     -3.34354    0.35978
  1    22     -3.21083    0.03039


Fermi level: -3.41940

No gap
Writing to output.gpw (mode='')


Forces in eV/Ang:
  0 Li    0.00479   -0.00405   -0.24414
  1 Li   -0.02372   -0.00099   -0.31118
  2 Li    0.00713   -0.00282   -0.25681
  3 Li    0.00935    0.00338   -0.29186
  4 Li    0.01911   -0.00528   -0.26431
  5 Li    0.00002    0.01685   -0.30804
  6 Li    0.01319    0.00510   -0.28415
  7 Li    0.01718    0.00679   -0.28272
  8 Li    0.00033   -0.02703   -0.30004
  9 Li   -0.02923    0.01879    0.21779
 10 Li   -0.00118    0.06984    0.25211
 11 Li    0.03692    0.10647    0.32053
 12 Li   -0.00887   -0.00458    0.23108
 13 Li   -0.05282   -0.11161    0.26270
 14 Li    0.05472   -0.08753    0.31347
 15 Li   -0.07458    0.00394    0.27533
 16 Li    0.02486   -0.01608    0.20328
 17 Li   -0.06009    0.01238    0.30100
 18 Li   -0.04573    0.02738    0.01846
 19 Li   -0.02671   -0.01057    0.01419
 20 Li   -0.11594    0.00806   -0.00447
 21 Li   -0.02616    0.01591   -0.01537
 22 Li    0.00320    0.01884   -0.00074
 23 Li    0.00776    0.00842   -0.04100
 24 Li    0.02608   -0.04419   -0.05953
 25 Li   -0.01594    0.02669    0.01214
 26 Li   -0.02418   -0.03829   -0.05956
 27 Li   -0.09131    0.09322    0.02572
 28 Li   -0.12281    0.03577    0.06296
 29 Li    0.02848   -0.01278   -0.01598
 30 Li   -0.11354   -0.08460   -0.01052
 31 Li    0.21716    0.20613    0.08739
 32 Li   -0.01107    0.03586    0.00119
 33 Li   -0.00683   -0.04050    0.01760
 34 Li    0.02800    0.00758    0.05626
 35 Li   -0.03866   -0.02421    0.05395
 36 B     0.37897   -0.07500   -0.00963
 37 H     0.00263   -0.18153   -0.06008
 38 H    -0.11524   -0.00674   -0.02307
 39 H     0.12455    0.05047    0.11722

System changes: positions 

Initializing position-dependent things.

Density initialized from wave functions
       .-----------------------.  
      /|                       |  
     / |                       |  
    /  |                       |  
   /   |                       |  
  /    |                       |  
 *     |                       |  
 |     |                       |  
 |     |                       |  
 |     |                       |  
 |     |                       |  
 |     |                       |  
 |     Li             Li       |  
 |     |                       |  
 |   H |     Li      Li      Li|  
 | H   |  Li      Li      LLi  |  
 |  B  | Li       Li     H     |  
 |     |Li      Li      Li     |  
 |     | Li                    |  
 |   LLi     LLi     LiLi      |  
 |     |  Li      Li      Li   |  
 | Li  |   Li      Li          |  
 |     |Li      Li      Li     |  
 Li    | Li      Li            |  
 |    Li      Li      Li       |  
 |     |                       |  
 |     |                       |  
 |     |                       |  
 |     |                       |  
 |     |                       |  
 |     |                       |  
 |     .-----------------------.  
 |    /                       /   
 |   /                       /    
 |  /                       /     
 | /                       /      
 |/                       /       
 *-----------------------*        

Positions:
   0 Li     1.617037    1.617037   10.000000    ( 0.0000,  0.0000,  0.0000)
   1 Li     4.851111    1.617037   10.000000    ( 0.0000,  0.0000,  0.0000)
   2 Li     8.085185    1.617037   10.000000    ( 0.0000,  0.0000,  0.0000)
   3 Li     1.617037    4.851111   10.000000    ( 0.0000,  0.0000,  0.0000)
   4 Li     4.851111    4.851111   10.000000    ( 0.0000,  0.0000,  0.0000)
   5 Li     8.085185    4.851111   10.000000    ( 0.0000,  0.0000,  0.0000)
   6 Li     1.617037    8.085185   10.000000    ( 0.0000,  0.0000,  0.0000)
   7 Li     4.851111    8.085185   10.000000    ( 0.0000,  0.0000,  0.0000)
   8 Li     8.085185    8.085185   10.000000    ( 0.0000,  0.0000,  0.0000)
   9 Li     0.000000    0.000000   11.617037    ( 0.0000,  0.0000,  0.0000)
  10 Li     3.234074    0.000000   11.617037    ( 0.0000,  0.0000,  0.0000)
  11 Li     6.468148    0.000000   11.617037    ( 0.0000,  0.0000,  0.0000)
  12 Li     0.000000    3.234074   11.617037    ( 0.0000,  0.0000,  0.0000)
  13 Li     3.234074    3.234074   11.617037    ( 0.0000,  0.0000,  0.0000)
  14 Li     6.468148    3.234074   11.617037    ( 0.0000,  0.0000,  0.0000)
  15 Li     0.000000    6.468148   11.617037    ( 0.0000,  0.0000,  0.0000)
  16 Li     3.234074    6.468148   11.617037    ( 0.0000,  0.0000,  0.0000)
  17 Li     6.468148    6.468148   11.617037    ( 0.0000,  0.0000,  0.0000)
  18 Li     1.510071    1.525163   13.579579    ( 0.0000,  0.0000,  0.0000)
  19 Li     4.856640    1.611567   13.461025    ( 0.0000,  0.0000,  0.0000)
  20 Li     8.276921    1.680602   13.717950    ( 0.0000,  0.0000,  0.0000)
  21 Li     1.610772    4.831025   13.377169    ( 0.0000,  0.0000,  0.0000)
  22 Li     4.747709    4.773560   13.498891    ( 0.0000,  0.0000,  0.0000)
  23 Li     7.993338    4.818401   13.439660    ( 0.0000,  0.0000,  0.0000)
  24 Li     1.618596    8.110004   13.380884    ( 0.0000,  0.0000,  0.0000)
  25 Li     4.796487    8.063010   13.466591    ( 0.0000,  0.0000,  0.0000)
  26 Li     8.055097    8.225492   13.450528    ( 0.0000,  0.0000,  0.0000)
  27 Li     0.086332   -0.271145   15.502481    ( 0.0000,  0.0000,  0.0000)
  28 Li     3.028685    0.078447   15.368579    ( 0.0000,  0.0000,  0.0000)
  29 Li     6.235293   -0.070582   15.434721    ( 0.0000,  0.0000,  0.0000)
  30 Li    -0.130197    3.739277   15.637984    ( 0.0000,  0.0000,  0.0000)
  31 Li     2.654641    2.908230   15.476716    ( 0.0000,  0.0000,  0.0000)
  32 Li     6.140228    3.235796   15.481283    ( 0.0000,  0.0000,  0.0000)
  33 Li    -0.013746    6.574880   15.090210    ( 0.0000,  0.0000,  0.0000)
  34 Li     3.140991    6.432331   15.318580    ( 0.0000,  0.0000,  0.0000)
  35 Li     6.590995    6.471167   15.303560    ( 0.0000,  0.0000,  0.0000)
  36 B      0.719183    1.732248   16.039376    ( 0.0000,  0.0000,  0.0000)
  37 H      0.967659    2.755703   16.709538    ( 0.0000,  0.0000,  0.0000)
  38 H     -0.398488    1.899052   15.519265    ( 0.0000,  0.0000,  0.0000)
  39 H      0.529900    0.834073   16.850803    ( 0.0000,  0.0000,  0.0000)

Unit cell:
           periodic     x           y           z      points  spacing
  1. axis:    yes    9.702222    0.000000    0.000000    60     0.1617
  2. axis:    yes    0.000000    9.702222    0.000000    60     0.1617
  3. axis:    no     0.000000    0.000000   24.851111   156     0.1593

  Lengths:   9.702222   9.702222  24.851111
  Angles:   90.000000  90.000000  90.000000

Effective grid spacing dv^(1/3) = 0.1609

     iter     time        total  log10-change:
                         energy  eigst   dens
iter:   1 06:15:20  -220.688816  -0.41
iter:   2 06:17:33  -220.535701  -1.21  -1.33
iter:   3 06:19:44  -220.528602  -2.00  -1.79
iter:   4 06:22:00  -220.512261  -1.34  -1.89
Writing to output.gpw (mode='')

iter:   5 06:24:29  -220.516512c -2.38  -2.33
iter:   6 06:26:42  -220.515339c -2.33  -2.17
iter:   7 06:28:58  -220.513573c -1.61  -2.26
iter:   8 06:31:11  -220.513673c -2.71  -2.61
iter:   9 06:33:26  -220.513838c -2.95  -2.87
Writing to output.gpw (mode='')

iter:  10 06:35:59  -220.513860c -2.92  -2.87
iter:  11 06:38:12  -220.513769c -3.15  -2.96
iter:  12 06:40:33  -220.513793c -3.61  -3.13
iter:  13 06:42:54  -220.513790c -3.75  -3.21
iter:  14 06:45:07  -220.513815c -3.94  -3.31
Writing to output.gpw (mode='')

iter:  15 06:47:41  -220.513847c -4.05  -3.37
iter:  16 06:50:01  -220.513843c -4.48  -3.45
iter:  17 06:52:21  -220.513849c -4.47  -3.52
iter:  18 06:54:37  -220.513867c -4.61  -3.58
iter:  19 06:56:47  -220.513867c -4.83  -3.67
Writing to output.gpw (mode='')

iter:  20 06:59:16  -220.513851c -4.89  -3.72
iter:  21 07:01:38  -220.513858c -5.22  -3.98
iter:  22 07:03:56  -220.513858c -5.36  -4.08c
iter:  23 07:06:16  -220.513857c -5.47  -4.26c
iter:  24 07:08:34  -220.513857c -5.45  -4.34c
Writing to output.gpw (mode='')

iter:  25 07:10:57  -220.513858c -5.62  -4.38c
iter:  26 07:13:07  -220.513859c -5.82  -4.43c
iter:  27 07:15:21  -220.513859c -5.97  -4.49c
iter:  28 07:17:41  -220.513859c -6.05  -4.58c
iter:  29 07:19:55  -220.513859c -6.07  -4.74c
Writing to output.gpw (mode='')

iter:  30 07:22:17  -220.513859c -6.35  -4.91c
iter:  31 07:24:28  -220.513859c -6.32  -4.93c
iter:  32 07:26:36  -220.513860c -6.41  -5.01c
iter:  33 07:28:52  -220.513860c -6.61  -5.13c
iter:  34 07:31:02  -220.513859c -6.63  -5.21c
Writing to output.gpw (mode='')

iter:  35 07:33:25  -220.513860c -6.79  -5.31c
iter:  36 07:35:40  -220.513860c -6.90  -5.30c
iter:  37 07:38:00  -220.513860c -7.01  -5.23c
iter:  38 07:40:16  -220.513860c -7.14  -5.10c
iter:  39 07:42:31  -220.513860c -7.12  -5.07c
Writing to output.gpw (mode='')

iter:  40 07:45:01  -220.513860c -6.94  -5.13c
iter:  41 07:47:16  -220.513860c -7.28  -5.13c
iter:  42 07:49:37  -220.513860c -7.28  -5.06c
iter:  43 07:51:57  -220.513860c -7.36  -5.01c
iter:  44 07:54:15  -220.513860c -7.49c -5.02c

Converged after 44 iterations.

Dipole moment: (-3.445181, 0.688866, 0.003494) |e|*Ang

Energy contributions relative to reference atoms: (reference = -8007.321583)

Kinetic:        +92.160346
Potential:      -79.715894
External:        +0.000000
XC:            -232.680531
Entropy (-ST):   -0.133449
Local:           -0.211056
--------------------------
Free energy:   -220.580585
Extrapolated:  -220.513860

Dipole-layer corrected work functions: 3.422896, 3.416179 eV

Showing only first 2 kpts
 Kpt  Band  Eigenvalues  Occupancy
  0    19     -3.64108    1.97647
  0    20     -3.62382    1.96693
  0    21     -3.32463    0.26064
  0    22     -3.14713    0.00857

  1    19     -3.69514    1.99196
  1    20     -3.38707    0.68624
  1    21     -3.34485    0.36670
  1    22     -3.21271    0.03146


Fermi level: -3.41954

No gap
Writing to output.gpw (mode='')


Forces in eV/Ang:
  0 Li    0.00395   -0.00409   -0.24598
  1 Li   -0.02304   -0.00132   -0.30935
  2 Li    0.00780   -0.00274   -0.25821
  3 Li    0.00856    0.00273   -0.29109
  4 Li    0.01941   -0.00439   -0.26497
  5 Li    0.00031    0.01670   -0.30746
  6 Li    0.01185    0.00543   -0.28463
  7 Li    0.01725    0.00613   -0.28335
  8 Li    0.00049   -0.02671   -0.30047
  9 Li   -0.02718    0.02322    0.22215
 10 Li   -0.01107    0.06828    0.26039
 11 Li    0.04264    0.10034    0.32482
 12 Li   -0.00915   -0.01060    0.23114
 13 Li   -0.05985   -0.11180    0.26962
 14 Li    0.05612   -0.08520    0.31600
 15 Li   -0.07324    0.00489    0.27758
 16 Li    0.01552   -0.01225    0.21466
 17 Li   -0.05111    0.01363    0.31147
 18 Li   -0.03574    0.03246    0.00875
 19 Li   -0.02716   -0.00426    0.01431
 20 Li   -0.12286    0.01339   -0.00956
 21 Li   -0.02398    0.01654   -0.01493
 22 Li    0.00379    0.01797    0.00384
 23 Li    0.00707    0.00986   -0.04070
 24 Li    0.03691   -0.04629   -0.07982
 25 Li   -0.01694    0.02258    0.00920
 26 Li   -0.03951   -0.03862   -0.07959
 27 Li   -0.08751    0.11063    0.04972
 28 Li   -0.12389    0.03804    0.07637
 29 Li    0.02690   -0.01385   -0.01218
 30 Li   -0.11745   -0.07733   -0.03247
 31 Li    0.21116    0.20436    0.08557
 32 Li   -0.01073    0.03795   -0.00104
 33 Li   -0.00822   -0.05744    0.02215
 34 Li    0.03135    0.00662    0.05708
 35 Li   -0.03859   -0.02648    0.05526
 36 B     0.35107   -0.05903    0.00323
 37 H     0.01876   -0.22265   -0.06000
 38 H    -0.10964   -0.00271   -0.04191
 39 H     0.14883    0.05701    0.10981

System changes: positions 

Initializing position-dependent things.

Density initialized from wave functions
       .-----------------------.  
      /|                       |  
     / |                       |  
    /  |                       |  
   /   |                       |  
  /    |                       |  
 *     |                       |  
 |     |                       |  
 |     |                       |  
 |     |                       |  
 |     |                       |  
 |     |                       |  
 |     Li             Li       |  
 |     |                       |  
 |   H |     Li      Li      Li|  
 | H   |  Li      Li      LLi  |  
 |  B  | Li       Li     H     |  
 |     |Li      Li      Li     |  
 |     | Li                    |  
 |   LLi     LLi     LiLi      |  
 |     |  Li      Li      Li   |  
 | Li  |   Li      Li          |  
 |     |Li      Li      Li     |  
 Li    | Li      Li            |  
 |    Li      Li      Li       |  
 |     |                       |  
 |     |                       |  
 |     |                       |  
 |     |                       |  
 |     |                       |  
 |     |                       |  
 |     .-----------------------.  
 |    /                       /   
 |   /                       /    
 |  /                       /     
 | /                       /      
 |/                       /       
 *-----------------------*        

Positions:
   0 Li     1.617037    1.617037   10.000000    ( 0.0000,  0.0000,  0.0000)
   1 Li     4.851111    1.617037   10.000000    ( 0.0000,  0.0000,  0.0000)
   2 Li     8.085185    1.617037   10.000000    ( 0.0000,  0.0000,  0.0000)
   3 Li     1.617037    4.851111   10.000000    ( 0.0000,  0.0000,  0.0000)
   4 Li     4.851111    4.851111   10.000000    ( 0.0000,  0.0000,  0.0000)
   5 Li     8.085185    4.851111   10.000000    ( 0.0000,  0.0000,  0.0000)
   6 Li     1.617037    8.085185   10.000000    ( 0.0000,  0.0000,  0.0000)
   7 Li     4.851111    8.085185   10.000000    ( 0.0000,  0.0000,  0.0000)
   8 Li     8.085185    8.085185   10.000000    ( 0.0000,  0.0000,  0.0000)
   9 Li     0.000000    0.000000   11.617037    ( 0.0000,  0.0000,  0.0000)
  10 Li     3.234074    0.000000   11.617037    ( 0.0000,  0.0000,  0.0000)
  11 Li     6.468148    0.000000   11.617037    ( 0.0000,  0.0000,  0.0000)
  12 Li     0.000000    3.234074   11.617037    ( 0.0000,  0.0000,  0.0000)
  13 Li     3.234074    3.234074   11.617037    ( 0.0000,  0.0000,  0.0000)
  14 Li     6.468148    3.234074   11.617037    ( 0.0000,  0.0000,  0.0000)
  15 Li     0.000000    6.468148   11.617037    ( 0.0000,  0.0000,  0.0000)
  16 Li     3.234074    6.468148   11.617037    ( 0.0000,  0.0000,  0.0000)
  17 Li     6.468148    6.468148   11.617037    ( 0.0000,  0.0000,  0.0000)
  18 Li     1.498209    1.526183   13.595811    ( 0.0000,  0.0000,  0.0000)
  19 Li     4.855245    1.607379   13.460405    ( 0.0000,  0.0000,  0.0000)
  20 Li     8.272856    1.678463   13.721221    ( 0.0000,  0.0000,  0.0000)
  21 Li     1.601324    4.829634   13.385875    ( 0.0000,  0.0000,  0.0000)
  22 Li     4.746502    4.774266   13.494899    ( 0.0000,  0.0000,  0.0000)
  23 Li     8.001265    4.814111   13.448796    ( 0.0000,  0.0000,  0.0000)
  24 Li     1.609373    8.111537   13.393726    ( 0.0000,  0.0000,  0.0000)
  25 Li     4.796336    8.069435   13.469187    ( 0.0000,  0.0000,  0.0000)
  26 Li     8.066982    8.226063   13.463056    ( 0.0000,  0.0000,  0.0000)
  27 Li     0.078784   -0.263480   15.511950    ( 0.0000,  0.0000,  0.0000)
  28 Li     3.018972    0.087155   15.370347    ( 0.0000,  0.0000,  0.0000)
  29 Li     6.237828   -0.067513   15.434459    ( 0.0000,  0.0000,  0.0000)
  30 Li    -0.143488    3.731256   15.674849    ( 0.0000,  0.0000,  0.0000)
  31 Li     2.660873    2.913561   15.485733    ( 0.0000,  0.0000,  0.0000)
  32 Li     6.134130    3.234999   15.482022    ( 0.0000,  0.0000,  0.0000)
  33 Li    -0.014241    6.579660   15.105747    ( 0.0000,  0.0000,  0.0000)
  34 Li     3.142029    6.434488   15.317847    ( 0.0000,  0.0000,  0.0000)
  35 Li     6.588143    6.472018   15.302761    ( 0.0000,  0.0000,  0.0000)
  36 B      0.738562    1.726240   16.057999    ( 0.0000,  0.0000,  0.0000)
  37 H      0.969804    2.755986   16.727389    ( 0.0000,  0.0000,  0.0000)
  38 H     -0.379658    1.882179   15.529184    ( 0.0000,  0.0000,  0.0000)
  39 H      0.539013    0.831255   16.871281    ( 0.0000,  0.0000,  0.0000)

Unit cell:
           periodic     x           y           z      points  spacing
  1. axis:    yes    9.702222    0.000000    0.000000    60     0.1617
  2. axis:    yes    0.000000    9.702222    0.000000    60     0.1617
  3. axis:    no     0.000000    0.000000   24.851111   156     0.1593

  Lengths:   9.702222   9.702222  24.851111
  Angles:   90.000000  90.000000  90.000000

Effective grid spacing dv^(1/3) = 0.1609

     iter     time        total  log10-change:
                         energy  eigst   dens
iter:   1 07:57:15  -220.690042  -0.43
iter:   2 07:59:31  -220.547969  -1.21  -1.34
iter:   3 08:01:44  -220.540873  -2.01  -1.79
iter:   4 08:03:59  -220.523966  -1.42  -1.89
Writing to output.gpw (mode='')

iter:   5 08:06:28  -220.528473c -2.48  -2.34
iter:   6 08:08:45  -220.527093c -2.38  -2.16
iter:   7 08:11:01  -220.524970c -1.61  -2.24
iter:   8 08:13:13  -220.525138c -2.74  -2.61
iter:   9 08:15:29  -220.525278c -2.95  -2.86
Writing to output.gpw (mode='')

iter:  10 08:17:47  -220.525286c -2.87  -2.86
iter:  11 08:20:04  -220.525199c -3.18  -2.97
iter:  12 08:22:19  -220.525221c -3.61  -3.10
iter:  13 08:24:33  -220.525211c -3.71  -3.16
iter:  14 08:26:54  -220.525234c -3.94  -3.33
Writing to output.gpw (mode='')

iter:  15 08:29:22  -220.525257c -4.06  -3.39
iter:  16 08:31:39  -220.525261c -4.53  -3.47
iter:  17 08:33:50  -220.525274c -4.49  -3.50
iter:  18 08:36:07  -220.525294c -4.65  -3.58
iter:  19 08:38:25  -220.525293c -5.00  -3.63
Writing to output.gpw (mode='')

iter:  20 08:40:47  -220.525284c -5.08  -3.69
iter:  21 08:43:06  -220.525279c -5.25  -3.80
iter:  22 08:45:17  -220.525271c -5.21  -3.93
iter:  23 08:47:31  -220.525273c -5.65  -4.09c
iter:  24 08:49:38  -220.525280c -5.50  -4.14c
Writing to output.gpw (mode='')

iter:  25 08:52:06  -220.525278c -5.81  -4.22c
iter:  26 08:54:26  -220.525278c -5.91  -4.35c
iter:  27 08:56:36  -220.525278c -5.87  -4.40c
iter:  28 08:58:54  -220.525276c -6.01  -4.53c
iter:  29 09:01:12  -220.525277c -6.23  -4.58c
Writing to output.gpw (mode='')

iter:  30 09:03:42  -220.525278c -6.26  -4.73c
iter:  31 09:06:03  -220.525279c -6.31  -4.87c
iter:  32 09:08:17  -220.525280c -6.41  -4.99c
iter:  33 09:10:35  -220.525279c -6.52  -5.03c
iter:  34 09:12:52  -220.525279c -6.72  -5.09c
Writing to output.gpw (mode='')

iter:  35 09:15:18  -220.525280c -6.71  -5.20c
iter:  36 09:17:40  -220.525280c -6.96  -5.25c
iter:  37 09:20:01  -220.525280c -6.89  -5.31c
iter:  38 09:22:18  -220.525280c -7.00  -5.37c
iter:  39 09:24:33  -220.525280c -7.20  -5.54c
Writing to output.gpw (mode='')

iter:  40 09:27:02  -220.525280c -7.34  -5.55c
iter:  41 09:29:22  -220.525280c -7.36  -5.70c
iter:  42 09:31:39  -220.525280c -7.32  -5.74c
iter:  43 09:33:59  -220.525280c -7.30  -5.77c
iter:  44 09:36:20  -220.525280c -7.41c -5.82c

Converged after 44 iterations.

Dipole moment: (-2.882719, 0.492833, 0.002551) |e|*Ang

Energy contributions relative to reference atoms: (reference = -8007.321583)

Kinetic:        +91.855404
Potential:      -79.515242
External:        +0.000000
XC:            -232.587963
Entropy (-ST):   -0.133923
Local:           -0.210517
--------------------------
Free energy:   -220.592241
Extrapolated:  -220.525280

Dipole-layer corrected work functions: 3.421820, 3.416916 eV

Showing only first 2 kpts
 Kpt  Band  Eigenvalues  Occupancy
  0    19     -3.63882    1.97548
  0    20     -3.62169    1.96563
  0    21     -3.32628    0.26897
  0    22     -3.14388    0.00806

  1    19     -3.69743    1.99234
  1    20     -3.38747    0.69143
  1    21     -3.34572    0.37297
  1    22     -3.21418    0.03248


Fermi level: -3.41937

No gap
Writing to output.gpw (mode='')


Forces in eV/Ang:
  0 Li    0.00303   -0.00410   -0.24806
  1 Li   -0.02230   -0.00162   -0.30742
  2 Li    0.00847   -0.00267   -0.25972
  3 Li    0.00780    0.00221   -0.29036
  4 Li    0.01975   -0.00358   -0.26564
  5 Li    0.00053    0.01656   -0.30694
  6 Li    0.01048    0.00566   -0.28519
  7 Li    0.01731    0.00546   -0.28378
  8 Li    0.00067   -0.02640   -0.30090
  9 Li   -0.02497    0.02768    0.22726
 10 Li   -0.02112    0.06696    0.26868
 11 Li    0.04829    0.09456    0.32884
 12 Li   -0.00936   -0.01682    0.23162
 13 Li   -0.06707   -0.11229    0.27658
 14 Li    0.05758   -0.08312    0.31868
 15 Li   -0.07218    0.00540    0.27883
 16 Li    0.00735   -0.00866    0.22522
 17 Li   -0.04307    0.01471    0.32134
 18 Li   -0.02540    0.03820   -0.00322
 19 Li   -0.02764    0.00241    0.01456
 20 Li   -0.13035    0.01822   -0.01554
 21 Li   -0.02124    0.01633   -0.01380
 22 Li    0.00439    0.01799    0.00881
 23 Li    0.00586    0.01092   -0.03977
 24 Li    0.04661   -0.04611   -0.09752
 25 Li   -0.01817    0.01761    0.00612
 26 Li   -0.05385   -0.03663   -0.09765
 27 Li   -0.08511    0.12296    0.06965
 28 Li   -0.12177    0.03867    0.09054
 29 Li    0.02426   -0.01532   -0.00818
 30 Li   -0.11819   -0.07306   -0.05131
 31 Li    0.20704    0.20470    0.08329
 32 Li   -0.01020    0.04028   -0.00342
 33 Li   -0.00967   -0.07387    0.02734
 34 Li    0.03440    0.00568    0.05747
 35 Li   -0.03805   -0.02905    0.05626
 36 B     0.28165   -0.03734   -0.00294
 37 H     0.03560   -0.25335   -0.07595
 38 H    -0.08480   -0.00147   -0.05717
 39 H     0.17334    0.03587    0.10768

System changes: positions 

Initializing position-dependent things.

Density initialized from wave functions
       .-----------------------.  
      /|                       |  
     / |                       |  
    /  |                       |  
   /   |                       |  
  /    |                       |  
 *     |                       |  
 |     |                       |  
 |     |                       |  
 |     |                       |  
 |     |                       |  
 |     |                       |  
 |     Li             Li       |  
 |     |                       |  
 |   H |     Li      Li      Li|  
 | H   |  Li      Li      LLi  |  
 |  B  | Li       Li     H     |  
 |     |Li      Li      Li     |  
 |     |Li                     |  
 |   LLi     LLi     LLi       |  
 |     |  Li      Li      Li   |  
 | Li  |   Li      Li          |  
 |     |Li      Li      Li     |  
 Li    | Li      Li            |  
 |    Li      Li      Li       |  
 |     |                       |  
 |     |                       |  
 |     |                       |  
 |     |                       |  
 |     |                       |  
 |     |                       |  
 |     .-----------------------.  
 |    /                       /   
 |   /                       /    
 |  /                       /     
 | /                       /      
 |/                       /       
 *-----------------------*        

Positions:
   0 Li     1.617037    1.617037   10.000000    ( 0.0000,  0.0000,  0.0000)
   1 Li     4.851111    1.617037   10.000000    ( 0.0000,  0.0000,  0.0000)
   2 Li     8.085185    1.617037   10.000000    ( 0.0000,  0.0000,  0.0000)
   3 Li     1.617037    4.851111   10.000000    ( 0.0000,  0.0000,  0.0000)
   4 Li     4.851111    4.851111   10.000000    ( 0.0000,  0.0000,  0.0000)
   5 Li     8.085185    4.851111   10.000000    ( 0.0000,  0.0000,  0.0000)
   6 Li     1.617037    8.085185   10.000000    ( 0.0000,  0.0000,  0.0000)
   7 Li     4.851111    8.085185   10.000000    ( 0.0000,  0.0000,  0.0000)
   8 Li     8.085185    8.085185   10.000000    ( 0.0000,  0.0000,  0.0000)
   9 Li     0.000000    0.000000   11.617037    ( 0.0000,  0.0000,  0.0000)
  10 Li     3.234074    0.000000   11.617037    ( 0.0000,  0.0000,  0.0000)
  11 Li     6.468148    0.000000   11.617037    ( 0.0000,  0.0000,  0.0000)
  12 Li     0.000000    3.234074   11.617037    ( 0.0000,  0.0000,  0.0000)
  13 Li     3.234074    3.234074   11.617037    ( 0.0000,  0.0000,  0.0000)
  14 Li     6.468148    3.234074   11.617037    ( 0.0000,  0.0000,  0.0000)
  15 Li     0.000000    6.468148   11.617037    ( 0.0000,  0.0000,  0.0000)
  16 Li     3.234074    6.468148   11.617037    ( 0.0000,  0.0000,  0.0000)
  17 Li     6.468148    6.468148   11.617037    ( 0.0000,  0.0000,  0.0000)
  18 Li     1.483242    1.527695   13.616221    ( 0.0000,  0.0000,  0.0000)
  19 Li     4.853214    1.602522   13.461650    ( 0.0000,  0.0000,  0.0000)
  20 Li     8.269620    1.675968   13.729590    ( 0.0000,  0.0000,  0.0000)
  21 Li     1.592219    4.829363   13.394234    ( 0.0000,  0.0000,  0.0000)
  22 Li     4.745782    4.775660   13.491830    ( 0.0000,  0.0000,  0.0000)
  23 Li     8.009312    4.810418   13.457166    ( 0.0000,  0.0000,  0.0000)
  24 Li     1.600541    8.110993   13.407552    ( 0.0000,  0.0000,  0.0000)
  25 Li     4.795972    8.076579   13.473351    ( 0.0000,  0.0000,  0.0000)
  26 Li     8.078804    8.223750   13.476086    ( 0.0000,  0.0000,  0.0000)
  27 Li     0.068616   -0.255428   15.520453    ( 0.0000,  0.0000,  0.0000)
  28 Li     3.007383    0.094733   15.373559    ( 0.0000,  0.0000,  0.0000)
  29 Li     6.242084   -0.065533   15.433885    ( 0.0000,  0.0000,  0.0000)
  30 Li    -0.158786    3.722501   15.710756    ( 0.0000,  0.0000,  0.0000)
  31 Li     2.672602    2.924376   15.498397    ( 0.0000,  0.0000,  0.0000)
  32 Li     6.129836    3.235438   15.484350    ( 0.0000,  0.0000,  0.0000)
  33 Li    -0.014727    6.583833   15.120812    ( 0.0000,  0.0000,  0.0000)
  34 Li     3.143751    6.436659   15.320262    ( 0.0000,  0.0000,  0.0000)
  35 Li     6.584065    6.472430   15.305013    ( 0.0000,  0.0000,  0.0000)
  36 B      0.757809    1.718329   16.071859    ( 0.0000,  0.0000,  0.0000)
  37 H      0.973500    2.754445   16.739308    ( 0.0000,  0.0000,  0.0000)
  38 H     -0.362695    1.866004   15.540166    ( 0.0000,  0.0000,  0.0000)
  39 H      0.548088    0.827412   16.889331    ( 0.0000,  0.0000,  0.0000)

Unit cell:
           periodic     x           y           z      points  spacing
  1. axis:    yes    9.702222    0.000000    0.000000    60     0.1617
  2. axis:    yes    0.000000    9.702222    0.000000    60     0.1617
  3. axis:    no     0.000000    0.000000   24.851111   156     0.1593

  Lengths:   9.702222   9.702222  24.851111
  Angles:   90.000000  90.000000  90.000000

Effective grid spacing dv^(1/3) = 0.1609

     iter     time        total  log10-change:
                         energy  eigst   dens
iter:   1 09:39:15  -220.754369  -0.38
iter:   2 09:41:37  -220.563764  -1.16  -1.28
iter:   3 09:43:54  -220.554968  -2.01  -1.76
iter:   4 09:46:12  -220.536627  -1.24  -1.86
Writing to output.gpw (mode='')

iter:   5 09:48:34  -220.541665c -2.44  -2.31
iter:   6 09:50:50  -220.540415c -2.50  -2.16
iter:   7 09:53:01  -220.538276c -1.54  -2.23
iter:   8 09:55:20  -220.538302c -2.77  -2.57
iter:   9 09:57:42  -220.538468c -3.08  -2.86
Writing to output.gpw (mode='')

iter:  10 10:00:00  -220.538488c -3.04  -2.90
iter:  11 10:02:23  -220.538471c -3.44  -3.01
iter:  12 10:04:35  -220.538360c -3.32  -3.13
iter:  13 10:07:01  -220.538402c -3.80  -3.23
iter:  14 10:09:25  -220.538446c -4.03  -3.30
Writing to output.gpw (mode='')

iter:  15 10:12:00  -220.538452c -4.21  -3.41
iter:  16 10:14:19  -220.538440c -4.38  -3.57
iter:  17 10:16:31  -220.538468c -4.44  -3.61
iter:  18 10:18:55  -220.538464c -4.95  -3.76
iter:  19 10:21:12  -220.538469c -4.76  -3.78
Writing to output.gpw (mode='')

iter:  20 10:23:27  -220.538479c -5.02  -3.85
iter:  21 10:25:49  -220.538480c -5.27  -4.05c
iter:  22 10:28:12  -220.538475c -5.32  -4.10c
iter:  23 10:30:26  -220.538473c -5.37  -4.23c
iter:  24 10:32:56  -220.538474c -5.65  -4.34c
Writing to output.gpw (mode='')

iter:  25 10:35:25  -220.538477c -5.76  -4.38c
iter:  26 10:37:48  -220.538477c -5.84  -4.58c
iter:  27 10:40:06  -220.538479c -5.84  -4.60c
iter:  28 10:42:32  -220.538480c -5.98  -4.75c
iter:  29 10:44:53  -220.538480c -6.15  -4.79c
Writing to output.gpw (mode='')

iter:  30 10:47:16  -220.538479c -6.44  -4.84c
iter:  31 10:49:31  -220.538479c -6.50  -5.01c
iter:  32 10:51:52  -220.538479c -6.62  -5.16c
iter:  33 10:54:20  -220.538479c -6.53  -5.17c
iter:  34 10:56:40  -220.538480c -6.62  -5.25c
Writing to output.gpw (mode='')

iter:  35 10:59:09  -220.538480c -6.68  -5.35c
iter:  36 11:01:33  -220.538480c -6.76  -5.38c
iter:  37 11:03:47  -220.538480c -6.91  -5.46c
iter:  38 11:06:00  -220.538480c -7.01  -5.60c
iter:  39 11:08:11  -220.538480c -7.13  -5.78c
Writing to output.gpw (mode='')

iter:  40 11:10:28  -220.538480c -7.29  -5.79c
iter:  41 11:12:43  -220.538480c -7.39  -5.69c
iter:  42 11:14:59  -220.538480c -7.45c -5.81c

Converged after 42 iterations.

Dipole moment: (-2.287833, 0.311256, 0.002416) |e|*Ang

Energy contributions relative to reference atoms: (reference = -8007.321583)

Kinetic:        +91.505128
Potential:      -79.281804
External:        +0.000000
XC:            -232.484680
Entropy (-ST):   -0.134532
Local:           -0.209858
--------------------------
Free energy:   -220.605746
Extrapolated:  -220.538480

Dipole-layer corrected work functions: 3.420647, 3.416002 eV

Showing only first 2 kpts
 Kpt  Band  Eigenvalues  Occupancy
  0    19     -3.63513    1.97417
  0    20     -3.61784    1.96369
  0    21     -3.32686    0.27666
  0    22     -3.14006    0.00763

  1    19     -3.69809    1.99260
  1    20     -3.38772    0.70312
  1    21     -3.34595    0.38075
  1    22     -3.21439    0.03330


Fermi level: -3.41832

No gap
Writing to output.gpw (mode='')


Forces in eV/Ang:
  0 Li    0.00215   -0.00405   -0.25049
  1 Li   -0.02155   -0.00194   -0.30551
  2 Li    0.00922   -0.00251   -0.26174
  3 Li    0.00707    0.00187   -0.28953
  4 Li    0.02007   -0.00288   -0.26611
  5 Li    0.00071    0.01663   -0.30638
  6 Li    0.00907    0.00579   -0.28575
  7 Li    0.01737    0.00489   -0.28402
  8 Li    0.00093   -0.02619   -0.30150
  9 Li   -0.02302    0.03177    0.23532
 10 Li   -0.03186    0.06575    0.27831
 11 Li    0.05435    0.08912    0.33450
 12 Li   -0.01001   -0.02372    0.23375
 13 Li   -0.07386   -0.11301    0.28451
 14 Li    0.05874   -0.08211    0.32261
 15 Li   -0.07084    0.00580    0.27919
 16 Li    0.00057   -0.00486    0.23492
 17 Li   -0.03623    0.01598    0.33059
 18 Li   -0.00802    0.04520   -0.02056
 19 Li   -0.02732    0.01089    0.01424
 20 Li   -0.13824    0.02352   -0.02688
 21 Li   -0.01749    0.01499   -0.01116
 22 Li    0.00458    0.01782    0.01419
 23 Li    0.00357    0.01205   -0.03718
 24 Li    0.05649   -0.04332   -0.11609
 25 Li   -0.01961    0.01071    0.00190
 26 Li   -0.06951   -0.03233   -0.11707
 27 Li   -0.08330    0.12402    0.08819
 28 Li   -0.11855    0.04150    0.10335
 29 Li    0.01960   -0.01613   -0.00266
 30 Li   -0.11427   -0.06849   -0.06980
 31 Li    0.18629    0.19132    0.07671
 32 Li   -0.01065    0.04205   -0.00686
 33 Li   -0.01155   -0.09017    0.03556
 34 Li    0.03725    0.00428    0.05611
 35 Li   -0.03570   -0.03209    0.05570
 36 B     0.23060   -0.01194    0.01980
 37 H     0.05368   -0.27742   -0.08501
 38 H    -0.05889    0.00724   -0.08072
 39 H     0.20125    0.04128    0.09768

System changes: positions 

Initializing position-dependent things.

Density initialized from wave functions
       .-----------------------.  
      /|                       |  
     / |                       |  
    /  |                       |  
   /   |                       |  
  /    |                       |  
 *     |                       |  
 |     |                       |  
 |     |                       |  
 |     |                       |  
 |     |                       |  
 |     |                       |  
 |     Li             Li       |  
 |     |                       |  
 |   H |     Li      Li      Li|  
 | H   |  Li      Li      LLi  |  
 |  B  | Li       Li     H     |  
 |     |Li      Li      Li     |  
 |     |Li                     |  
 |   LLi     LLi     LLi       |  
 |     |  Li      Li      Li   |  
 | Li  |   Li      Li          |  
 |     |Li      Li      Li     |  
 Li    | Li      Li            |  
 |    Li      Li      Li       |  
 |     |                       |  
 |     |                       |  
 |     |                       |  
 |     |                       |  
 |     |                       |  
 |     |                       |  
 |     .-----------------------.  
 |    /                       /   
 |   /                       /    
 |  /                       /     
 | /                       /      
 |/                       /       
 *-----------------------*        

Positions:
   0 Li     1.617037    1.617037   10.000000    ( 0.0000,  0.0000,  0.0000)
   1 Li     4.851111    1.617037   10.000000    ( 0.0000,  0.0000,  0.0000)
   2 Li     8.085185    1.617037   10.000000    ( 0.0000,  0.0000,  0.0000)
   3 Li     1.617037    4.851111   10.000000    ( 0.0000,  0.0000,  0.0000)
   4 Li     4.851111    4.851111   10.000000    ( 0.0000,  0.0000,  0.0000)
   5 Li     8.085185    4.851111   10.000000    ( 0.0000,  0.0000,  0.0000)
   6 Li     1.617037    8.085185   10.000000    ( 0.0000,  0.0000,  0.0000)
   7 Li     4.851111    8.085185   10.000000    ( 0.0000,  0.0000,  0.0000)
   8 Li     8.085185    8.085185   10.000000    ( 0.0000,  0.0000,  0.0000)
   9 Li     0.000000    0.000000   11.617037    ( 0.0000,  0.0000,  0.0000)
  10 Li     3.234074    0.000000   11.617037    ( 0.0000,  0.0000,  0.0000)
  11 Li     6.468148    0.000000   11.617037    ( 0.0000,  0.0000,  0.0000)
  12 Li     0.000000    3.234074   11.617037    ( 0.0000,  0.0000,  0.0000)
  13 Li     3.234074    3.234074   11.617037    ( 0.0000,  0.0000,  0.0000)
  14 Li     6.468148    3.234074   11.617037    ( 0.0000,  0.0000,  0.0000)
  15 Li     0.000000    6.468148   11.617037    ( 0.0000,  0.0000,  0.0000)
  16 Li     3.234074    6.468148   11.617037    ( 0.0000,  0.0000,  0.0000)
  17 Li     6.468148    6.468148   11.617037    ( 0.0000,  0.0000,  0.0000)
  18 Li     1.467240    1.529360   13.638179    ( 0.0000,  0.0000,  0.0000)
  19 Li     4.850951    1.597258   13.462562    ( 0.0000,  0.0000,  0.0000)
  20 Li     8.265870    1.673660   13.738398    ( 0.0000,  0.0000,  0.0000)
  21 Li     1.582630    4.829997   13.402124    ( 0.0000,  0.0000,  0.0000)
  22 Li     4.744636    4.776520   13.488430    ( 0.0000,  0.0000,  0.0000)
  23 Li     8.017487    4.807216   13.465281    ( 0.0000,  0.0000,  0.0000)
  24 Li     1.592375    8.108715   13.419499    ( 0.0000,  0.0000,  0.0000)
  25 Li     4.795379    8.084543   13.477812    ( 0.0000,  0.0000,  0.0000)
  26 Li     8.089916    8.219944   13.487353    ( 0.0000,  0.0000,  0.0000)
  27 Li     0.057639   -0.247041   15.529857    ( 0.0000,  0.0000,  0.0000)
  28 Li     2.992391    0.104099   15.376854    ( 0.0000,  0.0000,  0.0000)
  29 Li     6.247332   -0.063104   15.432947    ( 0.0000,  0.0000,  0.0000)
  30 Li    -0.175903    3.714105   15.745920    ( 0.0000,  0.0000,  0.0000)
  31 Li     2.683144    2.935198   15.511513    ( 0.0000,  0.0000,  0.0000)
  32 Li     6.124572    3.235844   15.486255    ( 0.0000,  0.0000,  0.0000)
  33 Li    -0.015363    6.588307   15.135969    ( 0.0000,  0.0000,  0.0000)
  34 Li     3.145931    6.438886   15.322822    ( 0.0000,  0.0000,  0.0000)
  35 Li     6.579516    6.472861   15.307335    ( 0.0000,  0.0000,  0.0000)
  36 B      0.781652    1.710336   16.083957    ( 0.0000,  0.0000,  0.0000)
  37 H      0.977643    2.752540   16.750411    ( 0.0000,  0.0000,  0.0000)
  38 H     -0.343586    1.848461   15.546666    ( 0.0000,  0.0000,  0.0000)
[...]
  37 H      1.106049    2.733503   16.695317    ( 0.0000,  0.0000,  0.0000)
  38 H     -0.107630    1.711034   15.454158    ( 0.0000,  0.0000,  0.0000)
  39 H      0.882725    0.813746   16.942014    ( 0.0000,  0.0000,  0.0000)

Unit cell:
           periodic     x           y           z      points  spacing
  1. axis:    yes    9.702222    0.000000    0.000000    60     0.1617
  2. axis:    yes    0.000000    9.702222    0.000000    60     0.1617
  3. axis:    no     0.000000    0.000000   24.851111   156     0.1593

  Lengths:   9.702222   9.702222  24.851111
  Angles:   90.000000  90.000000  90.000000

Effective grid spacing dv^(1/3) = 0.1609

     iter     time        total  log10-change:
                         energy  eigst   dens
iter:   1 07:07:13  -220.792838  -1.00
iter:   2 07:09:29  -220.777083  -1.78  -1.76
iter:   3 07:11:53  -220.774279c -2.45  -1.98
iter:   4 07:14:04  -220.767699c -2.02  -2.05
Writing to output.gpw (mode='')

iter:   5 07:16:27  -220.769078c -3.25  -2.40
iter:   6 07:18:50  -220.767235c -2.35  -2.29
iter:   7 07:21:07  -220.767210c -2.00  -2.52
iter:   8 07:23:18  -220.766684c -3.29  -2.67
iter:   9 07:25:28  -220.766883c -2.83  -3.00
Writing to output.gpw (mode='')

iter:  10 07:27:47  -220.766872c -3.48  -2.89
iter:  11 07:30:02  -220.766747c -3.34  -3.09
iter:  12 07:32:11  -220.766758c -4.28  -3.16
iter:  13 07:34:27  -220.766768c -4.41  -3.38
iter:  14 07:36:47  -220.766750c -4.31  -3.45
Writing to output.gpw (mode='')

iter:  15 07:39:14  -220.766756c -4.79  -3.61
iter:  16 07:41:36  -220.766751c -4.97  -3.68
iter:  17 07:43:51  -220.766743c -4.99  -3.83
iter:  18 07:46:09  -220.766751c -5.12  -3.90
iter:  19 07:48:32  -220.766747c -5.32  -3.98
Writing to output.gpw (mode='')

iter:  20 07:50:59  -220.766748c -5.65  -4.30c
iter:  21 07:53:21  -220.766748c -5.79  -4.33c
iter:  22 07:55:34  -220.766747c -5.85  -4.38c
iter:  23 07:57:51  -220.766747c -5.91  -4.51c
iter:  24 08:00:05  -220.766749c -5.98  -4.59c
Writing to output.gpw (mode='')

iter:  25 08:02:34  -220.766749c -6.20  -4.73c
iter:  26 08:04:52  -220.766749c -6.19  -4.77c
iter:  27 08:07:05  -220.766749c -6.42  -4.85c
iter:  28 08:09:27  -220.766750c -6.49  -4.98c
iter:  29 08:11:50  -220.766750c -6.77  -5.04c
Writing to output.gpw (mode='')

iter:  30 08:14:22  -220.766750c -6.74  -5.05c
iter:  31 08:16:40  -220.766750c -6.95  -5.05c
iter:  32 08:19:08  -220.766749c -7.01  -5.00c
iter:  33 08:21:25  -220.766749c -6.91  -4.98c
iter:  34 08:23:45  -220.766749c -7.01  -4.99c
Writing to output.gpw (mode='')

iter:  35 08:26:14  -220.766749c -7.32  -4.96c
iter:  36 08:28:30  -220.766749c -7.19  -5.03c
iter:  37 08:30:51  -220.766749c -7.53c -5.05c

Converged after 37 iterations.

Dipole moment: (2.939705, -1.706496, 0.030051) |e|*Ang

Energy contributions relative to reference atoms: (reference = -8007.321583)

Kinetic:        +90.306373
Potential:      -78.593837
External:        +0.000000
XC:            -232.206300
Entropy (-ST):   -0.132591
Local:           -0.206689
--------------------------
Free energy:   -220.833045
Extrapolated:  -220.766749

Dipole-layer corrected work functions: 3.421114, 3.363345 eV

Showing only first 2 kpts
 Kpt  Band  Eigenvalues  Occupancy
  0    19     -3.60823    1.97375
  0    20     -3.57162    1.94618
  0    21     -3.31003    0.32386
  0    22     -3.11879    0.00840

  1    19     -3.65870    1.99035
  1    20     -3.37094    0.79028
  1    21     -3.31824    0.37091
  1    22     -3.14458    0.01403


Fermi level: -3.39223

No gap
Writing to output.gpw (mode='')


Forces in eV/Ang:
  0 Li    0.00554   -0.00140   -0.24651
  1 Li   -0.01572    0.00104   -0.29320
  2 Li    0.01159   -0.00341   -0.25751
  3 Li    0.00877   -0.00332   -0.27862
  4 Li    0.02493   -0.00009   -0.27312
  5 Li   -0.00183    0.01464   -0.29761
  6 Li    0.00778    0.00832   -0.28051
  7 Li    0.01932   -0.00245   -0.27560
  8 Li   -0.00100   -0.02500   -0.29414
  9 Li   -0.03577    0.06899    0.22866
 10 Li   -0.03752    0.07621    0.24242
 11 Li   -0.00708    0.09034    0.29248
 12 Li   -0.04162   -0.03561    0.21755
 13 Li   -0.06802   -0.07799    0.27248
 14 Li   -0.01223   -0.05254    0.29088
 15 Li   -0.07713   -0.00175    0.22868
 16 Li    0.01186   -0.02460    0.20889
 17 Li   -0.06357    0.01191    0.31771
 18 Li    0.06455    0.03868    0.14440
 19 Li   -0.03900    0.00834    0.01899
 20 Li   -0.06480   -0.02316   -0.09679
 21 Li    0.03265    0.00631    0.03811
 22 Li   -0.00520    0.02363   -0.01995
 23 Li    0.00851   -0.00430    0.04792
 24 Li   -0.02555    0.00600    0.10444
 25 Li    0.01191   -0.01600    0.00171
 26 Li    0.00263   -0.04996    0.07819
 27 Li   -0.06412   -0.09064   -0.02716
 28 Li    0.09991   -0.01141    0.00930
 29 Li   -0.03712   -0.00645    0.02155
 30 Li    0.01862   -0.03389   -0.04550
 31 Li   -0.02041   -0.04203   -0.07823
 32 Li    0.03984    0.01128    0.01503
 33 Li   -0.00874    0.02821    0.01134
 34 Li    0.00903    0.02335    0.00885
 35 Li    0.00907    0.01063    0.00693
 36 B     0.14778    0.02712   -0.00186
 37 H    -0.00356    0.01353   -0.03978
 38 H     0.09535    0.05111    0.13702
 39 H     0.01119   -0.01817   -0.13984

System changes: positions 

Initializing position-dependent things.

Density initialized from wave functions
       .-----------------------.  
      /|                       |  
     / |                       |  
    /  |                       |  
   /   |                       |  
  /    |                       |  
 *     |                       |  
 |     |                       |  
 |     |                       |  
 |     |                       |  
 |     |                       |  
 |     |                       |  
 |     |              Li       Li 
 |     |                       |  
 |   H |     Li      Li      Li|  
 |  H  |  Li      Li      Li   |  
 |   B |  Li      Li           |  
 |     |Li      Li      LiH    |  
 |     |Li                     |  
 |   LLi     LLi     LLi       |  
 |     |  Li      Li      Li   |  
 | Li  |   Li      Li          |  
 |     |Li      Li      Li     |  
 Li    | Li      Li            |  
 |    Li      Li      Li       |  
 |     |                       |  
 |     |                       |  
 |     |                       |  
 |     |                       |  
 |     |                       |  
 |     |                       |  
 |     .-----------------------.  
 |    /                       /   
 |   /                       /    
 |  /                       /     
 | /                       /      
 |/                       /       
 *-----------------------*        

Positions:
   0 Li     1.617037    1.617037   10.000000    ( 0.0000,  0.0000,  0.0000)
   1 Li     4.851111    1.617037   10.000000    ( 0.0000,  0.0000,  0.0000)
   2 Li     8.085185    1.617037   10.000000    ( 0.0000,  0.0000,  0.0000)
   3 Li     1.617037    4.851111   10.000000    ( 0.0000,  0.0000,  0.0000)
   4 Li     4.851111    4.851111   10.000000    ( 0.0000,  0.0000,  0.0000)
   5 Li     8.085185    4.851111   10.000000    ( 0.0000,  0.0000,  0.0000)
   6 Li     1.617037    8.085185   10.000000    ( 0.0000,  0.0000,  0.0000)
   7 Li     4.851111    8.085185   10.000000    ( 0.0000,  0.0000,  0.0000)
   8 Li     8.085185    8.085185   10.000000    ( 0.0000,  0.0000,  0.0000)
   9 Li     0.000000    0.000000   11.617037    ( 0.0000,  0.0000,  0.0000)
  10 Li     3.234074    0.000000   11.617037    ( 0.0000,  0.0000,  0.0000)
  11 Li     6.468148    0.000000   11.617037    ( 0.0000,  0.0000,  0.0000)
  12 Li     0.000000    3.234074   11.617037    ( 0.0000,  0.0000,  0.0000)
  13 Li     3.234074    3.234074   11.617037    ( 0.0000,  0.0000,  0.0000)
  14 Li     6.468148    3.234074   11.617037    ( 0.0000,  0.0000,  0.0000)
  15 Li     0.000000    6.468148   11.617037    ( 0.0000,  0.0000,  0.0000)
  16 Li     3.234074    6.468148   11.617037    ( 0.0000,  0.0000,  0.0000)
  17 Li     6.468148    6.468148   11.617037    ( 0.0000,  0.0000,  0.0000)
  18 Li     1.453492    1.602475   13.594523    ( 0.0000,  0.0000,  0.0000)
  19 Li     4.803586    1.604551   13.482346    ( 0.0000,  0.0000,  0.0000)
  20 Li     8.049169    1.692635   13.651604    ( 0.0000,  0.0000,  0.0000)
  21 Li     1.553045    4.838677   13.401295    ( 0.0000,  0.0000,  0.0000)
  22 Li     4.732728    4.810415   13.501736    ( 0.0000,  0.0000,  0.0000)
  23 Li     8.015116    4.813008   13.432337    ( 0.0000,  0.0000,  0.0000)
  24 Li     1.618271    8.092361   13.349956    ( 0.0000,  0.0000,  0.0000)
  25 Li     4.757957    8.109108   13.492830    ( 0.0000,  0.0000,  0.0000)
  26 Li     8.050734    8.209915   13.413133    ( 0.0000,  0.0000,  0.0000)
  27 Li    -0.107511   -0.126549   15.646939    ( 0.0000,  0.0000,  0.0000)
  28 Li     2.809241    0.184576   15.494110    ( 0.0000,  0.0000,  0.0000)
  29 Li     6.257995   -0.078898   15.416713    ( 0.0000,  0.0000,  0.0000)
  30 Li    -0.302286    3.529485   15.770692    ( 0.0000,  0.0000,  0.0000)
  31 Li     2.804800    3.131744   15.604595    ( 0.0000,  0.0000,  0.0000)
  32 Li     6.082154    3.293433   15.458067    ( 0.0000,  0.0000,  0.0000)
  33 Li    -0.035834    6.521646   15.174469    ( 0.0000,  0.0000,  0.0000)
  34 Li     3.198021    6.451612   15.367422    ( 0.0000,  0.0000,  0.0000)
  35 Li     6.536263    6.428190   15.351312    ( 0.0000,  0.0000,  0.0000)
  36 B      1.003504    1.679038   16.060108    ( 0.0000,  0.0000,  0.0000)
  37 H      1.110713    2.743521   16.683020    ( 0.0000,  0.0000,  0.0000)
  38 H     -0.081670    1.702859   15.441047    ( 0.0000,  0.0000,  0.0000)
  39 H      0.894209    0.814780   16.935284    ( 0.0000,  0.0000,  0.0000)

Unit cell:
           periodic     x           y           z      points  spacing
  1. axis:    yes    9.702222    0.000000    0.000000    60     0.1617
  2. axis:    yes    0.000000    9.702222    0.000000    60     0.1617
  3. axis:    no     0.000000    0.000000   24.851111   156     0.1593

  Lengths:   9.702222   9.702222  24.851111
  Angles:   90.000000  90.000000  90.000000

Effective grid spacing dv^(1/3) = 0.1609

     iter     time        total  log10-change:
                         energy  eigst   dens
iter:   1 08:33:46  -220.786816  -1.24
iter:   2 08:36:05  -220.779058  -1.98  -1.87
iter:   3 08:38:16  -220.777124c -2.62  -2.11
iter:   4 08:40:30  -220.773577c -2.32  -2.19
Writing to output.gpw (mode='')

iter:   5 08:42:53  -220.774393c -3.27  -2.52
iter:   6 08:45:11  -220.773347c -2.70  -2.42
iter:   7 08:47:30  -220.773048c -2.59  -2.61
iter:   8 08:49:42  -220.772989c -3.48  -2.92
iter:   9 08:51:54  -220.772925c -3.18  -3.01
Writing to output.gpw (mode='')

iter:  10 08:54:15  -220.772939c -3.60  -3.22
iter:  11 08:56:39  -220.772962c -4.13  -3.28
iter:  12 08:58:55  -220.772959c -4.04  -3.38
iter:  13 09:01:19  -220.772963c -4.30  -3.56
iter:  14 09:03:34  -220.772968c -4.66  -3.61
Writing to output.gpw (mode='')

iter:  15 09:05:52  -220.772969c -4.66  -3.67
iter:  16 09:08:06  -220.772971c -4.92  -3.80
iter:  17 09:10:33  -220.772972c -5.09  -3.84
iter:  18 09:12:43  -220.772972c -5.31  -3.92
iter:  19 09:15:04  -220.772972c -5.41  -3.93
Writing to output.gpw (mode='')

iter:  20 09:17:26  -220.772969c -5.57  -4.03c
iter:  21 09:19:40  -220.772969c -5.85  -4.28c
iter:  22 09:22:01  -220.772969c -5.86  -4.39c
iter:  23 09:24:29  -220.772969c -5.99  -4.56c
iter:  24 09:26:46  -220.772969c -6.22  -4.62c
Writing to output.gpw (mode='')

iter:  25 09:29:03  -220.772970c -6.30  -4.64c
iter:  26 09:31:19  -220.772970c -6.46  -4.81c
iter:  27 09:33:37  -220.772970c -6.55  -4.97c
iter:  28 09:35:59  -220.772970c -6.58  -4.97c
iter:  29 09:38:15  -220.772970c -6.65  -5.01c
Writing to output.gpw (mode='')

iter:  30 09:40:41  -220.772970c -6.89  -5.13c
iter:  31 09:42:59  -220.772970c -7.03  -5.32c
iter:  32 09:45:08  -220.772970c -7.17  -5.39c
iter:  33 09:47:17  -220.772970c -7.07  -5.42c
iter:  34 09:49:37  -220.772970c -7.42c -5.54c

Converged after 34 iterations.

Dipole moment: (2.528130, -1.636664, 0.030622) |e|*Ang

Energy contributions relative to reference atoms: (reference = -8007.321583)

Kinetic:        +90.596589
Potential:      -78.808556
External:        +0.000000
XC:            -232.288085
Entropy (-ST):   -0.132640
Local:           -0.206598
--------------------------
Free energy:   -220.839290
Extrapolated:  -220.772970

Dipole-layer corrected work functions: 3.421651, 3.362785 eV

Showing only first 2 kpts
 Kpt  Band  Eigenvalues  Occupancy
  0    19     -3.60901    1.97416
  0    20     -3.57065    1.94516
  0    21     -3.31057    0.32685
  0    22     -3.11884    0.00841

  1    19     -3.65754    1.99013
  1    20     -3.37102    0.79112
  1    21     -3.31861    0.37323
  1    22     -3.14363    0.01377


Fermi level: -3.39222

No gap
Writing to output.gpw (mode='')


Forces in eV/Ang:
  0 Li    0.00645   -0.00151   -0.24590
  1 Li   -0.01549    0.00081   -0.29265
  2 Li    0.01115   -0.00364   -0.25658
  3 Li    0.00882   -0.00420   -0.27883
  4 Li    0.02488    0.00057   -0.27398
  5 Li   -0.00189    0.01408   -0.29743
  6 Li    0.00779    0.00875   -0.28041
  7 Li    0.01929   -0.00316   -0.27664
  8 Li   -0.00116   -0.02468   -0.29391
  9 Li   -0.03613    0.07028    0.22831
 10 Li   -0.03537    0.07373    0.24173
 11 Li   -0.01288    0.08680    0.29023
 12 Li   -0.04212   -0.03347    0.21706
 13 Li   -0.06538   -0.07308    0.27122
 14 Li   -0.01899   -0.04646    0.28657
 15 Li   -0.07553    0.00025    0.23701
 16 Li    0.00506   -0.02247    0.21331
 17 Li   -0.05965    0.01315    0.32138
 18 Li    0.05360    0.02983    0.15561
 19 Li   -0.04023    0.00454    0.01455
 20 Li   -0.05361   -0.02522   -0.08427
 21 Li    0.03131    0.01328    0.02832
 22 Li   -0.00484    0.01595   -0.02857
 23 Li    0.01227   -0.00516    0.04401
 24 Li   -0.02261   -0.00445    0.09531
 25 Li    0.01399   -0.00919   -0.00250
 26 Li   -0.00031   -0.06080    0.06774
 27 Li   -0.04190   -0.06165   -0.01228
 28 Li    0.09413   -0.00578    0.00890
 29 Li   -0.02976   -0.00239    0.02217
 30 Li   -0.00909   -0.01497   -0.06539
 31 Li   -0.00793   -0.03950   -0.07623
 32 Li    0.04564    0.00753    0.01867
 33 Li   -0.00744    0.02596    0.01291
 34 Li    0.00887    0.02469    0.01560
 35 Li    0.00590    0.01577    0.01218
 36 B     0.26385   -0.00261   -0.01002
 37 H     0.00189   -0.01618   -0.01201
 38 H    -0.03198    0.08476    0.07266
 39 H     0.00806   -0.03269   -0.09525

System changes: positions 

Initializing position-dependent things.

Density initialized from wave functions
       .-----------------------.  
      /|                       |  
     / |                       |  
    /  |                       |  
   /   |                       |  
  /    |                       |  
 *     |                       |  
 |     |                       |  
 |     |                       |  
 |     |                       |  
 |     |                       |  
 |     |                       |  
 |     |              Li       Li 
 |     |                       |  
 |   H |     Li      Li      Li|  
 |  H  |  Li      Li      Li   |  
 |   B |  Li      Li           |  
 |     |Li      Li      LiH    |  
 |     |Li                     |  
 |   LLi     LLi     LLi       |  
 |     |  Li      Li      Li   |  
 | Li  |   Li      Li          |  
 |     |Li      Li      Li     |  
 Li    | Li      Li            |  
 |    Li      Li      Li       |  
 |     |                       |  
 |     |                       |  
 |     |                       |  
 |     |                       |  
 |     |                       |  
 |     |                       |  
 |     .-----------------------.  
 |    /                       /   
 |   /                       /    
 |  /                       /     
 | /                       /      
 |/                       /       
 *-----------------------*        

Positions:
   0 Li     1.617037    1.617037   10.000000    ( 0.0000,  0.0000,  0.0000)
   1 Li     4.851111    1.617037   10.000000    ( 0.0000,  0.0000,  0.0000)
   2 Li     8.085185    1.617037   10.000000    ( 0.0000,  0.0000,  0.0000)
   3 Li     1.617037    4.851111   10.000000    ( 0.0000,  0.0000,  0.0000)
   4 Li     4.851111    4.851111   10.000000    ( 0.0000,  0.0000,  0.0000)
   5 Li     8.085185    4.851111   10.000000    ( 0.0000,  0.0000,  0.0000)
   6 Li     1.617037    8.085185   10.000000    ( 0.0000,  0.0000,  0.0000)
   7 Li     4.851111    8.085185   10.000000    ( 0.0000,  0.0000,  0.0000)
   8 Li     8.085185    8.085185   10.000000    ( 0.0000,  0.0000,  0.0000)
   9 Li     0.000000    0.000000   11.617037    ( 0.0000,  0.0000,  0.0000)
  10 Li     3.234074    0.000000   11.617037    ( 0.0000,  0.0000,  0.0000)
  11 Li     6.468148    0.000000   11.617037    ( 0.0000,  0.0000,  0.0000)
  12 Li     0.000000    3.234074   11.617037    ( 0.0000,  0.0000,  0.0000)
  13 Li     3.234074    3.234074   11.617037    ( 0.0000,  0.0000,  0.0000)
  14 Li     6.468148    3.234074   11.617037    ( 0.0000,  0.0000,  0.0000)
  15 Li     0.000000    6.468148   11.617037    ( 0.0000,  0.0000,  0.0000)
  16 Li     3.234074    6.468148   11.617037    ( 0.0000,  0.0000,  0.0000)
  17 Li     6.468148    6.468148   11.617037    ( 0.0000,  0.0000,  0.0000)
  18 Li     1.458854    1.607432   13.598671    ( 0.0000,  0.0000,  0.0000)
  19 Li     4.799732    1.605923   13.484970    ( 0.0000,  0.0000,  0.0000)
  20 Li     8.034561    1.692151   13.639496    ( 0.0000,  0.0000,  0.0000)
  21 Li     1.552287    4.836325   13.409532    ( 0.0000,  0.0000,  0.0000)
  22 Li     4.731549    4.816198   13.503439    ( 0.0000,  0.0000,  0.0000)
  23 Li     8.016114    4.810618   13.439795    ( 0.0000,  0.0000,  0.0000)
  24 Li     1.613052    8.099190   13.363555    ( 0.0000,  0.0000,  0.0000)
  25 Li     4.757126    8.106328   13.495267    ( 0.0000,  0.0000,  0.0000)
  26 Li     8.054378    8.214315   13.425402    ( 0.0000,  0.0000,  0.0000)
  27 Li    -0.116633   -0.128427   15.641585    ( 0.0000,  0.0000,  0.0000)
  28 Li     2.815144    0.185997   15.497966    ( 0.0000,  0.0000,  0.0000)
  29 Li     6.248880   -0.080869   15.417148    ( 0.0000,  0.0000,  0.0000)
  30 Li    -0.306020    3.516356   15.784756    ( 0.0000,  0.0000,  0.0000)
  31 Li     2.806768    3.133550   15.602247    ( 0.0000,  0.0000,  0.0000)
  32 Li     6.078051    3.296205   15.456639    ( 0.0000,  0.0000,  0.0000)
  33 Li    -0.037250    6.521990   15.178963    ( 0.0000,  0.0000,  0.0000)
  34 Li     3.198323    6.453788   15.363933    ( 0.0000,  0.0000,  0.0000)
  35 Li     6.537708    6.426997   15.347902    ( 0.0000,  0.0000,  0.0000)
  36 B      1.019104    1.681482   16.062457    ( 0.0000,  0.0000,  0.0000)
  37 H      1.116675    2.751789   16.673484    ( 0.0000,  0.0000,  0.0000)
  38 H     -0.055678    1.693909   15.430237    ( 0.0000,  0.0000,  0.0000)
  39 H      0.906105    0.815400   16.931187    ( 0.0000,  0.0000,  0.0000)

Unit cell:
           periodic     x           y           z      points  spacing
  1. axis:    yes    9.702222    0.000000    0.000000    60     0.1617
  2. axis:    yes    0.000000    9.702222    0.000000    60     0.1617
  3. axis:    no     0.000000    0.000000   24.851111   156     0.1593

  Lengths:   9.702222   9.702222  24.851111
  Angles:   90.000000  90.000000  90.000000

Effective grid spacing dv^(1/3) = 0.1609

     iter     time        total  log10-change:
                         energy  eigst   dens
iter:   1 09:52:30  -220.847482  -0.89
iter:   2 09:54:40  -220.788527  -1.71  -1.51
iter:   3 09:56:59  -220.784866  -2.48  -2.02
iter:   4 09:59:23  -220.779565c -2.25  -2.14
Writing to output.gpw (mode='')

iter:   5 10:01:46  -220.780869c -2.75  -2.45
iter:   6 10:03:58  -220.779198c -2.35  -2.37
iter:   7 10:06:15  -220.779011c -2.64  -2.63
iter:   8 10:08:33  -220.779045c -3.16  -2.82
iter:   9 10:10:47  -220.778956c -3.05  -2.92
Writing to output.gpw (mode='')

iter:  10 10:13:11  -220.778926c -3.29  -3.09
