
  ___ ___ ___ _ _ _  
 |   |   |_  | | | | 
 | | | | | . | | | | 
 |__ |  _|___|_____|  22.8.0
 |___|_|             

User:   vazumah@c13.hercules
Date:   Thu Mar  2 01:08:57 2023
Arch:   x86_64
Pid:    20682
CWD:    /home/vazumah/Python_projects/LiNRR/Li_adsorb_studies/proton_donors/N2_with_proton_donor/Li_BCC_100/adsorbates/HBr/bridge/8.085_1.617/N2_y
Python: 3.10.8
gpaw:   /home/vazumah/.conda/envs/GPAW/lib/python3.10/site-packages/gpaw
_gpaw:  /home/vazumah/.conda/envs/GPAW/lib/python3.10/site-packages/
        _gpaw.cpython-310-x86_64-linux-gnu.so
ase:    /home/vazumah/.conda/envs/GPAW/lib/python3.10/site-packages/ase (version 3.22.1)
numpy:  /home/vazumah/.conda/envs/GPAW/lib/python3.10/site-packages/numpy (version 1.24.1)
scipy:  /home/vazumah/.conda/envs/GPAW/lib/python3.10/site-packages/scipy (version 1.10.0)
libxc:  5.2.3
units:  Angstrom and eV
cores: 24
OpenMP: True
OMP_NUM_THREADS: 1

Input parameters:
  h: 0.16
  kpts: {size: [4, 4, 1]}
  occupations: {name: fermi-dirac,
                width: 0.05}
  poissonsolver: {dipolelayer: xy}
  xc: BEEF-vdW

System changes: positions, numbers, cell, pbc, initial_charges, initial_magmoms 

Initialize ...

species:
  Li:
    name: Lithium
    id: 830b4218f175192f93f959cfc0aad614
    Z: 3.0
    valence: 1
    core: 2
    charge: 0.0
    file: /home/vazumah/.conda/envs/GPAW/share/gpaw/Li.PBE.gz
    compensation charges: {type: gauss,
                           rc: 0.33,
                           lmax: 2}
    cutoffs: {filter: 1.91,
              core: 2.55}
    valence states:
      #              energy  rcut
      - 2s(1.00)    -2.874   1.058
      - 2p(0.00)    -1.090   1.058
      -  s          24.337   1.058
  
    # Using partial waves for Li as LCAO basis

  Br:
    name: Bromine
    id: 39dc90fcf3bf77f2d83386b416c2c495
    Z: 35.0
    valence: 7
    core: 28
    charge: 0.0
    file: /home/vazumah/.conda/envs/GPAW/share/gpaw/Br.PBE.gz
    compensation charges: {type: gauss,
                           rc: 0.35,
                           lmax: 2}
    cutoffs: {filter: 1.98,
              core: 2.38}
    valence states:
      #              energy  rcut
      - 4s(2.00)   -20.121   1.111
      - 4p(5.00)    -7.861   1.111
      -  s           7.091   1.111
      -  p          19.351   1.111
      -  d           0.000   1.111
  
    # Using partial waves for Br as LCAO basis

  H:
    name: Hydrogen
    id: d65de229564ff8ea4db303e23b6d1ecf
    Z: 1.0
    valence: 1
    core: 0
    charge: 0.0
    file: /home/vazumah/.conda/envs/GPAW/share/gpaw/H.PBE.gz
    compensation charges: {type: gauss,
                           rc: 0.15,
                           lmax: 2}
    cutoffs: {filter: 0.85,
              core: 0.53}
    valence states:
      #              energy  rcut
      - 1s(1.00)    -6.494   0.476
      -  s          20.717   0.476
      -  p           0.000   0.476
  
    # Using partial waves for H as LCAO basis

  N:
    name: Nitrogen
    id: f7500608b86eaa90eef8b1d9a670dc53
    Z: 7.0
    valence: 5
    core: 2
    charge: 0.0
    file: /home/vazumah/.conda/envs/GPAW/share/gpaw/N.PBE.gz
    compensation charges: {type: gauss,
                           rc: 0.18,
                           lmax: 2}
    cutoffs: {filter: 1.11,
              core: 0.96}
    valence states:
      #              energy  rcut
      - 2s(2.00)   -18.583   0.603
      - 2p(3.00)    -7.089   0.529
      -  s           8.629   0.603
      -  p          20.123   0.529
      -  d           0.000   0.577
  
    # Using partial waves for N as LCAO basis

Reference energy: -81178.542429  # eV

Spin-paired calculation

Convergence criteria:
 Maximum [total energy] change in last 3 cyles: 0.0005 eV / electron
 Maximum integral of absolute [dens]ity change: 0.0001 electrons / valence electron
 Maximum integral of absolute [eigenst]ate change: 4e-08 eV^2 / valence electron
 Maximum number of scf [iter]ations: 333
 (Square brackets indicate name in SCF output, whereas a 'c' in
 the SCF output indicates the quantity has converged.)

Symmetries present (total): 1

  ( 1  0  0)
  ( 0  1  0)
  ( 0  0  1)

16 k-points: 4 x 4 x 1 Monkhorst-Pack grid
8 k-points in the irreducible part of the Brillouin zone
       k-points in crystal coordinates                weights
   0:     0.12500000   -0.37500000    0.00000000          2/16
   1:     0.12500000   -0.12500000    0.00000000          2/16
   2:     0.12500000    0.12500000    0.00000000          2/16
   3:     0.12500000    0.37500000    0.00000000          2/16
   4:     0.37500000   -0.37500000    0.00000000          2/16
   5:     0.37500000   -0.12500000    0.00000000          2/16
   6:     0.37500000    0.12500000    0.00000000          2/16
   7:     0.37500000    0.37500000    0.00000000          2/16

Wave functions: Uniform real-space grid
  Kinetic energy operator: 6*3+1=19 point O(h^6) finite-difference Laplacian
  ScaLapack parameters: grid=1x1, blocksize=None
  Wavefunction extrapolation:
    Improved wavefunction reuse through dual PAW basis 

Occupation numbers: Fermi-Dirac:
  width: 0.0500  # eV
 

Eigensolver
   Davidson(niter=2) 

Densities:
  Coarse grid: 60*60*168 grid
  Fine grid: 120*120*336 grid
  Total Charge: 0.000000 

Density mixing:
  Method: separate
  Backend: pulay
  Linear mixing parameter: 0.05
  old densities: 5
  Damping of long wavelength oscillations: 50 

Hamiltonian:
  XC and Coulomb potentials evaluated on a 120*120*336 grid
  Using the BEEF-vdW Exchange-Correlation functional
  Interpolation: tri-quintic (5. degree polynomial)
  Poisson solver: FastPoissonSolver using
    Stencil: 6*3+1=19 point O(h^6) finite-difference Laplacian
    FFT axes: [0, 1]
    FST axes: [2]

Dipole correction along z-axis 

XC parameters: BEEF-vdW with 2 nearest neighbor stencil

Memory estimate:
  Process memory now: 226.97 MiB
  Calculator: 395.41 MiB
    Density: 121.75 MiB
      Arrays: 39.61 MiB
      Localized functions: 67.04 MiB
      Mixer: 15.11 MiB
    Hamiltonian: 31.20 MiB
      Arrays: 25.90 MiB
      XC: 0.00 MiB
      Poisson: 0.00 MiB
      vbar: 5.30 MiB
    Wavefunctions: 242.46 MiB
      Arrays psit_nG: 111.79 MiB
      Eigensolver: 127.10 MiB
      Projections: 0.04 MiB
      Projectors: 3.53 MiB

Total number of cores used: 24
Parallelization over k-points: 8
Domain decomposition: 1 x 1 x 3

Number of atoms: 40
Number of atomic orbitals: 157
Number of bands in calculation: 37
Number of valence electrons: 54
Bands to converge: occupied

... initialized

Initializing position-dependent things.

Density initialized from atomic densities
Creating initial wave functions:
  37 bands from LCAO basis set

       .-----------------------.  
      /|                       |  
     / |                       |  
    /  |                       |  
   /   |                       |  
  /    |                       |  
 *     |                       |  
 |     |                       |  
 |     |                       |  
 |     |                       |  
 |     |                       |  
 |     |                       |  
 |     |                       |  
 |     |                       |  
 |     |          H   Br       |  
 |     |                       |  
 |   Li|     Li      LiN       |  
 |     |  Li      Li  N   Li   |  
 | Li  |   Li      Li          |  
 |     |Li      Li      Li     |  
 Li    | Li      Li            |  
 |   LLi     LLi     LLi       |  
 |     |  Li      Li      Li   |  
 | Li  |   Li      Li          |  
 |     |Li      Li      Li     |  
 Li    | Li      Li            |  
 |    Li      Li      Li       |  
 |     |                       |  
 |     |                       |  
 |     |                       |  
 |     |                       |  
 |     |                       |  
 |     |                       |  
 |     .-----------------------.  
 |    /                       /   
 |   /                       /    
 |  /                       /     
 | /                       /      
 |/                       /       
 *-----------------------*        

Positions:
   0 Li     1.617037    1.617037   10.000000    ( 0.0000,  0.0000,  0.0000)
   1 Li     4.851111    1.617037   10.000000    ( 0.0000,  0.0000,  0.0000)
   2 Li     8.085185    1.617037   10.000000    ( 0.0000,  0.0000,  0.0000)
   3 Li     1.617037    4.851111   10.000000    ( 0.0000,  0.0000,  0.0000)
   4 Li     4.851111    4.851111   10.000000    ( 0.0000,  0.0000,  0.0000)
   5 Li     8.085185    4.851111   10.000000    ( 0.0000,  0.0000,  0.0000)
   6 Li     1.617037    8.085185   10.000000    ( 0.0000,  0.0000,  0.0000)
   7 Li     4.851111    8.085185   10.000000    ( 0.0000,  0.0000,  0.0000)
   8 Li     8.085185    8.085185   10.000000    ( 0.0000,  0.0000,  0.0000)
   9 Li     0.000000    0.000000   11.617037    ( 0.0000,  0.0000,  0.0000)
  10 Li     3.234074    0.000000   11.617037    ( 0.0000,  0.0000,  0.0000)
  11 Li     6.468148    0.000000   11.617037    ( 0.0000,  0.0000,  0.0000)
  12 Li     0.000000    3.234074   11.617037    ( 0.0000,  0.0000,  0.0000)
  13 Li     3.234074    3.234074   11.617037    ( 0.0000,  0.0000,  0.0000)
  14 Li     6.468148    3.234074   11.617037    ( 0.0000,  0.0000,  0.0000)
  15 Li     0.000000    6.468148   11.617037    ( 0.0000,  0.0000,  0.0000)
  16 Li     3.234074    6.468148   11.617037    ( 0.0000,  0.0000,  0.0000)
  17 Li     6.468148    6.468148   11.617037    ( 0.0000,  0.0000,  0.0000)
  18 Li     1.617038    1.617038   13.469728    ( 0.0000,  0.0000,  0.0000)
  19 Li     4.851111    1.617038   13.469729    ( 0.0000,  0.0000,  0.0000)
  20 Li     8.085184    1.617038   13.469728    ( 0.0000,  0.0000,  0.0000)
  21 Li     1.617038    4.851111   13.469729    ( 0.0000,  0.0000,  0.0000)
  22 Li     4.851111    4.851111   13.469730    ( 0.0000,  0.0000,  0.0000)
  23 Li     8.085184    4.851111   13.469729    ( 0.0000,  0.0000,  0.0000)
  24 Li     1.617038    8.085184   13.469728    ( 0.0000,  0.0000,  0.0000)
  25 Li     4.851111    8.085184   13.469729    ( 0.0000,  0.0000,  0.0000)
  26 Li     8.085184    8.085184   13.469728    ( 0.0000,  0.0000,  0.0000)
  27 Li    -0.000000   -0.000000   15.445939    ( 0.0000,  0.0000,  0.0000)
  28 Li     3.234074    0.000000   15.445939    ( 0.0000,  0.0000,  0.0000)
  29 Li     6.468148    0.000000   15.445939    ( 0.0000,  0.0000,  0.0000)
  30 Li     0.000000    3.234074   15.445939    ( 0.0000,  0.0000,  0.0000)
  31 Li     3.234076    3.234076   15.445938    ( 0.0000,  0.0000,  0.0000)
  32 Li     6.468146    3.234076   15.445938    ( 0.0000,  0.0000,  0.0000)
  33 Li     0.000000    6.468148   15.445939    ( 0.0000,  0.0000,  0.0000)
  34 Li     3.234076    6.468146   15.445938    ( 0.0000,  0.0000,  0.0000)
  35 Li     6.468146    6.468146   15.445938    ( 0.0000,  0.0000,  0.0000)
  36 Br     8.085185    1.617037   19.445939    ( 0.0000,  0.0000,  0.0000)
  37 H      6.663328    1.617037   19.445939    ( 0.0000,  0.0000,  0.0000)
  38 N      8.085000    1.617000   17.445939    ( 0.0000,  0.0000,  0.0000)
  39 N      8.085000    2.713622   17.445939    ( 0.0000,  0.0000,  0.0000)

Unit cell:
           periodic     x           y           z      points  spacing
  1. axis:    yes    9.702222    0.000000    0.000000    60     0.1617
  2. axis:    yes    0.000000    9.702222    0.000000    60     0.1617
  3. axis:    no     0.000000    0.000000   26.851111   168     0.1598

  Lengths:   9.702222   9.702222  26.851111
  Angles:   90.000000  90.000000  90.000000

Effective grid spacing dv^(1/3) = 0.1611

     iter     time        total  log10-change:
                         energy  eigst   dens
iter:   1 01:12:14  -482.672540
iter:   2 01:14:49  -254.961803  +2.33  -0.07
iter:   3 01:17:13  -203.496753  +3.24  -0.22
iter:   4 01:19:45  -275.065275  +3.10  -0.18
Writing to output.gpw (mode='')

iter:   5 01:22:22  -265.712377  +2.71  -0.19
iter:   6 01:24:50  -298.503388  +2.54  -0.58
iter:   7 01:27:17  -319.849475  +2.22  -0.73
iter:   8 01:29:55  -334.147918  +1.97  -0.75
iter:   9 01:32:21  -340.721006  +1.88  -0.65
Writing to output.gpw (mode='')

iter:  10 01:34:49  -342.139053  +1.79  -0.70
iter:  11 01:37:14  -334.899605  +1.27  -0.64
iter:  12 01:39:44  -327.064903  +1.16  -0.74
iter:  13 01:42:19  -327.325741  +0.80  -0.98
iter:  14 01:44:51  -327.660307  +0.60  -0.97
Writing to output.gpw (mode='')

iter:  15 01:47:22  -327.496417  +0.60  -0.99
iter:  16 01:49:49  -326.798932  +0.59  -0.99
iter:  17 01:52:17  -326.724049  +0.04  -1.19
iter:  18 01:54:53  -326.835876  +0.35  -1.22
iter:  19 01:57:17  -326.666852  -0.01  -1.25
Writing to output.gpw (mode='')

iter:  20 01:59:51  -326.739919  -0.17  -1.38
iter:  21 02:02:19  -326.715874  -0.40  -1.47
iter:  22 02:04:50  -326.776364  -0.18  -1.47
iter:  23 02:07:20  -326.721360  -0.34  -1.57
iter:  24 02:09:55  -326.723906  -0.61  -1.76
Writing to output.gpw (mode='')

iter:  25 02:12:32  -326.740993c -0.78  -1.80
iter:  26 02:14:57  -326.741373c -1.08  -1.85
iter:  27 02:17:23  -326.755385c -0.93  -1.91
iter:  28 02:19:53  -326.762567c -1.15  -2.04
iter:  29 02:22:20  -326.770492c -1.12  -2.14
Writing to output.gpw (mode='')

iter:  30 02:25:00  -326.771586c -1.52  -2.19
iter:  31 02:27:24  -326.775600c -1.38  -2.35
iter:  32 02:30:00  -326.779164c -1.70  -2.53
iter:  33 02:32:31  -326.782493c -1.65  -2.64
iter:  34 02:35:09  -326.786862c -1.54  -2.69
Writing to output.gpw (mode='')

iter:  35 02:37:38  -326.789450c -1.86  -2.76
iter:  36 02:40:00  -326.791551c -1.89  -2.83
iter:  37 02:42:22  -326.792992c -2.16  -2.86
iter:  38 02:44:46  -326.794391c -2.23  -2.94
iter:  39 02:47:17  -326.795737c -2.20  -3.14
Writing to output.gpw (mode='')

iter:  40 02:49:52  -326.796568c -2.44  -3.16
iter:  41 02:52:23  -326.797381c -2.35  -3.20
iter:  42 02:54:57  -326.798288c -2.36  -3.26
iter:  43 02:57:23  -326.798953c -2.46  -3.36
iter:  44 02:59:56  -326.799529c -2.52  -3.43
Writing to output.gpw (mode='')

iter:  45 03:02:32  -326.799969c -2.77  -3.50
iter:  46 03:05:03  -326.800338c -2.92  -3.77
iter:  47 03:07:41  -326.800652c -2.78  -3.74
iter:  48 03:10:18  -326.800922c -2.87  -3.80
iter:  49 03:12:55  -326.801208c -2.80  -3.76
Writing to output.gpw (mode='')

iter:  50 03:15:24  -326.801485c -2.70  -3.66
iter:  51 03:17:56  -326.801695c -2.99  -3.61
iter:  52 03:20:23  -326.801881c -3.10  -3.51
iter:  53 03:22:55  -326.802024c -3.24  -3.55
iter:  54 03:25:23  -326.802160c -3.13  -3.61
Writing to output.gpw (mode='')

iter:  55 03:28:03  -326.802293c -3.06  -3.57
iter:  56 03:30:29  -326.802435c -3.03  -3.54
iter:  57 03:32:58  -326.802572c -3.16  -3.51
iter:  58 03:35:25  -326.802651c -3.48  -3.50
iter:  59 03:37:49  -326.802724c -3.55  -3.40
Writing to output.gpw (mode='')

iter:  60 03:39:18  -326.802775c -3.72  -3.58
iter:  61 03:40:09  -326.802848c -3.48  -3.56
iter:  62 03:41:00  -326.802906c -3.41  -3.53
iter:  63 03:41:51  -326.802953c -3.47  -3.53
iter:  64 03:42:42  -326.802991c -3.62  -3.51
Writing to output.gpw (mode='')

iter:  65 03:43:35  -326.803008c -3.93  -3.48
iter:  66 03:44:26  -326.803035c -3.92  -3.61
iter:  67 03:45:17  -326.803062c -3.89  -3.61
iter:  68 03:46:08  -326.803081c -3.88  -3.60
iter:  69 03:46:59  -326.803104c -3.90  -3.52
Writing to output.gpw (mode='')

iter:  70 03:47:52  -326.803119c -4.04  -3.55
iter:  71 03:48:43  -326.803137c -4.14  -3.60
iter:  72 03:49:34  -326.803156c -4.04  -3.55
iter:  73 03:50:25  -326.803149c -3.92  -3.61
iter:  74 03:51:16  -326.803182c -3.97  -3.60
Writing to output.gpw (mode='')

iter:  75 03:52:10  -326.803181c -4.25  -3.61
iter:  76 03:53:01  -326.803214c -4.32  -3.59
iter:  77 03:53:52  -326.803218c -4.16  -3.77
iter:  78 03:54:43  -326.803225c -4.50  -3.83
iter:  79 03:55:34  -326.803232c -4.47  -3.84
Writing to output.gpw (mode='')

iter:  80 03:56:26  -326.803238c -4.34  -3.84
iter:  81 03:57:17  -326.803237c -4.48  -3.87
iter:  82 03:58:08  -326.803242c -4.73  -4.28c
iter:  83 03:58:59  -326.803250c -4.58  -4.34c
iter:  84 03:59:50  -326.803256c -4.55  -4.45c
Writing to output.gpw (mode='')

iter:  85 04:00:42  -326.803259c -4.33  -4.52c
iter:  86 04:01:33  -326.803264c -4.42  -4.63c
iter:  87 04:02:24  -326.803264c -4.53  -4.76c
iter:  88 04:03:16  -326.803266c -4.73  -4.83c
iter:  89 04:04:07  -326.803268c -4.79  -4.84c
Writing to output.gpw (mode='')

iter:  90 04:04:59  -326.803269c -4.92  -4.94c
iter:  91 04:05:50  -326.803270c -4.72  -5.04c
iter:  92 04:06:41  -326.803271c -4.99  -5.03c
iter:  93 04:07:32  -326.803273c -4.99  -5.11c
iter:  94 04:08:23  -326.803273c -5.12  -5.24c
Writing to output.gpw (mode='')

iter:  95 04:09:16  -326.803273c -5.16  -5.35c
iter:  96 04:10:07  -326.803273c -5.13  -5.32c
iter:  97 04:10:58  -326.803273c -5.06  -5.16c
iter:  98 04:11:49  -326.803273c -5.26  -5.12c
iter:  99 04:12:40  -326.803273c -5.38  -5.12c
Writing to output.gpw (mode='')

iter: 100 04:13:32  -326.803273c -5.41  -5.07c
iter: 101 04:14:23  -326.803273c -5.45  -5.03c
iter: 102 04:15:14  -326.803273c -5.46  -5.01c
iter: 103 04:16:05  -326.803272c -5.34  -5.00c
iter: 104 04:16:56  -326.803273c -5.25  -4.94c
Writing to output.gpw (mode='')

iter: 105 04:17:49  -326.803272c -5.75  -4.88c
iter: 106 04:18:40  -326.803272c -5.80  -4.88c
iter: 107 04:19:31  -326.803272c -5.71  -4.85c
iter: 108 04:20:22  -326.803272c -5.66  -4.84c
iter: 109 04:21:14  -326.803272c -5.82  -4.80c
Writing to output.gpw (mode='')

iter: 110 04:22:06  -326.803271c -5.68  -4.87c
iter: 111 04:22:57  -326.803272c -5.93  -4.78c
iter: 112 04:23:49  -326.803271c -6.02  -4.84c
iter: 113 04:24:40  -326.803272c -5.97  -4.73c
iter: 114 04:25:31  -326.803274c -5.97  -4.95c
Writing to output.gpw (mode='')

iter: 115 04:26:25  -326.803274c -6.06  -5.17c
iter: 116 04:27:16  -326.803273c -5.83  -5.21c
iter: 117 04:28:07  -326.803273c -6.03  -5.31c
iter: 118 04:28:58  -326.803273c -5.90  -5.38c
iter: 119 04:29:49  -326.803273c -6.10  -5.41c
Writing to output.gpw (mode='')

iter: 120 04:30:41  -326.803273c -6.21  -5.50c
iter: 121 04:31:32  -326.803273c -6.25  -5.67c
iter: 122 04:32:23  -326.803273c -6.25  -5.74c
iter: 123 04:33:14  -326.803273c -6.38  -5.73c
iter: 124 04:34:05  -326.803272c -6.11  -5.68c
Writing to output.gpw (mode='')

iter: 125 04:34:57  -326.803272c -6.42  -5.68c
iter: 126 04:35:48  -326.803272c -6.43  -5.64c
iter: 127 04:36:39  -326.803272c -6.54  -5.62c
iter: 128 04:37:30  -326.803272c -6.33  -5.52c
iter: 129 04:38:21  -326.803272c -6.49  -5.45c
Writing to output.gpw (mode='')

iter: 130 04:39:14  -326.803272c -6.59  -5.50c
iter: 131 04:40:06  -326.803272c -6.43  -5.40c
iter: 132 04:40:57  -326.803272c -6.47  -5.47c
iter: 133 04:41:48  -326.803272c -6.74  -5.53c
iter: 134 04:42:39  -326.803272c -6.59  -5.52c
Writing to output.gpw (mode='')

iter: 135 04:43:30  -326.803272c -6.67  -5.67c
iter: 136 04:44:21  -326.803272c -6.71  -5.74c
iter: 137 04:45:12  -326.803272c -6.89  -6.17c
iter: 138 04:46:04  -326.803272c -6.87  -6.19c
iter: 139 04:46:55  -326.803272c -6.89  -6.20c
Writing to output.gpw (mode='')

iter: 140 04:47:47  -326.803272c -6.63  -6.32c
iter: 141 04:48:38  -326.803272c -6.93  -6.38c
iter: 142 04:49:29  -326.803272c -6.90  -6.35c
iter: 143 04:50:20  -326.803272c -6.95  -6.36c
iter: 144 04:51:11  -326.803272c -7.02  -6.44c
Writing to output.gpw (mode='')

iter: 145 04:52:04  -326.803272c -7.00  -6.44c
iter: 146 04:52:55  -326.803271c -7.18  -6.42c
iter: 147 04:53:46  -326.803271c -7.10  -6.22c
iter: 148 04:54:37  -326.803271c -7.13  -6.23c
iter: 149 04:55:28  -326.803271c -7.09  -6.23c
Writing to output.gpw (mode='')

iter: 150 04:56:20  -326.803271c -7.21  -6.21c
iter: 151 04:57:11  -326.803271c -7.29  -6.27c
iter: 152 04:58:02  -326.803271c -7.22  -6.21c
iter: 153 04:58:53  -326.803271c -7.31  -6.16c
iter: 154 04:59:44  -326.803271c -7.12  -6.22c
Writing to output.gpw (mode='')

iter: 155 05:00:38  -326.803271c -7.34  -6.16c
iter: 156 05:01:29  -326.803271c -7.43c -6.06c

Converged after 156 iterations.

Dipole moment: (-1.854265, -3.659717, 0.055833) |e|*Ang

Energy contributions relative to reference atoms: (reference = -81178.542429)

Kinetic:       +136.041964
Potential:     -119.631171
External:        +0.000000
XC:            -343.349537
Entropy (-ST):   -0.157278
Local:           +0.214112
--------------------------
Free energy:   -326.881910
Extrapolated:  -326.803271

Dipole-layer corrected work functions: 3.391768, 3.284437 eV

Showing only first 2 kpts
 Kpt  Band  Eigenvalues  Occupancy
  0    25     -3.59058    1.98726
  0    26     -3.50877    1.93624
  0    27     -3.18403    0.08776
  0    28     -3.10307    0.01801

  1    25     -3.37175    1.32433
  1    26     -3.33039    0.92299
  1    27     -3.30849    0.71226
  1    28     -3.26884    0.40032


Fermi level: -3.33810

No gap
Writing to output.gpw (mode='')


Forces in eV/Ang:
  0 Li    0.02010    0.00150   -0.27174
  1 Li   -0.02019    0.00144   -0.27150
  2 Li   -0.00012   -0.00933   -0.27361
  3 Li    0.00377    0.00131   -0.27328
  4 Li   -0.00471    0.00032   -0.27343
  5 Li    0.00113    0.02238   -0.26943
  6 Li   -0.00353    0.00071   -0.27896
  7 Li    0.00236    0.00188   -0.27835
  8 Li    0.00084   -0.01552   -0.27013
  9 Li    0.00256   -0.01057    0.26648
 10 Li    0.00150    0.01527    0.25222
 11 Li   -0.00346   -0.00941    0.26775
 12 Li   -0.00622    0.00201    0.29364
 13 Li   -0.00038   -0.00529    0.23671
 14 Li    0.00617    0.00154    0.29489
 15 Li   -0.00318    0.01306    0.24074
 16 Li   -0.00025   -0.01472    0.27138
 17 Li    0.00314    0.01206    0.24392
 18 Li   -0.01606    0.00679    0.05619
 19 Li    0.01623    0.00655    0.06163
 20 Li    0.00013   -0.01823   -0.13133
 21 Li   -0.02077   -0.01487    0.05550
 22 Li    0.01978   -0.01463    0.05438
 23 Li    0.00139    0.01864    0.00073
 24 Li    0.00297    0.00274    0.03853
 25 Li   -0.00241    0.00303    0.03743
 26 Li   -0.00025    0.00401    0.05157
 27 Li    0.04180   -0.08820   -0.04455
 28 Li    0.00368    0.02775   -0.00772
 29 Li   -0.04719   -0.08740   -0.05324
 30 Li   -0.00599    0.05588    0.00002
 31 Li    0.00686   -0.01535   -0.01375
 32 Li    0.01071    0.05635    0.00159
 33 Li    0.00485    0.01091   -0.03182
 34 Li    0.00005   -0.00892   -0.01401
 35 Li   -0.00491    0.01380   -0.03075
 36 Br    0.52091   -2.63518   10.40065
 37 H    -0.44953    0.01663   -0.14510
 38 N    -0.03249   -3.83903   -5.46034
 39 N    -0.05081    6.52431   -4.71445

System changes: positions 

Initializing position-dependent things.

Density initialized from wave functions
       .-----------------------.  
      /|                       |  
     / |                       |  
    /  |                       |  
   /   |                       |  
  /    |                       |  
 *     |                       |  
 |     |                       |  
 |     |                       |  
 |     |                       |  
 |     |                       |  
 |     |                       |  
 |     |                       |  
 |     |                       |  
 |     Li         H   Bri      |  
 |     |                       |  
 |   Li|     Li      LiN       |  
 |     |  Li      Li  N   Li   |  
 |     |   Li      Li      Li  |  
 |     |Li      Li      Li     |  
 |     | Li                    |  
 |   LLi     LLi     LLi       |  
 |     |  Li      Li      Li   |  
 | Li  |   Li      Li          |  
 |     |Li      Li      Li     |  
 Li    | Li      Li            |  
 |    Li      Li      Li       |  
 |     |                       |  
 |     |                       |  
 |     |                       |  
 |     |                       |  
 |     |                       |  
 |     |                       |  
 |     .-----------------------.  
 |    /                       /   
 |   /                       /    
 |  /                       /     
 | /                       /      
 |/                       /       
 *-----------------------*        

Positions:
   0 Li     1.617037    1.617037   10.000000    ( 0.0000,  0.0000,  0.0000)
   1 Li     4.851111    1.617037   10.000000    ( 0.0000,  0.0000,  0.0000)
   2 Li     8.085185    1.617037   10.000000    ( 0.0000,  0.0000,  0.0000)
   3 Li     1.617037    4.851111   10.000000    ( 0.0000,  0.0000,  0.0000)
   4 Li     4.851111    4.851111   10.000000    ( 0.0000,  0.0000,  0.0000)
   5 Li     8.085185    4.851111   10.000000    ( 0.0000,  0.0000,  0.0000)
   6 Li     1.617037    8.085185   10.000000    ( 0.0000,  0.0000,  0.0000)
   7 Li     4.851111    8.085185   10.000000    ( 0.0000,  0.0000,  0.0000)
   8 Li     8.085185    8.085185   10.000000    ( 0.0000,  0.0000,  0.0000)
   9 Li     0.000000    0.000000   11.617037    ( 0.0000,  0.0000,  0.0000)
  10 Li     3.234074    0.000000   11.617037    ( 0.0000,  0.0000,  0.0000)
  11 Li     6.468148    0.000000   11.617037    ( 0.0000,  0.0000,  0.0000)
  12 Li     0.000000    3.234074   11.617037    ( 0.0000,  0.0000,  0.0000)
  13 Li     3.234074    3.234074   11.617037    ( 0.0000,  0.0000,  0.0000)
  14 Li     6.468148    3.234074   11.617037    ( 0.0000,  0.0000,  0.0000)
  15 Li     0.000000    6.468148   11.617037    ( 0.0000,  0.0000,  0.0000)
  16 Li     3.234074    6.468148   11.617037    ( 0.0000,  0.0000,  0.0000)
  17 Li     6.468148    6.468148   11.617037    ( 0.0000,  0.0000,  0.0000)
  18 Li     1.616978    1.617063   13.469937    ( 0.0000,  0.0000,  0.0000)
  19 Li     4.851171    1.617063   13.469959    ( 0.0000,  0.0000,  0.0000)
  20 Li     8.085184    1.616970   13.469239    ( 0.0000,  0.0000,  0.0000)
  21 Li     1.616961    4.851056   13.469936    ( 0.0000,  0.0000,  0.0000)
  22 Li     4.851185    4.851057   13.469933    ( 0.0000,  0.0000,  0.0000)
  23 Li     8.085189    4.851180   13.469732    ( 0.0000,  0.0000,  0.0000)
  24 Li     1.617049    8.085194   13.469871    ( 0.0000,  0.0000,  0.0000)
  25 Li     4.851102    8.085195   13.469869    ( 0.0000,  0.0000,  0.0000)
  26 Li     8.085183    8.085199   13.469920    ( 0.0000,  0.0000,  0.0000)
  27 Li     0.000156   -0.000328   15.445773    ( 0.0000,  0.0000,  0.0000)
  28 Li     3.234087    0.000103   15.445910    ( 0.0000,  0.0000,  0.0000)
  29 Li     6.467973   -0.000325   15.445741    ( 0.0000,  0.0000,  0.0000)
  30 Li    -0.000022    3.234282   15.445939    ( 0.0000,  0.0000,  0.0000)
  31 Li     3.234102    3.234019   15.445887    ( 0.0000,  0.0000,  0.0000)
  32 Li     6.468185    3.234286   15.445944    ( 0.0000,  0.0000,  0.0000)
  33 Li     0.000018    6.468189   15.445820    ( 0.0000,  0.0000,  0.0000)
  34 Li     3.234077    6.468112   15.445886    ( 0.0000,  0.0000,  0.0000)
  35 Li     6.468127    6.468197   15.445824    ( 0.0000,  0.0000,  0.0000)
  36 Br     8.087125    1.607224   19.484669    ( 0.0000,  0.0000,  0.0000)
  37 H      6.661654    1.617099   19.445399    ( 0.0000,  0.0000,  0.0000)
  38 N      8.084879    1.602705   17.425607    ( 0.0000,  0.0000,  0.0000)
  39 N      8.084811    2.737917   17.428384    ( 0.0000,  0.0000,  0.0000)

Unit cell:
           periodic     x           y           z      points  spacing
  1. axis:    yes    9.702222    0.000000    0.000000    60     0.1617
  2. axis:    yes    0.000000    9.702222    0.000000    60     0.1617
  3. axis:    no     0.000000    0.000000   26.851111   168     0.1598

  Lengths:   9.702222   9.702222  26.851111
  Angles:   90.000000  90.000000  90.000000

Effective grid spacing dv^(1/3) = 0.1611

     iter     time        total  log10-change:
                         energy  eigst   dens
iter:   1 05:02:43  -328.998041  -0.15
iter:   2 05:03:33  -328.562711  +0.26  -1.01
iter:   3 05:04:24  -327.480427  -0.36  -1.05
iter:   4 05:05:15  -327.483327  -0.86  -1.76
Writing to output.gpw (mode='')

iter:   5 05:06:10  -327.493510c -0.59  -1.87
iter:   6 05:07:01  -327.486926c -1.29  -1.88
iter:   7 05:07:52  -327.511663c -1.27  -2.13
iter:   8 05:08:43  -327.503279c -1.95  -2.13
iter:   9 05:09:34  -327.491436c -1.44  -2.18
Writing to output.gpw (mode='')

iter:  10 05:10:26  -327.493715c -2.44  -2.21
iter:  11 05:11:16  -327.490948c -1.91  -2.24
iter:  12 05:12:07  -327.487910c -2.26  -2.43
iter:  13 05:12:58  -327.490937c -2.77  -2.43
iter:  14 05:13:49  -327.489297c -3.13  -2.63
Writing to output.gpw (mode='')

iter:  15 05:14:42  -327.488771c -3.02  -2.72
iter:  16 05:15:33  -327.489116c -3.32  -2.84
iter:  17 05:16:24  -327.488970c -3.40  -2.88
iter:  18 05:17:15  -327.489069c -3.55  -3.09
iter:  19 05:18:06  -327.489018c -3.72  -3.22
Writing to output.gpw (mode='')

iter:  20 05:18:58  -327.488910c -3.66  -3.27
iter:  21 05:19:49  -327.488985c -4.19  -3.34
iter:  22 05:20:40  -327.489021c -4.06  -3.38
iter:  23 05:21:31  -327.488995c -4.19  -3.71
iter:  24 05:22:22  -327.489015c -4.44  -3.73
Writing to output.gpw (mode='')

iter:  25 05:23:14  -327.489008c -4.21  -3.73
iter:  26 05:24:06  -327.488977c -4.38  -3.63
iter:  27 05:24:57  -327.489040c -4.66  -3.57
iter:  28 05:25:48  -327.489039c -5.06  -3.87
iter:  29 05:26:39  -327.489038c -5.16  -3.88
Writing to output.gpw (mode='')

iter:  30 05:27:31  -327.489047c -5.14  -3.90
iter:  31 05:28:22  -327.489053c -4.95  -3.91
iter:  32 05:29:13  -327.489033c -5.37  -4.09c
iter:  33 05:30:04  -327.489048c -5.13  -4.13c
iter:  34 05:30:55  -327.489048c -5.47  -4.32c
Writing to output.gpw (mode='')

iter:  35 05:31:47  -327.489051c -5.42  -4.37c
iter:  36 05:32:39  -327.489050c -5.54  -4.36c
iter:  37 05:33:30  -327.489051c -5.68  -4.37c
iter:  38 05:34:21  -327.489050c -5.50  -4.34c
iter:  39 05:35:12  -327.489051c -5.64  -4.48c
Writing to output.gpw (mode='')

iter:  40 05:36:04  -327.489052c -5.89  -4.46c
iter:  41 05:36:55  -327.489054c -5.84  -4.47c
iter:  42 05:37:46  -327.489061c -6.09  -4.45c
iter:  43 05:38:37  -327.489057c -6.01  -4.54c
iter:  44 05:39:28  -327.489058c -5.93  -4.62c
Writing to output.gpw (mode='')

iter:  45 05:40:20  -327.489061c -5.79  -4.64c
iter:  46 05:41:11  -327.489060c -6.02  -4.69c
iter:  47 05:42:02  -327.489064c -6.26  -4.80c
iter:  48 05:42:53  -327.489064c -6.48  -4.88c
iter:  49 05:43:44  -327.489068c -6.27  -4.92c
Writing to output.gpw (mode='')

iter:  50 05:44:38  -327.489067c -6.63  -4.97c
iter:  51 05:45:29  -327.489066c -6.70  -5.07c
iter:  52 05:46:20  -327.489066c -6.72  -5.06c
iter:  53 05:47:11  -327.489065c -6.72  -5.04c
iter:  54 05:48:02  -327.489066c -6.58  -5.07c
Writing to output.gpw (mode='')

iter:  55 05:48:54  -327.489066c -6.92  -5.02c
iter:  56 05:49:45  -327.489065c -7.01  -5.02c
iter:  57 05:50:37  -327.489063c -6.80  -5.01c
iter:  58 05:51:28  -327.489063c -6.89  -4.92c
iter:  59 05:52:19  -327.489067c -7.15  -4.90c
Writing to output.gpw (mode='')

iter:  60 05:53:10  -327.489067c -6.95  -4.98c
iter:  61 05:54:02  -327.489067c -7.15  -4.99c
iter:  62 05:54:53  -327.489067c -7.25  -4.99c
iter:  63 05:55:44  -327.489067c -7.10  -4.96c
iter:  64 05:56:35  -327.489068c -7.29  -4.91c
Writing to output.gpw (mode='')

iter:  65 05:57:27  -327.489068c -7.34  -4.99c
iter:  66 05:58:18  -327.489068c -7.31  -4.91c
iter:  67 05:59:09  -327.489067c -7.41c -5.09c

Converged after 67 iterations.

Dipole moment: (-1.971697, -3.597460, 0.028562) |e|*Ang

Energy contributions relative to reference atoms: (reference = -81178.542429)

Kinetic:       +126.485554
Potential:     -112.258199
External:        +0.000000
XC:            -341.860863
Entropy (-ST):   -0.162263
Local:           +0.225573
--------------------------
Free energy:   -327.570199
Extrapolated:  -327.489067

Dipole-layer corrected work functions: 3.395225, 3.340318 eV

Showing only first 2 kpts
 Kpt  Band  Eigenvalues  Occupancy
  0    25     -3.61905    1.98695
  0    26     -3.53586    1.93298
  0    27     -3.23202    0.12418
  0    28     -3.13728    0.01971

  1    25     -3.39551    1.27047
  1    26     -3.36318    0.95415
  1    27     -3.34016    0.73069
  1    28     -3.29537    0.38058


Fermi level: -3.36777

No gap
Writing to output.gpw (mode='')


Forces in eV/Ang:
  0 Li    0.02117    0.00153   -0.27258
  1 Li   -0.02119    0.00144   -0.27215
  2 Li   -0.00016   -0.00975   -0.27466
  3 Li    0.00474    0.00177   -0.27361
  4 Li   -0.00549    0.00092   -0.27387
  5 Li    0.00093    0.02244   -0.26942
  6 Li   -0.00261    0.00114   -0.27963
  7 Li    0.00173    0.00216   -0.27910
  8 Li    0.00064   -0.01551   -0.26973
  9 Li    0.00261   -0.01010    0.26787
 10 Li    0.00128    0.01501    0.25029
 11 Li   -0.00338   -0.00907    0.26848
 12 Li   -0.00667    0.00174    0.29727
 13 Li   -0.00027   -0.00521    0.23508
 14 Li    0.00660    0.00122    0.29823
 15 Li   -0.00377    0.01375    0.24088
 16 Li   -0.00018   -0.01573    0.27061
 17 Li    0.00361    0.01289    0.24370
 18 Li   -0.01316    0.00676    0.05175
 19 Li    0.01349    0.00652    0.05770
 20 Li   -0.00010   -0.01900   -0.13649
 21 Li   -0.02145   -0.01634    0.05512
 22 Li    0.02052   -0.01635    0.05445
 23 Li    0.00130    0.02075   -0.00482
 24 Li    0.00201    0.00282    0.03901
 25 Li   -0.00159    0.00349    0.03854
 26 Li   -0.00014    0.00312    0.04869
 27 Li    0.02886   -0.07628   -0.01886
 28 Li    0.00369    0.02470   -0.01206
 29 Li   -0.03381   -0.07665   -0.02963
 30 Li   -0.03602    0.03511    0.05302
 31 Li    0.00651   -0.01216   -0.01883
 32 Li    0.04016    0.03720    0.05194
 33 Li    0.00697    0.00888   -0.03124
 34 Li    0.00028   -0.00821   -0.01470
 35 Li   -0.00726    0.01184   -0.03040
 36 Br    0.35423   -2.20999    8.64644
 37 H    -0.29005    0.02777   -0.12172
 38 N    -0.01209    0.56112   -4.67011
 39 N    -0.06485    1.59574   -3.95315

System changes: positions 

Initializing position-dependent things.

Density initialized from wave functions
       .-----------------------.  
      /|                       |  
     / |                       |  
    /  |                       |  
   /   |                       |  
  /    |                       |  
 *     |                       |  
 |     |                       |  
 |     |                       |  
 |     |                       |  
 |     |                       |  
 |     |                       |  
 |     |                       |  
 |     |                       |  
 |     Li         H   Bri      |  
 |     |                       |  
 |   Li|     Li      LiN       |  
 |     |  Li      Li  N   Li   |  
 |     |   Li      Li      Li  |  
 |     |Li      Li      Li     |  
 |     | Li                    |  
 |   LLi     LLi     LLi       |  
 |     |  Li      Li      Li   |  
 | Li  |   Li      Li          |  
 |     |Li      Li      Li     |  
 Li    | Li      Li            |  
 |    Li      Li      Li       |  
 |     |                       |  
 |     |                       |  
 |     |                       |  
 |     |                       |  
 |     |                       |  
 |     |                       |  
 |     .-----------------------.  
 |    /                       /   
 |   /                       /    
 |  /                       /     
 | /                       /      
 |/                       /       
 *-----------------------*        

Positions:
   0 Li     1.617037    1.617037   10.000000    ( 0.0000,  0.0000,  0.0000)
   1 Li     4.851111    1.617037   10.000000    ( 0.0000,  0.0000,  0.0000)
   2 Li     8.085185    1.617037   10.000000    ( 0.0000,  0.0000,  0.0000)
   3 Li     1.617037    4.851111   10.000000    ( 0.0000,  0.0000,  0.0000)
   4 Li     4.851111    4.851111   10.000000    ( 0.0000,  0.0000,  0.0000)
   5 Li     8.085185    4.851111   10.000000    ( 0.0000,  0.0000,  0.0000)
   6 Li     1.617037    8.085185   10.000000    ( 0.0000,  0.0000,  0.0000)
   7 Li     4.851111    8.085185   10.000000    ( 0.0000,  0.0000,  0.0000)
   8 Li     8.085185    8.085185   10.000000    ( 0.0000,  0.0000,  0.0000)
   9 Li     0.000000    0.000000   11.617037    ( 0.0000,  0.0000,  0.0000)
  10 Li     3.234074    0.000000   11.617037    ( 0.0000,  0.0000,  0.0000)
  11 Li     6.468148    0.000000   11.617037    ( 0.0000,  0.0000,  0.0000)
  12 Li     0.000000    3.234074   11.617037    ( 0.0000,  0.0000,  0.0000)
  13 Li     3.234074    3.234074   11.617037    ( 0.0000,  0.0000,  0.0000)
  14 Li     6.468148    3.234074   11.617037    ( 0.0000,  0.0000,  0.0000)
  15 Li     0.000000    6.468148   11.617037    ( 0.0000,  0.0000,  0.0000)
  16 Li     3.234074    6.468148   11.617037    ( 0.0000,  0.0000,  0.0000)
  17 Li     6.468148    6.468148   11.617037    ( 0.0000,  0.0000,  0.0000)
  18 Li     1.616920    1.617095   13.470176    ( 0.0000,  0.0000,  0.0000)
  19 Li     4.851232    1.617094   13.470226    ( 0.0000,  0.0000,  0.0000)
  20 Li     8.085184    1.616880   13.468589    ( 0.0000,  0.0000,  0.0000)
  21 Li     1.616859    4.850977   13.470196    ( 0.0000,  0.0000,  0.0000)
  22 Li     4.851282    4.850977   13.470190    ( 0.0000,  0.0000,  0.0000)
  23 Li     8.085195    4.851281   13.469703    ( 0.0000,  0.0000,  0.0000)
  24 Li     1.617058    8.085207   13.470056    ( 0.0000,  0.0000,  0.0000)
  25 Li     4.851095    8.085212   13.470052    ( 0.0000,  0.0000,  0.0000)
  26 Li     8.085182    8.085212   13.470146    ( 0.0000,  0.0000,  0.0000)
  27 Li     0.000277   -0.000674   15.445714    ( 0.0000,  0.0000,  0.0000)
  28 Li     3.234105    0.000216   15.445848    ( 0.0000,  0.0000,  0.0000)
  29 Li     6.467829   -0.000674   15.445628    ( 0.0000,  0.0000,  0.0000)
  30 Li    -0.000227    3.234423   15.446251    ( 0.0000,  0.0000,  0.0000)
  31 Li     3.234132    3.233966   15.445792    ( 0.0000,  0.0000,  0.0000)
  32 Li     6.468409    3.234439   15.446247    ( 0.0000,  0.0000,  0.0000)
  33 Li     0.000053    6.468228   15.445674    ( 0.0000,  0.0000,  0.0000)
  34 Li     3.234078    6.468074   15.445816    ( 0.0000,  0.0000,  0.0000)
  35 Li     6.468090    6.468250   15.445681    ( 0.0000,  0.0000,  0.0000)
  36 Br     8.088601    1.597300   19.523390    ( 0.0000,  0.0000,  0.0000)
  37 H      6.660473    1.617243   19.444852    ( 0.0000,  0.0000,  0.0000)
  38 N      8.084846    1.610472   17.404509    ( 0.0000,  0.0000,  0.0000)
  39 N      8.084489    2.739702   17.410633    ( 0.0000,  0.0000,  0.0000)

Unit cell:
           periodic     x           y           z      points  spacing
  1. axis:    yes    9.702222    0.000000    0.000000    60     0.1617
  2. axis:    yes    0.000000    9.702222    0.000000    60     0.1617
  3. axis:    no     0.000000    0.000000   26.851111   168     0.1598

  Lengths:   9.702222   9.702222  26.851111
  Angles:   90.000000  90.000000  90.000000

Effective grid spacing dv^(1/3) = 0.1611

     iter     time        total  log10-change:
                         energy  eigst   dens
iter:   1 06:00:22  -328.083975  -1.14
iter:   2 06:01:13  -328.021316  -0.99  -1.62
iter:   3 06:02:04  -328.003154  -1.97  -1.78
iter:   4 06:02:56  -327.997824c -1.21  -2.20
Writing to output.gpw (mode='')

iter:   5 06:03:50  -327.989735c -2.24  -1.95
iter:   6 06:04:41  -328.001400c -1.67  -2.21
iter:   7 06:05:32  -327.992480c -2.21  -2.15
iter:   8 06:06:23  -327.988582c -2.42  -2.41
iter:   9 06:07:14  -327.987993c -2.75  -2.61
Writing to output.gpw (mode='')

iter:  10 06:08:07  -327.988451c -2.81  -2.72
iter:  11 06:08:58  -327.987673c -2.92  -2.96
iter:  12 06:09:49  -327.987970c -3.62  -3.10
iter:  13 06:10:40  -327.987980c -3.79  -3.19
iter:  14 06:11:31  -327.987978c -3.70  -3.19
Writing to output.gpw (mode='')

iter:  15 06:12:23  -327.988006c -3.58  -3.19
iter:  16 06:13:14  -327.987986c -3.91  -3.32
iter:  17 06:14:05  -327.987972c -3.95  -3.36
iter:  18 06:14:56  -327.987991c -4.06  -3.37
iter:  19 06:15:47  -327.988164c -4.23  -3.44
Writing to output.gpw (mode='')

iter:  20 06:16:39  -327.988106c -4.65  -3.70
iter:  21 06:17:30  -327.988126c -4.82  -3.82
iter:  22 06:18:21  -327.988118c -4.70  -3.87
iter:  23 06:19:12  -327.988137c -4.76  -4.05c
iter:  24 06:20:03  -327.988131c -4.95  -4.16c
Writing to output.gpw (mode='')

iter:  25 06:20:55  -327.988131c -4.97  -4.25c
iter:  26 06:21:46  -327.988142c -5.13  -4.37c
iter:  27 06:22:37  -327.988150c -5.26  -4.37c
iter:  28 06:23:28  -327.988149c -5.40  -4.51c
iter:  29 06:24:19  -327.988151c -5.47  -4.61c
Writing to output.gpw (mode='')

iter:  30 06:25:11  -327.988152c -5.72  -4.64c
iter:  31 06:26:02  -327.988154c -5.57  -4.69c
iter:  32 06:26:54  -327.988156c -5.73  -4.75c
iter:  33 06:27:45  -327.988158c -5.91  -4.79c
iter:  34 06:28:36  -327.988159c -5.94  -5.04c
Writing to output.gpw (mode='')

iter:  35 06:29:28  -327.988159c -6.08  -5.19c
iter:  36 06:30:18  -327.988159c -6.08  -5.23c
iter:  37 06:31:10  -327.988159c -5.96  -5.20c
iter:  38 06:32:01  -327.988160c -6.23  -5.13c
iter:  39 06:32:52  -327.988160c -6.27  -5.11c
Writing to output.gpw (mode='')

iter:  40 06:33:44  -327.988159c -6.32  -5.08c
iter:  41 06:34:35  -327.988159c -6.49  -5.03c
iter:  42 06:35:26  -327.988159c -6.56  -4.95c
iter:  43 06:36:17  -327.988160c -6.31  -4.95c
iter:  44 06:37:08  -327.988162c -6.59  -4.93c
Writing to output.gpw (mode='')

iter:  45 06:38:00  -327.988161c -6.71  -5.01c
iter:  46 06:38:51  -327.988164c -6.59  -4.95c
iter:  47 06:39:42  -327.988164c -6.75  -5.04c
iter:  48 06:40:34  -327.988165c -6.62  -5.06c
iter:  49 06:41:25  -327.988165c -6.85  -5.11c
Writing to output.gpw (mode='')

iter:  50 06:42:17  -327.988168c -6.81  -5.10c
iter:  51 06:43:08  -327.988167c -7.19  -5.07c
iter:  52 06:43:59  -327.988168c -6.99  -5.09c
iter:  53 06:44:50  -327.988168c -7.16  -5.12c
iter:  54 06:45:42  -327.988168c -7.29  -5.20c
Writing to output.gpw (mode='')

iter:  55 06:46:34  -327.988168c -7.24  -5.22c
iter:  56 06:47:25  -327.988168c -7.57c -5.38c

Converged after 56 iterations.

Dipole moment: (-1.970927, -3.587876, 0.022210) |e|*Ang

Energy contributions relative to reference atoms: (reference = -81178.542429)

Kinetic:       +124.538726
Potential:     -111.055024
External:        +0.000000
XC:            -341.625008
Entropy (-ST):   -0.160120
Local:           +0.233198
--------------------------
Free energy:   -328.068228
Extrapolated:  -327.988168

Dipole-layer corrected work functions: 3.395561, 3.352867 eV

Showing only first 2 kpts
 Kpt  Band  Eigenvalues  Occupancy
  0    25     -3.62587    1.98705
  0    26     -3.54371    1.93478
  0    27     -3.23025    0.10637
  0    28     -3.14530    0.02034

  1    25     -3.40292    1.27947
  1    26     -3.37063    0.96419
  1    27     -3.34749    0.73892
  1    28     -3.30089    0.37494


Fermi level: -3.37421

No gap
Writing to output.gpw (mode='')


Forces in eV/Ang:
  0 Li    0.02163    0.00153   -0.27254
  1 Li   -0.02159    0.00152   -0.27218
  2 Li   -0.00021   -0.00975   -0.27438
  3 Li    0.00453    0.00197   -0.27363
  4 Li   -0.00519    0.00110   -0.27379
  5 Li    0.00082    0.02281   -0.26910
  6 Li   -0.00257    0.00147   -0.27981
  7 Li    0.00177    0.00244   -0.27942
  8 Li    0.00063   -0.01600   -0.26962
  9 Li    0.00279   -0.01008    0.26720
 10 Li    0.00113    0.01487    0.25067
 11 Li   -0.00353   -0.00905    0.26776
 12 Li   -0.00673    0.00192    0.29715
 13 Li   -0.00016   -0.00550    0.23522
 14 Li    0.00665    0.00138    0.29799
 15 Li   -0.00382    0.01403    0.24092
 16 Li   -0.00018   -0.01624    0.26997
 17 Li    0.00368    0.01319    0.24359
 18 Li   -0.01399    0.00657    0.05266
 19 Li    0.01421    0.00649    0.05852
 20 Li    0.00004   -0.01919   -0.13501
 21 Li   -0.02095   -0.01646    0.05493
 22 Li    0.02016   -0.01652    0.05449
 23 Li    0.00109    0.01884   -0.00051
 24 Li    0.00199    0.00234    0.03892
 25 Li   -0.00165    0.00284    0.03838
 26 Li   -0.00010    0.00395    0.04786
 27 Li    0.03084   -0.07906   -0.02329
 28 Li    0.00381    0.02521   -0.01190
 29 Li   -0.03524   -0.07926   -0.03307
 30 Li   -0.01968    0.04003    0.03351
 31 Li    0.00609   -0.01267   -0.01911
 32 Li    0.02298    0.04217    0.03174
 33 Li    0.00550    0.00733   -0.03152
 34 Li    0.00033   -0.00764   -0.01480
 35 Li   -0.00582    0.00982   -0.03073
 36 Br    0.20935   -1.88024    7.53411
 37 H    -0.15509    0.02229   -0.10332
 38 N    -0.01086    0.31925   -4.19219
 39 N    -0.05666    1.55113   -3.31902

System changes: positions 

Initializing position-dependent things.

Density initialized from wave functions
       .-----------------------.  
      /|                       |  
     / |                       |  
    /  |                       |  
   /   |                       |  
  /    |                       |  
 *     |                       |  
 |     |                       |  
 |     |                       |  
 |     |                       |  
 |     |                       |  
 |     |                       |  
 |     |                       |  
 |     |                       |  
 |     Li         H   Bri      |  
 |     |                       |  
 |   Li|     Li      LiN       |  
 |     |  Li      Li  N   Li   |  
 |     |   Li      Li      Li  |  
 |     |Li      Li      Li     |  
 |     | Li                    |  
 |   LLi     LLi     LLi       |  
 |     |  Li      Li      Li   |  
 | Li  |   Li      Li          |  
 |     |Li      Li      Li     |  
 Li    | Li      Li            |  
 |    Li      Li      Li       |  
 |     |                       |  
 |     |                       |  
 |     |                       |  
 |     |                       |  
 |     |                       |  
 |     |                       |  
 |     .-----------------------.  
 |    /                       /   
 |   /                       /    
 |  /                       /     
 | /                       /      
 |/                       /       
 *-----------------------*        

Positions:
   0 Li     1.617037    1.617037   10.000000    ( 0.0000,  0.0000,  0.0000)
   1 Li     4.851111    1.617037   10.000000    ( 0.0000,  0.0000,  0.0000)
   2 Li     8.085185    1.617037   10.000000    ( 0.0000,  0.0000,  0.0000)
   3 Li     1.617037    4.851111   10.000000    ( 0.0000,  0.0000,  0.0000)
   4 Li     4.851111    4.851111   10.000000    ( 0.0000,  0.0000,  0.0000)
   5 Li     8.085185    4.851111   10.000000    ( 0.0000,  0.0000,  0.0000)
   6 Li     1.617037    8.085185   10.000000    ( 0.0000,  0.0000,  0.0000)
   7 Li     4.851111    8.085185   10.000000    ( 0.0000,  0.0000,  0.0000)
   8 Li     8.085185    8.085185   10.000000    ( 0.0000,  0.0000,  0.0000)
   9 Li     0.000000    0.000000   11.617037    ( 0.0000,  0.0000,  0.0000)
  10 Li     3.234074    0.000000   11.617037    ( 0.0000,  0.0000,  0.0000)
  11 Li     6.468148    0.000000   11.617037    ( 0.0000,  0.0000,  0.0000)
  12 Li     0.000000    3.234074   11.617037    ( 0.0000,  0.0000,  0.0000)
  13 Li     3.234074    3.234074   11.617037    ( 0.0000,  0.0000,  0.0000)
  14 Li     6.468148    3.234074   11.617037    ( 0.0000,  0.0000,  0.0000)
  15 Li     0.000000    6.468148   11.617037    ( 0.0000,  0.0000,  0.0000)
  16 Li     3.234074    6.468148   11.617037    ( 0.0000,  0.0000,  0.0000)
  17 Li     6.468148    6.468148   11.617037    ( 0.0000,  0.0000,  0.0000)
  18 Li     1.616820    1.617139   13.470541    ( 0.0000,  0.0000,  0.0000)
  19 Li     4.851332    1.617138   13.470632    ( 0.0000,  0.0000,  0.0000)
  20 Li     8.085185    1.616744   13.467663    ( 0.0000,  0.0000,  0.0000)
  21 Li     1.616718    4.850860   13.470572    ( 0.0000,  0.0000,  0.0000)
  22 Li     4.851419    4.850859   13.470566    ( 0.0000,  0.0000,  0.0000)
  23 Li     8.085200    4.851396   13.469731    ( 0.0000,  0.0000,  0.0000)
  24 Li     1.617070    8.085219   13.470324    ( 0.0000,  0.0000,  0.0000)
  25 Li     4.851085    8.085226   13.470317    ( 0.0000,  0.0000,  0.0000)
  26 Li     8.085182    8.085246   13.470464    ( 0.0000,  0.0000,  0.0000)
  27 Li     0.000488   -0.001227   15.445552    ( 0.0000,  0.0000,  0.0000)
  28 Li     3.234132    0.000390   15.445761    ( 0.0000,  0.0000,  0.0000)
  29 Li     6.467593   -0.001229   15.445404    ( 0.0000,  0.0000,  0.0000)
  30 Li    -0.000257    3.234713   15.446382    ( 0.0000,  0.0000,  0.0000)
  31 Li     3.234170    3.233878   15.445650    ( 0.0000,  0.0000,  0.0000)
  32 Li     6.468453    3.234747   15.446356    ( 0.0000,  0.0000,  0.0000)
  33 Li     0.000081    6.468261   15.445454    ( 0.0000,  0.0000,  0.0000)
  34 Li     3.234081    6.468028   15.445712    ( 0.0000,  0.0000,  0.0000)
  35 Li     6.468060    6.468296   15.445466    ( 0.0000,  0.0000,  0.0000)
  36 Br     8.088436    1.588055   19.562306    ( 0.0000,  0.0000,  0.0000)
  37 H      6.660908    1.617363   19.444347    ( 0.0000,  0.0000,  0.0000)
  38 N      8.084814    1.617226   17.381252    ( 0.0000,  0.0000,  0.0000)
  39 N      8.084152    2.742370   17.394816    ( 0.0000,  0.0000,  0.0000)

Unit cell:
           periodic     x           y           z      points  spacing
  1. axis:    yes    9.702222    0.000000    0.000000    60     0.1617
  2. axis:    yes    0.000000    9.702222    0.000000    60     0.1617
  3. axis:    no     0.000000    0.000000   26.851111   168     0.1598

  Lengths:   9.702222   9.702222  26.851111
  Angles:   90.000000  90.000000  90.000000

Effective grid spacing dv^(1/3) = 0.1611

     iter     time        total  log10-change:
                         energy  eigst   dens
iter:   1 06:48:38  -328.495564  -1.18
iter:   2 06:49:29  -328.446244  -1.10  -1.67
iter:   3 06:50:20  -328.433044  -2.13  -1.84
iter:   4 06:51:11  -328.428047c -1.41  -2.27
Writing to output.gpw (mode='')

iter:   5 06:52:06  -328.424280c -2.43  -2.09
iter:   6 06:52:57  -328.432846c -1.82  -2.34
iter:   7 06:53:48  -328.425791c -2.44  -2.20
iter:   8 06:54:39  -328.423564c -2.66  -2.52
iter:   9 06:55:30  -328.423243c -2.92  -2.71
Writing to output.gpw (mode='')

iter:  10 06:56:24  -328.423715c -2.92  -2.81
iter:  11 06:57:15  -328.423218c -3.19  -3.03
iter:  12 06:58:06  -328.423363c -3.78  -3.19
iter:  13 06:58:57  -328.423381c -3.82  -3.27
iter:  14 06:59:48  -328.423595c -3.98  -3.30
Writing to output.gpw (mode='')

iter:  15 07:00:40  -328.423423c -3.81  -3.36
iter:  16 07:01:31  -328.423437c -4.12  -3.61
iter:  17 07:02:22  -328.423474c -4.24  -3.62
iter:  18 07:03:13  -328.423455c -4.47  -3.76
iter:  19 07:04:04  -328.423482c -4.58  -3.83
Writing to output.gpw (mode='')

iter:  20 07:04:59  -328.423486c -4.65  -4.07c
iter:  21 07:05:50  -328.423493c -4.77  -4.13c
iter:  22 07:06:41  -328.423495c -4.99  -4.14c
iter:  23 07:07:32  -328.423508c -5.03  -4.19c
iter:  24 07:08:24  -328.423514c -5.31  -4.28c
Writing to output.gpw (mode='')

iter:  25 07:09:15  -328.423515c -5.23  -4.44c
iter:  26 07:10:07  -328.423515c -5.34  -4.47c
iter:  27 07:10:58  -328.423510c -5.34  -4.44c
iter:  28 07:11:49  -328.423512c -5.32  -4.39c
iter:  29 07:12:40  -328.423509c -5.67  -4.42c
Writing to output.gpw (mode='')

iter:  30 07:13:32  -328.423511c -5.87  -4.34c
iter:  31 07:14:23  -328.423514c -5.72  -4.36c
iter:  32 07:15:14  -328.423515c -5.93  -4.37c
iter:  33 07:16:06  -328.423517c -5.98  -4.36c
iter:  34 07:16:57  -328.423514c -6.05  -4.39c
Writing to output.gpw (mode='')

iter:  35 07:17:49  -328.423515c -6.16  -4.37c
iter:  36 07:18:40  -328.423501c -5.71  -4.28c
iter:  37 07:19:31  -328.423531c -6.07  -4.21c
iter:  38 07:20:22  -328.423531c -6.40  -4.44c
iter:  39 07:21:13  -328.423541c -6.11  -4.48c
Writing to output.gpw (mode='')

iter:  40 07:22:05  -328.423529c -6.21  -4.55c
iter:  41 07:22:56  -328.423530c -6.42  -4.73c
iter:  42 07:23:47  -328.423535c -6.46  -4.77c
iter:  43 07:24:38  -328.423533c -6.50  -5.04c
iter:  44 07:25:29  -328.423533c -6.75  -5.09c
Writing to output.gpw (mode='')

iter:  45 07:26:22  -328.423534c -6.89  -5.13c
iter:  46 07:27:13  -328.423532c -7.07  -5.20c
iter:  47 07:28:04  -328.423533c -7.19  -5.34c
iter:  48 07:28:56  -328.423532c -6.93  -5.35c
iter:  49 07:29:47  -328.423532c -7.12  -5.18c
Writing to output.gpw (mode='')

iter:  50 07:30:38  -328.423533c -7.32  -5.28c
iter:  51 07:31:29  -328.423532c -7.30  -5.34c
iter:  52 07:32:20  -328.423533c -7.59c -5.17c

Converged after 52 iterations.

Dipole moment: (-1.983456, -3.571218, 0.014556) |e|*Ang

Energy contributions relative to reference atoms: (reference = -81178.542429)

Kinetic:       +122.663324
Potential:     -109.849072
External:        +0.000000
XC:            -341.398996
Entropy (-ST):   -0.158590
Local:           +0.240505
--------------------------
Free energy:   -328.502828
Extrapolated:  -328.423533

Dipole-layer corrected work functions: 3.396144, 3.368164 eV

Showing only first 2 kpts
 Kpt  Band  Eigenvalues  Occupancy
  0    25     -3.63403    1.98710
  0    26     -3.55292    1.93636
  0    27     -3.23228    0.09508
  0    28     -3.15519    0.02114

  1    25     -3.41135    1.28398
  1    26     -3.37943    0.97277
  1    27     -3.35624    0.74655
  1    28     -3.30749    0.36689


Fermi level: -3.38215

No gap
Writing to output.gpw (mode='')


Forces in eV/Ang:
  0 Li    0.02204    0.00151   -0.27251
  1 Li   -0.02192    0.00155   -0.27222
  2 Li   -0.00027   -0.00972   -0.27415
  3 Li    0.00436    0.00223   -0.27370
  4 Li   -0.00496    0.00133   -0.27376
  5 Li    0.00072    0.02310   -0.26896
  6 Li   -0.00245    0.00179   -0.27999
  7 Li    0.00171    0.00274   -0.27972
  8 Li    0.00062   -0.01644   -0.26940
  9 Li    0.00300   -0.01012    0.26672
 10 Li    0.00099    0.01475    0.25094
 11 Li   -0.00371   -0.00910    0.26720
 12 Li   -0.00679    0.00213    0.29737
 13 Li   -0.00004   -0.00590    0.23541
 14 Li    0.00666    0.00156    0.29808
 15 Li   -0.00383    0.01433    0.24099
 16 Li   -0.00015   -0.01672    0.26953
 17 Li    0.00370    0.01356    0.24352
 18 Li   -0.01456    0.00637    0.05293
 19 Li    0.01465    0.00641    0.05871
 20 Li    0.00019   -0.01935   -0.13323
 21 Li   -0.02032   -0.01667    0.05437
 22 Li    0.01967   -0.01672    0.05409
 23 Li    0.00090    0.01743    0.00251
 24 Li    0.00181    0.00196    0.03870
 25 Li   -0.00155    0.00228    0.03812
 26 Li   -0.00005    0.00449    0.04664
 27 Li    0.03139   -0.08017   -0.02549
 28 Li    0.00394    0.02538   -0.01192
 29 Li   -0.03531   -0.08025   -0.03461
 30 Li   -0.00758    0.04315    0.01940
 31 Li    0.00570   -0.01290   -0.01957
 32 Li    0.00991    0.04520    0.01688
 33 Li    0.00432    0.00588   -0.03163
 34 Li    0.00036   -0.00701   -0.01477
 35 Li   -0.00466    0.00792   -0.03087
 36 Br    0.11302   -1.58144    6.48535
 37 H    -0.07474    0.01746   -0.08177
 38 N    -0.00046    0.11640   -3.64938
 39 N    -0.04160    1.52102   -2.80347

System changes: positions 

Initializing position-dependent things.

Density initialized from wave functions
       .-----------------------.  
      /|                       |  
     / |                       |  
    /  |                       |  
   /   |                       |  
  /    |                       |  
 *     |                       |  
 |     |                       |  
 |     |                       |  
 |     |                       |  
 |     |                       |  
 |     |                       |  
 |     |                       |  
 |     |                       |  
 |     Li         H   Bri      |  
 |     |                       |  
 |   Li|     Li      LiN       |  
 |     |  Li      Li  N   Li   |  
 |     |   Li      Li      Li  |  
 |     |Li      Li      Li     |  
 |     | Li                    |  
 |   LLi     LLi     LLi       |  
 |     |  Li      Li      Li   |  
 | Li  |   Li      Li          |  
 |     |Li      Li      Li     |  
 Li    | Li      Li            |  
 |    Li      Li      Li       |  
 |     |                       |  
 |     |                       |  
 |     |                       |  
 |     |                       |  
 |     |                       |  
 |     |                       |  
 |     .-----------------------.  
 |    /                       /   
 |   /                       /    
 |  /                       /     
 | /                       /      
 |/                       /       
 *-----------------------*        

Positions:
   0 Li     1.617037    1.617037   10.000000    ( 0.0000,  0.0000,  0.0000)
   1 Li     4.851111    1.617037   10.000000    ( 0.0000,  0.0000,  0.0000)
   2 Li     8.085185    1.617037   10.000000    ( 0.0000,  0.0000,  0.0000)
   3 Li     1.617037    4.851111   10.000000    ( 0.0000,  0.0000,  0.0000)
   4 Li     4.851111    4.851111   10.000000    ( 0.0000,  0.0000,  0.0000)
   5 Li     8.085185    4.851111   10.000000    ( 0.0000,  0.0000,  0.0000)
   6 Li     1.617037    8.085185   10.000000    ( 0.0000,  0.0000,  0.0000)
   7 Li     4.851111    8.085185   10.000000    ( 0.0000,  0.0000,  0.0000)
   8 Li     8.085185    8.085185   10.000000    ( 0.0000,  0.0000,  0.0000)
   9 Li     0.000000    0.000000   11.617037    ( 0.0000,  0.0000,  0.0000)
  10 Li     3.234074    0.000000   11.617037    ( 0.0000,  0.0000,  0.0000)
  11 Li     6.468148    0.000000   11.617037    ( 0.0000,  0.0000,  0.0000)
  12 Li     0.000000    3.234074   11.617037    ( 0.0000,  0.0000,  0.0000)
  13 Li     3.234074    3.234074   11.617037    ( 0.0000,  0.0000,  0.0000)
  14 Li     6.468148    3.234074   11.617037    ( 0.0000,  0.0000,  0.0000)
  15 Li     0.000000    6.468148   11.617037    ( 0.0000,  0.0000,  0.0000)
  16 Li     3.234074    6.468148   11.617037    ( 0.0000,  0.0000,  0.0000)
  17 Li     6.468148    6.468148   11.617037    ( 0.0000,  0.0000,  0.0000)
  18 Li     1.616679    1.617195   13.471034    ( 0.0000,  0.0000,  0.0000)
  19 Li     4.851473    1.617197   13.471178    ( 0.0000,  0.0000,  0.0000)
  20 Li     8.085189    1.616560   13.466442    ( 0.0000,  0.0000,  0.0000)
  21 Li     1.616537    4.850700   13.471071    ( 0.0000,  0.0000,  0.0000)
  22 Li     4.851596    4.850698   13.471066    ( 0.0000,  0.0000,  0.0000)
  23 Li     8.085205    4.851534   13.469805    ( 0.0000,  0.0000,  0.0000)
  24 Li     1.617083    8.085230   13.470682    ( 0.0000,  0.0000,  0.0000)
  25 Li     4.851072    8.085238   13.470670    ( 0.0000,  0.0000,  0.0000)
  26 Li     8.085183    8.085297   13.470875    ( 0.0000,  0.0000,  0.0000)
  27 Li     0.000776   -0.001982   15.445309    ( 0.0000,  0.0000,  0.0000)
  28 Li     3.234171    0.000626   15.445643    ( 0.0000,  0.0000,  0.0000)
  29 Li     6.467277   -0.001985   15.445086    ( 0.0000,  0.0000,  0.0000)
  30 Li    -0.000149    3.235141   15.446385    ( 0.0000,  0.0000,  0.0000)
  31 Li     3.234216    3.233758   15.445452    ( 0.0000,  0.0000,  0.0000)
  32 Li     6.468350    3.235197   15.446318    ( 0.0000,  0.0000,  0.0000)
  33 Li     0.000103    6.468287   15.445158    ( 0.0000,  0.0000,  0.0000)
  34 Li     3.234086    6.467974   15.445572    ( 0.0000,  0.0000,  0.0000)
  35 Li     6.468034    6.468334   15.445176    ( 0.0000,  0.0000,  0.0000)
  36 Br     8.087136    1.579381   19.601333    ( 0.0000,  0.0000,  0.0000)
  37 H      6.662343    1.617461   19.443958    ( 0.0000,  0.0000,  0.0000)
  38 N      8.084936    1.623214   17.357209    ( 0.0000,  0.0000,  0.0000)
  39 N      8.083923    2.746247   17.379805    ( 0.0000,  0.0000,  0.0000)

Unit cell:
           periodic     x           y           z      points  spacing
  1. axis:    yes    9.702222    0.000000    0.000000    60     0.1617
  2. axis:    yes    0.000000    9.702222    0.000000    60     0.1617
  3. axis:    no     0.000000    0.000000   26.851111   168     0.1598

  Lengths:   9.702222   9.702222  26.851111
  Angles:   90.000000  90.000000  90.000000

Effective grid spacing dv^(1/3) = 0.1611

     iter     time        total  log10-change:
                         energy  eigst   dens
iter:   1 07:33:33  -328.846791  -1.21
iter:   2 07:34:24  -328.812051  -1.26  -1.73
iter:   3 07:35:15  -328.803441  -2.32  -1.92
iter:   4 07:36:07  -328.799658c -1.65  -2.36
Writing to output.gpw (mode='')

iter:   5 07:36:59  -328.798228c -2.66  -2.22
iter:   6 07:37:50  -328.803352c -2.06  -2.49
iter:   7 07:38:41  -328.798769c -2.71  -2.30
iter:   8 07:39:32  -328.797712c -2.96  -2.68
iter:   9 07:40:23  -328.797632c -3.20  -2.84
Writing to output.gpw (mode='')

iter:  10 07:41:15  -328.797963c -3.06  -2.96
iter:  11 07:42:06  -328.797705c -3.56  -3.11
iter:  12 07:43:29  -328.797777c -3.97  -3.26
iter:  13 07:46:08  -328.797786c -3.96  -3.36
iter:  14 07:48:33  -328.797921c -4.20  -3.44
Writing to output.gpw (mode='')

iter:  15 07:51:03  -328.797818c -4.12  -3.48
iter:  16 07:53:32  -328.797822c -4.35  -3.70
iter:  17 07:56:00  -328.797837c -4.53  -3.75
iter:  18 07:58:19  -328.797833c -4.72  -3.92
iter:  19 08:00:43  -328.797831c -4.72  -4.00c
Writing to output.gpw (mode='')

iter:  20 08:03:16  -328.797859c -4.88  -4.13c
iter:  21 08:05:46  -328.797855c -5.24  -4.20c
iter:  22 08:08:10  -328.797858c -5.33  -4.26c
iter:  23 08:10:39  -328.797862c -5.28  -4.30c
iter:  24 08:13:24  -328.797863c -5.27  -4.47c
Writing to output.gpw (mode='')

iter:  25 08:16:01  -328.797866c -5.33  -4.56c
iter:  26 08:18:41  -328.797869c -5.56  -4.64c
iter:  27 08:21:07  -328.797870c -5.81  -4.66c
iter:  28 08:23:41  -328.797872c -5.73  -4.75c
iter:  29 08:26:12  -328.797873c -5.83  -4.78c
Writing to output.gpw (mode='')

iter:  30 08:28:42  -328.797875c -5.98  -4.92c
iter:  31 08:31:12  -328.797873c -6.13  -5.02c
iter:  32 08:33:42  -328.797874c -6.19  -5.00c
iter:  33 08:36:17  -328.797876c -6.14  -5.02c
iter:  34 08:38:44  -328.797876c -6.15  -5.06c
Writing to output.gpw (mode='')

iter:  35 08:41:19  -328.797876c -6.15  -5.12c
iter:  36 08:43:44  -328.797878c -6.50  -5.20c
iter:  37 08:46:10  -328.797878c -6.57  -5.19c
iter:  38 08:48:40  -328.797878c -6.42  -5.41c
iter:  39 08:51:13  -328.797879c -6.54  -5.55c
Writing to output.gpw (mode='')

iter:  40 08:53:45  -328.797880c -6.68  -5.59c
iter:  41 08:56:14  -328.797879c -6.69  -5.66c
iter:  42 08:58:42  -328.797879c -6.83  -5.71c
iter:  43 09:01:12  -328.797880c -6.87  -5.73c
iter:  44 09:03:37  -328.797880c -7.19  -5.79c
Writing to output.gpw (mode='')

iter:  45 09:06:05  -328.797880c -7.12  -5.73c
iter:  46 09:08:40  -328.797879c -7.23  -5.69c
iter:  47 09:11:08  -328.797880c -7.23  -5.65c
iter:  48 09:13:36  -328.797880c -7.27  -5.66c
iter:  49 09:16:00  -328.797880c -7.42c -5.72c

Converged after 49 iterations.

Dipole moment: (-2.005775, -3.548807, 0.006283) |e|*Ang

Energy contributions relative to reference atoms: (reference = -81178.542429)

Kinetic:       +120.791526
Potential:     -108.587319
External:        +0.000000
XC:            -341.168949
Entropy (-ST):   -0.157612
Local:           +0.245668
--------------------------
Free energy:   -328.876686
Extrapolated:  -328.797880

Dipole-layer corrected work functions: 3.396829, 3.384750 eV

Showing only first 2 kpts
 Kpt  Band  Eigenvalues  Occupancy
  0    25     -3.64276    1.98713
  0    26     -3.56264    1.93768
  0    27     -3.23716    0.08850
  0    28     -3.16625    0.02217

  1    25     -3.42014    1.28540
  1    26     -3.38874    0.97946
  1    27     -3.36570    0.75422
  1    28     -3.31447    0.35703


Fermi level: -3.39079

No gap
Writing to output.gpw (mode='')


Forces in eV/Ang:
  0 Li    0.02237    0.00151   -0.27251
  1 Li   -0.02218    0.00160   -0.27229
  2 Li   -0.00032   -0.00968   -0.27403
  3 Li    0.00422    0.00252   -0.27381
  4 Li   -0.00479    0.00159   -0.27379
  5 Li    0.00065    0.02333   -0.26895
  6 Li   -0.00228    0.00205   -0.28021
  7 Li    0.00160    0.00299   -0.28004
  8 Li    0.00061   -0.01684   -0.26908
  9 Li    0.00325   -0.01026    0.26641
 10 Li    0.00087    0.01467    0.25116
 11 Li   -0.00394   -0.00925    0.26680
 12 Li   -0.00680    0.00241    0.29782
 13 Li    0.00006   -0.00632    0.23558
 14 Li    0.00663    0.00177    0.29845
 15 Li   -0.00380    0.01465    0.24104
 16 Li   -0.00013   -0.01720    0.26934
 17 Li    0.00369    0.01396    0.24346
 18 Li   -0.01485    0.00618    0.05258
 19 Li    0.01485    0.00628    0.05830
 20 Li    0.00032   -0.01951   -0.13134
 21 Li   -0.01964   -0.01693    0.05351
 22 Li    0.01911   -0.01694    0.05334
 23 Li    0.00074    0.01654    0.00416
 24 Li    0.00154    0.00163    0.03836
 25 Li   -0.00135    0.00181    0.03776
 26 Li    0.00000    0.00472    0.04508
 27 Li    0.03062   -0.07973   -0.02542
 28 Li    0.00407    0.02521   -0.01199
 29 Li   -0.03422   -0.07982   -0.03432
 30 Li    0.00017    0.04424    0.01094
 31 Li    0.00541   -0.01284   -0.02005
 32 Li    0.00120    0.04628    0.00757
 33 Li    0.00347    0.00462   -0.03151
 34 Li    0.00038   -0.00635   -0.01461
 35 Li   -0.00383    0.00632   -0.03077
 36 Br    0.04500   -1.34070    5.56764
 37 H    -0.02371    0.01321   -0.05985
 38 N     0.00378    0.01739   -3.19836
 39 N    -0.02082    1.38902   -2.28589

System changes: positions 

Initializing position-dependent things.

Density initialized from wave functions
       .-----------------------.  
      /|                       |  
     / |                       |  
    /  |                       |  
   /   |                       |  
  /    |                       |  
 *     |                       |  
 |     |                       |  
 |     |                       |  
 |     |                       |  
 |     |                       |  
 |     |                       |  
 |     |                       |  
 |     |                       |  
 |     Li         H   Bri      |  
 |     |                       |  
 |   Li|     Li      LiN       |  
 |     |  Li      Li  N   Li   |  
 | Li  |   Li      Li          |  
 |     |Li      Li      Li     |  
 |     | Li                    |  
 |   LLi     LLi     LLi       |  
 |     |  Li      Li      Li   |  
 | Li  |   Li      Li          |  
 |     |Li      Li      Li     |  
 Li    | Li      Li            |  
 |    Li      Li      Li       |  
 |     |                       |  
 |     |                       |  
 |     |                       |  
 |     |                       |  
 |     |                       |  
 |     |                       |  
 |     .-----------------------.  
 |    /                       /   
 |   /                       /    
 |  /                       /     
 | /                       /      
 |/                       /       
 *-----------------------*        

Positions:
   0 Li     1.617037    1.617037   10.000000    ( 0.0000,  0.0000,  0.0000)
   1 Li     4.851111    1.617037   10.000000    ( 0.0000,  0.0000,  0.0000)
   2 Li     8.085185    1.617037   10.000000    ( 0.0000,  0.0000,  0.0000)
   3 Li     1.617037    4.851111   10.000000    ( 0.0000,  0.0000,  0.0000)
   4 Li     4.851111    4.851111   10.000000    ( 0.0000,  0.0000,  0.0000)
   5 Li     8.085185    4.851111   10.000000    ( 0.0000,  0.0000,  0.0000)
   6 Li     1.617037    8.085185   10.000000    ( 0.0000,  0.0000,  0.0000)
   7 Li     4.851111    8.085185   10.000000    ( 0.0000,  0.0000,  0.0000)
   8 Li     8.085185    8.085185   10.000000    ( 0.0000,  0.0000,  0.0000)
   9 Li     0.000000    0.000000   11.617037    ( 0.0000,  0.0000,  0.0000)
  10 Li     3.234074    0.000000   11.617037    ( 0.0000,  0.0000,  0.0000)
  11 Li     6.468148    0.000000   11.617037    ( 0.0000,  0.0000,  0.0000)
  12 Li     0.000000    3.234074   11.617037    ( 0.0000,  0.0000,  0.0000)
  13 Li     3.234074    3.234074   11.617037    ( 0.0000,  0.0000,  0.0000)
  14 Li     6.468148    3.234074   11.617037    ( 0.0000,  0.0000,  0.0000)
  15 Li     0.000000    6.468148   11.617037    ( 0.0000,  0.0000,  0.0000)
  16 Li     3.234074    6.468148   11.617037    ( 0.0000,  0.0000,  0.0000)
  17 Li     6.468148    6.468148   11.617037    ( 0.0000,  0.0000,  0.0000)
  18 Li     1.616499    1.617262   13.471644    ( 0.0000,  0.0000,  0.0000)
  19 Li     4.851650    1.617268   13.471854    ( 0.0000,  0.0000,  0.0000)
  20 Li     8.085195    1.616328   13.464941    ( 0.0000,  0.0000,  0.0000)
  21 Li     1.616320    4.850496   13.471681    ( 0.0000,  0.0000,  0.0000)
  22 Li     4.851810    4.850493   13.471679    ( 0.0000,  0.0000,  0.0000)
  23 Li     8.085210    4.851699   13.469909    ( 0.0000,  0.0000,  0.0000)
  24 Li     1.617096    8.085241   13.471125    ( 0.0000,  0.0000,  0.0000)
  25 Li     4.851059    8.085248   13.471106    ( 0.0000,  0.0000,  0.0000)
  26 Li     8.085184    8.085363   13.471369    ( 0.0000,  0.0000,  0.0000)
  27 Li     0.001122   -0.002913   15.445014    ( 0.0000,  0.0000,  0.0000)
  28 Li     3.234221    0.000917   15.445496    ( 0.0000,  0.0000,  0.0000)
  29 Li     6.466901   -0.002917   15.444698    ( 0.0000,  0.0000,  0.0000)
  30 Li     0.000059    3.235682   15.446309    ( 0.0000,  0.0000,  0.0000)
  31 Li     3.234270    3.233610   15.445201    ( 0.0000,  0.0000,  0.0000)
  32 Li     6.468138    3.235765   15.446182    ( 0.0000,  0.0000,  0.0000)
  33 Li     0.000122    6.468306   15.444791    ( 0.0000,  0.0000,  0.0000)
  34 Li     3.234091    6.467915   15.445401    ( 0.0000,  0.0000,  0.0000)
  35 Li     6.468009    6.468364   15.444816    ( 0.0000,  0.0000,  0.0000)
  36 Br     8.084994    1.570963   19.640378    ( 0.0000,  0.0000,  0.0000)
  37 H      6.664433    1.617534   19.443737    ( 0.0000,  0.0000,  0.0000)
  38 N      8.085129    1.628712   17.332082    ( 0.0000,  0.0000,  0.0000)
  39 N      8.083932    2.750612   17.366736    ( 0.0000,  0.0000,  0.0000)

Unit cell:
           periodic     x           y           z      points  spacing
  1. axis:    yes    9.702222    0.000000    0.000000    60     0.1617
  2. axis:    yes    0.000000    9.702222    0.000000    60     0.1617
  3. axis:    no     0.000000    0.000000   26.851111   168     0.1598

  Lengths:   9.702222   9.702222  26.851111
  Angles:   90.000000  90.000000  90.000000

Effective grid spacing dv^(1/3) = 0.1611

     iter     time        total  log10-change:
                         energy  eigst   dens
iter:   1 09:19:04  -329.151483  -1.22
iter:   2 09:21:33  -329.126740  -1.42  -1.80
iter:   3 09:23:59  -329.120965  -2.44  -2.00
iter:   4 09:26:23  -329.118091c -1.86  -2.44
Writing to output.gpw (mode='')

iter:   5 09:28:49  -329.117640c -2.85  -2.34
iter:   6 09:31:25  -329.120351c -2.33  -2.62
iter:   7 09:33:48  -329.117684c -2.91  -2.44
iter:   8 09:36:19  -329.117222c -3.22  -2.87
iter:   9 09:38:45  -329.117329c -3.55  -2.98
Writing to output.gpw (mode='')

iter:  10 09:41:29  -329.117539c -3.24  -3.10
iter:  11 09:44:04  -329.117320c -3.76  -3.11
iter:  12 09:46:38  -329.117366c -4.04  -3.28
iter:  13 09:49:04  -329.117424c -4.06  -3.41
iter:  14 09:51:31  -329.117365c -4.11  -3.54
Writing to output.gpw (mode='')

iter:  15 09:54:02  -329.117409c -4.42  -3.73
iter:  16 09:56:33  -329.117406c -4.50  -3.74
iter:  17 09:59:04  -329.117411c -4.75  -3.79
iter:  18 10:01:37  -329.117412c -4.98  -3.84
iter:  19 10:04:11  -329.117415c -4.78  -4.02c
Writing to output.gpw (mode='')

iter:  20 10:06:39  -329.117425c -5.13  -4.09c
iter:  21 10:09:08  -329.117431c -5.25  -4.18c
iter:  22 10:11:36  -329.117419c -5.26  -4.31c
iter:  23 10:14:02  -329.117424c -5.49  -4.47c
iter:  24 10:16:29  -329.117428c -5.52  -4.53c
Writing to output.gpw (mode='')

iter:  25 10:19:06  -329.117428c -5.53  -4.50c
iter:  26 10:21:39  -329.117425c -5.65  -4.42c
iter:  27 10:24:06  -329.117425c -5.94  -4.48c
iter:  28 10:26:33  -329.117425c -5.91  -4.46c
iter:  29 10:29:02  -329.117429c -6.05  -4.43c
Writing to output.gpw (mode='')

iter:  30 10:31:32  -329.117428c -5.80  -4.53c
iter:  31 10:34:07  -329.117427c -6.13  -4.48c
iter:  32 10:36:38  -329.117431c -6.33  -4.46c
iter:  33 10:39:03  -329.117432c -6.32  -4.51c
iter:  34 10:41:27  -329.117431c -6.25  -4.51c
Writing to output.gpw (mode='')

iter:  35 10:43:57  -329.117438c -6.29  -4.48c
iter:  36 10:46:25  -329.117434c -6.51  -4.52c
iter:  37 10:48:59  -329.117435c -6.57  -4.47c
iter:  38 10:51:32  -329.117438c -6.45  -4.49c
iter:  39 10:54:12  -329.117440c -6.74  -4.56c
Writing to output.gpw (mode='')

iter:  40 10:56:50  -329.117442c -6.95  -4.55c
iter:  41 10:59:19  -329.117441c -6.94  -4.57c
iter:  42 11:01:57  -329.117441c -6.94  -4.69c
iter:  43 11:04:24  -329.117442c -6.84  -4.74c
iter:  44 11:06:55  -329.117442c -7.02  -4.84c
Writing to output.gpw (mode='')

iter:  45 11:09:33  -329.117442c -7.45c -4.86c

Converged after 45 iterations.

Dipole moment: (-2.034130, -3.522294, -0.002357) |e|*Ang

Energy contributions relative to reference atoms: (reference = -81178.542429)

Kinetic:       +119.011911
Potential:     -107.353415
External:        +0.000000
XC:            -340.949046
Entropy (-ST):   -0.156925
Local:           +0.251571
--------------------------
Free energy:   -329.195904
Extrapolated:  -329.117442

Dipole-layer corrected work functions: 3.397612, 3.402142 eV

Showing only first 2 kpts
 Kpt  Band  Eigenvalues  Occupancy
  0    25     -3.65184    1.98713
  0    26     -3.57283    1.93899
  0    27     -3.24364    0.08419
  0    28     -3.17817    0.02345

  1    25     -3.42924    1.28544
  1    26     -3.39823    0.98349
  1    27     -3.37566    0.76244
  1    28     -3.32172    0.34642


Fermi level: -3.39988

No gap

Forces in eV/Ang:
  0 Li    0.02269    0.00146   -0.27253
  1 Li   -0.02242    0.00159   -0.27236
  2 Li   -0.00037   -0.00961   -0.27393
  3 Li    0.00414    0.00287   -0.27396
  4 Li   -0.00469    0.00190   -0.27389
  5 Li    0.00059    0.02354   -0.26904
  6 Li   -0.00203    0.00228   -0.28047
  7 Li    0.00139    0.00323   -0.28036
  8 Li    0.00060   -0.01720   -0.26874
  9 Li    0.00356   -0.01049    0.26624
 10 Li    0.00077    0.01463    0.25134
 11 Li   -0.00424   -0.00947    0.26656
 12 Li   -0.00675    0.00274    0.29848
 13 Li    0.00016   -0.00682    0.23584
 14 Li    0.00653    0.00203    0.29903
 15 Li   -0.00372    0.01497    0.24109
 16 Li   -0.00009   -0.01765    0.26934
 17 Li    0.00363    0.01435    0.24343
 18 Li   -0.01498    0.00596    0.05175
 19 Li    0.01489    0.00611    0.05745
 20 Li    0.00042   -0.01967   -0.12908
 21 Li   -0.01889   -0.01720    0.05235
 22 Li    0.01846   -0.01715    0.05226
 23 Li    0.00062    0.01598    0.00498
 24 Li    0.00118    0.00137    0.03786
 25 Li   -0.00105    0.00142    0.03727
 26 Li    0.00005    0.00469    0.04310
 27 Li    0.02879   -0.07789   -0.02401
 28 Li    0.00419    0.02483   -0.01213
 29 Li   -0.03212   -0.07801   -0.03289
 30 Li    0.00496    0.04386    0.00603
 31 Li    0.00517   -0.01260   -0.02061
 32 Li   -0.00453    0.04592    0.00172
 33 Li    0.00273    0.00331   -0.03124
 34 Li    0.00039   -0.00568   -0.01436
 35 Li   -0.00311    0.00475   -0.03051
 36 Br   -0.00846   -1.14260    4.72854
 37 H     0.01386    0.00914   -0.03857
 38 N     0.01147   -0.00811   -2.72089
 39 N    -0.01903    1.18679   -1.89536

System changes: positions 

Initializing position-dependent things.

Density initialized from wave functions
       .-----------------------.  
      /|                       |  
     / |                       |  
    /  |                       |  
   /   |                       |  
  /    |                       |  
 *     |                       |  
 |     |                       |  
 |     |                       |  
 |     |                       |  
 |     |                       |  
 |     |                       |  
 |     |                       |  
 |     |                       |  
 |     Li         H   Bri      |  
 |     |                       |  
 |   Li|     Li      LiN       |  
 |     |  Li      Li  N   Li   |  
 | Li  |   Li      Li          |  
 |     |Li      Li      Li     |  
 |     | Li                    |  
 |   LLi     LLi     LLi       |  
 |     |  Li      Li      Li   |  
 | Li  |   Li      Li          |  
 |     |Li      Li      Li     |  
 Li    | Li      Li            |  
 |    Li      Li      Li       |  
 |     |                       |  
 |     |                       |  
 |     |                       |  
 |     |                       |  
 |     |                       |  
 |     |                       |  
 |     .-----------------------.  
 |    /                       /   
 |   /                       /    
 |  /                       /     
 | /                       /      
 |/                       /       
 *-----------------------*        

Positions:
   0 Li     1.617037    1.617037   10.000000    ( 0.0000,  0.0000,  0.0000)
   1 Li     4.851111    1.617037   10.000000    ( 0.0000,  0.0000,  0.0000)
   2 Li     8.085185    1.617037   10.000000    ( 0.0000,  0.0000,  0.0000)
   3 Li     1.617037    4.851111   10.000000    ( 0.0000,  0.0000,  0.0000)
   4 Li     4.851111    4.851111   10.000000    ( 0.0000,  0.0000,  0.0000)
   5 Li     8.085185    4.851111   10.000000    ( 0.0000,  0.0000,  0.0000)
   6 Li     1.617037    8.085185   10.000000    ( 0.0000,  0.0000,  0.0000)
   7 Li     4.851111    8.085185   10.000000    ( 0.0000,  0.0000,  0.0000)
   8 Li     8.085185    8.085185   10.000000    ( 0.0000,  0.0000,  0.0000)
   9 Li     0.000000    0.000000   11.617037    ( 0.0000,  0.0000,  0.0000)
  10 Li     3.234074    0.000000   11.617037    ( 0.0000,  0.0000,  0.0000)
  11 Li     6.468148    0.000000   11.617037    ( 0.0000,  0.0000,  0.0000)
  12 Li     0.000000    3.234074   11.617037    ( 0.0000,  0.0000,  0.0000)
  13 Li     3.234074    3.234074   11.617037    ( 0.0000,  0.0000,  0.0000)
  14 Li     6.468148    3.234074   11.617037    ( 0.0000,  0.0000,  0.0000)
  15 Li     0.000000    6.468148   11.617037    ( 0.0000,  0.0000,  0.0000)
  16 Li     3.234074    6.468148   11.617037    ( 0.0000,  0.0000,  0.0000)
  17 Li     6.468148    6.468148   11.617037    ( 0.0000,  0.0000,  0.0000)
  18 Li     1.616282    1.617342   13.472368    ( 0.0000,  0.0000,  0.0000)
  19 Li     4.851864    1.617352   13.472658    ( 0.0000,  0.0000,  0.0000)
  20 Li     8.085204    1.616046   13.463155    ( 0.0000,  0.0000,  0.0000)
  21 Li     1.616067    4.850247   13.472404    ( 0.0000,  0.0000,  0.0000)
  22 Li     4.852061    4.850244   13.472406    ( 0.0000,  0.0000,  0.0000)
  23 Li     8.085214    4.851896   13.470037    ( 0.0000,  0.0000,  0.0000)
  24 Li     1.617107    8.085251   13.471653    ( 0.0000,  0.0000,  0.0000)
  25 Li     4.851048    8.085256   13.471626    ( 0.0000,  0.0000,  0.0000)
  26 Li     8.085186    8.085439   13.471940    ( 0.0000,  0.0000,  0.0000)
  27 Li     0.001512   -0.004009   15.444681    ( 0.0000,  0.0000,  0.0000)
  28 Li     3.234283    0.001264   15.445316    ( 0.0000,  0.0000,  0.0000)
  29 Li     6.466475   -0.004014   15.444250    ( 0.0000,  0.0000,  0.0000)
  30 Li     0.000343    3.236324   15.446183    ( 0.0000,  0.0000,  0.0000)
  31 Li     3.234333    3.233435   15.444890    ( 0.0000,  0.0000,  0.0000)
  32 Li     6.467838    3.236439   15.445972    ( 0.0000,  0.0000,  0.0000)
  33 Li     0.000138    6.468315   15.444351    ( 0.0000,  0.0000,  0.0000)
  34 Li     3.234098    6.467851   15.445198    ( 0.0000,  0.0000,  0.0000)
  35 Li     6.467987    6.468383   15.444385    ( 0.0000,  0.0000,  0.0000)
  36 Br     8.082097    1.562480   19.679361    ( 0.0000,  0.0000,  0.0000)
  37 H      6.667067    1.617574   19.443719    ( 0.0000,  0.0000,  0.0000)
  38 N      8.085459    1.633966   17.306942    ( 0.0000,  0.0000,  0.0000)
  39 N      8.083916    2.754938   17.354422    ( 0.0000,  0.0000,  0.0000)

Unit cell:
           periodic     x           y           z      points  spacing
  1. axis:    yes    9.702222    0.000000    0.000000    60     0.1617
  2. axis:    yes    0.000000    9.702222    0.000000    60     0.1617
  3. axis:    no     0.000000    0.000000   26.851111   168     0.1598

  Lengths:   9.702222   9.702222  26.851111
  Angles:   90.000000  90.000000  90.000000

Effective grid spacing dv^(1/3) = 0.1611

     iter     time        total  log10-change:
                         energy  eigst   dens
iter:   1 11:12:42  -329.416287  -1.25
iter:   2 11:15:19  -329.395829  -1.52  -1.83
iter:   3 11:17:45  -329.391195c -2.50  -2.04
iter:   4 11:20:19  -329.388836c -2.02  -2.50
Writing to output.gpw (mode='')

iter:   5 11:22:56  -329.388770c -2.98  -2.43
iter:   6 11:25:28  -329.390335c -2.55  -2.70
iter:   7 11:28:04  -329.388600c -3.01  -2.57
iter:   8 11:30:42  -329.388374c -3.37  -3.02
iter:   9 11:33:15  -329.388645c -3.87  -3.09
Writing to output.gpw (mode='')

[...]

Kinetic:       +103.066782
Potential:      -93.605141
External:        +0.000000
XC:            -340.879565
Entropy (-ST):   -0.166779
Local:           +0.297746
--------------------------
Free energy:   -331.286957
Extrapolated:  -331.203567

Dipole-layer corrected work functions: 3.397100, 3.776316 eV

Showing only first 2 kpts
 Kpt  Band  Eigenvalues  Occupancy
  0    25     -3.79767    1.97101
  0    26     -3.69871    1.80759
  0    27     -3.50635    0.33397
  0    28     -3.43006    0.08354

  1    25     -3.73016    1.89259
  1    26     -3.59555    1.08816
  1    27     -3.52374    0.44214
  1    28     -3.40525    0.05170


Fermi level: -3.58671

Gap: 0.012 eV
Transition (v -> c):
  (s=0, k=1, n=26, [0.12, -0.12, 0.00]) -> (s=0, k=7, n=27, [0.38, 0.38, 0.00])
Writing to output.gpw (mode='')


Forces in eV/Ang:
  0 Li    0.02546    0.00307   -0.28473
  1 Li   -0.02729   -0.00418   -0.29027
  2 Li    0.00263   -0.00010   -0.26722
  3 Li    0.02036   -0.00548   -0.29269
  4 Li   -0.01326   -0.00786   -0.28690
  5 Li    0.01129    0.01243   -0.27411
  6 Li    0.01801   -0.00744   -0.28655
  7 Li   -0.00965   -0.00167   -0.28469
  8 Li    0.00445   -0.01844   -0.26637
  9 Li   -0.02246    0.00805    0.30574
 10 Li    0.00477    0.02550    0.27406
 11 Li    0.03455    0.01492    0.32791
 12 Li   -0.00417   -0.01515    0.29759
 13 Li    0.00098   -0.01178    0.25919
 14 Li    0.00974   -0.01962    0.30588
 15 Li    0.02560    0.00875    0.23041
 16 Li   -0.01464    0.01129    0.34304
 17 Li   -0.03922    0.02107    0.24212
 18 Li    0.01872    0.00467   -0.00875
 19 Li   -0.02674   -0.00907   -0.01177
 20 Li    0.02785    0.04520    0.04667
 21 Li    0.01145    0.02764   -0.00855
 22 Li   -0.00598    0.01701   -0.01150
 23 Li   -0.00530    0.00652    0.05026
 24 Li   -0.01797    0.01686    0.00799
 25 Li    0.00596    0.01433    0.01747
 26 Li   -0.00934    0.03625    0.02004
 27 Li    0.04413   -0.11496   -0.09424
 28 Li    0.00475    0.00550    0.00380
 29 Li   -0.00573    0.00071    0.03789
 30 Li   -0.18097   -0.08472    0.09971
 31 Li    0.00954   -0.00110   -0.01404
 32 Li    0.07562    0.02451    0.08888
 33 Li    0.01321    0.03473    0.00678
 34 Li   -0.00077   -0.01788   -0.01294
 35 Li   -0.00988    0.02949    0.00012
 36 Br   -0.01750    0.00796   -0.10674
 37 H     0.02637    0.02191    0.02751
 38 N     0.16969   -0.01390   -0.02701
 39 N    -0.18678   -0.02513   -0.15189

System changes: positions 

Initializing position-dependent things.

Density initialized from wave functions
       .-----------------------.  
      /|                       |  
     / |                       |  
    /  |                       |  
   /   |                       |  
  /    |                       |  
 *     |                       |  
 |     |                       |  
 |     |                       |  
 |     |                       |  
 |     |                       |  
 |     |                       |  
 |     |            Br         |  
 |     |                       |  
 |     |            H          |  
 |     |                       |  
 |     |     Li      Li      Li|  
 |     |  Li      Li  N   Li   |  
 | Li  |   Li      Li  N       |  
 |     |Li      Li      Li     |  
 |     | Li      Li      Li    |  
 |   LLi     LLi     LLi       |  
 |     |  Li      Li      Li   |  
 | Li  |   Li      Li          |  
 |     |Li      Li      Li     |  
 Li    | Li      Li            |  
 |    Li      Li      Li       |  
 |     |                       |  
 |     |                       |  
 |     |                       |  
 |     |                       |  
 |     |                       |  
 |     |                       |  
 |     .-----------------------.  
 |    /                       /   
 |   /                       /    
 |  /                       /     
 | /                       /      
 |/                       /       
 *-----------------------*        

Positions:
   0 Li     1.617037    1.617037   10.000000    ( 0.0000,  0.0000,  0.0000)
   1 Li     4.851111    1.617037   10.000000    ( 0.0000,  0.0000,  0.0000)
   2 Li     8.085185    1.617037   10.000000    ( 0.0000,  0.0000,  0.0000)
   3 Li     1.617037    4.851111   10.000000    ( 0.0000,  0.0000,  0.0000)
   4 Li     4.851111    4.851111   10.000000    ( 0.0000,  0.0000,  0.0000)
   5 Li     8.085185    4.851111   10.000000    ( 0.0000,  0.0000,  0.0000)
   6 Li     1.617037    8.085185   10.000000    ( 0.0000,  0.0000,  0.0000)
   7 Li     4.851111    8.085185   10.000000    ( 0.0000,  0.0000,  0.0000)
   8 Li     8.085185    8.085185   10.000000    ( 0.0000,  0.0000,  0.0000)
   9 Li     0.000000    0.000000   11.617037    ( 0.0000,  0.0000,  0.0000)
  10 Li     3.234074    0.000000   11.617037    ( 0.0000,  0.0000,  0.0000)
  11 Li     6.468148    0.000000   11.617037    ( 0.0000,  0.0000,  0.0000)
  12 Li     0.000000    3.234074   11.617037    ( 0.0000,  0.0000,  0.0000)
  13 Li     3.234074    3.234074   11.617037    ( 0.0000,  0.0000,  0.0000)
  14 Li     6.468148    3.234074   11.617037    ( 0.0000,  0.0000,  0.0000)
  15 Li     0.000000    6.468148   11.617037    ( 0.0000,  0.0000,  0.0000)
  16 Li     3.234074    6.468148   11.617037    ( 0.0000,  0.0000,  0.0000)
  17 Li     6.468148    6.468148   11.617037    ( 0.0000,  0.0000,  0.0000)
  18 Li     1.598228    1.628633   13.499277    ( 0.0000,  0.0000,  0.0000)
  19 Li     4.866592    1.626378   13.489910    ( 0.0000,  0.0000,  0.0000)
  20 Li     8.109757    1.639152   13.517272    ( 0.0000,  0.0000,  0.0000)
  21 Li     1.585449    4.834311   13.504704    ( 0.0000,  0.0000,  0.0000)
  22 Li     4.883969    4.824686   13.505233    ( 0.0000,  0.0000,  0.0000)
  23 Li     8.081904    4.884772   13.420296    ( 0.0000,  0.0000,  0.0000)
  24 Li     1.571957    8.135348   13.528468    ( 0.0000,  0.0000,  0.0000)
  25 Li     4.862799    8.118290   13.514809    ( 0.0000,  0.0000,  0.0000)
  26 Li     8.087982    8.067547   13.471748    ( 0.0000,  0.0000,  0.0000)
  27 Li    -0.187416    0.193947   15.495891    ( 0.0000,  0.0000,  0.0000)
  28 Li     3.233643    0.011615   15.442163    ( 0.0000,  0.0000,  0.0000)
  29 Li     6.580153    0.132681   15.509317    ( 0.0000,  0.0000,  0.0000)
  30 Li     0.034738    3.262648   15.563467    ( 0.0000,  0.0000,  0.0000)
  31 Li     3.250174    3.236461   15.417486    ( 0.0000,  0.0000,  0.0000)
  32 Li     6.422118    3.244438   15.533815    ( 0.0000,  0.0000,  0.0000)
  33 Li    -0.006721    6.506580   15.441956    ( 0.0000,  0.0000,  0.0000)
  34 Li     3.240764    6.439102   15.442783    ( 0.0000,  0.0000,  0.0000)
  35 Li     6.476443    6.506759   15.436561    ( 0.0000,  0.0000,  0.0000)
  36 Br     7.494101    1.181389   21.063802    ( 0.0000,  0.0000,  0.0000)
  37 H      7.208219    1.613221   19.721918    ( 0.0000,  0.0000,  0.0000)
  38 N      8.298385    1.675609   16.005930    ( 0.0000,  0.0000,  0.0000)
  39 N      8.020157    2.654877   16.653681    ( 0.0000,  0.0000,  0.0000)

Unit cell:
           periodic     x           y           z      points  spacing
  1. axis:    yes    9.702222    0.000000    0.000000    60     0.1617
  2. axis:    yes    0.000000    9.702222    0.000000    60     0.1617
  3. axis:    no     0.000000    0.000000   26.851111   168     0.1598

  Lengths:   9.702222   9.702222  26.851111
  Angles:   90.000000  90.000000  90.000000

Effective grid spacing dv^(1/3) = 0.1611

     iter     time        total  log10-change:
                         energy  eigst   dens
iter:   1 19:19:31  -331.251321  -0.82
iter:   2 19:22:00  -331.247606  -1.36  -1.72
iter:   3 19:24:30  -331.228684c -1.96  -1.77
iter:   4 19:26:59  -331.221925c -2.23  -2.01
Writing to output.gpw (mode='')

iter:   5 19:29:25  -331.218598c -1.97  -2.26
iter:   6 19:32:00  -331.218221c -2.04  -2.51
iter:   7 19:34:28  -331.218019c -2.61  -2.54
iter:   8 19:37:02  -331.218213c -2.74  -2.75
iter:   9 19:39:25  -331.218127c -3.18  -2.81
Writing to output.gpw (mode='')

iter:  10 19:41:50  -331.218096c -3.26  -2.85
iter:  11 19:44:26  -331.218222c -3.59  -3.02
iter:  12 19:46:55  -331.218205c -3.88  -3.18
iter:  13 19:49:30  -331.218160c -3.95  -3.23
iter:  14 19:51:56  -331.218189c -4.25  -3.34
Writing to output.gpw (mode='')

iter:  15 19:54:36  -331.218164c -4.16  -3.48
iter:  16 19:57:06  -331.218146c -4.40  -3.66
iter:  17 19:59:27  -331.218164c -4.69  -3.70
iter:  18 20:02:01  -331.218174c -4.61  -3.76
iter:  19 20:04:35  -331.218167c -4.74  -3.94
Writing to output.gpw (mode='')

iter:  20 20:07:08  -331.218169c -5.05  -3.91
iter:  21 20:09:31  -331.218175c -4.95  -3.95
iter:  22 20:12:10  -331.218171c -5.35  -4.15c
iter:  23 20:14:44  -331.218174c -5.39  -4.26c
iter:  24 20:17:01  -331.218177c -5.31  -4.35c
Writing to output.gpw (mode='')

iter:  25 20:19:29  -331.218178c -5.65  -4.44c
iter:  26 20:22:08  -331.218178c -5.76  -4.46c
iter:  27 20:24:39  -331.218181c -5.77  -4.49c
iter:  28 20:27:05  -331.218180c -6.11  -4.57c
iter:  29 20:29:32  -331.218179c -5.95  -4.59c
Writing to output.gpw (mode='')

iter:  30 20:31:59  -331.218178c -6.12  -4.73c
iter:  31 20:34:21  -331.218180c -6.21  -4.79c
iter:  32 20:36:48  -331.218180c -6.60  -4.97c
iter:  33 20:39:23  -331.218180c -6.31  -5.01c
iter:  34 20:41:44  -331.218180c -6.38  -5.02c
Writing to output.gpw (mode='')

iter:  35 20:44:26  -331.218180c -6.26  -5.11c
iter:  36 20:47:02  -331.218180c -6.54  -5.08c
iter:  37 20:49:38  -331.218180c -6.67  -5.18c
iter:  38 20:52:10  -331.218180c -6.83  -5.38c
iter:  39 20:54:34  -331.218180c -6.90  -5.51c
Writing to output.gpw (mode='')

iter:  40 20:57:08  -331.218180c -6.97  -5.55c
iter:  41 20:59:40  -331.218180c -6.85  -5.50c
iter:  42 21:02:17  -331.218180c -7.25  -5.50c
iter:  43 21:04:40  -331.218180c -7.40c -5.44c

Converged after 43 iterations.

Dipole moment: (-0.992503, -8.540808, -0.198897) |e|*Ang

Energy contributions relative to reference atoms: (reference = -81178.542429)

Kinetic:       +102.685349
Potential:      -93.355855
External:        +0.000000
XC:            -340.763229
Entropy (-ST):   -0.165268
Local:           +0.298188
--------------------------
Free energy:   -331.300814
Extrapolated:  -331.218180

Dipole-layer corrected work functions: 3.396817, 3.779165 eV

Showing only first 2 kpts
 Kpt  Band  Eigenvalues  Occupancy
  0    25     -3.80190    1.97264
  0    26     -3.70144    1.81255
  0    27     -3.50863    0.33953
  0    28     -3.42534    0.07444

  1    25     -3.73282    1.89536
  1    26     -3.59642    1.08405
  1    27     -3.52467    0.43971
  1    28     -3.40671    0.05189


Fermi level: -3.58799

Gap: 0.015 eV
Transition (v -> c):
  (s=0, k=1, n=26, [0.12, -0.12, 0.00]) -> (s=0, k=7, n=27, [0.38, 0.38, 0.00])
Writing to output.gpw (mode='')


Forces in eV/Ang:
  0 Li    0.02605    0.00300   -0.28437
  1 Li   -0.02813   -0.00428   -0.29035
  2 Li    0.00297   -0.00008   -0.26896
  3 Li    0.01998   -0.00386   -0.29250
  4 Li   -0.01291   -0.00712   -0.28746
  5 Li    0.01144    0.01240   -0.27522
  6 Li    0.01793   -0.00804   -0.28738
  7 Li   -0.00915   -0.00147   -0.28443
  8 Li    0.00522   -0.02016   -0.26773
  9 Li   -0.02736    0.01393    0.31409
 10 Li    0.00389    0.02201    0.27121
 11 Li    0.03911    0.02209    0.33562
 12 Li   -0.00778   -0.01381    0.30532
 13 Li    0.00165   -0.00973    0.25519
 14 Li    0.01442   -0.02068    0.31411
 15 Li    0.01854    0.01186    0.23362
 16 Li   -0.01434    0.01515    0.34168
 17 Li   -0.03464    0.02321    0.24505
 18 Li    0.01298    0.00834   -0.00432
 19 Li   -0.01824   -0.00697   -0.00632
 20 Li    0.02295    0.04057   -0.00420
 21 Li    0.00161    0.01435    0.00133
 22 Li   -0.00390    0.01220   -0.00664
 23 Li   -0.00261    0.01393    0.03918
 24 Li   -0.00823    0.00995    0.00057
 25 Li    0.00427    0.01297    0.01508
 26 Li   -0.01312    0.02760    0.00882
 27 Li   -0.03137   -0.00933   -0.02588
 28 Li    0.00570    0.00425    0.00395
 29 Li   -0.00216   -0.00742    0.05295
 30 Li   -0.17039   -0.08756    0.10419
 31 Li    0.00352   -0.00087   -0.01600
 32 Li    0.06834    0.03726    0.10104
 33 Li    0.01192    0.02278    0.00428
 34 Li   -0.00098   -0.01100   -0.01204
 35 Li   -0.00775    0.02767   -0.00117
 36 Br   -0.02081    0.02296   -0.13364
 37 H     0.03385    0.00644    0.05616
 38 N     0.23996   -0.02591   -0.07961
 39 N    -0.12468   -0.12914   -0.22441

System changes: positions 

Initializing position-dependent things.

Density initialized from wave functions
       .-----------------------.  
      /|                       |  
     / |                       |  
    /  |                       |  
   /   |                       |  
  /    |                       |  
 *     |                       |  
 |     |                       |  
 |     |                       |  
 |     |                       |  
 |     |                       |  
 |     |                       |  
 |     |            Br         |  
 |     |                       |  
 |     |            H          |  
 |     |                       |  
 |     |     Li      Li      Li|  
 |     |  Li      Li  N   Li   |  
 | Li  |   Li      Li  N       |  
 |     |Li      Li      Li     |  
 |     | Li      Li      Li    |  
 |   LLi     LLi     LLi       |  
 |     |  Li      Li      Li   |  
 | Li  |   Li      Li          |  
 |     |Li      Li      Li     |  
 Li    | Li      Li            |  
 |    Li      Li      Li       |  
 |     |                       |  
 |     |                       |  
 |     |                       |  
 |     |                       |  
 |     |                       |  
 |     |                       |  
 |     .-----------------------.  
 |    /                       /   
 |   /                       /    
 |  /                       /     
 | /                       /      
 |/                       /       
 *-----------------------*        

Positions:
   0 Li     1.617037    1.617037   10.000000    ( 0.0000,  0.0000,  0.0000)
   1 Li     4.851111    1.617037   10.000000    ( 0.0000,  0.0000,  0.0000)
   2 Li     8.085185    1.617037   10.000000    ( 0.0000,  0.0000,  0.0000)
   3 Li     1.617037    4.851111   10.000000    ( 0.0000,  0.0000,  0.0000)
   4 Li     4.851111    4.851111   10.000000    ( 0.0000,  0.0000,  0.0000)
   5 Li     8.085185    4.851111   10.000000    ( 0.0000,  0.0000,  0.0000)
   6 Li     1.617037    8.085185   10.000000    ( 0.0000,  0.0000,  0.0000)
   7 Li     4.851111    8.085185   10.000000    ( 0.0000,  0.0000,  0.0000)
   8 Li     8.085185    8.085185   10.000000    ( 0.0000,  0.0000,  0.0000)
   9 Li     0.000000    0.000000   11.617037    ( 0.0000,  0.0000,  0.0000)
  10 Li     3.234074    0.000000   11.617037    ( 0.0000,  0.0000,  0.0000)
  11 Li     6.468148    0.000000   11.617037    ( 0.0000,  0.0000,  0.0000)
  12 Li     0.000000    3.234074   11.617037    ( 0.0000,  0.0000,  0.0000)
  13 Li     3.234074    3.234074   11.617037    ( 0.0000,  0.0000,  0.0000)
  14 Li     6.468148    3.234074   11.617037    ( 0.0000,  0.0000,  0.0000)
  15 Li     0.000000    6.468148   11.617037    ( 0.0000,  0.0000,  0.0000)
  16 Li     3.234074    6.468148   11.617037    ( 0.0000,  0.0000,  0.0000)
  17 Li     6.468148    6.468148   11.617037    ( 0.0000,  0.0000,  0.0000)
  18 Li     1.603562    1.629711   13.494878    ( 0.0000,  0.0000,  0.0000)
  19 Li     4.859048    1.624680   13.484167    ( 0.0000,  0.0000,  0.0000)
  20 Li     8.117545    1.650320   13.549657    ( 0.0000,  0.0000,  0.0000)
  21 Li     1.589131    4.842798   13.499940    ( 0.0000,  0.0000,  0.0000)
  22 Li     4.882551    4.829335   13.500407    ( 0.0000,  0.0000,  0.0000)
  23 Li     8.080251    4.884484   13.432046    ( 0.0000,  0.0000,  0.0000)
  24 Li     1.565787    8.140813   13.530111    ( 0.0000,  0.0000,  0.0000)
  25 Li     4.864180    8.122124   13.517743    ( 0.0000,  0.0000,  0.0000)
  26 Li     8.086360    8.076584   13.476810    ( 0.0000,  0.0000,  0.0000)
  27 Li    -0.174880    0.169779   15.466586    ( 0.0000,  0.0000,  0.0000)
  28 Li     3.234336    0.011016   15.443809    ( 0.0000,  0.0000,  0.0000)
  29 Li     6.582960    0.142684   15.515908    ( 0.0000,  0.0000,  0.0000)
  30 Li     0.018120    3.257455   15.575454    ( 0.0000,  0.0000,  0.0000)
  31 Li     3.253218    3.236876   15.416020    ( 0.0000,  0.0000,  0.0000)
  32 Li     6.413974    3.254568   15.539217    ( 0.0000,  0.0000,  0.0000)
  33 Li    -0.003483    6.516695   15.445534    ( 0.0000,  0.0000,  0.0000)
  34 Li     3.240959    6.434445   15.440419    ( 0.0000,  0.0000,  0.0000)
  35 Li     6.473811    6.515183   15.438148    ( 0.0000,  0.0000,  0.0000)
  36 Br     7.496271    1.180241   21.043222    ( 0.0000,  0.0000,  0.0000)
  37 H      7.210527    1.625080   19.704578    ( 0.0000,  0.0000,  0.0000)
  38 N      8.320723    1.649912   16.019481    ( 0.0000,  0.0000,  0.0000)
  39 N      7.995828    2.633183   16.643426    ( 0.0000,  0.0000,  0.0000)

Unit cell:
           periodic     x           y           z      points  spacing
  1. axis:    yes    9.702222    0.000000    0.000000    60     0.1617
  2. axis:    yes    0.000000    9.702222    0.000000    60     0.1617
  3. axis:    no     0.000000    0.000000   26.851111   168     0.1598

  Lengths:   9.702222   9.702222  26.851111
  Angles:   90.000000  90.000000  90.000000

Effective grid spacing dv^(1/3) = 0.1611

     iter     time        total  log10-change:
                         energy  eigst   dens
iter:   1 21:07:40  -331.284853  -0.68
iter:   2 21:10:08  -331.282961  -1.17  -1.64
iter:   3 21:12:45  -331.250533  -1.75  -1.69
iter:   4 21:15:06  -331.245314  -2.04  -1.99
Writing to output.gpw (mode='')

iter:   5 21:17:39  -331.241350c -1.79  -2.16
iter:   6 21:20:10  -331.241190c -2.04  -2.45
iter:   7 21:22:32  -331.241229c -2.36  -2.52
iter:   8 21:25:07  -331.241670c -2.68  -2.66
iter:   9 21:27:40  -331.241529c -3.02  -2.76
Writing to output.gpw (mode='')

iter:  10 21:30:14  -331.241767c -3.23  -2.87
iter:  11 21:32:40  -331.241675c -3.36  -3.02
iter:  12 21:35:20  -331.241663c -3.60  -3.14
iter:  13 21:37:57  -331.241662c -3.75  -3.27
iter:  14 21:40:27  -331.241681c -3.81  -3.35
Writing to output.gpw (mode='')

iter:  15 21:42:58  -331.241677c -4.06  -3.47
iter:  16 21:45:21  -331.241701c -4.22  -3.54
iter:  17 21:47:50  -331.241733c -4.36  -3.61
iter:  18 21:50:18  -331.241747c -4.49  -3.74
iter:  19 21:52:43  -331.241743c -4.51  -3.85
Writing to output.gpw (mode='')

iter:  20 21:55:16  -331.241752c -4.54  -3.96
iter:  21 21:57:46  -331.241746c -4.65  -4.09c
iter:  22 22:00:22  -331.241751c -4.77  -4.10c
iter:  23 22:02:55  -331.241751c -5.06  -4.23c
iter:  24 22:05:24  -331.241753c -5.20  -4.30c
Writing to output.gpw (mode='')

iter:  25 22:07:53  -331.241751c -5.03  -4.39c
iter:  26 22:10:22  -331.241752c -5.26  -4.45c
iter:  27 22:12:56  -331.241757c -5.46  -4.49c
iter:  28 22:15:28  -331.241757c -5.68  -4.58c
iter:  29 22:17:53  -331.241757c -5.61  -4.65c
Writing to output.gpw (mode='')

iter:  30 22:20:23  -331.241757c -5.85  -4.72c
iter:  31 22:22:50  -331.241757c -5.77  -4.74c
iter:  32 22:25:20  -331.241758c -5.81  -4.85c
iter:  33 22:27:56  -331.241758c -5.76  -4.89c
iter:  34 22:30:31  -331.241758c -6.09  -4.89c
Writing to output.gpw (mode='')

iter:  35 22:33:04  -331.241759c -5.96  -4.88c
iter:  36 22:35:36  -331.241759c -6.27  -4.75c
iter:  37 22:38:03  -331.241759c -6.35  -4.75c
iter:  38 22:40:39  -331.241759c -6.49  -4.72c
iter:  39 22:43:04  -331.241759c -6.52  -4.76c
Writing to output.gpw (mode='')

iter:  40 22:45:45  -331.241760c -6.76  -4.89c
iter:  41 22:48:13  -331.241759c -6.72  -4.88c
iter:  42 22:50:42  -331.241759c -6.56  -4.90c
iter:  43 22:53:18  -331.241759c -6.61  -4.96c
iter:  44 22:55:46  -331.241760c -6.78  -5.11c
Writing to output.gpw (mode='')

iter:  45 22:58:13  -331.241760c -7.11  -5.28c
iter:  46 23:00:49  -331.241759c -6.96  -5.40c
iter:  47 23:03:12  -331.241760c -7.27  -5.54c
