
  ___ ___ ___ _ _ _  
 |   |   |_  | | | | 
 | | | | | . | | | | 
 |__ |  _|___|_____|  22.8.0
 |___|_|             

User:   vazumah@c13.hercules
Date:   Thu Mar  2 01:08:57 2023
Arch:   x86_64
Pid:    20682
CWD:    /home/vazumah/Python_projects/LiNRR/Li_adsorb_studies/proton_donors/N2_with_proton_donor/Li_BCC_100/adsorbates/HBr/bridge/8.085_1.617/N2_y
Python: 3.10.8
gpaw:   /home/vazumah/.conda/envs/GPAW/lib/python3.10/site-packages/gpaw
_gpaw:  /home/vazumah/.conda/envs/GPAW/lib/python3.10/site-packages/
        _gpaw.cpython-310-x86_64-linux-gnu.so
ase:    /home/vazumah/.conda/envs/GPAW/lib/python3.10/site-packages/ase (version 3.22.1)
numpy:  /home/vazumah/.conda/envs/GPAW/lib/python3.10/site-packages/numpy (version 1.24.1)
scipy:  /home/vazumah/.conda/envs/GPAW/lib/python3.10/site-packages/scipy (version 1.10.0)
libxc:  5.2.3
units:  Angstrom and eV
cores: 24
OpenMP: True
OMP_NUM_THREADS: 1

Input parameters:
  h: 0.16
  kpts: {size: [4, 4, 1]}
  occupations: {name: fermi-dirac,
                width: 0.05}
  poissonsolver: {dipolelayer: xy}
  xc: BEEF-vdW

System changes: positions, numbers, cell, pbc, initial_charges, initial_magmoms 

Initialize ...

species:
  Li:
    name: Lithium
    id: 830b4218f175192f93f959cfc0aad614
    Z: 3.0
    valence: 1
    core: 2
    charge: 0.0
    file: /home/vazumah/.conda/envs/GPAW/share/gpaw/Li.PBE.gz
    compensation charges: {type: gauss,
                           rc: 0.33,
                           lmax: 2}
    cutoffs: {filter: 1.91,
              core: 2.55}
    valence states:
      #              energy  rcut
      - 2s(1.00)    -2.874   1.058
      - 2p(0.00)    -1.090   1.058
      -  s          24.337   1.058
  
    # Using partial waves for Li as LCAO basis

  Br:
    name: Bromine
    id: 39dc90fcf3bf77f2d83386b416c2c495
    Z: 35.0
    valence: 7
    core: 28
    charge: 0.0
    file: /home/vazumah/.conda/envs/GPAW/share/gpaw/Br.PBE.gz
    compensation charges: {type: gauss,
                           rc: 0.35,
                           lmax: 2}
    cutoffs: {filter: 1.98,
              core: 2.38}
    valence states:
      #              energy  rcut
      - 4s(2.00)   -20.121   1.111
      - 4p(5.00)    -7.861   1.111
      -  s           7.091   1.111
      -  p          19.351   1.111
      -  d           0.000   1.111
  
    # Using partial waves for Br as LCAO basis

  H:
    name: Hydrogen
    id: d65de229564ff8ea4db303e23b6d1ecf
    Z: 1.0
    valence: 1
    core: 0
    charge: 0.0
    file: /home/vazumah/.conda/envs/GPAW/share/gpaw/H.PBE.gz
    compensation charges: {type: gauss,
                           rc: 0.15,
                           lmax: 2}
    cutoffs: {filter: 0.85,
              core: 0.53}
    valence states:
      #              energy  rcut
      - 1s(1.00)    -6.494   0.476
      -  s          20.717   0.476
      -  p           0.000   0.476
  
    # Using partial waves for H as LCAO basis

  N:
    name: Nitrogen
    id: f7500608b86eaa90eef8b1d9a670dc53
    Z: 7.0
    valence: 5
    core: 2
    charge: 0.0
    file: /home/vazumah/.conda/envs/GPAW/share/gpaw/N.PBE.gz
    compensation charges: {type: gauss,
                           rc: 0.18,
                           lmax: 2}
    cutoffs: {filter: 1.11,
              core: 0.96}
    valence states:
      #              energy  rcut
      - 2s(2.00)   -18.583   0.603
      - 2p(3.00)    -7.089   0.529
      -  s           8.629   0.603
      -  p          20.123   0.529
      -  d           0.000   0.577
  
    # Using partial waves for N as LCAO basis

Reference energy: -81178.542429  # eV

Spin-paired calculation

Convergence criteria:
 Maximum [total energy] change in last 3 cyles: 0.0005 eV / electron
 Maximum integral of absolute [dens]ity change: 0.0001 electrons / valence electron
 Maximum integral of absolute [eigenst]ate change: 4e-08 eV^2 / valence electron
 Maximum number of scf [iter]ations: 333
 (Square brackets indicate name in SCF output, whereas a 'c' in
 the SCF output indicates the quantity has converged.)

Symmetries present (total): 1

  ( 1  0  0)
  ( 0  1  0)
  ( 0  0  1)

16 k-points: 4 x 4 x 1 Monkhorst-Pack grid
8 k-points in the irreducible part of the Brillouin zone
       k-points in crystal coordinates                weights
   0:     0.12500000   -0.37500000    0.00000000          2/16
   1:     0.12500000   -0.12500000    0.00000000          2/16
   2:     0.12500000    0.12500000    0.00000000          2/16
   3:     0.12500000    0.37500000    0.00000000          2/16
   4:     0.37500000   -0.37500000    0.00000000          2/16
   5:     0.37500000   -0.12500000    0.00000000          2/16
   6:     0.37500000    0.12500000    0.00000000          2/16
   7:     0.37500000    0.37500000    0.00000000          2/16

Wave functions: Uniform real-space grid
  Kinetic energy operator: 6*3+1=19 point O(h^6) finite-difference Laplacian
  ScaLapack parameters: grid=1x1, blocksize=None
  Wavefunction extrapolation:
    Improved wavefunction reuse through dual PAW basis 

Occupation numbers: Fermi-Dirac:
  width: 0.0500  # eV
 

Eigensolver
   Davidson(niter=2) 

Densities:
  Coarse grid: 60*60*168 grid
  Fine grid: 120*120*336 grid
  Total Charge: 0.000000 

Density mixing:
  Method: separate
  Backend: pulay
  Linear mixing parameter: 0.05
  old densities: 5
  Damping of long wavelength oscillations: 50 

Hamiltonian:
  XC and Coulomb potentials evaluated on a 120*120*336 grid
  Using the BEEF-vdW Exchange-Correlation functional
  Interpolation: tri-quintic (5. degree polynomial)
  Poisson solver: FastPoissonSolver using
    Stencil: 6*3+1=19 point O(h^6) finite-difference Laplacian
    FFT axes: [0, 1]
    FST axes: [2]

Dipole correction along z-axis 

XC parameters: BEEF-vdW with 2 nearest neighbor stencil

Memory estimate:
  Process memory now: 226.97 MiB
  Calculator: 395.41 MiB
    Density: 121.75 MiB
      Arrays: 39.61 MiB
      Localized functions: 67.04 MiB
      Mixer: 15.11 MiB
    Hamiltonian: 31.20 MiB
      Arrays: 25.90 MiB
      XC: 0.00 MiB
      Poisson: 0.00 MiB
      vbar: 5.30 MiB
    Wavefunctions: 242.46 MiB
      Arrays psit_nG: 111.79 MiB
      Eigensolver: 127.10 MiB
      Projections: 0.04 MiB
      Projectors: 3.53 MiB

Total number of cores used: 24
Parallelization over k-points: 8
Domain decomposition: 1 x 1 x 3

Number of atoms: 40
Number of atomic orbitals: 157
Number of bands in calculation: 37
Number of valence electrons: 54
Bands to converge: occupied

... initialized

Initializing position-dependent things.

Density initialized from atomic densities
Creating initial wave functions:
  37 bands from LCAO basis set

       .-----------------------.  
      /|                       |  
     / |                       |  
    /  |                       |  
   /   |                       |  
  /    |                       |  
 *     |                       |  
 |     |                       |  
 |     |                       |  
 |     |                       |  
 |     |                       |  
 |     |                       |  
 |     |                       |  
 |     |                       |  
 |     |          H   Br       |  
 |     |                       |  
 |   Li|     Li      LiN       |  
 |     |  Li      Li  N   Li   |  
 | Li  |   Li      Li          |  
 |     |Li      Li      Li     |  
 Li    | Li      Li            |  
 |   LLi     LLi     LLi       |  
 |     |  Li      Li      Li   |  
 | Li  |   Li      Li          |  
 |     |Li      Li      Li     |  
 Li    | Li      Li            |  
 |    Li      Li      Li       |  
 |     |                       |  
 |     |                       |  
 |     |                       |  
 |     |                       |  
 |     |                       |  
 |     |                       |  
 |     .-----------------------.  
 |    /                       /   
 |   /                       /    
 |  /                       /     
 | /                       /      
 |/                       /       
 *-----------------------*        

Positions:
   0 Li     1.617037    1.617037   10.000000    ( 0.0000,  0.0000,  0.0000)
   1 Li     4.851111    1.617037   10.000000    ( 0.0000,  0.0000,  0.0000)
   2 Li     8.085185    1.617037   10.000000    ( 0.0000,  0.0000,  0.0000)
   3 Li     1.617037    4.851111   10.000000    ( 0.0000,  0.0000,  0.0000)
   4 Li     4.851111    4.851111   10.000000    ( 0.0000,  0.0000,  0.0000)
   5 Li     8.085185    4.851111   10.000000    ( 0.0000,  0.0000,  0.0000)
   6 Li     1.617037    8.085185   10.000000    ( 0.0000,  0.0000,  0.0000)
   7 Li     4.851111    8.085185   10.000000    ( 0.0000,  0.0000,  0.0000)
   8 Li     8.085185    8.085185   10.000000    ( 0.0000,  0.0000,  0.0000)
   9 Li     0.000000    0.000000   11.617037    ( 0.0000,  0.0000,  0.0000)
  10 Li     3.234074    0.000000   11.617037    ( 0.0000,  0.0000,  0.0000)
  11 Li     6.468148    0.000000   11.617037    ( 0.0000,  0.0000,  0.0000)
  12 Li     0.000000    3.234074   11.617037    ( 0.0000,  0.0000,  0.0000)
  13 Li     3.234074    3.234074   11.617037    ( 0.0000,  0.0000,  0.0000)
  14 Li     6.468148    3.234074   11.617037    ( 0.0000,  0.0000,  0.0000)
  15 Li     0.000000    6.468148   11.617037    ( 0.0000,  0.0000,  0.0000)
  16 Li     3.234074    6.468148   11.617037    ( 0.0000,  0.0000,  0.0000)
  17 Li     6.468148    6.468148   11.617037    ( 0.0000,  0.0000,  0.0000)
  18 Li     1.617038    1.617038   13.469728    ( 0.0000,  0.0000,  0.0000)
  19 Li     4.851111    1.617038   13.469729    ( 0.0000,  0.0000,  0.0000)
  20 Li     8.085184    1.617038   13.469728    ( 0.0000,  0.0000,  0.0000)
  21 Li     1.617038    4.851111   13.469729    ( 0.0000,  0.0000,  0.0000)
  22 Li     4.851111    4.851111   13.469730    ( 0.0000,  0.0000,  0.0000)
  23 Li     8.085184    4.851111   13.469729    ( 0.0000,  0.0000,  0.0000)
  24 Li     1.617038    8.085184   13.469728    ( 0.0000,  0.0000,  0.0000)
  25 Li     4.851111    8.085184   13.469729    ( 0.0000,  0.0000,  0.0000)
  26 Li     8.085184    8.085184   13.469728    ( 0.0000,  0.0000,  0.0000)
  27 Li    -0.000000   -0.000000   15.445939    ( 0.0000,  0.0000,  0.0000)
  28 Li     3.234074    0.000000   15.445939    ( 0.0000,  0.0000,  0.0000)
  29 Li     6.468148    0.000000   15.445939    ( 0.0000,  0.0000,  0.0000)
  30 Li     0.000000    3.234074   15.445939    ( 0.0000,  0.0000,  0.0000)
  31 Li     3.234076    3.234076   15.445938    ( 0.0000,  0.0000,  0.0000)
  32 Li     6.468146    3.234076   15.445938    ( 0.0000,  0.0000,  0.0000)
  33 Li     0.000000    6.468148   15.445939    ( 0.0000,  0.0000,  0.0000)
  34 Li     3.234076    6.468146   15.445938    ( 0.0000,  0.0000,  0.0000)
  35 Li     6.468146    6.468146   15.445938    ( 0.0000,  0.0000,  0.0000)
  36 Br     8.085185    1.617037   19.445939    ( 0.0000,  0.0000,  0.0000)
  37 H      6.663328    1.617037   19.445939    ( 0.0000,  0.0000,  0.0000)
  38 N      8.085000    1.617000   17.445939    ( 0.0000,  0.0000,  0.0000)
  39 N      8.085000    2.713622   17.445939    ( 0.0000,  0.0000,  0.0000)

Unit cell:
           periodic     x           y           z      points  spacing
  1. axis:    yes    9.702222    0.000000    0.000000    60     0.1617
  2. axis:    yes    0.000000    9.702222    0.000000    60     0.1617
  3. axis:    no     0.000000    0.000000   26.851111   168     0.1598

  Lengths:   9.702222   9.702222  26.851111
  Angles:   90.000000  90.000000  90.000000

Effective grid spacing dv^(1/3) = 0.1611

     iter     time        total  log10-change:
                         energy  eigst   dens
iter:   1 01:12:14  -482.672540
iter:   2 01:14:49  -254.961803  +2.33  -0.07
iter:   3 01:17:13  -203.496753  +3.24  -0.22
iter:   4 01:19:45  -275.065275  +3.10  -0.18
Writing to output.gpw (mode='')

iter:   5 01:22:22  -265.712377  +2.71  -0.19
iter:   6 01:24:50  -298.503388  +2.54  -0.58
iter:   7 01:27:17  -319.849475  +2.22  -0.73
iter:   8 01:29:55  -334.147918  +1.97  -0.75
iter:   9 01:32:21  -340.721006  +1.88  -0.65
Writing to output.gpw (mode='')

iter:  10 01:34:49  -342.139053  +1.79  -0.70
iter:  11 01:37:14  -334.899605  +1.27  -0.64
iter:  12 01:39:44  -327.064903  +1.16  -0.74
iter:  13 01:42:19  -327.325741  +0.80  -0.98
iter:  14 01:44:51  -327.660307  +0.60  -0.97
Writing to output.gpw (mode='')

iter:  15 01:47:22  -327.496417  +0.60  -0.99
iter:  16 01:49:49  -326.798932  +0.59  -0.99
iter:  17 01:52:17  -326.724049  +0.04  -1.19
iter:  18 01:54:53  -326.835876  +0.35  -1.22
iter:  19 01:57:17  -326.666852  -0.01  -1.25
Writing to output.gpw (mode='')

iter:  20 01:59:51  -326.739919  -0.17  -1.38
iter:  21 02:02:19  -326.715874  -0.40  -1.47
iter:  22 02:04:50  -326.776364  -0.18  -1.47
iter:  23 02:07:20  -326.721360  -0.34  -1.57
iter:  24 02:09:55  -326.723906  -0.61  -1.76
Writing to output.gpw (mode='')

iter:  25 02:12:32  -326.740993c -0.78  -1.80
iter:  26 02:14:57  -326.741373c -1.08  -1.85
iter:  27 02:17:23  -326.755385c -0.93  -1.91
iter:  28 02:19:53  -326.762567c -1.15  -2.04
iter:  29 02:22:20  -326.770492c -1.12  -2.14
Writing to output.gpw (mode='')

iter:  30 02:25:00  -326.771586c -1.52  -2.19
iter:  31 02:27:24  -326.775600c -1.38  -2.35
iter:  32 02:30:00  -326.779164c -1.70  -2.53
iter:  33 02:32:31  -326.782493c -1.65  -2.64
iter:  34 02:35:09  -326.786862c -1.54  -2.69
Writing to output.gpw (mode='')

iter:  35 02:37:38  -326.789450c -1.86  -2.76
iter:  36 02:40:00  -326.791551c -1.89  -2.83
iter:  37 02:42:22  -326.792992c -2.16  -2.86
iter:  38 02:44:46  -326.794391c -2.23  -2.94
iter:  39 02:47:17  -326.795737c -2.20  -3.14
Writing to output.gpw (mode='')

iter:  40 02:49:52  -326.796568c -2.44  -3.16
iter:  41 02:52:23  -326.797381c -2.35  -3.20
iter:  42 02:54:57  -326.798288c -2.36  -3.26
iter:  43 02:57:23  -326.798953c -2.46  -3.36
iter:  44 02:59:56  -326.799529c -2.52  -3.43
Writing to output.gpw (mode='')

iter:  45 03:02:32  -326.799969c -2.77  -3.50
iter:  46 03:05:03  -326.800338c -2.92  -3.77
iter:  47 03:07:41  -326.800652c -2.78  -3.74
iter:  48 03:10:18  -326.800922c -2.87  -3.80
iter:  49 03:12:55  -326.801208c -2.80  -3.76
Writing to output.gpw (mode='')

iter:  50 03:15:24  -326.801485c -2.70  -3.66
iter:  51 03:17:56  -326.801695c -2.99  -3.61
iter:  52 03:20:23  -326.801881c -3.10  -3.51
iter:  53 03:22:55  -326.802024c -3.24  -3.55
iter:  54 03:25:23  -326.802160c -3.13  -3.61
Writing to output.gpw (mode='')

iter:  55 03:28:03  -326.802293c -3.06  -3.57
iter:  56 03:30:29  -326.802435c -3.03  -3.54
iter:  57 03:32:58  -326.802572c -3.16  -3.51
iter:  58 03:35:25  -326.802651c -3.48  -3.50
iter:  59 03:37:49  -326.802724c -3.55  -3.40
Writing to output.gpw (mode='')

iter:  60 03:39:18  -326.802775c -3.72  -3.58
iter:  61 03:40:09  -326.802848c -3.48  -3.56
iter:  62 03:41:00  -326.802906c -3.41  -3.53
iter:  63 03:41:51  -326.802953c -3.47  -3.53
iter:  64 03:42:42  -326.802991c -3.62  -3.51
Writing to output.gpw (mode='')

iter:  65 03:43:35  -326.803008c -3.93  -3.48
iter:  66 03:44:26  -326.803035c -3.92  -3.61
iter:  67 03:45:17  -326.803062c -3.89  -3.61
iter:  68 03:46:08  -326.803081c -3.88  -3.60
iter:  69 03:46:59  -326.803104c -3.90  -3.52
Writing to output.gpw (mode='')

iter:  70 03:47:52  -326.803119c -4.04  -3.55
iter:  71 03:48:43  -326.803137c -4.14  -3.60
iter:  72 03:49:34  -326.803156c -4.04  -3.55
iter:  73 03:50:25  -326.803149c -3.92  -3.61
iter:  74 03:51:16  -326.803182c -3.97  -3.60
Writing to output.gpw (mode='')

iter:  75 03:52:10  -326.803181c -4.25  -3.61
iter:  76 03:53:01  -326.803214c -4.32  -3.59
iter:  77 03:53:52  -326.803218c -4.16  -3.77
iter:  78 03:54:43  -326.803225c -4.50  -3.83
iter:  79 03:55:34  -326.803232c -4.47  -3.84
Writing to output.gpw (mode='')

iter:  80 03:56:26  -326.803238c -4.34  -3.84
iter:  81 03:57:17  -326.803237c -4.48  -3.87
iter:  82 03:58:08  -326.803242c -4.73  -4.28c
iter:  83 03:58:59  -326.803250c -4.58  -4.34c
iter:  84 03:59:50  -326.803256c -4.55  -4.45c
Writing to output.gpw (mode='')

iter:  85 04:00:42  -326.803259c -4.33  -4.52c
iter:  86 04:01:33  -326.803264c -4.42  -4.63c
iter:  87 04:02:24  -326.803264c -4.53  -4.76c
iter:  88 04:03:16  -326.803266c -4.73  -4.83c
iter:  89 04:04:07  -326.803268c -4.79  -4.84c
Writing to output.gpw (mode='')

iter:  90 04:04:59  -326.803269c -4.92  -4.94c
iter:  91 04:05:50  -326.803270c -4.72  -5.04c
iter:  92 04:06:41  -326.803271c -4.99  -5.03c
iter:  93 04:07:32  -326.803273c -4.99  -5.11c
iter:  94 04:08:23  -326.803273c -5.12  -5.24c
Writing to output.gpw (mode='')

iter:  95 04:09:16  -326.803273c -5.16  -5.35c
iter:  96 04:10:07  -326.803273c -5.13  -5.32c
iter:  97 04:10:58  -326.803273c -5.06  -5.16c
iter:  98 04:11:49  -326.803273c -5.26  -5.12c
iter:  99 04:12:40  -326.803273c -5.38  -5.12c
Writing to output.gpw (mode='')

iter: 100 04:13:32  -326.803273c -5.41  -5.07c
iter: 101 04:14:23  -326.803273c -5.45  -5.03c
iter: 102 04:15:14  -326.803273c -5.46  -5.01c
iter: 103 04:16:05  -326.803272c -5.34  -5.00c
iter: 104 04:16:56  -326.803273c -5.25  -4.94c
Writing to output.gpw (mode='')

iter: 105 04:17:49  -326.803272c -5.75  -4.88c
iter: 106 04:18:40  -326.803272c -5.80  -4.88c
iter: 107 04:19:31  -326.803272c -5.71  -4.85c
iter: 108 04:20:22  -326.803272c -5.66  -4.84c
iter: 109 04:21:14  -326.803272c -5.82  -4.80c
Writing to output.gpw (mode='')

iter: 110 04:22:06  -326.803271c -5.68  -4.87c
iter: 111 04:22:57  -326.803272c -5.93  -4.78c
iter: 112 04:23:49  -326.803271c -6.02  -4.84c
iter: 113 04:24:40  -326.803272c -5.97  -4.73c
iter: 114 04:25:31  -326.803274c -5.97  -4.95c
Writing to output.gpw (mode='')

iter: 115 04:26:25  -326.803274c -6.06  -5.17c
iter: 116 04:27:16  -326.803273c -5.83  -5.21c
iter: 117 04:28:07  -326.803273c -6.03  -5.31c
iter: 118 04:28:58  -326.803273c -5.90  -5.38c
iter: 119 04:29:49  -326.803273c -6.10  -5.41c
Writing to output.gpw (mode='')

iter: 120 04:30:41  -326.803273c -6.21  -5.50c
iter: 121 04:31:32  -326.803273c -6.25  -5.67c
iter: 122 04:32:23  -326.803273c -6.25  -5.74c
iter: 123 04:33:14  -326.803273c -6.38  -5.73c
iter: 124 04:34:05  -326.803272c -6.11  -5.68c
Writing to output.gpw (mode='')

iter: 125 04:34:57  -326.803272c -6.42  -5.68c
iter: 126 04:35:48  -326.803272c -6.43  -5.64c
iter: 127 04:36:39  -326.803272c -6.54  -5.62c
iter: 128 04:37:30  -326.803272c -6.33  -5.52c
iter: 129 04:38:21  -326.803272c -6.49  -5.45c
Writing to output.gpw (mode='')

iter: 130 04:39:14  -326.803272c -6.59  -5.50c
iter: 131 04:40:06  -326.803272c -6.43  -5.40c
iter: 132 04:40:57  -326.803272c -6.47  -5.47c
iter: 133 04:41:48  -326.803272c -6.74  -5.53c
iter: 134 04:42:39  -326.803272c -6.59  -5.52c
Writing to output.gpw (mode='')

iter: 135 04:43:30  -326.803272c -6.67  -5.67c
iter: 136 04:44:21  -326.803272c -6.71  -5.74c
iter: 137 04:45:12  -326.803272c -6.89  -6.17c
iter: 138 04:46:04  -326.803272c -6.87  -6.19c
iter: 139 04:46:55  -326.803272c -6.89  -6.20c
Writing to output.gpw (mode='')

iter: 140 04:47:47  -326.803272c -6.63  -6.32c
iter: 141 04:48:38  -326.803272c -6.93  -6.38c
iter: 142 04:49:29  -326.803272c -6.90  -6.35c
iter: 143 04:50:20  -326.803272c -6.95  -6.36c
iter: 144 04:51:11  -326.803272c -7.02  -6.44c
Writing to output.gpw (mode='')

iter: 145 04:52:04  -326.803272c -7.00  -6.44c
iter: 146 04:52:55  -326.803271c -7.18  -6.42c
iter: 147 04:53:46  -326.803271c -7.10  -6.22c
iter: 148 04:54:37  -326.803271c -7.13  -6.23c
iter: 149 04:55:28  -326.803271c -7.09  -6.23c
Writing to output.gpw (mode='')

iter: 150 04:56:20  -326.803271c -7.21  -6.21c
iter: 151 04:57:11  -326.803271c -7.29  -6.27c
iter: 152 04:58:02  -326.803271c -7.22  -6.21c
iter: 153 04:58:53  -326.803271c -7.31  -6.16c
iter: 154 04:59:44  -326.803271c -7.12  -6.22c
Writing to output.gpw (mode='')

iter: 155 05:00:38  -326.803271c -7.34  -6.16c
iter: 156 05:01:29  -326.803271c -7.43c -6.06c

Converged after 156 iterations.

Dipole moment: (-1.854265, -3.659717, 0.055833) |e|*Ang

Energy contributions relative to reference atoms: (reference = -81178.542429)

Kinetic:       +136.041964
Potential:     -119.631171
External:        +0.000000
XC:            -343.349537
Entropy (-ST):   -0.157278
Local:           +0.214112
--------------------------
Free energy:   -326.881910
Extrapolated:  -326.803271

Dipole-layer corrected work functions: 3.391768, 3.284437 eV

Showing only first 2 kpts
 Kpt  Band  Eigenvalues  Occupancy
  0    25     -3.59058    1.98726
  0    26     -3.50877    1.93624
  0    27     -3.18403    0.08776
  0    28     -3.10307    0.01801

  1    25     -3.37175    1.32433
  1    26     -3.33039    0.92299
  1    27     -3.30849    0.71226
  1    28     -3.26884    0.40032


Fermi level: -3.33810

No gap
Writing to output.gpw (mode='')


Forces in eV/Ang:
  0 Li    0.02010    0.00150   -0.27174
  1 Li   -0.02019    0.00144   -0.27150
  2 Li   -0.00012   -0.00933   -0.27361
  3 Li    0.00377    0.00131   -0.27328
  4 Li   -0.00471    0.00032   -0.27343
  5 Li    0.00113    0.02238   -0.26943
  6 Li   -0.00353    0.00071   -0.27896
  7 Li    0.00236    0.00188   -0.27835
  8 Li    0.00084   -0.01552   -0.27013
  9 Li    0.00256   -0.01057    0.26648
 10 Li    0.00150    0.01527    0.25222
 11 Li   -0.00346   -0.00941    0.26775
 12 Li   -0.00622    0.00201    0.29364
 13 Li   -0.00038   -0.00529    0.23671
 14 Li    0.00617    0.00154    0.29489
 15 Li   -0.00318    0.01306    0.24074
 16 Li   -0.00025   -0.01472    0.27138
 17 Li    0.00314    0.01206    0.24392
 18 Li   -0.01606    0.00679    0.05619
 19 Li    0.01623    0.00655    0.06163
 20 Li    0.00013   -0.01823   -0.13133
 21 Li   -0.02077   -0.01487    0.05550
 22 Li    0.01978   -0.01463    0.05438
 23 Li    0.00139    0.01864    0.00073
 24 Li    0.00297    0.00274    0.03853
 25 Li   -0.00241    0.00303    0.03743
 26 Li   -0.00025    0.00401    0.05157
 27 Li    0.04180   -0.08820   -0.04455
 28 Li    0.00368    0.02775   -0.00772
 29 Li   -0.04719   -0.08740   -0.05324
 30 Li   -0.00599    0.05588    0.00002
 31 Li    0.00686   -0.01535   -0.01375
 32 Li    0.01071    0.05635    0.00159
 33 Li    0.00485    0.01091   -0.03182
 34 Li    0.00005   -0.00892   -0.01401
 35 Li   -0.00491    0.01380   -0.03075
 36 Br    0.52091   -2.63518   10.40065
 37 H    -0.44953    0.01663   -0.14510
 38 N    -0.03249   -3.83903   -5.46034
 39 N    -0.05081    6.52431   -4.71445

System changes: positions 

Initializing position-dependent things.

Density initialized from wave functions
       .-----------------------.  
      /|                       |  
     / |                       |  
    /  |                       |  
   /   |                       |  
  /    |                       |  
 *     |                       |  
 |     |                       |  
 |     |                       |  
 |     |                       |  
 |     |                       |  
 |     |                       |  
 |     |                       |  
 |     |                       |  
 |     Li         H   Bri      |  
 |     |                       |  
 |   Li|     Li      LiN       |  
 |     |  Li      Li  N   Li   |  
 |     |   Li      Li      Li  |  
 |     |Li      Li      Li     |  
 |     | Li                    |  
 |   LLi     LLi     LLi       |  
 |     |  Li      Li      Li   |  
 | Li  |   Li      Li          |  
 |     |Li      Li      Li     |  
 Li    | Li      Li            |  
 |    Li      Li      Li       |  
 |     |                       |  
 |     |                       |  
 |     |                       |  
 |     |                       |  
 |     |                       |  
 |     |                       |  
 |     .-----------------------.  
 |    /                       /   
 |   /                       /    
 |  /                       /     
 | /                       /      
 |/                       /       
 *-----------------------*        

Positions:
   0 Li     1.617037    1.617037   10.000000    ( 0.0000,  0.0000,  0.0000)
   1 Li     4.851111    1.617037   10.000000    ( 0.0000,  0.0000,  0.0000)
   2 Li     8.085185    1.617037   10.000000    ( 0.0000,  0.0000,  0.0000)
   3 Li     1.617037    4.851111   10.000000    ( 0.0000,  0.0000,  0.0000)
   4 Li     4.851111    4.851111   10.000000    ( 0.0000,  0.0000,  0.0000)
   5 Li     8.085185    4.851111   10.000000    ( 0.0000,  0.0000,  0.0000)
   6 Li     1.617037    8.085185   10.000000    ( 0.0000,  0.0000,  0.0000)
   7 Li     4.851111    8.085185   10.000000    ( 0.0000,  0.0000,  0.0000)
   8 Li     8.085185    8.085185   10.000000    ( 0.0000,  0.0000,  0.0000)
   9 Li     0.000000    0.000000   11.617037    ( 0.0000,  0.0000,  0.0000)
  10 Li     3.234074    0.000000   11.617037    ( 0.0000,  0.0000,  0.0000)
  11 Li     6.468148    0.000000   11.617037    ( 0.0000,  0.0000,  0.0000)
  12 Li     0.000000    3.234074   11.617037    ( 0.0000,  0.0000,  0.0000)
  13 Li     3.234074    3.234074   11.617037    ( 0.0000,  0.0000,  0.0000)
  14 Li     6.468148    3.234074   11.617037    ( 0.0000,  0.0000,  0.0000)
  15 Li     0.000000    6.468148   11.617037    ( 0.0000,  0.0000,  0.0000)
  16 Li     3.234074    6.468148   11.617037    ( 0.0000,  0.0000,  0.0000)
  17 Li     6.468148    6.468148   11.617037    ( 0.0000,  0.0000,  0.0000)
  18 Li     1.616978    1.617063   13.469937    ( 0.0000,  0.0000,  0.0000)
  19 Li     4.851171    1.617063   13.469959    ( 0.0000,  0.0000,  0.0000)
  20 Li     8.085184    1.616970   13.469239    ( 0.0000,  0.0000,  0.0000)
  21 Li     1.616961    4.851056   13.469936    ( 0.0000,  0.0000,  0.0000)
  22 Li     4.851185    4.851057   13.469933    ( 0.0000,  0.0000,  0.0000)
  23 Li     8.085189    4.851180   13.469732    ( 0.0000,  0.0000,  0.0000)
  24 Li     1.617049    8.085194   13.469871    ( 0.0000,  0.0000,  0.0000)
  25 Li     4.851102    8.085195   13.469869    ( 0.0000,  0.0000,  0.0000)
  26 Li     8.085183    8.085199   13.469920    ( 0.0000,  0.0000,  0.0000)
  27 Li     0.000156   -0.000328   15.445773    ( 0.0000,  0.0000,  0.0000)
  28 Li     3.234087    0.000103   15.445910    ( 0.0000,  0.0000,  0.0000)
  29 Li     6.467973   -0.000325   15.445741    ( 0.0000,  0.0000,  0.0000)
  30 Li    -0.000022    3.234282   15.445939    ( 0.0000,  0.0000,  0.0000)
  31 Li     3.234102    3.234019   15.445887    ( 0.0000,  0.0000,  0.0000)
  32 Li     6.468185    3.234286   15.445944    ( 0.0000,  0.0000,  0.0000)
  33 Li     0.000018    6.468189   15.445820    ( 0.0000,  0.0000,  0.0000)
  34 Li     3.234077    6.468112   15.445886    ( 0.0000,  0.0000,  0.0000)
  35 Li     6.468127    6.468197   15.445824    ( 0.0000,  0.0000,  0.0000)
  36 Br     8.087125    1.607224   19.484669    ( 0.0000,  0.0000,  0.0000)
  37 H      6.661654    1.617099   19.445399    ( 0.0000,  0.0000,  0.0000)
  38 N      8.084879    1.602705   17.425607    ( 0.0000,  0.0000,  0.0000)
  39 N      8.084811    2.737917   17.428384    ( 0.0000,  0.0000,  0.0000)

Unit cell:
           periodic     x           y           z      points  spacing
  1. axis:    yes    9.702222    0.000000    0.000000    60     0.1617
  2. axis:    yes    0.000000    9.702222    0.000000    60     0.1617
  3. axis:    no     0.000000    0.000000   26.851111   168     0.1598

  Lengths:   9.702222   9.702222  26.851111
  Angles:   90.000000  90.000000  90.000000

Effective grid spacing dv^(1/3) = 0.1611

     iter     time        total  log10-change:
                         energy  eigst   dens
iter:   1 05:02:43  -328.998041  -0.15
iter:   2 05:03:33  -328.562711  +0.26  -1.01
iter:   3 05:04:24  -327.480427  -0.36  -1.05
iter:   4 05:05:15  -327.483327  -0.86  -1.76
Writing to output.gpw (mode='')

iter:   5 05:06:10  -327.493510c -0.59  -1.87
iter:   6 05:07:01  -327.486926c -1.29  -1.88
iter:   7 05:07:52  -327.511663c -1.27  -2.13
iter:   8 05:08:43  -327.503279c -1.95  -2.13
iter:   9 05:09:34  -327.491436c -1.44  -2.18
Writing to output.gpw (mode='')

iter:  10 05:10:26  -327.493715c -2.44  -2.21
iter:  11 05:11:16  -327.490948c -1.91  -2.24
iter:  12 05:12:07  -327.487910c -2.26  -2.43
iter:  13 05:12:58  -327.490937c -2.77  -2.43
iter:  14 05:13:49  -327.489297c -3.13  -2.63
Writing to output.gpw (mode='')

iter:  15 05:14:42  -327.488771c -3.02  -2.72
iter:  16 05:15:33  -327.489116c -3.32  -2.84
iter:  17 05:16:24  -327.488970c -3.40  -2.88
iter:  18 05:17:15  -327.489069c -3.55  -3.09
iter:  19 05:18:06  -327.489018c -3.72  -3.22
Writing to output.gpw (mode='')

iter:  20 05:18:58  -327.488910c -3.66  -3.27
iter:  21 05:19:49  -327.488985c -4.19  -3.34
iter:  22 05:20:40  -327.489021c -4.06  -3.38
iter:  23 05:21:31  -327.488995c -4.19  -3.71
iter:  24 05:22:22  -327.489015c -4.44  -3.73
Writing to output.gpw (mode='')

iter:  25 05:23:14  -327.489008c -4.21  -3.73
iter:  26 05:24:06  -327.488977c -4.38  -3.63
iter:  27 05:24:57  -327.489040c -4.66  -3.57
iter:  28 05:25:48  -327.489039c -5.06  -3.87
iter:  29 05:26:39  -327.489038c -5.16  -3.88
Writing to output.gpw (mode='')

iter:  30 05:27:31  -327.489047c -5.14  -3.90
iter:  31 05:28:22  -327.489053c -4.95  -3.91
iter:  32 05:29:13  -327.489033c -5.37  -4.09c
iter:  33 05:30:04  -327.489048c -5.13  -4.13c
iter:  34 05:30:55  -327.489048c -5.47  -4.32c
Writing to output.gpw (mode='')

iter:  35 05:31:47  -327.489051c -5.42  -4.37c
iter:  36 05:32:39  -327.489050c -5.54  -4.36c
iter:  37 05:33:30  -327.489051c -5.68  -4.37c
iter:  38 05:34:21  -327.489050c -5.50  -4.34c
iter:  39 05:35:12  -327.489051c -5.64  -4.48c
Writing to output.gpw (mode='')

iter:  40 05:36:04  -327.489052c -5.89  -4.46c
iter:  41 05:36:55  -327.489054c -5.84  -4.47c
iter:  42 05:37:46  -327.489061c -6.09  -4.45c
iter:  43 05:38:37  -327.489057c -6.01  -4.54c
iter:  44 05:39:28  -327.489058c -5.93  -4.62c
Writing to output.gpw (mode='')

iter:  45 05:40:20  -327.489061c -5.79  -4.64c
iter:  46 05:41:11  -327.489060c -6.02  -4.69c
iter:  47 05:42:02  -327.489064c -6.26  -4.80c
iter:  48 05:42:53  -327.489064c -6.48  -4.88c
iter:  49 05:43:44  -327.489068c -6.27  -4.92c
Writing to output.gpw (mode='')

iter:  50 05:44:38  -327.489067c -6.63  -4.97c
iter:  51 05:45:29  -327.489066c -6.70  -5.07c
iter:  52 05:46:20  -327.489066c -6.72  -5.06c
iter:  53 05:47:11  -327.489065c -6.72  -5.04c
iter:  54 05:48:02  -327.489066c -6.58  -5.07c
Writing to output.gpw (mode='')

iter:  55 05:48:54  -327.489066c -6.92  -5.02c
iter:  56 05:49:45  -327.489065c -7.01  -5.02c
iter:  57 05:50:37  -327.489063c -6.80  -5.01c
iter:  58 05:51:28  -327.489063c -6.89  -4.92c
iter:  59 05:52:19  -327.489067c -7.15  -4.90c
Writing to output.gpw (mode='')

iter:  60 05:53:10  -327.489067c -6.95  -4.98c
iter:  61 05:54:02  -327.489067c -7.15  -4.99c
iter:  62 05:54:53  -327.489067c -7.25  -4.99c
iter:  63 05:55:44  -327.489067c -7.10  -4.96c
iter:  64 05:56:35  -327.489068c -7.29  -4.91c
Writing to output.gpw (mode='')

iter:  65 05:57:27  -327.489068c -7.34  -4.99c
iter:  66 05:58:18  -327.489068c -7.31  -4.91c
iter:  67 05:59:09  -327.489067c -7.41c -5.09c

Converged after 67 iterations.

Dipole moment: (-1.971697, -3.597460, 0.028562) |e|*Ang

Energy contributions relative to reference atoms: (reference = -81178.542429)

Kinetic:       +126.485554
Potential:     -112.258199
External:        +0.000000
XC:            -341.860863
Entropy (-ST):   -0.162263
Local:           +0.225573
--------------------------
Free energy:   -327.570199
Extrapolated:  -327.489067

Dipole-layer corrected work functions: 3.395225, 3.340318 eV

Showing only first 2 kpts
 Kpt  Band  Eigenvalues  Occupancy
  0    25     -3.61905    1.98695
  0    26     -3.53586    1.93298
  0    27     -3.23202    0.12418
  0    28     -3.13728    0.01971

  1    25     -3.39551    1.27047
  1    26     -3.36318    0.95415
  1    27     -3.34016    0.73069
  1    28     -3.29537    0.38058


Fermi level: -3.36777

No gap
Writing to output.gpw (mode='')


Forces in eV/Ang:
  0 Li    0.02117    0.00153   -0.27258
  1 Li   -0.02119    0.00144   -0.27215
  2 Li   -0.00016   -0.00975   -0.27466
  3 Li    0.00474    0.00177   -0.27361
  4 Li   -0.00549    0.00092   -0.27387
  5 Li    0.00093    0.02244   -0.26942
  6 Li   -0.00261    0.00114   -0.27963
  7 Li    0.00173    0.00216   -0.27910
  8 Li    0.00064   -0.01551   -0.26973
  9 Li    0.00261   -0.01010    0.26787
 10 Li    0.00128    0.01501    0.25029
 11 Li   -0.00338   -0.00907    0.26848
 12 Li   -0.00667    0.00174    0.29727
 13 Li   -0.00027   -0.00521    0.23508
 14 Li    0.00660    0.00122    0.29823
 15 Li   -0.00377    0.01375    0.24088
 16 Li   -0.00018   -0.01573    0.27061
 17 Li    0.00361    0.01289    0.24370
 18 Li   -0.01316    0.00676    0.05175
 19 Li    0.01349    0.00652    0.05770
 20 Li   -0.00010   -0.01900   -0.13649
 21 Li   -0.02145   -0.01634    0.05512
 22 Li    0.02052   -0.01635    0.05445
 23 Li    0.00130    0.02075   -0.00482
 24 Li    0.00201    0.00282    0.03901
 25 Li   -0.00159    0.00349    0.03854
 26 Li   -0.00014    0.00312    0.04869
 27 Li    0.02886   -0.07628   -0.01886
 28 Li    0.00369    0.02470   -0.01206
 29 Li   -0.03381   -0.07665   -0.02963
 30 Li   -0.03602    0.03511    0.05302
 31 Li    0.00651   -0.01216   -0.01883
 32 Li    0.04016    0.03720    0.05194
 33 Li    0.00697    0.00888   -0.03124
 34 Li    0.00028   -0.00821   -0.01470
 35 Li   -0.00726    0.01184   -0.03040
 36 Br    0.35423   -2.20999    8.64644
 37 H    -0.29005    0.02777   -0.12172
 38 N    -0.01209    0.56112   -4.67011
 39 N    -0.06485    1.59574   -3.95315

System changes: positions 

Initializing position-dependent things.

Density initialized from wave functions
       .-----------------------.  
      /|                       |  
     / |                       |  
    /  |                       |  
   /   |                       |  
  /    |                       |  
 *     |                       |  
 |     |                       |  
 |     |                       |  
 |     |                       |  
 |     |                       |  
 |     |                       |  
 |     |                       |  
 |     |                       |  
 |     Li         H   Bri      |  
 |     |                       |  
 |   Li|     Li      LiN       |  
 |     |  Li      Li  N   Li   |  
 |     |   Li      Li      Li  |  
 |     |Li      Li      Li     |  
 |     | Li                    |  
 |   LLi     LLi     LLi       |  
 |     |  Li      Li      Li   |  
 | Li  |   Li      Li          |  
 |     |Li      Li      Li     |  
 Li    | Li      Li            |  
 |    Li      Li      Li       |  
 |     |                       |  
 |     |                       |  
 |     |                       |  
 |     |                       |  
 |     |                       |  
 |     |                       |  
 |     .-----------------------.  
 |    /                       /   
 |   /                       /    
 |  /                       /     
 | /                       /      
 |/                       /       
 *-----------------------*        

Positions:
   0 Li     1.617037    1.617037   10.000000    ( 0.0000,  0.0000,  0.0000)
   1 Li     4.851111    1.617037   10.000000    ( 0.0000,  0.0000,  0.0000)
   2 Li     8.085185    1.617037   10.000000    ( 0.0000,  0.0000,  0.0000)
   3 Li     1.617037    4.851111   10.000000    ( 0.0000,  0.0000,  0.0000)
   4 Li     4.851111    4.851111   10.000000    ( 0.0000,  0.0000,  0.0000)
   5 Li     8.085185    4.851111   10.000000    ( 0.0000,  0.0000,  0.0000)
   6 Li     1.617037    8.085185   10.000000    ( 0.0000,  0.0000,  0.0000)
   7 Li     4.851111    8.085185   10.000000    ( 0.0000,  0.0000,  0.0000)
   8 Li     8.085185    8.085185   10.000000    ( 0.0000,  0.0000,  0.0000)
   9 Li     0.000000    0.000000   11.617037    ( 0.0000,  0.0000,  0.0000)
  10 Li     3.234074    0.000000   11.617037    ( 0.0000,  0.0000,  0.0000)
  11 Li     6.468148    0.000000   11.617037    ( 0.0000,  0.0000,  0.0000)
  12 Li     0.000000    3.234074   11.617037    ( 0.0000,  0.0000,  0.0000)
  13 Li     3.234074    3.234074   11.617037    ( 0.0000,  0.0000,  0.0000)
  14 Li     6.468148    3.234074   11.617037    ( 0.0000,  0.0000,  0.0000)
  15 Li     0.000000    6.468148   11.617037    ( 0.0000,  0.0000,  0.0000)
  16 Li     3.234074    6.468148   11.617037    ( 0.0000,  0.0000,  0.0000)
  17 Li     6.468148    6.468148   11.617037    ( 0.0000,  0.0000,  0.0000)
  18 Li     1.616920    1.617095   13.470176    ( 0.0000,  0.0000,  0.0000)
  19 Li     4.851232    1.617094   13.470226    ( 0.0000,  0.0000,  0.0000)
  20 Li     8.085184    1.616880   13.468589    ( 0.0000,  0.0000,  0.0000)
  21 Li     1.616859    4.850977   13.470196    ( 0.0000,  0.0000,  0.0000)
  22 Li     4.851282    4.850977   13.470190    ( 0.0000,  0.0000,  0.0000)
  23 Li     8.085195    4.851281   13.469703    ( 0.0000,  0.0000,  0.0000)
  24 Li     1.617058    8.085207   13.470056    ( 0.0000,  0.0000,  0.0000)
  25 Li     4.851095    8.085212   13.470052    ( 0.0000,  0.0000,  0.0000)
  26 Li     8.085182    8.085212   13.470146    ( 0.0000,  0.0000,  0.0000)
  27 Li     0.000277   -0.000674   15.445714    ( 0.0000,  0.0000,  0.0000)
  28 Li     3.234105    0.000216   15.445848    ( 0.0000,  0.0000,  0.0000)
  29 Li     6.467829   -0.000674   15.445628    ( 0.0000,  0.0000,  0.0000)
  30 Li    -0.000227    3.234423   15.446251    ( 0.0000,  0.0000,  0.0000)
  31 Li     3.234132    3.233966   15.445792    ( 0.0000,  0.0000,  0.0000)
  32 Li     6.468409    3.234439   15.446247    ( 0.0000,  0.0000,  0.0000)
  33 Li     0.000053    6.468228   15.445674    ( 0.0000,  0.0000,  0.0000)
  34 Li     3.234078    6.468074   15.445816    ( 0.0000,  0.0000,  0.0000)
  35 Li     6.468090    6.468250   15.445681    ( 0.0000,  0.0000,  0.0000)
  36 Br     8.088601    1.597300   19.523390    ( 0.0000,  0.0000,  0.0000)
  37 H      6.660473    1.617243   19.444852    ( 0.0000,  0.0000,  0.0000)
  38 N      8.084846    1.610472   17.404509    ( 0.0000,  0.0000,  0.0000)
  39 N      8.084489    2.739702   17.410633    ( 0.0000,  0.0000,  0.0000)

Unit cell:
           periodic     x           y           z      points  spacing
  1. axis:    yes    9.702222    0.000000    0.000000    60     0.1617
  2. axis:    yes    0.000000    9.702222    0.000000    60     0.1617
  3. axis:    no     0.000000    0.000000   26.851111   168     0.1598

  Lengths:   9.702222   9.702222  26.851111
  Angles:   90.000000  90.000000  90.000000

Effective grid spacing dv^(1/3) = 0.1611

     iter     time        total  log10-change:
                         energy  eigst   dens
iter:   1 06:00:22  -328.083975  -1.14
iter:   2 06:01:13  -328.021316  -0.99  -1.62
iter:   3 06:02:04  -328.003154  -1.97  -1.78
iter:   4 06:02:56  -327.997824c -1.21  -2.20
Writing to output.gpw (mode='')

iter:   5 06:03:50  -327.989735c -2.24  -1.95
iter:   6 06:04:41  -328.001400c -1.67  -2.21
iter:   7 06:05:32  -327.992480c -2.21  -2.15
iter:   8 06:06:23  -327.988582c -2.42  -2.41
iter:   9 06:07:14  -327.987993c -2.75  -2.61
Writing to output.gpw (mode='')

iter:  10 06:08:07  -327.988451c -2.81  -2.72
iter:  11 06:08:58  -327.987673c -2.92  -2.96
iter:  12 06:09:49  -327.987970c -3.62  -3.10
iter:  13 06:10:40  -327.987980c -3.79  -3.19
iter:  14 06:11:31  -327.987978c -3.70  -3.19
Writing to output.gpw (mode='')

iter:  15 06:12:23  -327.988006c -3.58  -3.19
iter:  16 06:13:14  -327.987986c -3.91  -3.32
iter:  17 06:14:05  -327.987972c -3.95  -3.36
iter:  18 06:14:56  -327.987991c -4.06  -3.37
iter:  19 06:15:47  -327.988164c -4.23  -3.44
Writing to output.gpw (mode='')

iter:  20 06:16:39  -327.988106c -4.65  -3.70
iter:  21 06:17:30  -327.988126c -4.82  -3.82
iter:  22 06:18:21  -327.988118c -4.70  -3.87
iter:  23 06:19:12  -327.988137c -4.76  -4.05c
iter:  24 06:20:03  -327.988131c -4.95  -4.16c
Writing to output.gpw (mode='')

iter:  25 06:20:55  -327.988131c -4.97  -4.25c
iter:  26 06:21:46  -327.988142c -5.13  -4.37c
iter:  27 06:22:37  -327.988150c -5.26  -4.37c
iter:  28 06:23:28  -327.988149c -5.40  -4.51c
iter:  29 06:24:19  -327.988151c -5.47  -4.61c
Writing to output.gpw (mode='')

iter:  30 06:25:11  -327.988152c -5.72  -4.64c
iter:  31 06:26:02  -327.988154c -5.57  -4.69c
iter:  32 06:26:54  -327.988156c -5.73  -4.75c
iter:  33 06:27:45  -327.988158c -5.91  -4.79c
iter:  34 06:28:36  -327.988159c -5.94  -5.04c
Writing to output.gpw (mode='')

iter:  35 06:29:28  -327.988159c -6.08  -5.19c
iter:  36 06:30:18  -327.988159c -6.08  -5.23c
iter:  37 06:31:10  -327.988159c -5.96  -5.20c
iter:  38 06:32:01  -327.988160c -6.23  -5.13c
iter:  39 06:32:52  -327.988160c -6.27  -5.11c
Writing to output.gpw (mode='')

iter:  40 06:33:44  -327.988159c -6.32  -5.08c
iter:  41 06:34:35  -327.988159c -6.49  -5.03c
iter:  42 06:35:26  -327.988159c -6.56  -4.95c
iter:  43 06:36:17  -327.988160c -6.31  -4.95c
iter:  44 06:37:08  -327.988162c -6.59  -4.93c
Writing to output.gpw (mode='')

iter:  45 06:38:00  -327.988161c -6.71  -5.01c
iter:  46 06:38:51  -327.988164c -6.59  -4.95c
iter:  47 06:39:42  -327.988164c -6.75  -5.04c
iter:  48 06:40:34  -327.988165c -6.62  -5.06c
iter:  49 06:41:25  -327.988165c -6.85  -5.11c
Writing to output.gpw (mode='')

iter:  50 06:42:17  -327.988168c -6.81  -5.10c
iter:  51 06:43:08  -327.988167c -7.19  -5.07c
iter:  52 06:43:59  -327.988168c -6.99  -5.09c
iter:  53 06:44:50  -327.988168c -7.16  -5.12c
iter:  54 06:45:42  -327.988168c -7.29  -5.20c
Writing to output.gpw (mode='')

iter:  55 06:46:34  -327.988168c -7.24  -5.22c
iter:  56 06:47:25  -327.988168c -7.57c -5.38c

Converged after 56 iterations.

Dipole moment: (-1.970927, -3.587876, 0.022210) |e|*Ang

Energy contributions relative to reference atoms: (reference = -81178.542429)

Kinetic:       +124.538726
Potential:     -111.055024
External:        +0.000000
XC:            -341.625008
Entropy (-ST):   -0.160120
Local:           +0.233198
--------------------------
Free energy:   -328.068228
Extrapolated:  -327.988168

Dipole-layer corrected work functions: 3.395561, 3.352867 eV

Showing only first 2 kpts
 Kpt  Band  Eigenvalues  Occupancy
  0    25     -3.62587    1.98705
  0    26     -3.54371    1.93478
  0    27     -3.23025    0.10637
  0    28     -3.14530    0.02034

  1    25     -3.40292    1.27947
  1    26     -3.37063    0.96419
  1    27     -3.34749    0.73892
  1    28     -3.30089    0.37494


Fermi level: -3.37421

No gap
Writing to output.gpw (mode='')


Forces in eV/Ang:
  0 Li    0.02163    0.00153   -0.27254
  1 Li   -0.02159    0.00152   -0.27218
  2 Li   -0.00021   -0.00975   -0.27438
  3 Li    0.00453    0.00197   -0.27363
  4 Li   -0.00519    0.00110   -0.27379
  5 Li    0.00082    0.02281   -0.26910
  6 Li   -0.00257    0.00147   -0.27981
  7 Li    0.00177    0.00244   -0.27942
  8 Li    0.00063   -0.01600   -0.26962
  9 Li    0.00279   -0.01008    0.26720
 10 Li    0.00113    0.01487    0.25067
 11 Li   -0.00353   -0.00905    0.26776
 12 Li   -0.00673    0.00192    0.29715
 13 Li   -0.00016   -0.00550    0.23522
 14 Li    0.00665    0.00138    0.29799
 15 Li   -0.00382    0.01403    0.24092
 16 Li   -0.00018   -0.01624    0.26997
 17 Li    0.00368    0.01319    0.24359
 18 Li   -0.01399    0.00657    0.05266
 19 Li    0.01421    0.00649    0.05852
 20 Li    0.00004   -0.01919   -0.13501
 21 Li   -0.02095   -0.01646    0.05493
 22 Li    0.02016   -0.01652    0.05449
 23 Li    0.00109    0.01884   -0.00051
 24 Li    0.00199    0.00234    0.03892
 25 Li   -0.00165    0.00284    0.03838
 26 Li   -0.00010    0.00395    0.04786
 27 Li    0.03084   -0.07906   -0.02329
 28 Li    0.00381    0.02521   -0.01190
 29 Li   -0.03524   -0.07926   -0.03307
 30 Li   -0.01968    0.04003    0.03351
 31 Li    0.00609   -0.01267   -0.01911
 32 Li    0.02298    0.04217    0.03174
 33 Li    0.00550    0.00733   -0.03152
 34 Li    0.00033   -0.00764   -0.01480
 35 Li   -0.00582    0.00982   -0.03073
 36 Br    0.20935   -1.88024    7.53411
 37 H    -0.15509    0.02229   -0.10332
 38 N    -0.01086    0.31925   -4.19219
 39 N    -0.05666    1.55113   -3.31902

System changes: positions 

Initializing position-dependent things.

Density initialized from wave functions
       .-----------------------.  
      /|                       |  
     / |                       |  
    /  |                       |  
   /   |                       |  
  /    |                       |  
 *     |                       |  
 |     |                       |  
 |     |                       |  
 |     |                       |  
 |     |                       |  
 |     |                       |  
 |     |                       |  
 |     |                       |  
 |     Li         H   Bri      |  
 |     |                       |  
 |   Li|     Li      LiN       |  
 |     |  Li      Li  N   Li   |  
 |     |   Li      Li      Li  |  
 |     |Li      Li      Li     |  
 |     | Li                    |  
 |   LLi     LLi     LLi       |  
 |     |  Li      Li      Li   |  
 | Li  |   Li      Li          |  
 |     |Li      Li      Li     |  
 Li    | Li      Li            |  
 |    Li      Li      Li       |  
 |     |                       |  
 |     |                       |  
 |     |                       |  
 |     |                       |  
 |     |                       |  
 |     |                       |  
 |     .-----------------------.  
 |    /                       /   
 |   /                       /    
 |  /                       /     
 | /                       /      
 |/                       /       
 *-----------------------*        

Positions:
   0 Li     1.617037    1.617037   10.000000    ( 0.0000,  0.0000,  0.0000)
   1 Li     4.851111    1.617037   10.000000    ( 0.0000,  0.0000,  0.0000)
   2 Li     8.085185    1.617037   10.000000    ( 0.0000,  0.0000,  0.0000)
   3 Li     1.617037    4.851111   10.000000    ( 0.0000,  0.0000,  0.0000)
   4 Li     4.851111    4.851111   10.000000    ( 0.0000,  0.0000,  0.0000)
   5 Li     8.085185    4.851111   10.000000    ( 0.0000,  0.0000,  0.0000)
   6 Li     1.617037    8.085185   10.000000    ( 0.0000,  0.0000,  0.0000)
   7 Li     4.851111    8.085185   10.000000    ( 0.0000,  0.0000,  0.0000)
   8 Li     8.085185    8.085185   10.000000    ( 0.0000,  0.0000,  0.0000)
   9 Li     0.000000    0.000000   11.617037    ( 0.0000,  0.0000,  0.0000)
  10 Li     3.234074    0.000000   11.617037    ( 0.0000,  0.0000,  0.0000)
  11 Li     6.468148    0.000000   11.617037    ( 0.0000,  0.0000,  0.0000)
  12 Li     0.000000    3.234074   11.617037    ( 0.0000,  0.0000,  0.0000)
  13 Li     3.234074    3.234074   11.617037    ( 0.0000,  0.0000,  0.0000)
  14 Li     6.468148    3.234074   11.617037    ( 0.0000,  0.0000,  0.0000)
  15 Li     0.000000    6.468148   11.617037    ( 0.0000,  0.0000,  0.0000)
  16 Li     3.234074    6.468148   11.617037    ( 0.0000,  0.0000,  0.0000)
  17 Li     6.468148    6.468148   11.617037    ( 0.0000,  0.0000,  0.0000)
  18 Li     1.616820    1.617139   13.470541    ( 0.0000,  0.0000,  0.0000)
  19 Li     4.851332    1.617138   13.470632    ( 0.0000,  0.0000,  0.0000)
  20 Li     8.085185    1.616744   13.467663    ( 0.0000,  0.0000,  0.0000)
  21 Li     1.616718    4.850860   13.470572    ( 0.0000,  0.0000,  0.0000)
  22 Li     4.851419    4.850859   13.470566    ( 0.0000,  0.0000,  0.0000)
  23 Li     8.085200    4.851396   13.469731    ( 0.0000,  0.0000,  0.0000)
  24 Li     1.617070    8.085219   13.470324    ( 0.0000,  0.0000,  0.0000)
  25 Li     4.851085    8.085226   13.470317    ( 0.0000,  0.0000,  0.0000)
  26 Li     8.085182    8.085246   13.470464    ( 0.0000,  0.0000,  0.0000)
  27 Li     0.000488   -0.001227   15.445552    ( 0.0000,  0.0000,  0.0000)
  28 Li     3.234132    0.000390   15.445761    ( 0.0000,  0.0000,  0.0000)
  29 Li     6.467593   -0.001229   15.445404    ( 0.0000,  0.0000,  0.0000)
  30 Li    -0.000257    3.234713   15.446382    ( 0.0000,  0.0000,  0.0000)
  31 Li     3.234170    3.233878   15.445650    ( 0.0000,  0.0000,  0.0000)
  32 Li     6.468453    3.234747   15.446356    ( 0.0000,  0.0000,  0.0000)
  33 Li     0.000081    6.468261   15.445454    ( 0.0000,  0.0000,  0.0000)
  34 Li     3.234081    6.468028   15.445712    ( 0.0000,  0.0000,  0.0000)
  35 Li     6.468060    6.468296   15.445466    ( 0.0000,  0.0000,  0.0000)
  36 Br     8.088436    1.588055   19.562306    ( 0.0000,  0.0000,  0.0000)
  37 H      6.660908    1.617363   19.444347    ( 0.0000,  0.0000,  0.0000)
  38 N      8.084814    1.617226   17.381252    ( 0.0000,  0.0000,  0.0000)
  39 N      8.084152    2.742370   17.394816    ( 0.0000,  0.0000,  0.0000)

Unit cell:
           periodic     x           y           z      points  spacing
  1. axis:    yes    9.702222    0.000000    0.000000    60     0.1617
  2. axis:    yes    0.000000    9.702222    0.000000    60     0.1617
  3. axis:    no     0.000000    0.000000   26.851111   168     0.1598

  Lengths:   9.702222   9.702222  26.851111
  Angles:   90.000000  90.000000  90.000000

Effective grid spacing dv^(1/3) = 0.1611

     iter     time        total  log10-change:
                         energy  eigst   dens
iter:   1 06:48:38  -328.495564  -1.18
iter:   2 06:49:29  -328.446244  -1.10  -1.67
iter:   3 06:50:20  -328.433044  -2.13  -1.84
iter:   4 06:51:11  -328.428047c -1.41  -2.27
Writing to output.gpw (mode='')

iter:   5 06:52:06  -328.424280c -2.43  -2.09
iter:   6 06:52:57  -328.432846c -1.82  -2.34
iter:   7 06:53:48  -328.425791c -2.44  -2.20
iter:   8 06:54:39  -328.423564c -2.66  -2.52
iter:   9 06:55:30  -328.423243c -2.92  -2.71
Writing to output.gpw (mode='')

iter:  10 06:56:24  -328.423715c -2.92  -2.81
iter:  11 06:57:15  -328.423218c -3.19  -3.03
iter:  12 06:58:06  -328.423363c -3.78  -3.19
iter:  13 06:58:57  -328.423381c -3.82  -3.27
iter:  14 06:59:48  -328.423595c -3.98  -3.30
Writing to output.gpw (mode='')

iter:  15 07:00:40  -328.423423c -3.81  -3.36
iter:  16 07:01:31  -328.423437c -4.12  -3.61
iter:  17 07:02:22  -328.423474c -4.24  -3.62
iter:  18 07:03:13  -328.423455c -4.47  -3.76
iter:  19 07:04:04  -328.423482c -4.58  -3.83
Writing to output.gpw (mode='')

iter:  20 07:04:59  -328.423486c -4.65  -4.07c
iter:  21 07:05:50  -328.423493c -4.77  -4.13c
iter:  22 07:06:41  -328.423495c -4.99  -4.14c
iter:  23 07:07:32  -328.423508c -5.03  -4.19c
iter:  24 07:08:24  -328.423514c -5.31  -4.28c
Writing to output.gpw (mode='')

iter:  25 07:09:15  -328.423515c -5.23  -4.44c
iter:  26 07:10:07  -328.423515c -5.34  -4.47c
iter:  27 07:10:58  -328.423510c -5.34  -4.44c
iter:  28 07:11:49  -328.423512c -5.32  -4.39c
iter:  29 07:12:40  -328.423509c -5.67  -4.42c
Writing to output.gpw (mode='')

iter:  30 07:13:32  -328.423511c -5.87  -4.34c
iter:  31 07:14:23  -328.423514c -5.72  -4.36c
iter:  32 07:15:14  -328.423515c -5.93  -4.37c
iter:  33 07:16:06  -328.423517c -5.98  -4.36c
iter:  34 07:16:57  -328.423514c -6.05  -4.39c
Writing to output.gpw (mode='')

iter:  35 07:17:49  -328.423515c -6.16  -4.37c
iter:  36 07:18:40  -328.423501c -5.71  -4.28c
iter:  37 07:19:31  -328.423531c -6.07  -4.21c
iter:  38 07:20:22  -328.423531c -6.40  -4.44c
iter:  39 07:21:13  -328.423541c -6.11  -4.48c
Writing to output.gpw (mode='')

iter:  40 07:22:05  -328.423529c -6.21  -4.55c
iter:  41 07:22:56  -328.423530c -6.42  -4.73c
iter:  42 07:23:47  -328.423535c -6.46  -4.77c
iter:  43 07:24:38  -328.423533c -6.50  -5.04c
iter:  44 07:25:29  -328.423533c -6.75  -5.09c
Writing to output.gpw (mode='')

iter:  45 07:26:22  -328.423534c -6.89  -5.13c
iter:  46 07:27:13  -328.423532c -7.07  -5.20c
iter:  47 07:28:04  -328.423533c -7.19  -5.34c
iter:  48 07:28:56  -328.423532c -6.93  -5.35c
iter:  49 07:29:47  -328.423532c -7.12  -5.18c
Writing to output.gpw (mode='')

iter:  50 07:30:38  -328.423533c -7.32  -5.28c
iter:  51 07:31:29  -328.423532c -7.30  -5.34c
iter:  52 07:32:20  -328.423533c -7.59c -5.17c

Converged after 52 iterations.

Dipole moment: (-1.983456, -3.571218, 0.014556) |e|*Ang

Energy contributions relative to reference atoms: (reference = -81178.542429)

Kinetic:       +122.663324
Potential:     -109.849072
External:        +0.000000
XC:            -341.398996
Entropy (-ST):   -0.158590
Local:           +0.240505
--------------------------
Free energy:   -328.502828
Extrapolated:  -328.423533

Dipole-layer corrected work functions: 3.396144, 3.368164 eV

Showing only first 2 kpts
 Kpt  Band  Eigenvalues  Occupancy
  0    25     -3.63403    1.98710
  0    26     -3.55292    1.93636
  0    27     -3.23228    0.09508
  0    28     -3.15519    0.02114

  1    25     -3.41135    1.28398
  1    26     -3.37943    0.97277
  1    27     -3.35624    0.74655
  1    28     -3.30749    0.36689


Fermi level: -3.38215

No gap
Writing to output.gpw (mode='')


Forces in eV/Ang:
  0 Li    0.02204    0.00151   -0.27251
  1 Li   -0.02192    0.00155   -0.27222
  2 Li   -0.00027   -0.00972   -0.27415
  3 Li    0.00436    0.00223   -0.27370
  4 Li   -0.00496    0.00133   -0.27376
  5 Li    0.00072    0.02310   -0.26896
  6 Li   -0.00245    0.00179   -0.27999
  7 Li    0.00171    0.00274   -0.27972
  8 Li    0.00062   -0.01644   -0.26940
  9 Li    0.00300   -0.01012    0.26672
 10 Li    0.00099    0.01475    0.25094
 11 Li   -0.00371   -0.00910    0.26720
 12 Li   -0.00679    0.00213    0.29737
 13 Li   -0.00004   -0.00590    0.23541
 14 Li    0.00666    0.00156    0.29808
 15 Li   -0.00383    0.01433    0.24099
 16 Li   -0.00015   -0.01672    0.26953
 17 Li    0.00370    0.01356    0.24352
 18 Li   -0.01456    0.00637    0.05293
 19 Li    0.01465    0.00641    0.05871
 20 Li    0.00019   -0.01935   -0.13323
 21 Li   -0.02032   -0.01667    0.05437
 22 Li    0.01967   -0.01672    0.05409
 23 Li    0.00090    0.01743    0.00251
 24 Li    0.00181    0.00196    0.03870
 25 Li   -0.00155    0.00228    0.03812
 26 Li   -0.00005    0.00449    0.04664
 27 Li    0.03139   -0.08017   -0.02549
 28 Li    0.00394    0.02538   -0.01192
 29 Li   -0.03531   -0.08025   -0.03461
 30 Li   -0.00758    0.04315    0.01940
 31 Li    0.00570   -0.01290   -0.01957
 32 Li    0.00991    0.04520    0.01688
 33 Li    0.00432    0.00588   -0.03163
 34 Li    0.00036   -0.00701   -0.01477
 35 Li   -0.00466    0.00792   -0.03087
 36 Br    0.11302   -1.58144    6.48535
 37 H    -0.07474    0.01746   -0.08177
 38 N    -0.00046    0.11640   -3.64938
 39 N    -0.04160    1.52102   -2.80347

System changes: positions 

Initializing position-dependent things.

Density initialized from wave functions
       .-----------------------.  
      /|                       |  
     / |                       |  
    /  |                       |  
   /   |                       |  
  /    |                       |  
 *     |                       |  
 |     |                       |  
 |     |                       |  
 |     |                       |  
 |     |                       |  
 |     |                       |  
 |     |                       |  
 |     |                       |  
 |     Li         H   Bri      |  
 |     |                       |  
 |   Li|     Li      LiN       |  
 |     |  Li      Li  N   Li   |  
 |     |   Li      Li      Li  |  
 |     |Li      Li      Li     |  
 |     | Li                    |  
 |   LLi     LLi     LLi       |  
 |     |  Li      Li      Li   |  
 | Li  |   Li      Li          |  
 |     |Li      Li      Li     |  
 Li    | Li      Li            |  
 |    Li      Li      Li       |  
 |     |                       |  
 |     |                       |  
 |     |                       |  
 |     |                       |  
 |     |                       |  
 |     |                       |  
 |     .-----------------------.  
 |    /                       /   
 |   /                       /    
 |  /                       /     
 | /                       /      
 |/                       /       
 *-----------------------*        

Positions:
   0 Li     1.617037    1.617037   10.000000    ( 0.0000,  0.0000,  0.0000)
   1 Li     4.851111    1.617037   10.000000    ( 0.0000,  0.0000,  0.0000)
   2 Li     8.085185    1.617037   10.000000    ( 0.0000,  0.0000,  0.0000)
   3 Li     1.617037    4.851111   10.000000    ( 0.0000,  0.0000,  0.0000)
   4 Li     4.851111    4.851111   10.000000    ( 0.0000,  0.0000,  0.0000)
   5 Li     8.085185    4.851111   10.000000    ( 0.0000,  0.0000,  0.0000)
   6 Li     1.617037    8.085185   10.000000    ( 0.0000,  0.0000,  0.0000)
   7 Li     4.851111    8.085185   10.000000    ( 0.0000,  0.0000,  0.0000)
   8 Li     8.085185    8.085185   10.000000    ( 0.0000,  0.0000,  0.0000)
   9 Li     0.000000    0.000000   11.617037    ( 0.0000,  0.0000,  0.0000)
  10 Li     3.234074    0.000000   11.617037    ( 0.0000,  0.0000,  0.0000)
  11 Li     6.468148    0.000000   11.617037    ( 0.0000,  0.0000,  0.0000)
  12 Li     0.000000    3.234074   11.617037    ( 0.0000,  0.0000,  0.0000)
  13 Li     3.234074    3.234074   11.617037    ( 0.0000,  0.0000,  0.0000)
  14 Li     6.468148    3.234074   11.617037    ( 0.0000,  0.0000,  0.0000)
  15 Li     0.000000    6.468148   11.617037    ( 0.0000,  0.0000,  0.0000)
  16 Li     3.234074    6.468148   11.617037    ( 0.0000,  0.0000,  0.0000)
  17 Li     6.468148    6.468148   11.617037    ( 0.0000,  0.0000,  0.0000)
  18 Li     1.616679    1.617195   13.471034    ( 0.0000,  0.0000,  0.0000)
  19 Li     4.851473    1.617197   13.471178    ( 0.0000,  0.0000,  0.0000)
  20 Li     8.085189    1.616560   13.466442    ( 0.0000,  0.0000,  0.0000)
  21 Li     1.616537    4.850700   13.471071    ( 0.0000,  0.0000,  0.0000)
  22 Li     4.851596    4.850698   13.471066    ( 0.0000,  0.0000,  0.0000)
  23 Li     8.085205    4.851534   13.469805    ( 0.0000,  0.0000,  0.0000)
  24 Li     1.617083    8.085230   13.470682    ( 0.0000,  0.0000,  0.0000)
  25 Li     4.851072    8.085238   13.470670    ( 0.0000,  0.0000,  0.0000)
  26 Li     8.085183    8.085297   13.470875    ( 0.0000,  0.0000,  0.0000)
  27 Li     0.000776   -0.001982   15.445309    ( 0.0000,  0.0000,  0.0000)
  28 Li     3.234171    0.000626   15.445643    ( 0.0000,  0.0000,  0.0000)
  29 Li     6.467277   -0.001985   15.445086    ( 0.0000,  0.0000,  0.0000)
  30 Li    -0.000149    3.235141   15.446385    ( 0.0000,  0.0000,  0.0000)
  31 Li     3.234216    3.233758   15.445452    ( 0.0000,  0.0000,  0.0000)
  32 Li     6.468350    3.235197   15.446318    ( 0.0000,  0.0000,  0.0000)
  33 Li     0.000103    6.468287   15.445158    ( 0.0000,  0.0000,  0.0000)
  34 Li     3.234086    6.467974   15.445572    ( 0.0000,  0.0000,  0.0000)
  35 Li     6.468034    6.468334   15.445176    ( 0.0000,  0.0000,  0.0000)
  36 Br     8.087136    1.579381   19.601333    ( 0.0000,  0.0000,  0.0000)
  37 H      6.662343    1.617461   19.443958    ( 0.0000,  0.0000,  0.0000)
  38 N      8.084936    1.623214   17.357209    ( 0.0000,  0.0000,  0.0000)
  39 N      8.083923    2.746247   17.379805    ( 0.0000,  0.0000,  0.0000)

Unit cell:
           periodic     x           y           z      points  spacing
  1. axis:    yes    9.702222    0.000000    0.000000    60     0.1617
  2. axis:    yes    0.000000    9.702222    0.000000    60     0.1617
  3. axis:    no     0.000000    0.000000   26.851111   168     0.1598

  Lengths:   9.702222   9.702222  26.851111
  Angles:   90.000000  90.000000  90.000000

Effective grid spacing dv^(1/3) = 0.1611

     iter     time        total  log10-change:
                         energy  eigst   dens
iter:   1 07:33:33  -328.846791  -1.21
iter:   2 07:34:24  -328.812051  -1.26  -1.73
iter:   3 07:35:15  -328.803441  -2.32  -1.92
iter:   4 07:36:07  -328.799658c -1.65  -2.36
Writing to output.gpw (mode='')

iter:   5 07:36:59  -328.798228c -2.66  -2.22
iter:   6 07:37:50  -328.803352c -2.06  -2.49
iter:   7 07:38:41  -328.798769c -2.71  -2.30
iter:   8 07:39:32  -328.797712c -2.96  -2.68
iter:   9 07:40:23  -328.797632c -3.20  -2.84
Writing to output.gpw (mode='')

iter:  10 07:41:15  -328.797963c -3.06  -2.96
iter:  11 07:42:06  -328.797705c -3.56  -3.11
iter:  12 07:43:29  -328.797777c -3.97  -3.26
iter:  13 07:46:08  -328.797786c -3.96  -3.36
iter:  14 07:48:33  -328.797921c -4.20  -3.44
Writing to output.gpw (mode='')

iter:  15 07:51:03  -328.797818c -4.12  -3.48
iter:  16 07:53:32  -328.797822c -4.35  -3.70
iter:  17 07:56:00  -328.797837c -4.53  -3.75
