
  ___ ___ ___ _ _ _  
 |   |   |_  | | | | 
 | | | | | . | | | | 
 |__ |  _|___|_____|  22.8.0
 |___|_|             

User:   vazumah@c19.hercules
Date:   Thu Mar  9 21:49:22 2023
Arch:   x86_64
Pid:    21072
CWD:    /home/vazumah/Python_projects/LiNRR/Li_adsorb_studies/proton_donors/N2_with_proton_donor/Li_BCC_100/adsorbates/HBr/bridge/8.085_1.617/N2_y
Python: 3.10.8
gpaw:   /home/vazumah/.conda/envs/GPAW/lib/python3.10/site-packages/gpaw
_gpaw:  /home/vazumah/.conda/envs/GPAW/lib/python3.10/site-packages/
        _gpaw.cpython-310-x86_64-linux-gnu.so
ase:    /home/vazumah/.conda/envs/GPAW/lib/python3.10/site-packages/ase (version 3.22.1)
numpy:  /home/vazumah/.conda/envs/GPAW/lib/python3.10/site-packages/numpy (version 1.24.1)
scipy:  /home/vazumah/.conda/envs/GPAW/lib/python3.10/site-packages/scipy (version 1.10.0)
libxc:  5.2.3
units:  Angstrom and eV
cores: 24
OpenMP: True
OMP_NUM_THREADS: 1

Reading from output.gpw
Reading input parameters:
  h: 0.16
  kpts: {size: [4, 4, 1]}
  occupations: {name: fermi-dirac,
                width: 0.05}
  poissonsolver: {dipolelayer: xy}
  xc: BEEF-vdW

Initialize ...

species:
  Li:
    name: Lithium
    id: 830b4218f175192f93f959cfc0aad614
    Z: 3.0
    valence: 1
    core: 2
    charge: 0.0
    file: /home/vazumah/.conda/envs/GPAW/share/gpaw/Li.PBE.gz
    compensation charges: {type: gauss,
                           rc: 0.33,
                           lmax: 2}
    cutoffs: {filter: 1.91,
              core: 2.55}
    valence states:
      #              energy  rcut
      - 2s(1.00)    -2.874   1.058
      - 2p(0.00)    -1.090   1.058
      -  s          24.337   1.058
  
    # Using partial waves for Li as LCAO basis

  Br:
    name: Bromine
    id: 39dc90fcf3bf77f2d83386b416c2c495
    Z: 35.0
    valence: 7
    core: 28
    charge: 0.0
    file: /home/vazumah/.conda/envs/GPAW/share/gpaw/Br.PBE.gz
    compensation charges: {type: gauss,
                           rc: 0.35,
                           lmax: 2}
    cutoffs: {filter: 1.98,
              core: 2.38}
    valence states:
      #              energy  rcut
      - 4s(2.00)   -20.121   1.111
      - 4p(5.00)    -7.861   1.111
      -  s           7.091   1.111
      -  p          19.351   1.111
      -  d           0.000   1.111
  
    # Using partial waves for Br as LCAO basis

  H:
    name: Hydrogen
    id: d65de229564ff8ea4db303e23b6d1ecf
    Z: 1.0
    valence: 1
    core: 0
    charge: 0.0
    file: /home/vazumah/.conda/envs/GPAW/share/gpaw/H.PBE.gz
    compensation charges: {type: gauss,
                           rc: 0.15,
                           lmax: 2}
    cutoffs: {filter: 0.85,
              core: 0.53}
    valence states:
      #              energy  rcut
      - 1s(1.00)    -6.494   0.476
      -  s          20.717   0.476
      -  p           0.000   0.476
  
    # Using partial waves for H as LCAO basis

  N:
    name: Nitrogen
    id: f7500608b86eaa90eef8b1d9a670dc53
    Z: 7.0
    valence: 5
    core: 2
    charge: 0.0
    file: /home/vazumah/.conda/envs/GPAW/share/gpaw/N.PBE.gz
    compensation charges: {type: gauss,
                           rc: 0.18,
                           lmax: 2}
    cutoffs: {filter: 1.11,
              core: 0.96}
    valence states:
      #              energy  rcut
      - 2s(2.00)   -18.583   0.603
      - 2p(3.00)    -7.089   0.529
      -  s           8.629   0.603
      -  p          20.123   0.529
      -  d           0.000   0.577
  
    # Using partial waves for N as LCAO basis

Reference energy: -81178.542429  # eV

Spin-paired calculation

Convergence criteria:
 Maximum [total energy] change in last 3 cyles: 0.0005 eV / electron
 Maximum integral of absolute [dens]ity change: 0.0001 electrons / valence electron
 Maximum integral of absolute [eigenst]ate change: 4e-08 eV^2 / valence electron
 Maximum number of scf [iter]ations: 333
 (Square brackets indicate name in SCF output, whereas a 'c' in
 the SCF output indicates the quantity has converged.)

Symmetries present (total): 1

  ( 1  0  0)
  ( 0  1  0)
  ( 0  0  1)

16 k-points: 4 x 4 x 1 Monkhorst-Pack grid
8 k-points in the irreducible part of the Brillouin zone
       k-points in crystal coordinates                weights
   0:     0.12500000   -0.37500000    0.00000000          2/16
   1:     0.12500000   -0.12500000    0.00000000          2/16
   2:     0.12500000    0.12500000    0.00000000          2/16
   3:     0.12500000    0.37500000    0.00000000          2/16
   4:     0.37500000   -0.37500000    0.00000000          2/16
   5:     0.37500000   -0.12500000    0.00000000          2/16
   6:     0.37500000    0.12500000    0.00000000          2/16
   7:     0.37500000    0.37500000    0.00000000          2/16

Wave functions: Uniform real-space grid
  Kinetic energy operator: 6*3+1=19 point O(h^6) finite-difference Laplacian
  ScaLapack parameters: grid=1x1, blocksize=None
  Wavefunction extrapolation:
    Improved wavefunction reuse through dual PAW basis 

Occupation numbers: Fermi-Dirac:
  width: 0.0500  # eV
 

Eigensolver
   Davidson(niter=2) 

Densities:
  Coarse grid: 60*60*168 grid
  Fine grid: 120*120*336 grid
  Total Charge: 0.000000 

Density mixing:
  Method: separate
  Backend: pulay
  Linear mixing parameter: 0.05
  old densities: 5
  Damping of long wavelength oscillations: 50 

Hamiltonian:
  XC and Coulomb potentials evaluated on a 120*120*336 grid
  Using the BEEF-vdW Exchange-Correlation functional
  Interpolation: tri-quintic (5. degree polynomial)
  Poisson solver: FastPoissonSolver using
    Stencil: 6*3+1=19 point O(h^6) finite-difference Laplacian
    FFT axes: [0, 1]
    FST axes: [2]

Dipole correction along z-axis 

XC parameters: BEEF-vdW with 2 nearest neighbor stencil

Memory estimate:
  Process memory now: 228.92 MiB
  Calculator: 395.41 MiB
    Density: 121.75 MiB
      Arrays: 39.61 MiB
      Localized functions: 67.04 MiB
      Mixer: 15.11 MiB
    Hamiltonian: 31.20 MiB
      Arrays: 25.90 MiB
      XC: 0.00 MiB
      Poisson: 0.00 MiB
      vbar: 5.30 MiB
    Wavefunctions: 242.46 MiB
      Arrays psit_nG: 111.79 MiB
      Eigensolver: 127.10 MiB
      Projections: 0.04 MiB
      Projectors: 3.53 MiB

Total number of cores used: 24
Parallelization over k-points: 8
Domain decomposition: 1 x 1 x 3

Number of atoms: 40
Number of atomic orbitals: 157
Number of bands in calculation: 37
Number of valence electrons: 54
Bands to converge: occupied

... initialized

Initializing position-dependent things.

Creating initial wave functions:
  37 bands from LCAO basis set

       .-----------------------.  
      /|                       |  
     / |                       |  
    /  |                       |  
   /   |                       |  
  /    |                       |  
 *     |                       |  
 |     |                       |  
 |     |                       |  
 |     |                       |  
 |     |                       |  
 |     |                       |  
 |     |                       |  
 |     |           Br          |  
 |     Li      Li    H         |  
 |     |                       |  
 |   Li|     Li      Li        |  
 |     |  Li      Li      Li   |  
 |     |   Li      LiN    Li   |  
 |     |Li      LiLi   NLi     |  
 |     |                       |  
 |   LLi     LLi     LLi       |  
 |     |  Li      Li      Li   |  
 | Li  |   Li      Li          |  
 |     |Li      Li      Li     |  
 Li    | Li      Li            |  
 |    Li      Li      Li       |  
 |     |                       |  
 |     |                       |  
 |     |                       |  
 |     |                       |  
 |     |                       |  
 |     |                       |  
 |     .-----------------------.  
 |    /                       /   
 |   /                       /    
 |  /                       /     
 | /                       /      
 |/                       /       
 *-----------------------*        

Positions:
   0 Li     1.617037    1.617037   10.000000    ( 0.0000,  0.0000,  0.0000)
   1 Li     4.851111    1.617037   10.000000    ( 0.0000,  0.0000,  0.0000)
   2 Li     8.085185    1.617037   10.000000    ( 0.0000,  0.0000,  0.0000)
   3 Li     1.617037    4.851111   10.000000    ( 0.0000,  0.0000,  0.0000)
   4 Li     4.851111    4.851111   10.000000    ( 0.0000,  0.0000,  0.0000)
   5 Li     8.085185    4.851111   10.000000    ( 0.0000,  0.0000,  0.0000)
   6 Li     1.617037    8.085185   10.000000    ( 0.0000,  0.0000,  0.0000)
   7 Li     4.851111    8.085185   10.000000    ( 0.0000,  0.0000,  0.0000)
   8 Li     8.085185    8.085185   10.000000    ( 0.0000,  0.0000,  0.0000)
   9 Li     0.000000    0.000000   11.617037    ( 0.0000,  0.0000,  0.0000)
  10 Li     3.234074    0.000000   11.617037    ( 0.0000,  0.0000,  0.0000)
  11 Li     6.468148    0.000000   11.617037    ( 0.0000,  0.0000,  0.0000)
  12 Li     0.000000    3.234074   11.617037    ( 0.0000,  0.0000,  0.0000)
  13 Li     3.234074    3.234074   11.617037    ( 0.0000,  0.0000,  0.0000)
  14 Li     6.468148    3.234074   11.617037    ( 0.0000,  0.0000,  0.0000)
  15 Li     0.000000    6.468148   11.617037    ( 0.0000,  0.0000,  0.0000)
  16 Li     3.234074    6.468148   11.617037    ( 0.0000,  0.0000,  0.0000)
  17 Li     6.468148    6.468148   11.617037    ( 0.0000,  0.0000,  0.0000)
  18 Li     1.597077    1.580373   13.519303    ( 0.0000,  0.0000,  0.0000)
  19 Li     4.901647    1.698054   13.570616    ( 0.0000,  0.0000,  0.0000)
  20 Li     8.083165    1.695960   13.654171    ( 0.0000,  0.0000,  0.0000)
  21 Li     1.536997    4.779920   13.511957    ( 0.0000,  0.0000,  0.0000)
  22 Li     4.838396    4.904391   13.517426    ( 0.0000,  0.0000,  0.0000)
  23 Li     8.025749    4.865854   13.558821    ( 0.0000,  0.0000,  0.0000)
  24 Li     1.651227    8.061362   13.516881    ( 0.0000,  0.0000,  0.0000)
  25 Li     4.947120    8.173049   13.498154    ( 0.0000,  0.0000,  0.0000)
  26 Li     8.153731    8.193568   13.557071    ( 0.0000,  0.0000,  0.0000)
  27 Li     0.150414   -0.019143   15.585435    ( 0.0000,  0.0000,  0.0000)
  28 Li     3.415773   -0.061610   15.445037    ( 0.0000,  0.0000,  0.0000)
  29 Li     6.724329    0.356679   15.717714    ( 0.0000,  0.0000,  0.0000)
  30 Li    -0.217200    3.058183   15.627982    ( 0.0000,  0.0000,  0.0000)
  31 Li     3.081652    3.281481   15.475936    ( 0.0000,  0.0000,  0.0000)
  32 Li     6.376767    3.471271   15.607475    ( 0.0000,  0.0000,  0.0000)
  33 Li     0.055222    6.397958   15.442505    ( 0.0000,  0.0000,  0.0000)
  34 Li     3.244460    6.449806   15.453712    ( 0.0000,  0.0000,  0.0000)
  35 Li     6.412180    6.744579   15.491801    ( 0.0000,  0.0000,  0.0000)
  36 Br     7.180344    1.073200   20.819900    ( 0.0000,  0.0000,  0.0000)
  37 H      7.536574    1.802852   19.638444    ( 0.0000,  0.0000,  0.0000)
  38 N      8.554049    1.268559   15.713701    ( 0.0000,  0.0000,  0.0000)
  39 N      7.658670    2.153726   15.708969    ( 0.0000,  0.0000,  0.0000)

Unit cell:
           periodic     x           y           z      points  spacing
  1. axis:    yes    9.702222    0.000000    0.000000    60     0.1617
  2. axis:    yes    0.000000    9.702222    0.000000    60     0.1617
  3. axis:    no     0.000000    0.000000   26.851111   168     0.1598

  Lengths:   9.702222   9.702222  26.851111
  Angles:   90.000000  90.000000  90.000000

Effective grid spacing dv^(1/3) = 0.1611

     iter     time        total  log10-change:
                         energy  eigst   dens
iter:   1 21:50:43  -331.536428  +0.93
iter:   2 21:51:23  -331.969007  +0.33  -1.77
iter:   3 21:52:04  -332.092853  -0.12  -2.01
iter:   4 21:52:45  -332.142198  -0.50  -2.23
Writing to output.gpw (mode='')

iter:   5 21:53:31  -332.164949  -0.83  -2.54
iter:   6 21:54:12  -332.175923  -1.15  -2.76
iter:   7 21:54:53  -332.181270c -1.48  -2.80
iter:   8 21:55:34  -332.184435c -1.71  -2.91
iter:   9 21:56:15  -332.186521c -1.86  -3.15
Writing to output.gpw (mode='')

iter:  10 21:56:58  -332.187856c -2.06  -3.10
iter:  11 21:57:39  -332.188867c -2.16  -3.17
iter:  12 21:58:20  -332.189587c -2.33  -3.19
iter:  13 21:59:01  -332.190027c -2.53  -3.05
iter:  14 21:59:42  -332.190386c -2.61  -3.08
Writing to output.gpw (mode='')

iter:  15 22:00:27  -332.190623c -2.81  -3.08
iter:  16 22:01:08  -332.190795c -2.98  -3.24
iter:  17 22:01:49  -332.190935c -3.09  -3.29
iter:  18 22:02:30  -332.190942c -3.24  -3.44
iter:  19 22:03:11  -332.190983c -3.39  -3.63
Writing to output.gpw (mode='')

iter:  20 22:03:53  -332.191074c -3.43  -3.75
iter:  21 22:04:34  -332.191129c -3.66  -3.85
iter:  22 22:05:15  -332.191151c -3.82  -4.08c
iter:  23 22:05:56  -332.191172c -3.95  -4.16c
iter:  24 22:06:37  -332.191194c -3.92  -4.19c
Writing to output.gpw (mode='')

iter:  25 22:07:19  -332.191204c -4.20  -4.17c
iter:  26 22:08:00  -332.191223c -4.19  -4.09c
iter:  27 22:08:41  -332.191233c -4.33  -4.19c
iter:  28 22:09:22  -332.191240c -4.35  -4.14c
iter:  29 22:10:03  -332.191246c -4.51  -4.11c
Writing to output.gpw (mode='')

iter:  30 22:10:44  -332.191251c -4.59  -4.06c
iter:  31 22:11:26  -332.191252c -4.74  -4.06c
iter:  32 22:12:06  -332.191258c -4.85  -3.97
iter:  33 22:12:47  -332.191261c -4.80  -4.01c
iter:  34 22:13:28  -332.191261c -5.03  -4.01c
Writing to output.gpw (mode='')

iter:  35 22:14:13  -332.191262c -4.98  -3.95
iter:  36 22:14:54  -332.191272c -5.22  -3.91
iter:  37 22:15:35  -332.191271c -5.29  -4.06c
iter:  38 22:16:16  -332.191278c -5.33  -4.00c
iter:  39 22:16:57  -332.191278c -5.46  -4.19c
Writing to output.gpw (mode='')

iter:  40 22:17:41  -332.191280c -5.38  -4.18c
iter:  41 22:18:22  -332.191279c -5.60  -4.20c
iter:  42 22:19:03  -332.191280c -5.51  -4.44c
iter:  43 22:19:44  -332.191281c -5.72  -4.61c
iter:  44 22:20:25  -332.191284c -5.74  -4.62c
Writing to output.gpw (mode='')

iter:  45 22:21:07  -332.191285c -5.92  -4.65c
iter:  46 22:21:48  -332.191285c -6.02  -4.75c
iter:  47 22:22:29  -332.191283c -6.10  -4.80c
iter:  48 22:23:09  -332.191282c -6.28  -5.00c
iter:  49 22:23:50  -332.191283c -6.46  -5.15c
Writing to output.gpw (mode='')

iter:  50 22:24:33  -332.191283c -6.39  -5.16c
iter:  51 22:25:14  -332.191284c -6.59  -5.23c
iter:  52 22:25:55  -332.191284c -6.55  -5.57c
iter:  53 22:26:36  -332.191284c -6.58  -5.67c
iter:  54 22:27:17  -332.191284c -6.69  -5.66c
Writing to output.gpw (mode='')

iter:  55 22:27:59  -332.191284c -6.86  -5.82c
iter:  56 22:28:40  -332.191284c -6.91  -5.82c
iter:  57 22:29:21  -332.191284c -6.75  -5.78c
iter:  58 22:30:02  -332.191284c -6.90  -5.62c
iter:  59 22:30:43  -332.191284c -7.05  -5.49c
Writing to output.gpw (mode='')

iter:  60 22:31:25  -332.191284c -7.18  -5.44c
iter:  61 22:32:06  -332.191284c -7.25  -5.42c
iter:  62 22:32:47  -332.191284c -7.32  -5.46c
iter:  63 22:33:28  -332.191284c -7.18  -5.44c
iter:  64 22:34:09  -332.191284c -7.17  -5.38c
Writing to output.gpw (mode='')

iter:  65 22:34:51  -332.191284c -7.53c -5.31c

Converged after 65 iterations.

Dipole moment: (-2.626094, -6.383754, -0.071377) |e|*Ang

Energy contributions relative to reference atoms: (reference = -81178.542429)

Kinetic:       +102.396872
Potential:      -92.343845
External:        +0.000000
XC:            -342.473995
Entropy (-ST):   -0.160678
Local:           +0.310022
--------------------------
Free energy:   -332.271623
Extrapolated:  -332.191284

Dipole-layer corrected work functions: 3.399944, 3.537155 eV

Showing only first 2 kpts
 Kpt  Band  Eigenvalues  Occupancy
  0    25     -3.64625    1.94437
  0    26     -3.49370    1.24634
  0    27     -3.45589    0.87408
  0    28     -3.35339    0.18171

  1    25     -3.78554    1.99648
  1    26     -3.41994    0.54892
  1    27     -3.35848    0.19925
  1    28     -3.34660    0.16051


Fermi level: -3.46855

No gap

Forces in eV/Ang:
  0 Li   -0.00562   -0.01015   -0.29968
  1 Li    0.00474    0.00879   -0.29771
  2 Li   -0.00050   -0.00249   -0.25997
  3 Li    0.01156    0.01032   -0.28928
  4 Li   -0.00649    0.00358   -0.29400
  5 Li   -0.01066   -0.01146   -0.30257
  6 Li    0.00490   -0.00995   -0.29145
  7 Li   -0.01475   -0.01791   -0.28767
  8 Li    0.00900    0.00016   -0.29612
  9 Li   -0.03830    0.06719    0.33597
 10 Li    0.02691    0.03851    0.31575
 11 Li    0.05310    0.07877    0.29446
 12 Li   -0.05681   -0.02902    0.28887
 13 Li    0.00329   -0.01882    0.31628
 14 Li    0.04445   -0.02003    0.33341
 15 Li   -0.03797    0.00761    0.32465
 16 Li    0.00403    0.00839    0.31868
 17 Li    0.04765    0.03671    0.30691
 18 Li    0.01473   -0.00168    0.00177
 19 Li   -0.01719   -0.00710   -0.03360
 20 Li    0.00758   -0.04098    0.04170
 21 Li    0.01303    0.01042   -0.00032
 22 Li   -0.01000   -0.00698   -0.00073
 23 Li    0.00749    0.02935   -0.03064
 24 Li    0.00647    0.01757   -0.01089
 25 Li   -0.02004    0.00424    0.00285
 26 Li   -0.02286   -0.03372   -0.01899
 27 Li    0.02101   -0.05040   -0.01601
 28 Li   -0.00812   -0.00057    0.00923
 29 Li    0.02120   -0.03699   -0.02504
 30 Li    0.00962    0.04093    0.00696
 31 Li    0.01445   -0.01075   -0.01231
 32 Li   -0.01297   -0.03989   -0.02425
 33 Li   -0.00496   -0.01993    0.01391
 34 Li   -0.00202    0.00607   -0.00413
 35 Li    0.01124   -0.02788   -0.00760
 36 Br    0.00155    0.00294   -0.04308
 37 H     0.00019    0.00324   -0.01716
 38 N    -0.02866   -0.06776   -0.04235
 39 N     0.03358    0.07320    0.00927

System changes: positions 

Initializing position-dependent things.

Density initialized from wave functions
       .-----------------------.  
      /|                       |  
     / |                       |  
    /  |                       |  
   /   |                       |  
  /    |                       |  
 *     |                       |  
 |     |                       |  
 |     |                       |  
 |     |                       |  
 |     |                       |  
 |     |                       |  
 |     |                       |  
 |     |           Br          |  
 |     Li      Li    H         |  
 |     |                       |  
 |   Li|     Li      Li        |  
 |     |  Li      Li      Li   |  
 |     |   Li      LiN    Li   |  
 |     |Li      LiLi   NLi     |  
 |     |                       |  
 |   LLi     LLi     LLi       |  
 |     |  Li      Li      Li   |  
 | Li  |   Li      Li          |  
 |     |Li      Li      Li     |  
 Li    | Li      Li            |  
 |    Li      Li      Li       |  
 |     |                       |  
 |     |                       |  
 |     |                       |  
 |     |                       |  
 |     |                       |  
 |     |                       |  
 |     .-----------------------.  
 |    /                       /   
 |   /                       /    
 |  /                       /     
 | /                       /      
 |/                       /       
 *-----------------------*        

Positions:
   0 Li     1.617037    1.617037   10.000000    ( 0.0000,  0.0000,  0.0000)
   1 Li     4.851111    1.617037   10.000000    ( 0.0000,  0.0000,  0.0000)
   2 Li     8.085185    1.617037   10.000000    ( 0.0000,  0.0000,  0.0000)
   3 Li     1.617037    4.851111   10.000000    ( 0.0000,  0.0000,  0.0000)
   4 Li     4.851111    4.851111   10.000000    ( 0.0000,  0.0000,  0.0000)
   5 Li     8.085185    4.851111   10.000000    ( 0.0000,  0.0000,  0.0000)
   6 Li     1.617037    8.085185   10.000000    ( 0.0000,  0.0000,  0.0000)
   7 Li     4.851111    8.085185   10.000000    ( 0.0000,  0.0000,  0.0000)
   8 Li     8.085185    8.085185   10.000000    ( 0.0000,  0.0000,  0.0000)
   9 Li     0.000000    0.000000   11.617037    ( 0.0000,  0.0000,  0.0000)
  10 Li     3.234074    0.000000   11.617037    ( 0.0000,  0.0000,  0.0000)
  11 Li     6.468148    0.000000   11.617037    ( 0.0000,  0.0000,  0.0000)
  12 Li     0.000000    3.234074   11.617037    ( 0.0000,  0.0000,  0.0000)
  13 Li     3.234074    3.234074   11.617037    ( 0.0000,  0.0000,  0.0000)
  14 Li     6.468148    3.234074   11.617037    ( 0.0000,  0.0000,  0.0000)
  15 Li     0.000000    6.468148   11.617037    ( 0.0000,  0.0000,  0.0000)
  16 Li     3.234074    6.468148   11.617037    ( 0.0000,  0.0000,  0.0000)
  17 Li     6.468148    6.468148   11.617037    ( 0.0000,  0.0000,  0.0000)
  18 Li     1.599164    1.581707   13.517439    ( 0.0000,  0.0000,  0.0000)
  19 Li     4.898017    1.695754   13.565653    ( 0.0000,  0.0000,  0.0000)
  20 Li     8.086638    1.696501   13.663049    ( 0.0000,  0.0000,  0.0000)
  21 Li     1.539479    4.783875   13.510281    ( 0.0000,  0.0000,  0.0000)
  22 Li     4.838760    4.903585   13.515630    ( 0.0000,  0.0000,  0.0000)
  23 Li     8.026780    4.867267   13.557223    ( 0.0000,  0.0000,  0.0000)
  24 Li     1.647334    8.065705   13.517623    ( 0.0000,  0.0000,  0.0000)
  25 Li     4.945081    8.173277   13.499529    ( 0.0000,  0.0000,  0.0000)
  26 Li     8.151174    8.191886   13.555699    ( 0.0000,  0.0000,  0.0000)
  27 Li     0.143605   -0.018947   15.575989    ( 0.0000,  0.0000,  0.0000)
  28 Li     3.411559   -0.060185   15.445735    ( 0.0000,  0.0000,  0.0000)
  29 Li     6.723211    0.354455   15.714739    ( 0.0000,  0.0000,  0.0000)
  30 Li    -0.215850    3.062124   15.630688    ( 0.0000,  0.0000,  0.0000)
  31 Li     3.086893    3.280276   15.473848    ( 0.0000,  0.0000,  0.0000)
  32 Li     6.374550    3.467492   15.607097    ( 0.0000,  0.0000,  0.0000)
  33 Li     0.054490    6.402917   15.444122    ( 0.0000,  0.0000,  0.0000)
  34 Li     3.244395    6.448231   15.452757    ( 0.0000,  0.0000,  0.0000)
  35 Li     6.413374    6.740868   15.490848    ( 0.0000,  0.0000,  0.0000)
  36 Br     7.185485    1.074622   20.820393    ( 0.0000,  0.0000,  0.0000)
  37 H      7.532327    1.801688   19.637065    ( 0.0000,  0.0000,  0.0000)
  38 N      8.555594    1.269414   15.719412    ( 0.0000,  0.0000,  0.0000)
  39 N      7.661982    2.157230   15.723766    ( 0.0000,  0.0000,  0.0000)

Unit cell:
           periodic     x           y           z      points  spacing
  1. axis:    yes    9.702222    0.000000    0.000000    60     0.1617
  2. axis:    yes    0.000000    9.702222    0.000000    60     0.1617
  3. axis:    no     0.000000    0.000000   26.851111   168     0.1598

  Lengths:   9.702222   9.702222  26.851111
  Angles:   90.000000  90.000000  90.000000

Effective grid spacing dv^(1/3) = 0.1611

     iter     time        total  log10-change:
                         energy  eigst   dens
iter:   1 22:35:44  -332.194758  -1.70
iter:   2 22:36:25  -332.193806  -2.39  -2.41
iter:   3 22:37:06  -332.193640c -2.88  -2.54
iter:   4 22:37:47  -332.193254c -3.09  -2.67
Writing to output.gpw (mode='')

iter:   5 22:38:30  -332.193018c -3.02  -2.80
iter:   6 22:39:11  -332.193058c -3.04  -3.07
iter:   7 22:39:52  -332.193048c -3.86  -3.08
iter:   8 22:40:33  -332.193057c -3.84  -3.25
iter:   9 22:41:14  -332.193057c -3.93  -3.33
Writing to output.gpw (mode='')

iter:  10 22:41:56  -332.193037c -4.42  -3.40
iter:  11 22:42:37  -332.193041c -4.71  -3.65
iter:  12 22:43:19  -332.193039c -4.90  -3.74
iter:  13 22:43:59  -332.193040c -5.01  -3.74
iter:  14 22:44:41  -332.193041c -5.24  -3.94
Writing to output.gpw (mode='')

iter:  15 22:45:23  -332.193041c -5.47  -4.07c
iter:  16 22:46:03  -332.193042c -5.81  -4.07c
iter:  17 22:46:45  -332.193044c -5.64  -4.15c
iter:  18 22:47:26  -332.193044c -5.83  -4.37c
iter:  19 22:48:07  -332.193043c -6.12  -4.45c
Writing to output.gpw (mode='')

iter:  20 22:48:48  -332.193042c -6.18  -4.54c
iter:  21 22:49:29  -332.193040c -6.36  -4.57c
iter:  22 22:50:10  -332.193040c -6.52  -4.78c
iter:  23 22:50:52  -332.193040c -6.77  -4.87c
iter:  24 22:51:33  -332.193041c -6.73  -4.89c
Writing to output.gpw (mode='')

iter:  25 22:52:17  -332.193041c -6.78  -4.96c
iter:  26 22:52:58  -332.193041c -7.04  -5.12c
iter:  27 22:53:39  -332.193041c -7.27  -5.23c
iter:  28 22:54:20  -332.193041c -7.14  -5.25c
iter:  29 22:55:01  -332.193041c -7.43c -5.27c

Converged after 29 iterations.

Dipole moment: (-2.567779, -6.383672, -0.073751) |e|*Ang

Energy contributions relative to reference atoms: (reference = -81178.542429)

Kinetic:       +102.465507
Potential:      -92.408456
External:        +0.000000
XC:            -342.479374
Entropy (-ST):   -0.160444
Local:           +0.309505
--------------------------
Free energy:   -332.273263
Extrapolated:  -332.193041

Dipole-layer corrected work functions: 3.400010, 3.541785 eV

Showing only first 2 kpts
 Kpt  Band  Eigenvalues  Occupancy
  0    25     -3.64904    1.94485
  0    26     -3.49687    1.25401
  0    27     -3.45836    0.87532
  0    28     -3.35511    0.17965

  1    25     -3.78792    1.99648
  1    26     -3.42145    0.54227
  1    27     -3.35934    0.19397
  1    28     -3.34902    0.16069


Fermi level: -3.47090

No gap
Writing to output.gpw (mode='')


Forces in eV/Ang:
  0 Li   -0.00507   -0.01043   -0.29967
  1 Li    0.00410    0.00866   -0.29778
  2 Li   -0.00048   -0.00247   -0.26087
  3 Li    0.01161    0.01022   -0.28931
  4 Li   -0.00659    0.00336   -0.29373
  5 Li   -0.01058   -0.01103   -0.30264
  6 Li    0.00504   -0.01023   -0.29150
  7 Li   -0.01451   -0.01770   -0.28764
  8 Li    0.00924   -0.00036   -0.29635
  9 Li   -0.04058    0.06858    0.33802
 10 Li    0.02590    0.03727    0.31376
 11 Li    0.05454    0.07952    0.29710
 12 Li   -0.05722   -0.02910    0.29107
 13 Li    0.00281   -0.01748    0.31360
 14 Li    0.04692   -0.02211    0.33647
 15 Li   -0.03791    0.00875    0.32344
 16 Li    0.00367    0.01080    0.31857
 17 Li    0.04621    0.03732    0.30593
 18 Li    0.01236    0.00041    0.00270
 19 Li   -0.01414   -0.00666   -0.03005
 20 Li    0.00070   -0.03684    0.03538
 21 Li    0.00976    0.00667    0.00365
 22 Li   -0.00844   -0.00737    0.00075
 23 Li    0.00752    0.02827   -0.02849
 24 Li    0.01121    0.01276   -0.01409
 25 Li   -0.01902    0.00353    0.00243
 26 Li   -0.02391   -0.03360   -0.02129
 27 Li    0.04541   -0.06862   -0.00960
 28 Li   -0.00644   -0.00120    0.00888
 29 Li    0.03395   -0.01556   -0.02014
 30 Li    0.01152    0.03565    0.00969
 31 Li    0.01122   -0.00928   -0.01342
 32 Li   -0.01327   -0.03143   -0.01751
 33 Li   -0.00432   -0.02255    0.01160
 34 Li   -0.00198    0.00758   -0.00442
 35 Li    0.00991   -0.02684   -0.00803
 36 Br   -0.01091   -0.02185   -0.00145
 37 H     0.01276    0.02675   -0.05707
 38 N    -0.10386   -0.00230   -0.04024
 39 N     0.03909    0.05332   -0.00841

System changes: positions 

Initializing position-dependent things.

Density initialized from wave functions
       .-----------------------.  
      /|                       |  
     / |                       |  
    /  |                       |  
   /   |                       |  
  /    |                       |  
 *     |                       |  
 |     |                       |  
 |     |                       |  
 |     |                       |  
 |     |                       |  
 |     |                       |  
 |     |                       |  
 |     |           Br          |  
 |     Li      Li    H         |  
 |     |                       |  
 |   Li|     Li      Li        |  
 |     |  Li      Li      Li   |  
 |     |   Li      LiN    Li   |  
 |     |Li      LiLi   NLi     |  
 |     |                       |  
 |   LLi     LLi     LLi       |  
 |     |  Li      Li      Li   |  
 | Li  |   Li      Li          |  
 |     |Li      Li      Li     |  
 Li    | Li      Li            |  
 |    Li      Li      Li       |  
 |     |                       |  
 |     |                       |  
 |     |                       |  
 |     |                       |  
 |     |                       |  
 |     |                       |  
 |     .-----------------------.  
 |    /                       /   
 |   /                       /    
 |  /                       /     
 | /                       /      
 |/                       /       
 *-----------------------*        

Positions:
   0 Li     1.617037    1.617037   10.000000    ( 0.0000,  0.0000,  0.0000)
   1 Li     4.851111    1.617037   10.000000    ( 0.0000,  0.0000,  0.0000)
   2 Li     8.085185    1.617037   10.000000    ( 0.0000,  0.0000,  0.0000)
   3 Li     1.617037    4.851111   10.000000    ( 0.0000,  0.0000,  0.0000)
   4 Li     4.851111    4.851111   10.000000    ( 0.0000,  0.0000,  0.0000)
   5 Li     8.085185    4.851111   10.000000    ( 0.0000,  0.0000,  0.0000)
   6 Li     1.617037    8.085185   10.000000    ( 0.0000,  0.0000,  0.0000)
   7 Li     4.851111    8.085185   10.000000    ( 0.0000,  0.0000,  0.0000)
   8 Li     8.085185    8.085185   10.000000    ( 0.0000,  0.0000,  0.0000)
   9 Li     0.000000    0.000000   11.617037    ( 0.0000,  0.0000,  0.0000)
  10 Li     3.234074    0.000000   11.617037    ( 0.0000,  0.0000,  0.0000)
  11 Li     6.468148    0.000000   11.617037    ( 0.0000,  0.0000,  0.0000)
  12 Li     0.000000    3.234074   11.617037    ( 0.0000,  0.0000,  0.0000)
  13 Li     3.234074    3.234074   11.617037    ( 0.0000,  0.0000,  0.0000)
  14 Li     6.468148    3.234074   11.617037    ( 0.0000,  0.0000,  0.0000)
  15 Li     0.000000    6.468148   11.617037    ( 0.0000,  0.0000,  0.0000)
  16 Li     3.234074    6.468148   11.617037    ( 0.0000,  0.0000,  0.0000)
  17 Li     6.468148    6.468148   11.617037    ( 0.0000,  0.0000,  0.0000)
  18 Li     1.599996    1.585917   13.516277    ( 0.0000,  0.0000,  0.0000)
  19 Li     4.895486    1.691671   13.560137    ( 0.0000,  0.0000,  0.0000)
  20 Li     8.088728    1.698896   13.676439    ( 0.0000,  0.0000,  0.0000)
  21 Li     1.541252    4.788166   13.510828    ( 0.0000,  0.0000,  0.0000)
  22 Li     4.842028    4.900408   13.514611    ( 0.0000,  0.0000,  0.0000)
  23 Li     8.029719    4.871309   13.555025    ( 0.0000,  0.0000,  0.0000)
  24 Li     1.644963    8.070144   13.515427    ( 0.0000,  0.0000,  0.0000)
  25 Li     4.940122    8.172908   13.501595    ( 0.0000,  0.0000,  0.0000)
  26 Li     8.144468    8.187677   13.550987    ( 0.0000,  0.0000,  0.0000)
  27 Li     0.136513   -0.017751   15.563497    ( 0.0000,  0.0000,  0.0000)
  28 Li     3.402599   -0.057756   15.447505    ( 0.0000,  0.0000,  0.0000)
  29 Li     6.723592    0.351566   15.709556    ( 0.0000,  0.0000,  0.0000)
  30 Li    -0.211099    3.071226   15.637977    ( 0.0000,  0.0000,  0.0000)
  31 Li     3.096161    3.278548   15.468251    ( 0.0000,  0.0000,  0.0000)
  32 Li     6.370947    3.463543   15.610535    ( 0.0000,  0.0000,  0.0000)
  33 Li     0.052581    6.410095   15.446144    ( 0.0000,  0.0000,  0.0000)
  34 Li     3.244214    6.447016   15.451082    ( 0.0000,  0.0000,  0.0000)
  35 Li     6.415847    6.732727   15.488864    ( 0.0000,  0.0000,  0.0000)
  36 Br     7.192783    1.076715   20.826461    ( 0.0000,  0.0000,  0.0000)
  37 H      7.526114    1.798252   19.637760    ( 0.0000,  0.0000,  0.0000)
  38 N      8.554982    1.274598   15.728219    ( 0.0000,  0.0000,  0.0000)
  39 N      7.666395    2.167757   15.746874    ( 0.0000,  0.0000,  0.0000)

Unit cell:
           periodic     x           y           z      points  spacing
  1. axis:    yes    9.702222    0.000000    0.000000    60     0.1617
  2. axis:    yes    0.000000    9.702222    0.000000    60     0.1617
  3. axis:    no     0.000000    0.000000   26.851111   168     0.1598

  Lengths:   9.702222   9.702222  26.851111
  Angles:   90.000000  90.000000  90.000000

Effective grid spacing dv^(1/3) = 0.1611

     iter     time        total  log10-change:
                         energy  eigst   dens
iter:   1 22:55:55  -332.194770  -1.31
iter:   2 22:56:37  -332.194043  -2.01  -2.31
iter:   3 22:57:18  -332.193958c -2.48  -2.42
iter:   4 22:57:59  -332.193430c -2.75  -2.53
Writing to output.gpw (mode='')

iter:   5 22:58:41  -332.192849c -2.60  -2.64
iter:   6 22:59:22  -332.192970c -2.70  -2.93
iter:   7 23:00:03  -332.192940c -3.53  -2.91
iter:   8 23:00:44  -332.192987c -3.53  -3.17
iter:   9 23:01:25  -332.192985c -3.76  -3.23
Writing to output.gpw (mode='')

iter:  10 23:02:11  -332.192958c -4.01  -3.29
iter:  11 23:02:51  -332.192960c -4.42  -3.53
iter:  12 23:03:32  -332.192965c -4.54  -3.56
iter:  13 23:04:13  -332.192972c -4.70  -3.61
iter:  14 23:04:54  -332.192968c -5.01  -3.83
Writing to output.gpw (mode='')

iter:  15 23:05:36  -332.192967c -5.05  -3.92
iter:  16 23:06:17  -332.192968c -5.24  -4.01c
iter:  17 23:06:58  -332.192966c -5.42  -4.06c
iter:  18 23:07:39  -332.192965c -5.45  -4.13c
iter:  19 23:08:21  -332.192964c -5.53  -4.31c
Writing to output.gpw (mode='')

iter:  20 23:09:03  -332.192965c -5.96  -4.44c
iter:  21 23:09:44  -332.192965c -5.87  -4.49c
iter:  22 23:10:25  -332.192965c -6.20  -4.57c
iter:  23 23:11:06  -332.192965c -6.24  -4.65c
iter:  24 23:11:47  -332.192965c -6.31  -4.77c
Writing to output.gpw (mode='')

iter:  25 23:12:33  -332.192965c -6.62  -4.85c
iter:  26 23:13:14  -332.192965c -6.67  -4.88c
iter:  27 23:13:55  -332.192965c -6.81  -5.03c
iter:  28 23:14:37  -332.192965c -6.76  -5.12c
iter:  29 23:15:18  -332.192965c -6.90  -5.21c
Writing to output.gpw (mode='')

iter:  30 23:16:00  -332.192965c -7.12  -5.28c
iter:  31 23:16:41  -332.192965c -7.19  -5.36c
iter:  32 23:17:22  -332.192965c -7.37  -5.56c
iter:  33 23:18:03  -332.192965c -7.53c -5.62c

Converged after 33 iterations.

Dipole moment: (-2.533203, -6.403982, -0.077281) |e|*Ang

Energy contributions relative to reference atoms: (reference = -81178.542429)

Kinetic:       +102.446007
Potential:      -92.412977
External:        +0.000000
XC:            -342.455290
Entropy (-ST):   -0.160157
Local:           +0.309374
--------------------------
Free energy:   -332.273044
Extrapolated:  -332.192965

Dipole-layer corrected work functions: 3.400062, 3.548622 eV

Showing only first 2 kpts
 Kpt  Band  Eigenvalues  Occupancy
  0    25     -3.65311    1.94552
  0    26     -3.50154    1.26546
  0    27     -3.46184    0.87564
  0    28     -3.35723    0.17538

  1    25     -3.79155    1.99649
  1    26     -3.42411    0.53604
  1    27     -3.36077    0.18703
  1    28     -3.35229    0.16019


Fermi level: -3.47434

No gap
Writing to output.gpw (mode='')


Forces in eV/Ang:
  0 Li   -0.00425   -0.01068   -0.29976
  1 Li    0.00329    0.00864   -0.29807
  2 Li   -0.00051   -0.00247   -0.26211
  3 Li    0.01147    0.01007   -0.28939
  4 Li   -0.00661    0.00291   -0.29390
  5 Li   -0.01056   -0.01034   -0.30263
  6 Li    0.00542   -0.01066   -0.29146
  7 Li   -0.01439   -0.01728   -0.28723
  8 Li    0.00960   -0.00146   -0.29672
  9 Li   -0.04419    0.07099    0.34229
 10 Li    0.02425    0.03779    0.31135
 11 Li    0.05581    0.08066    0.30093
 12 Li   -0.05837   -0.02883    0.29386
 13 Li    0.00247   -0.01557    0.31212
 14 Li    0.05071   -0.02434    0.34026
 15 Li   -0.03707    0.00970    0.32120
 16 Li    0.00453    0.01063    0.31878
 17 Li    0.04305    0.03729    0.30375
 18 Li    0.01139    0.00072    0.00152
 19 Li   -0.01303   -0.00563   -0.02604
 20 Li   -0.00489   -0.02777    0.02597
 21 Li    0.00781    0.00360    0.00444
 22 Li   -0.00893   -0.00548    0.00023
 23 Li    0.00561    0.02253   -0.02470
 24 Li    0.01176    0.00848   -0.01352
 25 Li   -0.01436    0.00308    0.00253
 26 Li   -0.02133   -0.03070   -0.02123
 27 Li    0.04607   -0.06732   -0.00232
 28 Li   -0.00169   -0.00121    0.00720
 29 Li    0.04623    0.01766   -0.01081
 30 Li    0.00597    0.02084    0.01085
 31 Li    0.00644   -0.00731   -0.01192
 32 Li   -0.02577   -0.00407   -0.01053
 33 Li   -0.00242   -0.02303    0.00834
 34 Li   -0.00195    0.00745   -0.00427
 35 Li    0.00709   -0.02277   -0.00835
 36 Br   -0.01791   -0.04448    0.03080
 37 H     0.02019    0.04377   -0.08923
 38 N    -0.16530    0.03457   -0.02982
 39 N     0.03727   -0.10810   -0.05845

System changes: positions 

Initializing position-dependent things.

Density initialized from wave functions
       .-----------------------.  
      /|                       |  
     / |                       |  
    /  |                       |  
   /   |                       |  
  /    |                       |  
 *     |                       |  
 |     |                       |  
 |     |                       |  
 |     |                       |  
 |     |                       |  
 |     |                       |  
 |     |                       |  
 |     |           Br          |  
 |     Li      Li    H         |  
 |     |                       |  
 |   Li|     Li      Li        |  
 |     |  Li      Li      Li   |  
 |     |   Li      LiN    Li   |  
 |     |Li      LiLi   NLi     |  
 |     |                       |  
 |   LLi     LLi     LLi       |  
 |     |  Li      Li      Li   |  
 | Li  |   Li      Li          |  
 |     |Li      Li      Li     |  
 Li    | Li      Li            |  
 |    Li      Li      Li       |  
 |     |                       |  
 |     |                       |  
 |     |                       |  
 |     |                       |  
 |     |                       |  
 |     |                       |  
 |     .-----------------------.  
 |    /                       /   
 |   /                       /    
 |  /                       /     
 | /                       /      
 |/                       /       
 *-----------------------*        

Positions:
   0 Li     1.617037    1.617037   10.000000    ( 0.0000,  0.0000,  0.0000)
   1 Li     4.851111    1.617037   10.000000    ( 0.0000,  0.0000,  0.0000)
   2 Li     8.085185    1.617037   10.000000    ( 0.0000,  0.0000,  0.0000)
   3 Li     1.617037    4.851111   10.000000    ( 0.0000,  0.0000,  0.0000)
   4 Li     4.851111    4.851111   10.000000    ( 0.0000,  0.0000,  0.0000)
   5 Li     8.085185    4.851111   10.000000    ( 0.0000,  0.0000,  0.0000)
   6 Li     1.617037    8.085185   10.000000    ( 0.0000,  0.0000,  0.0000)
   7 Li     4.851111    8.085185   10.000000    ( 0.0000,  0.0000,  0.0000)
   8 Li     8.085185    8.085185   10.000000    ( 0.0000,  0.0000,  0.0000)
   9 Li     0.000000    0.000000   11.617037    ( 0.0000,  0.0000,  0.0000)
  10 Li     3.234074    0.000000   11.617037    ( 0.0000,  0.0000,  0.0000)
  11 Li     6.468148    0.000000   11.617037    ( 0.0000,  0.0000,  0.0000)
  12 Li     0.000000    3.234074   11.617037    ( 0.0000,  0.0000,  0.0000)
  13 Li     3.234074    3.234074   11.617037    ( 0.0000,  0.0000,  0.0000)
  14 Li     6.468148    3.234074   11.617037    ( 0.0000,  0.0000,  0.0000)
  15 Li     0.000000    6.468148   11.617037    ( 0.0000,  0.0000,  0.0000)
  16 Li     3.234074    6.468148   11.617037    ( 0.0000,  0.0000,  0.0000)
  17 Li     6.468148    6.468148   11.617037    ( 0.0000,  0.0000,  0.0000)
  18 Li     1.601200    1.583563   13.516240    ( 0.0000,  0.0000,  0.0000)
  19 Li     4.894699    1.693155   13.560203    ( 0.0000,  0.0000,  0.0000)
  20 Li     8.089007    1.695533   13.670192    ( 0.0000,  0.0000,  0.0000)
  21 Li     1.541683    4.787165   13.509865    ( 0.0000,  0.0000,  0.0000)
  22 Li     4.839264    4.901872   13.514624    ( 0.0000,  0.0000,  0.0000)
  23 Li     8.028521    4.870644   13.553998    ( 0.0000,  0.0000,  0.0000)
  24 Li     1.645362    8.069724   13.516718    ( 0.0000,  0.0000,  0.0000)
  25 Li     4.941815    8.173446   13.501031    ( 0.0000,  0.0000,  0.0000)
  26 Li     8.146721    8.187930   13.552394    ( 0.0000,  0.0000,  0.0000)
  27 Li     0.138989   -0.020835   15.568759    ( 0.0000,  0.0000,  0.0000)
  28 Li     3.406743   -0.058697   15.446866    ( 0.0000,  0.0000,  0.0000)
  29 Li     6.723718    0.350988   15.711346    ( 0.0000,  0.0000,  0.0000)
  30 Li    -0.212842    3.068711   15.635112    ( 0.0000,  0.0000,  0.0000)
  31 Li     3.092600    3.278605   15.470513    ( 0.0000,  0.0000,  0.0000)
  32 Li     6.372560    3.462839   15.607436    ( 0.0000,  0.0000,  0.0000)
  33 Li     0.053330    6.406092   15.445970    ( 0.0000,  0.0000,  0.0000)
  34 Li     3.244229    6.447535   15.451522    ( 0.0000,  0.0000,  0.0000)
  35 Li     6.415191    6.735270   15.489237    ( 0.0000,  0.0000,  0.0000)
  36 Br     7.189789    1.075443   20.822069    ( 0.0000,  0.0000,  0.0000)
  37 H      7.528710    1.800183   19.635743    ( 0.0000,  0.0000,  0.0000)
  38 N      8.554561    1.271808   15.721918    ( 0.0000,  0.0000,  0.0000)
  39 N      7.664077    2.162978   15.736976    ( 0.0000,  0.0000,  0.0000)

Unit cell:
           periodic     x           y           z      points  spacing
  1. axis:    yes    9.702222    0.000000    0.000000    60     0.1617
  2. axis:    yes    0.000000    9.702222    0.000000    60     0.1617
  3. axis:    no     0.000000    0.000000   26.851111   168     0.1598

  Lengths:   9.702222   9.702222  26.851111
  Angles:   90.000000  90.000000  90.000000

Effective grid spacing dv^(1/3) = 0.1611

     iter     time        total  log10-change:
                         energy  eigst   dens
iter:   1 23:19:02  -332.194581  -2.03
iter:   2 23:19:44  -332.194403  -2.78  -2.65
iter:   3 23:20:25  -332.194442c -3.27  -2.82
iter:   4 23:21:06  -332.194435c -3.66  -2.87
Writing to output.gpw (mode='')

iter:   5 23:21:47  -332.194335c -3.23  -2.90
iter:   6 23:22:29  -332.194368c -3.42  -3.29
iter:   7 23:23:09  -332.194315c -4.07  -3.27
iter:   8 23:23:50  -332.194236c -4.40  -3.44
iter:   9 23:24:31  -332.194278c -4.52  -3.52
Writing to output.gpw (mode='')

iter:  10 23:25:13  -332.194264c -5.04  -3.69
iter:  11 23:25:54  -332.194248c -4.69  -3.83
iter:  12 23:26:35  -332.194260c -5.50  -3.82
iter:  13 23:27:16  -332.194275c -5.16  -4.01c
iter:  14 23:27:58  -332.194266c -5.21  -4.02c
Writing to output.gpw (mode='')

iter:  15 23:28:39  -332.194267c -6.09  -4.01c
iter:  16 23:29:20  -332.194266c -5.70  -4.20c
iter:  17 23:30:01  -332.194264c -6.35  -4.47c
iter:  18 23:30:42  -332.194263c -6.43  -4.51c
iter:  19 23:31:23  -332.194261c -6.21  -4.54c
Writing to output.gpw (mode='')

iter:  20 23:32:06  -332.194262c -6.76  -4.72c
iter:  21 23:32:46  -332.194263c -6.78  -4.80c
iter:  22 23:33:28  -332.194265c -6.79  -4.90c
iter:  23 23:34:08  -332.194266c -6.99  -4.93c
iter:  24 23:34:49  -332.194266c -7.39  -5.08c
Writing to output.gpw (mode='')

iter:  25 23:35:31  -332.194265c -7.45c -5.13c

Converged after 25 iterations.

Dipole moment: (-2.542648, -6.365884, -0.075702) |e|*Ang

Energy contributions relative to reference atoms: (reference = -81178.542429)

Kinetic:       +102.433031
Potential:      -92.395215
External:        +0.000000
XC:            -342.461411
Entropy (-ST):   -0.160300
Local:           +0.309480
--------------------------
Free energy:   -332.274415
Extrapolated:  -332.194265

Dipole-layer corrected work functions: 3.400091, 3.545616 eV

Showing only first 2 kpts
 Kpt  Band  Eigenvalues  Occupancy
  0    25     -3.65167    1.94556
  0    26     -3.49943    1.25966
  0    27     -3.46038    0.87593
  0    28     -3.35635    0.17733

  1    25     -3.79002    1.99649
  1    26     -3.42292    0.53839
  1    27     -3.36015    0.19000
  1    28     -3.35108    0.16100


Fermi level: -3.47285

No gap

Forces in eV/Ang:
  0 Li   -0.00457   -0.01071   -0.29953
  1 Li    0.00353    0.00854   -0.29788
  2 Li   -0.00051   -0.00247   -0.26147
  3 Li    0.01159    0.01013   -0.28933
  4 Li   -0.00666    0.00305   -0.29362
  5 Li   -0.01048   -0.01051   -0.30249
  6 Li    0.00532   -0.01049   -0.29157
  7 Li   -0.01439   -0.01738   -0.28749
  8 Li    0.00950   -0.00093   -0.29642
  9 Li   -0.04269    0.06944    0.33979
 10 Li    0.02487    0.03684    0.31117
 11 Li    0.05524    0.07963    0.29884
 12 Li   -0.05729   -0.02902    0.29276
 13 Li    0.00217   -0.01595    0.31128
 14 Li    0.04926   -0.02362    0.33904
 15 Li   -0.03667    0.00962    0.32146
 16 Li    0.00383    0.01179    0.31835
 17 Li    0.04318    0.03750    0.30406
 18 Li    0.00951    0.00143    0.00328
 19 Li   -0.01125   -0.00636   -0.02538
 20 Li   -0.00481   -0.02837    0.02915
 21 Li    0.00747    0.00409    0.00522
 22 Li   -0.00693   -0.00657    0.00066
 23 Li    0.00631    0.02299   -0.02406
 24 Li    0.01229    0.00805   -0.01442
 25 Li   -0.01610    0.00232    0.00193
 26 Li   -0.02184   -0.03113   -0.02103
 27 Li    0.03909   -0.05868   -0.00649
 28 Li   -0.00373   -0.00114    0.00838
 29 Li    0.04012    0.00679   -0.01596
 30 Li    0.00267    0.01959    0.00890
 31 Li    0.00818   -0.00731   -0.01268
 32 Li   -0.02920   -0.00518   -0.01373
 33 Li   -0.00299   -0.02257    0.00867
 34 Li   -0.00236    0.00794   -0.00389
 35 Li    0.00788   -0.02503   -0.00807
 36 Br   -0.01336   -0.03000    0.01146
 37 H     0.01539    0.03271   -0.06969
 38 N    -0.12218    0.02433   -0.01903
 39 N     0.01698   -0.07886   -0.07062

System changes: positions 

Initializing position-dependent things.

Density initialized from wave functions
       .-----------------------.  
      /|                       |  
     / |                       |  
    /  |                       |  
   /   |                       |  
  /    |                       |  
 *     |                       |  
 |     |                       |  
 |     |                       |  
 |     |                       |  
 |     |                       |  
 |     |                       |  
 |     |                       |  
 |     |           Br          |  
 |     Li      Li    H         |  
 |     |                       |  
 |   Li|     Li      Li        |  
 |     |  Li      Li      Li   |  
 |     |   Li      LiN    Li   |  
 |     |Li      LiLi   NLi     |  
 |     |                       |  
 |   LLi     LLi     LLi       |  
 |     |  Li      Li      Li   |  
 | Li  |   Li      Li          |  
 |     |Li      Li      Li     |  
 Li    | Li      Li            |  
 |    Li      Li      Li       |  
 |     |                       |  
 |     |                       |  
 |     |                       |  
 |     |                       |  
 |     |                       |  
 |     |                       |  
 |     .-----------------------.  
 |    /                       /   
 |   /                       /    
 |  /                       /     
 | /                       /      
 |/                       /       
 *-----------------------*        

Positions:
   0 Li     1.617037    1.617037   10.000000    ( 0.0000,  0.0000,  0.0000)
   1 Li     4.851111    1.617037   10.000000    ( 0.0000,  0.0000,  0.0000)
   2 Li     8.085185    1.617037   10.000000    ( 0.0000,  0.0000,  0.0000)
   3 Li     1.617037    4.851111   10.000000    ( 0.0000,  0.0000,  0.0000)
   4 Li     4.851111    4.851111   10.000000    ( 0.0000,  0.0000,  0.0000)
   5 Li     8.085185    4.851111   10.000000    ( 0.0000,  0.0000,  0.0000)
   6 Li     1.617037    8.085185   10.000000    ( 0.0000,  0.0000,  0.0000)
   7 Li     4.851111    8.085185   10.000000    ( 0.0000,  0.0000,  0.0000)
   8 Li     8.085185    8.085185   10.000000    ( 0.0000,  0.0000,  0.0000)
   9 Li     0.000000    0.000000   11.617037    ( 0.0000,  0.0000,  0.0000)
  10 Li     3.234074    0.000000   11.617037    ( 0.0000,  0.0000,  0.0000)
  11 Li     6.468148    0.000000   11.617037    ( 0.0000,  0.0000,  0.0000)
  12 Li     0.000000    3.234074   11.617037    ( 0.0000,  0.0000,  0.0000)
  13 Li     3.234074    3.234074   11.617037    ( 0.0000,  0.0000,  0.0000)
  14 Li     6.468148    3.234074   11.617037    ( 0.0000,  0.0000,  0.0000)
  15 Li     0.000000    6.468148   11.617037    ( 0.0000,  0.0000,  0.0000)
  16 Li     3.234074    6.468148   11.617037    ( 0.0000,  0.0000,  0.0000)
  17 Li     6.468148    6.468148   11.617037    ( 0.0000,  0.0000,  0.0000)
  18 Li     1.604981    1.575892   13.516546    ( 0.0000,  0.0000,  0.0000)
  19 Li     4.892499    1.698047   13.560466    ( 0.0000,  0.0000,  0.0000)
  20 Li     8.089520    1.683594   13.651934    ( 0.0000,  0.0000,  0.0000)
  21 Li     1.542846    4.783503   13.507245    ( 0.0000,  0.0000,  0.0000)
  22 Li     4.830376    4.906392   13.515024    ( 0.0000,  0.0000,  0.0000)
  23 Li     8.024776    4.869155   13.550318    ( 0.0000,  0.0000,  0.0000)
  24 Li     1.647503    8.068078   13.520378    ( 0.0000,  0.0000,  0.0000)
  25 Li     4.947008    8.175274   13.499104    ( 0.0000,  0.0000,  0.0000)
  26 Li     8.153745    8.188227   13.556644    ( 0.0000,  0.0000,  0.0000)
  27 Li     0.148249   -0.031563   15.586616    ( 0.0000,  0.0000,  0.0000)
  28 Li     3.420391   -0.061955   15.445003    ( 0.0000,  0.0000,  0.0000)
  29 Li     6.724527    0.348463   15.716771    ( 0.0000,  0.0000,  0.0000)
  30 Li    -0.219757    3.059735   15.625966    ( 0.0000,  0.0000,  0.0000)
  31 Li     3.080804    3.278770   15.477621    ( 0.0000,  0.0000,  0.0000)
  32 Li     6.377138    3.460826   15.597258    ( 0.0000,  0.0000,  0.0000)
  33 Li     0.055703    6.392044   15.445429    ( 0.0000,  0.0000,  0.0000)
  34 Li     3.244188    6.449605   15.452972    ( 0.0000,  0.0000,  0.0000)
  35 Li     6.413208    6.743307   15.490406    ( 0.0000,  0.0000,  0.0000)
  36 Br     7.179130    1.071471   20.806605    ( 0.0000,  0.0000,  0.0000)
  37 H      7.538030    1.806044   19.630262    ( 0.0000,  0.0000,  0.0000)
  38 N      8.554343    1.262344   15.698056    ( 0.0000,  0.0000,  0.0000)
  39 N      7.655914    2.147547   15.700986    ( 0.0000,  0.0000,  0.0000)

Unit cell:
           periodic     x           y           z      points  spacing
  1. axis:    yes    9.702222    0.000000    0.000000    60     0.1617
  2. axis:    yes    0.000000    9.702222    0.000000    60     0.1617
  3. axis:    no     0.000000    0.000000   26.851111   168     0.1598

  Lengths:   9.702222   9.702222  26.851111
  Angles:   90.000000  90.000000  90.000000

Effective grid spacing dv^(1/3) = 0.1611

     iter     time        total  log10-change:
                         energy  eigst   dens
iter:   1 23:36:26  -332.198924  -0.97
iter:   2 23:37:07  -332.198260  -1.70  -2.14
iter:   3 23:37:47  -332.198231c -2.21  -2.29
iter:   4 23:38:28  -332.198443c -2.57  -2.36
Writing to output.gpw (mode='')

iter:   5 23:39:10  -332.198297c -2.83  -2.36
iter:   6 23:39:51  -332.203044c -2.20  -2.37
iter:   7 23:40:32  -332.197573c -1.87  -2.18
iter:   8 23:41:13  -332.196920c -2.74  -2.46
iter:   9 23:41:54  -332.195265c -2.77  -2.53
Writing to output.gpw (mode='')

iter:  10 23:42:36  -332.195276c -3.18  -2.98
iter:  11 23:43:18  -332.195271c -3.62  -3.14
iter:  12 23:43:59  -332.195180c -3.61  -3.25
iter:  13 23:44:39  -332.195213c -4.21  -3.31
iter:  14 23:45:20  -332.195221c -4.40  -3.40
Writing to output.gpw (mode='')

iter:  15 23:46:02  -332.195244c -4.43  -3.59
iter:  16 23:46:43  -332.195239c -4.87  -3.62
iter:  17 23:47:24  -332.195251c -5.06  -3.66
iter:  18 23:48:05  -332.195263c -4.91  -3.75
iter:  19 23:48:47  -332.195257c -5.03  -3.85
Writing to output.gpw (mode='')

iter:  20 23:49:33  -332.195248c -5.18  -3.95
iter:  21 23:50:14  -332.195246c -5.36  -4.10c
iter:  22 23:50:55  -332.195247c -5.77  -4.26c
iter:  23 23:51:37  -332.195250c -5.79  -4.33c
iter:  24 23:52:18  -332.195251c -5.89  -4.45c
Writing to output.gpw (mode='')

iter:  25 23:53:00  -332.195252c -6.13  -4.53c
iter:  26 23:53:41  -332.195253c -6.30  -4.56c
iter:  27 23:54:22  -332.195255c -6.36  -4.78c
iter:  28 23:55:03  -332.195254c -6.55  -4.88c
iter:  29 23:55:44  -332.195254c -6.74  -4.91c
Writing to output.gpw (mode='')

iter:  30 23:56:30  -332.195254c -6.79  -4.89c
iter:  31 23:57:11  -332.195254c -6.99  -4.93c
iter:  32 23:57:52  -332.195254c -7.01  -4.92c
iter:  33 23:58:33  -332.195254c -7.10  -4.90c
iter:  34 23:59:15  -332.195254c -7.19  -4.92c
Writing to output.gpw (mode='')

iter:  35 23:59:56  -332.195254c -7.23  -4.95c
iter:  36 00:00:38  -332.195254c -7.07  -4.99c
iter:  37 00:01:19  -332.195253c -7.38  -5.04c
iter:  38 00:02:00  -332.195253c -7.49c -5.24c

Converged after 38 iterations.

Dipole moment: (-2.573030, -6.226723, -0.070506) |e|*Ang

Energy contributions relative to reference atoms: (reference = -81178.542429)

Kinetic:       +102.380833
Potential:      -92.318453
External:        +0.000000
XC:            -342.486312
Entropy (-ST):   -0.160894
Local:           +0.309126
--------------------------
Free energy:   -332.275700
Extrapolated:  -332.195253

Dipole-layer corrected work functions: 3.400146, 3.535682 eV

Showing only first 2 kpts
 Kpt  Band  Eigenvalues  Occupancy
  0    25     -3.64660    1.94543
  0    26     -3.49224    1.23861
  0    27     -3.45569    0.87832
  0    28     -3.35383    0.18530

  1    25     -3.78459    1.99645
  1    26     -3.41925    0.54847
  1    27     -3.35830    0.20090
  1    28     -3.34759    0.16537


Fermi level: -3.46791

No gap
Writing to output.gpw (mode='')


Forces in eV/Ang:
  0 Li   -0.00568   -0.01083   -0.29864
  1 Li    0.00442    0.00822   -0.29712
  2 Li   -0.00051   -0.00256   -0.25929
  3 Li    0.01197    0.01039   -0.28907
  4 Li   -0.00690    0.00356   -0.29261
  5 Li   -0.01019   -0.01105   -0.30191
  6 Li    0.00512   -0.00992   -0.29178
  7 Li   -0.01451   -0.01764   -0.28821
  8 Li    0.00920    0.00093   -0.29518
  9 Li   -0.03766    0.06418    0.33147
 10 Li    0.02691    0.03405    0.31055
 11 Li    0.05312    0.07611    0.29153
 12 Li   -0.05389   -0.02986    0.28918
 13 Li    0.00115   -0.01726    0.30899
 14 Li    0.04475   -0.02144    0.33508
 15 Li   -0.03497    0.00924    0.32222
 16 Li    0.00175    0.01511    0.31675
 17 Li    0.04318    0.03804    0.30498
 18 Li    0.00319    0.00336    0.00890
 19 Li   -0.00541   -0.00907   -0.02286
 20 Li   -0.00398   -0.02865    0.02696
 21 Li    0.00703    0.00647    0.00660
 22 Li   -0.00122   -0.00911    0.00112
 23 Li    0.00823    0.02276   -0.02136
 24 Li    0.01310    0.00634   -0.01654
 25 Li   -0.02138   -0.00069   -0.00006
 26 Li   -0.02234   -0.03176   -0.01927
 27 Li    0.01111   -0.02616   -0.02178
 28 Li   -0.01021   -0.00090    0.01213
 29 Li    0.02381   -0.02635   -0.03065
 30 Li   -0.00563    0.01846    0.00248
 31 Li    0.01369   -0.00707   -0.01461
 32 Li   -0.03723   -0.01216   -0.02437
 33 Li   -0.00452   -0.02011    0.00973
 34 Li   -0.00356    0.00918   -0.00252
 35 Li    0.00987   -0.03227   -0.00728
 36 Br   -0.00797   -0.00753   -0.02774
 37 H     0.01130    0.01826   -0.04011
 38 N    -0.08629   -0.03492   -0.02100
 39 N     0.15237   -0.00669    0.00850

System changes: positions 

Initializing position-dependent things.

Density initialized from wave functions
       .-----------------------.  
      /|                       |  
     / |                       |  
    /  |                       |  
   /   |                       |  
  /    |                       |  
 *     |                       |  
 |     |                       |  
 |     |                       |  
 |     |                       |  
 |     |                       |  
 |     |                       |  
 |     |                       |  
 |     |           Br          |  
 |     Li      Li    H         |  
 |     |                       |  
 |   Li|     Li      Li        |  
 |     |  Li      Li      Li   |  
 |     |   Li      LiN    Li   |  
 |     |Li      LiLi   NLi     |  
 |     |                       |  
 |   LLi     LLi     LLi       |  
 |     |  Li      Li      Li   |  
 | Li  |   Li      Li          |  
 |     |Li      Li      Li     |  
 Li    | Li      Li            |  
 |    Li      Li      Li       |  
 |     |                       |  
 |     |                       |  
 |     |                       |  
 |     |                       |  
 |     |                       |  
 |     |                       |  
 |     .-----------------------.  
 |    /                       /   
 |   /                       /    
 |  /                       /     
 | /                       /      
 |/                       /       
 *-----------------------*        

Positions:
   0 Li     1.617037    1.617037   10.000000    ( 0.0000,  0.0000,  0.0000)
   1 Li     4.851111    1.617037   10.000000    ( 0.0000,  0.0000,  0.0000)
   2 Li     8.085185    1.617037   10.000000    ( 0.0000,  0.0000,  0.0000)
   3 Li     1.617037    4.851111   10.000000    ( 0.0000,  0.0000,  0.0000)
   4 Li     4.851111    4.851111   10.000000    ( 0.0000,  0.0000,  0.0000)
   5 Li     8.085185    4.851111   10.000000    ( 0.0000,  0.0000,  0.0000)
   6 Li     1.617037    8.085185   10.000000    ( 0.0000,  0.0000,  0.0000)
   7 Li     4.851111    8.085185   10.000000    ( 0.0000,  0.0000,  0.0000)
   8 Li     8.085185    8.085185   10.000000    ( 0.0000,  0.0000,  0.0000)
   9 Li     0.000000    0.000000   11.617037    ( 0.0000,  0.0000,  0.0000)
  10 Li     3.234074    0.000000   11.617037    ( 0.0000,  0.0000,  0.0000)
  11 Li     6.468148    0.000000   11.617037    ( 0.0000,  0.0000,  0.0000)
  12 Li     0.000000    3.234074   11.617037    ( 0.0000,  0.0000,  0.0000)
  13 Li     3.234074    3.234074   11.617037    ( 0.0000,  0.0000,  0.0000)
  14 Li     6.468148    3.234074   11.617037    ( 0.0000,  0.0000,  0.0000)
  15 Li     0.000000    6.468148   11.617037    ( 0.0000,  0.0000,  0.0000)
  16 Li     3.234074    6.468148   11.617037    ( 0.0000,  0.0000,  0.0000)
  17 Li     6.468148    6.468148   11.617037    ( 0.0000,  0.0000,  0.0000)
  18 Li     1.608221    1.574704   13.515225    ( 0.0000,  0.0000,  0.0000)
  19 Li     4.888354    1.697322   13.555368    ( 0.0000,  0.0000,  0.0000)
  20 Li     8.092601    1.678868   13.654621    ( 0.0000,  0.0000,  0.0000)
  21 Li     1.545652    4.785896   13.505192    ( 0.0000,  0.0000,  0.0000)
  22 Li     4.827739    4.906776   13.513641    ( 0.0000,  0.0000,  0.0000)
  23 Li     8.024818    4.870718   13.546875    ( 0.0000,  0.0000,  0.0000)
  24 Li     1.645352    8.071484   13.521514    ( 0.0000,  0.0000,  0.0000)
  25 Li     4.946124    8.175942   13.499615    ( 0.0000,  0.0000,  0.0000)
  26 Li     8.152964    8.185723   13.556097    ( 0.0000,  0.0000,  0.0000)
  27 Li     0.146212   -0.036143   15.583870    ( 0.0000,  0.0000,  0.0000)
  28 Li     3.420687   -0.061767   15.445361    ( 0.0000,  0.0000,  0.0000)
  29 Li     6.724169    0.344292   15.714546    ( 0.0000,  0.0000,  0.0000)
  30 Li    -0.219697    3.061544   15.624726    ( 0.0000,  0.0000,  0.0000)
  31 Li     3.082057    3.277450   15.477644    ( 0.0000,  0.0000,  0.0000)
  32 Li     6.375003    3.456536   15.592314    ( 0.0000,  0.0000,  0.0000)
  33 Li     0.055626    6.390995   15.446935    ( 0.0000,  0.0000,  0.0000)
  34 Li     3.243990    6.449337   15.452496    ( 0.0000,  0.0000,  0.0000)
  35 Li     6.413985    6.741356   15.489634    ( 0.0000,  0.0000,  0.0000)
  36 Br     7.181509    1.071330   20.800819    ( 0.0000,  0.0000,  0.0000)
  37 H      7.536319    1.807743   19.624429    ( 0.0000,  0.0000,  0.0000)
  38 N      8.553650    1.259843   15.697239    ( 0.0000,  0.0000,  0.0000)
  39 N      7.657654    2.146705   15.705284    ( 0.0000,  0.0000,  0.0000)

Unit cell:
           periodic     x           y           z      points  spacing
  1. axis:    yes    9.702222    0.000000    0.000000    60     0.1617
  2. axis:    yes    0.000000    9.702222    0.000000    60     0.1617
  3. axis:    no     0.000000    0.000000   26.851111   168     0.1598

  Lengths:   9.702222   9.702222  26.851111
  Angles:   90.000000  90.000000  90.000000

Effective grid spacing dv^(1/3) = 0.1611

     iter     time        total  log10-change:
                         energy  eigst   dens
iter:   1 00:02:56  -332.200468  -2.06
iter:   2 00:03:37  -332.197868  -2.63  -2.25
iter:   3 00:04:19  -332.197385c -3.26  -2.49
iter:   4 00:05:00  -332.197177c -3.60  -2.73
Writing to output.gpw (mode='')

iter:   5 00:05:42  -332.197142c -3.54  -2.90
iter:   6 00:06:23  -332.197178c -3.46  -3.14
iter:   7 00:07:04  -332.197140c -4.05  -3.27
iter:   8 00:07:46  -332.197215c -3.47  -3.42
iter:   9 00:08:27  -332.197166c -4.52  -3.30
Writing to output.gpw (mode='')

iter:  10 00:09:09  -332.197141c -4.71  -3.50
iter:  11 00:09:50  -332.197133c -4.74  -3.67
iter:  12 00:10:31  -332.197149c -5.06  -3.81
iter:  13 00:11:12  -332.197142c -5.16  -3.86
iter:  14 00:11:53  -332.197149c -5.38  -3.99
Writing to output.gpw (mode='')

iter:  15 00:12:39  -332.197151c -5.62  -4.13c
iter:  16 00:13:20  -332.197143c -5.79  -4.19c
iter:  17 00:14:01  -332.197144c -6.09  -4.45c
iter:  18 00:14:43  -332.197145c -6.06  -4.52c
iter:  19 00:15:24  -332.197143c -6.22  -4.54c
Writing to output.gpw (mode='')

iter:  20 00:16:08  -332.197142c -6.37  -4.63c
iter:  21 00:16:49  -332.197145c -6.52  -4.65c
iter:  22 00:17:30  -332.197144c -6.68  -4.72c
iter:  23 00:18:12  -332.197144c -6.99  -4.87c
iter:  24 00:18:53  -332.197144c -7.13  -4.92c
Writing to output.gpw (mode='')

iter:  25 00:19:34  -332.197145c -7.12  -4.94c
iter:  26 00:20:15  -332.197144c -7.12  -5.07c
iter:  27 00:20:56  -332.197144c -7.58c -5.11c

Converged after 27 iterations.

Dipole moment: (-2.546654, -6.168343, -0.071197) |e|*Ang

Energy contributions relative to reference atoms: (reference = -81178.542429)

Kinetic:       +102.395608
Potential:      -92.335689
External:        +0.000000
XC:            -342.485252
Entropy (-ST):   -0.160844
Local:           +0.308611
--------------------------
Free energy:   -332.277566
Extrapolated:  -332.197144

Dipole-layer corrected work functions: 3.400105, 3.536970 eV

Showing only first 2 kpts
 Kpt  Band  Eigenvalues  Occupancy
  0    25     -3.64796    1.94620
  0    26     -3.49296    1.23951
  0    27     -3.45637    0.87888
  0    28     -3.35415    0.18428

  1    25     -3.78525    1.99646
  1    26     -3.41958    0.54613
  1    27     -3.35840    0.19900
  1    28     -3.34823    0.16542


Fermi level: -3.46854

No gap
Writing to output.gpw (mode='')


Forces in eV/Ang:
  0 Li   -0.00541   -0.01108   -0.29835
  1 Li    0.00399    0.00800   -0.29702
  2 Li   -0.00050   -0.00259   -0.25959
  3 Li    0.01215    0.01035   -0.28898
  4 Li   -0.00708    0.00344   -0.29214
  5 Li   -0.01000   -0.01065   -0.30184
  6 Li    0.00522   -0.00994   -0.29198
  7 Li   -0.01437   -0.01746   -0.28833
  8 Li    0.00934    0.00093   -0.29503
  9 Li   -0.03830    0.06355    0.33115
 10 Li    0.02648    0.03222    0.30791
 11 Li    0.05388    0.07550    0.29209
 12 Li   -0.05336   -0.03048    0.29100
 13 Li    0.00023   -0.01636    0.30556
 14 Li    0.04590   -0.02271    0.33730
 15 Li   -0.03387    0.01017    0.32089
 16 Li    0.00091    0.01794    0.31586
 17 Li    0.04121    0.03855    0.30392
 18 Li   -0.00059    0.00564    0.01073
 19 Li   -0.00136   -0.00991   -0.01841
 20 Li   -0.00983   -0.02246    0.01842
 21 Li    0.00381    0.00376    0.00993
 22 Li    0.00201   -0.00976    0.00187
 23 Li    0.00860    0.02026   -0.01814
 24 Li    0.01619    0.00134   -0.01901
 25 Li   -0.02095   -0.00225   -0.00072
 26 Li   -0.02251   -0.03153   -0.02053
 27 Li    0.00906   -0.01955   -0.02017
 28 Li   -0.01013   -0.00065    0.01264
 29 Li    0.02505   -0.01558   -0.02975
 30 Li   -0.00756    0.00861    0.00306
 31 Li    0.01232   -0.00556   -0.01592
 32 Li   -0.03279   -0.01058   -0.01980
 33 Li   -0.00422   -0.02041    0.00741
 34 Li   -0.00390    0.01030   -0.00217
 35 Li    0.00895   -0.03312   -0.00760
 36 Br   -0.00895   -0.00785   -0.02629
 37 H     0.01254    0.01631   -0.04038
 38 N    -0.07056   -0.03126    0.00831
 39 N     0.12314   -0.01132   -0.03267

System changes: positions 

Initializing position-dependent things.

Density initialized from wave functions
       .-----------------------.  
      /|                       |  
     / |                       |  
    /  |                       |  
   /   |                       |  
  /    |                       |  
 *     |                       |  
 |     |                       |  
 |     |                       |  
 |     |                       |  
 |     |                       |  
 |     |                       |  
 |     |                       |  
 |     |           Br          |  
 |     Li      Li    H         |  
 |     |                       |  
 |   Li|     Li      Li        |  
 |     |  Li      Li      Li   |  
 |     |   Li      LiN    Li   |  
 |     |Li      LiLi   NLi     |  
 |     |                       |  
 |   LLi     LLi     LLi       |  
 |     |  Li      Li      Li   |  
 | Li  |   Li      Li          |  
 |     |Li      Li      Li     |  
 Li    | Li      Li            |  
 |    Li      Li      Li       |  
 |     |                       |  
 |     |                       |  
 |     |                       |  
 |     |                       |  
 |     |                       |  
 |     |                       |  
 |     .-----------------------.  
 |    /                       /   
 |   /                       /    
 |  /                       /     
 | /                       /      
 |/                       /       
 *-----------------------*        

Positions:
   0 Li     1.617037    1.617037   10.000000    ( 0.0000,  0.0000,  0.0000)
   1 Li     4.851111    1.617037   10.000000    ( 0.0000,  0.0000,  0.0000)
   2 Li     8.085185    1.617037   10.000000    ( 0.0000,  0.0000,  0.0000)
   3 Li     1.617037    4.851111   10.000000    ( 0.0000,  0.0000,  0.0000)
   4 Li     4.851111    4.851111   10.000000    ( 0.0000,  0.0000,  0.0000)
   5 Li     8.085185    4.851111   10.000000    ( 0.0000,  0.0000,  0.0000)
   6 Li     1.617037    8.085185   10.000000    ( 0.0000,  0.0000,  0.0000)
   7 Li     4.851111    8.085185   10.000000    ( 0.0000,  0.0000,  0.0000)
   8 Li     8.085185    8.085185   10.000000    ( 0.0000,  0.0000,  0.0000)
   9 Li     0.000000    0.000000   11.617037    ( 0.0000,  0.0000,  0.0000)
  10 Li     3.234074    0.000000   11.617037    ( 0.0000,  0.0000,  0.0000)
  11 Li     6.468148    0.000000   11.617037    ( 0.0000,  0.0000,  0.0000)
  12 Li     0.000000    3.234074   11.617037    ( 0.0000,  0.0000,  0.0000)
  13 Li     3.234074    3.234074   11.617037    ( 0.0000,  0.0000,  0.0000)
  14 Li     6.468148    3.234074   11.617037    ( 0.0000,  0.0000,  0.0000)
  15 Li     0.000000    6.468148   11.617037    ( 0.0000,  0.0000,  0.0000)
  16 Li     3.234074    6.468148   11.617037    ( 0.0000,  0.0000,  0.0000)
  17 Li     6.468148    6.468148   11.617037    ( 0.0000,  0.0000,  0.0000)
  18 Li     1.620047    1.566925   13.512118    ( 0.0000,  0.0000,  0.0000)
  19 Li     4.874695    1.697503   13.539068    ( 0.0000,  0.0000,  0.0000)
  20 Li     8.101642    1.655340   13.658028    ( 0.0000,  0.0000,  0.0000)
  21 Li     1.554947    4.791067   13.498138    ( 0.0000,  0.0000,  0.0000)
  22 Li     4.814909    4.909974   13.509777    ( 0.0000,  0.0000,  0.0000)
  23 Li     8.023371    4.875783   13.533727    ( 0.0000,  0.0000,  0.0000)
  24 Li     1.641561    8.080493   13.525428    ( 0.0000,  0.0000,  0.0000)
  25 Li     4.945039    8.178749   13.499584    ( 0.0000,  0.0000,  0.0000)
  26 Li     8.153506    8.176889   13.556047    ( 0.0000,  0.0000,  0.0000)
  27 Li     0.148183   -0.058308   15.584353    ( 0.0000,  0.0000,  0.0000)
  28 Li     3.428862   -0.063436   15.446252    ( 0.0000,  0.0000,  0.0000)
  29 Li     6.724405    0.328271   15.707756    ( 0.0000,  0.0000,  0.0000)
  30 Li    -0.222891    3.062299   15.613481    ( 0.0000,  0.0000,  0.0000)
  31 Li     3.079560    3.273283   15.481155    ( 0.0000,  0.0000,  0.0000)
  32 Li     6.367156    3.442332   15.568489    ( 0.0000,  0.0000,  0.0000)
  33 Li     0.056530    6.377952   15.451579    ( 0.0000,  0.0000,  0.0000)
  34 Li     3.243051    6.450689   15.451882    ( 0.0000,  0.0000,  0.0000)
  35 Li     6.415706    6.738181   15.487728    ( 0.0000,  0.0000,  0.0000)
  36 Br     7.185696    1.069312   20.768079    ( 0.0000,  0.0000,  0.0000)
  37 H      7.534299    1.818078   19.597527    ( 0.0000,  0.0000,  0.0000)
  38 N      8.549624    1.244251   15.687116    ( 0.0000,  0.0000,  0.0000)
  39 N      7.661028    2.136112   15.701307    ( 0.0000,  0.0000,  0.0000)

Unit cell:
           periodic     x           y           z      points  spacing
  1. axis:    yes    9.702222    0.000000    0.000000    60     0.1617
  2. axis:    yes    0.000000    9.702222    0.000000    60     0.1617
  3. axis:    no     0.000000    0.000000   26.851111   168     0.1598

  Lengths:   9.702222   9.702222  26.851111
  Angles:   90.000000  90.000000  90.000000

Effective grid spacing dv^(1/3) = 0.1611

     iter     time        total  log10-change:
                         energy  eigst   dens
iter:   1 00:21:52  -332.238205  -0.93
iter:   2 00:22:33  -332.211465  -1.57  -1.73
iter:   3 00:23:14  -332.204957  -2.25  -1.96
iter:   4 00:23:56  -332.202001c -2.60  -2.19
Writing to output.gpw (mode='')

iter:   5 00:24:38  -332.200879c -2.54  -2.36
iter:   6 00:25:19  -332.200859c -2.37  -2.57
iter:   7 00:26:00  -332.200629c -3.01  -2.71
iter:   8 00:26:41  -332.200842c -2.56  -2.87
iter:   9 00:27:23  -332.200680c -3.55  -2.87
Writing to output.gpw (mode='')

iter:  10 00:28:05  -332.200614c -3.85  -3.00
iter:  11 00:28:46  -332.200557c -3.92  -3.02
iter:  12 00:29:27  -332.200600c -3.93  -3.16
iter:  13 00:30:09  -332.200558c -4.15  -3.36
iter:  14 00:30:50  -332.200585c -4.49  -3.43
Writing to output.gpw (mode='')

iter:  15 00:31:33  -332.200617c -4.32  -3.59
iter:  16 00:32:14  -332.200610c -4.82  -3.75
iter:  17 00:32:55  -332.200593c -4.98  -3.80
iter:  18 00:33:36  -332.200587c -5.03  -3.96
iter:  19 00:34:18  -332.200587c -5.36  -4.05c
Writing to output.gpw (mode='')

iter:  20 00:35:04  -332.200593c -5.61  -4.09c
iter:  21 00:35:45  -332.200589c -5.67  -4.16c
iter:  22 00:36:26  -332.200588c -5.71  -4.25c
iter:  23 00:37:07  -332.200590c -5.93  -4.32c
iter:  24 00:37:48  -332.200594c -5.91  -4.36c
Writing to output.gpw (mode='')

iter:  25 00:38:30  -332.200594c -6.40  -4.69c
iter:  26 00:39:11  -332.200592c -6.44  -4.68c
iter:  27 00:39:52  -332.200592c -6.43  -4.67c
iter:  28 00:40:33  -332.200592c -6.59  -4.74c
iter:  29 00:41:14  -332.200594c -6.67  -4.77c
Writing to output.gpw (mode='')

iter:  30 00:41:56  -332.200594c -6.92  -5.00c
iter:  31 00:42:37  -332.200593c -6.87  -5.26c
iter:  32 00:43:18  -332.200593c -6.99  -5.39c
iter:  33 00:43:59  -332.200593c -7.09  -5.43c
iter:  34 00:44:40  -332.200593c -7.15  -5.42c
Writing to output.gpw (mode='')

iter:  35 00:45:27  -332.200593c -7.50c -5.37c

Converged after 35 iterations.

Dipole moment: (-2.513143, -5.869649, -0.071169) |e|*Ang

Energy contributions relative to reference atoms: (reference = -81178.542429)

Kinetic:       +102.423246
Potential:      -92.361753
External:        +0.000000
XC:            -342.489328
Entropy (-ST):   -0.160983
Local:           +0.307734
--------------------------
Free energy:   -332.281085
Extrapolated:  -332.200593

Dipole-layer corrected work functions: 3.399818, 3.536630 eV

Showing only first 2 kpts
 Kpt  Band  Eigenvalues  Occupancy
  0    25     -3.65016    1.94878
  0    26     -3.49189    1.23233
  0    27     -3.45631    0.88141
  0    28     -3.35355    0.18332

  1    25     -3.78399    1.99639
  1    26     -3.41906    0.54450
  1    27     -3.35786    0.19821
  1    28     -3.34802    0.16574


Fermi level: -3.46822

No gap

Forces in eV/Ang:
  0 Li   -0.00506   -0.01192   -0.29701
  1 Li    0.00300    0.00716   -0.29648
  2 Li   -0.00048   -0.00274   -0.25990
  3 Li    0.01292    0.01045   -0.28848
  4 Li   -0.00775    0.00336   -0.29022
  5 Li   -0.00932   -0.00939   -0.30151
  6 Li    0.00556   -0.00963   -0.29281
  7 Li   -0.01412   -0.01701   -0.28892
  8 Li    0.00957    0.00181   -0.29398
  9 Li   -0.03801    0.05878    0.32718
 10 Li    0.02598    0.02549    0.29832
 11 Li    0.05554    0.07189    0.29114
 12 Li   -0.05097   -0.03390    0.29735
 13 Li   -0.00348   -0.01418    0.29388
 14 Li    0.04823   -0.02604    0.34369
 15 Li   -0.02897    0.01272    0.31675
 16 Li   -0.00247    0.02753    0.31107
 17 Li    0.03442    0.04009    0.30075
 18 Li   -0.01398    0.01311    0.01718
 19 Li    0.01242   -0.01514   -0.00335
 20 Li   -0.02541   -0.00105   -0.02492
 21 Li   -0.00626   -0.00304    0.01932
 22 Li    0.01395   -0.01177    0.00306
 23 Li    0.01055    0.01018   -0.00714
 24 Li    0.02376   -0.01519   -0.02582
 25 Li   -0.02050   -0.00871   -0.00284
 26 Li   -0.02167   -0.03121   -0.02326
 27 Li   -0.03126    0.03110   -0.01912
 28 Li   -0.01215    0.00153    0.01502
 29 Li    0.01255    0.00009   -0.02912
 30 Li   -0.01531   -0.02632    0.00478
 31 Li    0.01044   -0.00070   -0.02094
 32 Li    0.00201   -0.02982   -0.00733
 33 Li   -0.00349   -0.01781    0.00011
 34 Li   -0.00537    0.01311   -0.00037
 35 Li    0.00623   -0.03884   -0.00888
 36 Br   -0.00836   -0.01209   -0.02994
 37 H     0.00342    0.01932   -0.04326
 38 N     0.06483   -0.05901    0.03497
 39 N     0.01414    0.06810   -0.03838

System changes: positions 

Initializing position-dependent things.

Density initialized from wave functions
       .-----------------------.  
      /|                       |  
     / |                       |  
    /  |                       |  
   /   |                       |  
  /    |                       |  
 *     |                       |  
 |     |                       |  
 |     |                       |  
 |     |                       |  
 |     |                       |  
 |     |                       |  
 |     |                       |  
 |     |           Br          |  
 |     Li      Li    H         |  
 |     |                       |  
 |   Li|     Li      Li        |  
 |     |  Li      Li      Li   |  
 |     |   Li      LiN    Li   |  
 |     |Li      LiLi   NLi     |  
 |     |                       |  
 |   LLi     LLi     LLi       |  
 |     |  Li      Li      Li   |  
 | Li  |   Li      Li          |  
 |     |Li      Li      Li     |  
 Li    | Li      Li            |  
 |    Li      Li      Li       |  
 |     |                       |  
 |     |                       |  
 |     |                       |  
 |     |                       |  
 |     |                       |  
 |     |                       |  
 |     .-----------------------.  
 |    /                       /   
 |   /                       /    
 |  /                       /     
 | /                       /      
 |/                       /       
 *-----------------------*        

Positions:
   0 Li     1.617037    1.617037   10.000000    ( 0.0000,  0.0000,  0.0000)
   1 Li     4.851111    1.617037   10.000000    ( 0.0000,  0.0000,  0.0000)
   2 Li     8.085185    1.617037   10.000000    ( 0.0000,  0.0000,  0.0000)
   3 Li     1.617037    4.851111   10.000000    ( 0.0000,  0.0000,  0.0000)
   4 Li     4.851111    4.851111   10.000000    ( 0.0000,  0.0000,  0.0000)
   5 Li     8.085185    4.851111   10.000000    ( 0.0000,  0.0000,  0.0000)
   6 Li     1.617037    8.085185   10.000000    ( 0.0000,  0.0000,  0.0000)
   7 Li     4.851111    8.085185   10.000000    ( 0.0000,  0.0000,  0.0000)
   8 Li     8.085185    8.085185   10.000000    ( 0.0000,  0.0000,  0.0000)
   9 Li     0.000000    0.000000   11.617037    ( 0.0000,  0.0000,  0.0000)
  10 Li     3.234074    0.000000   11.617037    ( 0.0000,  0.0000,  0.0000)
  11 Li     6.468148    0.000000   11.617037    ( 0.0000,  0.0000,  0.0000)
  12 Li     0.000000    3.234074   11.617037    ( 0.0000,  0.0000,  0.0000)
  13 Li     3.234074    3.234074   11.617037    ( 0.0000,  0.0000,  0.0000)
  14 Li     6.468148    3.234074   11.617037    ( 0.0000,  0.0000,  0.0000)
  15 Li     0.000000    6.468148   11.617037    ( 0.0000,  0.0000,  0.0000)
  16 Li     3.234074    6.468148   11.617037    ( 0.0000,  0.0000,  0.0000)
  17 Li     6.468148    6.468148   11.617037    ( 0.0000,  0.0000,  0.0000)
  18 Li     1.621202    1.567708   13.512366    ( 0.0000,  0.0000,  0.0000)
  19 Li     4.873134    1.696005   13.535172    ( 0.0000,  0.0000,  0.0000)
  20 Li     8.101784    1.651719   13.664478    ( 0.0000,  0.0000,  0.0000)
  21 Li     1.556105    4.792266   13.498741    ( 0.0000,  0.0000,  0.0000)
  22 Li     4.814777    4.908705   13.509562    ( 0.0000,  0.0000,  0.0000)
  23 Li     8.024701    4.879032   13.530707    ( 0.0000,  0.0000,  0.0000)
  24 Li     1.642774    8.081900   13.523129    ( 0.0000,  0.0000,  0.0000)
  25 Li     4.942149    8.178772   13.499803    ( 0.0000,  0.0000,  0.0000)
  26 Li     8.150083    8.172682   13.553103    ( 0.0000,  0.0000,  0.0000)
  27 Li     0.148875   -0.061724   15.581579    ( 0.0000,  0.0000,  0.0000)
  28 Li     3.426892   -0.063318   15.447720    ( 0.0000,  0.0000,  0.0000)
  29 Li     6.726292    0.324965   15.703905    ( 0.0000,  0.0000,  0.0000)
  30 Li    -0.221128    3.065652   15.614023    ( 0.0000,  0.0000,  0.0000)
  31 Li     3.082050    3.272150   15.478945    ( 0.0000,  0.0000,  0.0000)
  32 Li     6.362799    3.439542   15.565639    ( 0.0000,  0.0000,  0.0000)
  33 Li     0.055840    6.376234   15.452990    ( 0.0000,  0.0000,  0.0000)
  34 Li     3.242634    6.451661   15.451295    ( 0.0000,  0.0000,  0.0000)
  35 Li     6.417088    6.733691   15.486615    ( 0.0000,  0.0000,  0.0000)
  36 Br     7.188736    1.069500   20.761682    ( 0.0000,  0.0000,  0.0000)
  37 H      7.532193    1.819672   19.591018    ( 0.0000,  0.0000,  0.0000)
  38 N      8.547887    1.241692   15.689890    ( 0.0000,  0.0000,  0.0000)
  39 N      7.663435    2.137766   15.706641    ( 0.0000,  0.0000,  0.0000)

Unit cell:
           periodic     x           y           z      points  spacing
  1. axis:    yes    9.702222    0.000000    0.000000    60     0.1617
  2. axis:    yes    0.000000    9.702222    0.000000    60     0.1617
  3. axis:    no     0.000000    0.000000   26.851111   168     0.1598

  Lengths:   9.702222   9.702222  26.851111
  Angles:   90.000000  90.000000  90.000000

Effective grid spacing dv^(1/3) = 0.1611

     iter     time        total  log10-change:
                         energy  eigst   dens
iter:   1 00:46:22  -332.204477  -2.01
iter:   2 00:47:03  -332.202168  -2.65  -2.32
iter:   3 00:47:43  -332.201776c -3.23  -2.52
iter:   4 00:48:24  -332.201522c -3.42  -2.76
Writing to output.gpw (mode='')

iter:   5 00:49:09  -332.201444c -3.41  -2.95
iter:   6 00:49:50  -332.201454c -3.42  -3.16
iter:   7 00:50:30  -332.201438c -4.14  -3.20
iter:   8 00:51:11  -332.201443c -3.93  -3.37
iter:   9 00:51:52  -332.201442c -4.38  -3.50
Writing to output.gpw (mode='')

iter:  10 00:52:34  -332.201430c -4.62  -3.58
iter:  11 00:53:15  -332.201439c -5.05  -3.79
iter:  12 00:53:56  -332.201437c -5.09  -3.87
iter:  13 00:54:36  -332.201437c -5.25  -3.88
iter:  14 00:55:17  -332.201443c -5.48  -3.99
Writing to output.gpw (mode='')

iter:  15 00:55:59  -332.201442c -5.62  -4.21c
iter:  16 00:56:40  -332.201442c -5.82  -4.32c
iter:  17 00:57:21  -332.201440c -5.99  -4.36c
iter:  18 00:58:02  -332.201439c -6.08  -4.55c
iter:  19 00:58:43  -332.201439c -6.30  -4.62c
Writing to output.gpw (mode='')

iter:  20 00:59:25  -332.201439c -6.41  -4.74c
iter:  21 01:00:06  -332.201439c -6.71  -4.80c
iter:  22 01:00:47  -332.201439c -6.72  -4.88c
iter:  23 01:01:28  -332.201440c -6.84  -4.98c
iter:  24 01:02:09  -332.201440c -6.97  -5.06c
Writing to output.gpw (mode='')

iter:  25 01:02:50  -332.201440c -7.19  -5.16c
iter:  26 01:03:31  -332.201440c -7.17  -5.24c
iter:  27 01:04:12  -332.201440c -7.34  -5.42c
iter:  28 01:04:53  -332.201440c -7.34  -5.52c
iter:  29 01:05:34  -332.201440c -7.57c -5.52c

Converged after 29 iterations.

Dipole moment: (-2.529094, -5.821559, -0.072342) |e|*Ang

Energy contributions relative to reference atoms: (reference = -81178.542429)

Kinetic:       +102.375614
Potential:      -92.330934
External:        +0.000000
XC:            -342.473325
Entropy (-ST):   -0.160953
Local:           +0.307681
--------------------------
Free energy:   -332.281916
Extrapolated:  -332.201440

Dipole-layer corrected work functions: 3.399703, 3.538769 eV

Showing only first 2 kpts
 Kpt  Band  Eigenvalues  Occupancy
  0    25     -3.65182    1.94941
  0    26     -3.49304    1.23367
  0    27     -3.45743    0.88247
  0    28     -3.35392    0.18121

  1    25     -3.78453    1.99636
  1    26     -3.41983    0.54257
[...]
  18 Li     1.024160    1.232104   14.085957    ( 0.0000,  0.0000,  0.0000)
  19 Li     4.831159    1.629655   13.396216    ( 0.0000,  0.0000,  0.0000)
  20 Li     8.112686    1.669526   13.705923    ( 0.0000,  0.0000,  0.0000)
  21 Li     1.676092    4.814955   13.485117    ( 0.0000,  0.0000,  0.0000)
  22 Li     4.891817    4.829765   13.502751    ( 0.0000,  0.0000,  0.0000)
  23 Li     8.117524    4.922369   13.435474    ( 0.0000,  0.0000,  0.0000)
  24 Li     1.793590    7.931124   13.529483    ( 0.0000,  0.0000,  0.0000)
  25 Li     5.026941    8.057121   13.489721    ( 0.0000,  0.0000,  0.0000)
  26 Li     8.360439    7.995340   13.457895    ( 0.0000,  0.0000,  0.0000)
  27 Li     0.359260   -0.540826   15.900932    ( 0.0000,  0.0000,  0.0000)
  28 Li     3.564510   -0.059036   15.508179    ( 0.0000,  0.0000,  0.0000)
  29 Li     7.211360   -0.002816   15.363360    ( 0.0000,  0.0000,  0.0000)
  30 Li    -0.114501    2.943072   15.667194    ( 0.0000,  0.0000,  0.0000)
  31 Li     3.194301    3.253788   15.336140    ( 0.0000,  0.0000,  0.0000)
  32 Li     6.635715    3.114209   15.471154    ( 0.0000,  0.0000,  0.0000)
  33 Li     0.190661    6.119515   15.433949    ( 0.0000,  0.0000,  0.0000)
  34 Li     3.354509    6.535310   15.702691    ( 0.0000,  0.0000,  0.0000)
  35 Li     6.654586    6.358210   15.503219    ( 0.0000,  0.0000,  0.0000)
  36 Br     5.293855   -1.555701   16.617583    ( 0.0000,  0.0000,  0.0000)
  37 H      7.851238    1.519527   16.820283    ( 0.0000,  0.0000,  0.0000)
  38 N      9.152866    1.007603   15.306883    ( 0.0000,  0.0000,  0.0000)
  39 N      8.004784    1.758916   15.822820    ( 0.0000,  0.0000,  0.0000)

Unit cell:
           periodic     x           y           z      points  spacing
  1. axis:    yes    9.702222    0.000000    0.000000    60     0.1617
  2. axis:    yes    0.000000    9.702222    0.000000    60     0.1617
  3. axis:    no     0.000000    0.000000   26.851111   168     0.1598

  Lengths:   9.702222   9.702222  26.851111
  Angles:   90.000000  90.000000  90.000000

Effective grid spacing dv^(1/3) = 0.1611

     iter     time        total  log10-change:
                         energy  eigst   dens
iter:   1 00:56:12  -334.903434  -2.44
iter:   2 00:56:53  -334.903070  -3.09  -2.57
iter:   3 00:57:34  -334.902999c -3.56  -2.89
iter:   4 00:58:15  -334.902813c -3.45  -2.96
Writing to output.gpw (mode='')

iter:   5 00:59:06  -334.902831c -4.24  -3.25
iter:   6 00:59:47  -334.902772c -4.12  -3.24
iter:   7 01:00:28  -334.902738c -3.65  -3.30
iter:   8 01:01:10  -334.902759c -4.62  -3.45
iter:   9 01:01:51  -334.902765c -4.68  -3.79
Writing to output.gpw (mode='')

iter:  10 01:02:42  -334.902752c -4.78  -3.80
iter:  11 01:03:23  -334.902760c -5.24  -3.75
iter:  12 01:04:04  -334.902764c -5.35  -4.00c
iter:  13 01:04:46  -334.902763c -5.48  -4.06c
iter:  14 01:05:27  -334.902770c -5.48  -4.21c
Writing to output.gpw (mode='')

iter:  15 01:06:18  -334.902767c -6.19  -4.25c
iter:  16 01:06:59  -334.902765c -6.33  -4.40c
iter:  17 01:07:41  -334.902766c -6.48  -4.57c
iter:  18 01:08:22  -334.902765c -6.58  -4.59c
iter:  19 01:09:03  -334.902764c -6.61  -4.65c
Writing to output.gpw (mode='')

iter:  20 01:09:53  -334.902765c -7.04  -4.81c
iter:  21 01:10:34  -334.902765c -7.05  -4.95c
iter:  22 01:11:16  -334.902765c -7.17  -5.06c
iter:  23 01:11:57  -334.902765c -7.30  -5.06c
iter:  24 01:12:38  -334.902765c -7.65c -5.27c

Converged after 24 iterations.

Dipole moment: (-1.026896, 1.578863, 0.083406) |e|*Ang

Energy contributions relative to reference atoms: (reference = -81178.542429)

Kinetic:       +105.475495
Potential:      -93.003151
External:        +0.000000
XC:            -347.612353
Entropy (-ST):   -0.158729
Local:           +0.316608
--------------------------
Free energy:   -334.982130
Extrapolated:  -334.902765

Dipole-layer corrected work functions: 3.382608, 3.222274 eV

Showing only first 2 kpts
 Kpt  Band  Eigenvalues  Occupancy
  0    25     -3.44943    1.89956
  0    26     -3.38477    1.67685
  0    27     -3.26407    0.63411
  0    28     -3.18063    0.16090

  1    25     -3.54261    1.98373
  1    26     -3.45266    1.90555
  1    27     -3.18072    0.16117
  1    28     -3.06886    0.01854


Fermi level: -3.30244

No gap
Writing to output.gpw (mode='')


Forces in eV/Ang:
  0 Li   -0.01852    0.00011   -0.31903
  1 Li    0.02208    0.00038   -0.31550
  2 Li   -0.00226    0.00584   -0.27177
  3 Li   -0.01718    0.02679   -0.28776
  4 Li   -0.00585    0.00769   -0.24927
  5 Li   -0.01525   -0.00427   -0.28847
  6 Li   -0.01463   -0.01297   -0.25368
  7 Li   -0.02486    0.00397   -0.28281
  8 Li   -0.01392   -0.00760   -0.28776
  9 Li    0.02311    0.01176    0.19022
 10 Li   -0.10321    0.01537    0.46502
 11 Li    0.09905    0.00992    0.35044
 12 Li    0.02987   -0.03028    0.34114
 13 Li   -0.09817   -0.06126    0.30637
 14 Li    0.07873   -0.04594    0.30113
 15 Li    0.13371   -0.05245    0.14736
 16 Li    0.09495   -0.05425    0.26880
 17 Li    0.05175    0.03190    0.27917
 18 Li    0.01542    0.02095   -0.02891
 19 Li   -0.00135    0.00355    0.00528
 20 Li   -0.05546    0.00571    0.03992
 21 Li   -0.03394   -0.01082   -0.00097
 22 Li    0.01884    0.02047    0.00716
 23 Li   -0.02244   -0.01180    0.02564
 24 Li    0.00244   -0.02068    0.00941
 25 Li    0.01619    0.00071   -0.01684
 26 Li   -0.00902    0.01313    0.00004
 27 Li    0.03558   -0.03906    0.02679
 28 Li   -0.00581    0.00748    0.01199
 29 Li    0.00777   -0.04280   -0.01037
 30 Li   -0.06879   -0.02381    0.01518
 31 Li    0.00025    0.02584    0.00275
 32 Li    0.02068   -0.03638   -0.01919
 33 Li    0.02925    0.00264   -0.00712
 34 Li   -0.00680   -0.01217   -0.02694
 35 Li    0.00222    0.00311   -0.00477
 36 Br   -0.04256   -0.00023    0.03677
 37 H     0.05064    0.02956   -0.21616
 38 N    -0.19004    0.03660   -0.05447
 39 N     0.01947    0.22988    0.07905

System changes: positions 

Initializing position-dependent things.

Density initialized from wave functions
       .-----------------------.  
      /|                       |  
     / |                       |  
    /  |                       |  
   /   |                       |  
  /    |                       |  
 *     |                       |  
 |     |                       |  
 |     |                       |  
 |     |                       |  
 |     |                       |  
 |     |                       |  
 |     |                       |  
 |     |                       |  
 |     |Li      Li Br    Li    |  
 |     |                       |  
 |   Li|     Li      Li        |  
 |     |  Li      Li H         |  
 |     |   Li      Li N    Li  |  
 |     |Li      Li      Li     |  
 |     |                N      |  
 |  Lii|     Li      LLi       |  
 |     |  Li  Li  Li      Li   |  
 | Li  |   Li      Li          |  
 |     |Li      Li      Li     |  
 Li    | Li      Li            |  
 |    Li      Li      Li       |  
 |     |                       |  
 |     |                       |  
 |     |                       |  
 |     |                       |  
 |     |                       |  
 |     |                       |  
 |     .-----------------------.  
 |    /                       /   
 |   /                       /    
 |  /                       /     
 | /                       /      
 |/                       /       
 *-----------------------*        

Positions:
   0 Li     1.617037    1.617037   10.000000    ( 0.0000,  0.0000,  0.0000)
   1 Li     4.851111    1.617037   10.000000    ( 0.0000,  0.0000,  0.0000)
   2 Li     8.085185    1.617037   10.000000    ( 0.0000,  0.0000,  0.0000)
   3 Li     1.617037    4.851111   10.000000    ( 0.0000,  0.0000,  0.0000)
   4 Li     4.851111    4.851111   10.000000    ( 0.0000,  0.0000,  0.0000)
   5 Li     8.085185    4.851111   10.000000    ( 0.0000,  0.0000,  0.0000)
   6 Li     1.617037    8.085185   10.000000    ( 0.0000,  0.0000,  0.0000)
   7 Li     4.851111    8.085185   10.000000    ( 0.0000,  0.0000,  0.0000)
   8 Li     8.085185    8.085185   10.000000    ( 0.0000,  0.0000,  0.0000)
   9 Li     0.000000    0.000000   11.617037    ( 0.0000,  0.0000,  0.0000)
  10 Li     3.234074    0.000000   11.617037    ( 0.0000,  0.0000,  0.0000)
  11 Li     6.468148    0.000000   11.617037    ( 0.0000,  0.0000,  0.0000)
  12 Li     0.000000    3.234074   11.617037    ( 0.0000,  0.0000,  0.0000)
  13 Li     3.234074    3.234074   11.617037    ( 0.0000,  0.0000,  0.0000)
  14 Li     6.468148    3.234074   11.617037    ( 0.0000,  0.0000,  0.0000)
  15 Li     0.000000    6.468148   11.617037    ( 0.0000,  0.0000,  0.0000)
  16 Li     3.234074    6.468148   11.617037    ( 0.0000,  0.0000,  0.0000)
  17 Li     6.468148    6.468148   11.617037    ( 0.0000,  0.0000,  0.0000)
  18 Li     1.024219    1.232388   14.086642    ( 0.0000,  0.0000,  0.0000)
  19 Li     4.830098    1.629093   13.397166    ( 0.0000,  0.0000,  0.0000)
  20 Li     8.111279    1.669920   13.705153    ( 0.0000,  0.0000,  0.0000)
  21 Li     1.675509    4.814545   13.484687    ( 0.0000,  0.0000,  0.0000)
  22 Li     4.893293    4.830292   13.503392    ( 0.0000,  0.0000,  0.0000)
  23 Li     8.115916    4.923101   13.437182    ( 0.0000,  0.0000,  0.0000)
  24 Li     1.793658    7.930705   13.529401    ( 0.0000,  0.0000,  0.0000)
  25 Li     5.028162    8.058629   13.489314    ( 0.0000,  0.0000,  0.0000)
  26 Li     8.360824    7.995602   13.458490    ( 0.0000,  0.0000,  0.0000)
  27 Li     0.359287   -0.539811   15.899598    ( 0.0000,  0.0000,  0.0000)
  28 Li     3.564421   -0.057981   15.508074    ( 0.0000,  0.0000,  0.0000)
  29 Li     7.209891   -0.002619   15.361322    ( 0.0000,  0.0000,  0.0000)
  30 Li    -0.114627    2.944320   15.666560    ( 0.0000,  0.0000,  0.0000)
  31 Li     3.194150    3.256036   15.336748    ( 0.0000,  0.0000,  0.0000)
  32 Li     6.632343    3.113578   15.470195    ( 0.0000,  0.0000,  0.0000)
  33 Li     0.194432    6.120125   15.432881    ( 0.0000,  0.0000,  0.0000)
  34 Li     3.357136    6.536068   15.700426    ( 0.0000,  0.0000,  0.0000)
  35 Li     6.655103    6.362196   15.503406    ( 0.0000,  0.0000,  0.0000)
  36 Br     5.295982   -1.553745   16.615481    ( 0.0000,  0.0000,  0.0000)
  37 H      7.848750    1.519666   16.816918    ( 0.0000,  0.0000,  0.0000)
  38 N      9.153010    1.007800   15.307158    ( 0.0000,  0.0000,  0.0000)
  39 N      8.004214    1.759345   15.820019    ( 0.0000,  0.0000,  0.0000)

Unit cell:
           periodic     x           y           z      points  spacing
  1. axis:    yes    9.702222    0.000000    0.000000    60     0.1617
  2. axis:    yes    0.000000    9.702222    0.000000    60     0.1617
  3. axis:    no     0.000000    0.000000   26.851111   168     0.1598

  Lengths:   9.702222   9.702222  26.851111
  Angles:   90.000000  90.000000  90.000000

Effective grid spacing dv^(1/3) = 0.1611

     iter     time        total  log10-change:
                         energy  eigst   dens
iter:   1 01:13:44  -334.903532  -2.66
iter:   2 01:14:25  -334.903410  -3.37  -2.73
iter:   3 01:15:06  -334.903364c -3.88  -3.01
iter:   4 01:15:48  -334.903303c -3.74  -3.09
Writing to output.gpw (mode='')

iter:   5 01:16:35  -334.903283c -4.50  -3.36
iter:   6 01:17:16  -334.903228c -4.23  -3.41
iter:   7 01:17:57  -334.903235c -4.18  -3.56
iter:   8 01:18:39  -334.903248c -4.84  -3.70
iter:   9 01:19:20  -334.903240c -5.01  -3.90
Writing to output.gpw (mode='')

iter:  10 01:20:07  -334.903243c -5.29  -3.97
iter:  11 01:20:48  -334.903257c -5.52  -4.10c
iter:  12 01:21:29  -334.903255c -5.84  -4.24c
iter:  13 01:22:10  -334.903254c -5.98  -4.34c
iter:  14 01:22:51  -334.903250c -6.16  -4.41c
Writing to output.gpw (mode='')

iter:  15 01:23:38  -334.903246c -6.22  -4.58c
iter:  16 01:24:19  -334.903246c -6.50  -4.63c
iter:  17 01:25:00  -334.903247c -6.70  -4.67c
iter:  18 01:25:41  -334.903248c -6.89  -4.74c
iter:  19 01:26:23  -334.903249c -7.03  -4.86c
Writing to output.gpw (mode='')

iter:  20 01:27:10  -334.903249c -7.17  -4.97c
iter:  21 01:27:51  -334.903248c -7.25  -5.09c
iter:  22 01:28:32  -334.903249c -7.40  -5.16c
iter:  23 01:29:14  -334.903249c -7.72c -5.27c

Converged after 23 iterations.

Dipole moment: (-1.051654, 1.569290, 0.083652) |e|*Ang

Energy contributions relative to reference atoms: (reference = -81178.542429)

Kinetic:       +105.517741
Potential:      -93.035386
External:        +0.000000
XC:            -347.622854
Entropy (-ST):   -0.158787
Local:           +0.316643
--------------------------
Free energy:   -334.982642
Extrapolated:  -334.903249

Dipole-layer corrected work functions: 3.382557, 3.221749 eV

Showing only first 2 kpts
 Kpt  Band  Eigenvalues  Occupancy
  0    25     -3.44910    1.89948
  0    26     -3.38447    1.67678
  0    27     -3.26372    0.63352
  0    28     -3.18046    0.16124

  1    25     -3.54222    1.98370
  1    26     -3.45255    1.90587
  1    27     -3.18043    0.16117
  1    28     -3.06842    0.01849


Fermi level: -3.30215

No gap
Writing to output.gpw (mode='')


Forces in eV/Ang:
  0 Li   -0.01851    0.00024   -0.31896
  1 Li    0.02218    0.00035   -0.31551
  2 Li   -0.00230    0.00581   -0.27204
  3 Li   -0.01705    0.02680   -0.28794
  4 Li   -0.00582    0.00766   -0.24946
  5 Li   -0.01533   -0.00444   -0.28835
  6 Li   -0.01466   -0.01308   -0.25369
  7 Li   -0.02489    0.00400   -0.28295
  8 Li   -0.01396   -0.00750   -0.28781
  9 Li    0.02302    0.01210    0.19127
 10 Li   -0.10331    0.01524    0.46471
 11 Li    0.09917    0.01053    0.35012
 12 Li    0.02902   -0.02977    0.34166
 13 Li   -0.09751   -0.06099    0.30678
 14 Li    0.07803   -0.04607    0.30115
 15 Li    0.13293   -0.05292    0.14817
 16 Li    0.09544   -0.05440    0.26963
 17 Li    0.05191    0.03224    0.27926
 18 Li    0.01609    0.02195   -0.03177
 19 Li   -0.00118    0.00514    0.00323
 20 Li   -0.05119    0.00509    0.04345
 21 Li   -0.03283   -0.01123   -0.00220
 22 Li    0.01678    0.02038    0.00604
 23 Li   -0.02001   -0.01177    0.02416
 24 Li    0.00342   -0.01929    0.00894
 25 Li    0.01503   -0.00035   -0.01733
 26 Li   -0.00798    0.01254   -0.00188
 27 Li    0.03693   -0.04438    0.03030
 28 Li   -0.00670    0.00754    0.01180
 29 Li    0.01043   -0.04171   -0.01006
 30 Li   -0.07207   -0.02717    0.01495
 31 Li    0.00005    0.02495    0.00267
 32 Li    0.02607   -0.03771   -0.01927
 33 Li    0.02697    0.00304   -0.00568
 34 Li   -0.00781   -0.01271   -0.02646
 35 Li    0.00589   -0.00339   -0.00649
 36 Br   -0.04530    0.00241    0.04113
 37 H     0.04744    0.03312   -0.21157
 38 N    -0.19642    0.04298   -0.06635
 39 N     0.02195    0.22966    0.08727

System changes: positions 

Initializing position-dependent things.

Density initialized from wave functions
       .-----------------------.  
      /|                       |  
     / |                       |  
    /  |                       |  
   /   |                       |  
  /    |                       |  
 *     |                       |  
 |     |                       |  
 |     |                       |  
 |     |                       |  
 |     |                       |  
 |     |                       |  
 |     |                       |  
 |     |                       |  
 |     |Li      Li Br    Li    |  
 |     |                       |  
 |   Li|     Li      Li        |  
 |     |  Li      Li H         |  
 |     |   Li      Li N    Li  |  
 |     |Li      Li      Li     |  
 |     |                N      |  
 |  Lii|     Li      LLi       |  
 |     |  Li  Li  Li      Li   |  
 | Li  |   Li      Li          |  
 |     |Li      Li      Li     |  
 Li    | Li      Li            |  
 |    Li      Li      Li       |  
 |     |                       |  
 |     |                       |  
 |     |                       |  
 |     |                       |  
 |     |                       |  
 |     |                       |  
 |     .-----------------------.  
 |    /                       /   
 |   /                       /    
 |  /                       /     
 | /                       /      
 |/                       /       
 *-----------------------*        

Positions:
   0 Li     1.617037    1.617037   10.000000    ( 0.0000,  0.0000,  0.0000)
   1 Li     4.851111    1.617037   10.000000    ( 0.0000,  0.0000,  0.0000)
   2 Li     8.085185    1.617037   10.000000    ( 0.0000,  0.0000,  0.0000)
   3 Li     1.617037    4.851111   10.000000    ( 0.0000,  0.0000,  0.0000)
   4 Li     4.851111    4.851111   10.000000    ( 0.0000,  0.0000,  0.0000)
   5 Li     8.085185    4.851111   10.000000    ( 0.0000,  0.0000,  0.0000)
   6 Li     1.617037    8.085185   10.000000    ( 0.0000,  0.0000,  0.0000)
   7 Li     4.851111    8.085185   10.000000    ( 0.0000,  0.0000,  0.0000)
   8 Li     8.085185    8.085185   10.000000    ( 0.0000,  0.0000,  0.0000)
   9 Li     0.000000    0.000000   11.617037    ( 0.0000,  0.0000,  0.0000)
  10 Li     3.234074    0.000000   11.617037    ( 0.0000,  0.0000,  0.0000)
  11 Li     6.468148    0.000000   11.617037    ( 0.0000,  0.0000,  0.0000)
  12 Li     0.000000    3.234074   11.617037    ( 0.0000,  0.0000,  0.0000)
  13 Li     3.234074    3.234074   11.617037    ( 0.0000,  0.0000,  0.0000)
  14 Li     6.468148    3.234074   11.617037    ( 0.0000,  0.0000,  0.0000)
  15 Li     0.000000    6.468148   11.617037    ( 0.0000,  0.0000,  0.0000)
  16 Li     3.234074    6.468148   11.617037    ( 0.0000,  0.0000,  0.0000)
  17 Li     6.468148    6.468148   11.617037    ( 0.0000,  0.0000,  0.0000)
  18 Li     1.024377    1.235314   14.086965    ( 0.0000,  0.0000,  0.0000)
  19 Li     4.825969    1.626644   13.398061    ( 0.0000,  0.0000,  0.0000)
  20 Li     8.105065    1.670968   13.702311    ( 0.0000,  0.0000,  0.0000)
  21 Li     1.674734    4.813813   13.482940    ( 0.0000,  0.0000,  0.0000)
  22 Li     4.898836    4.832057   13.505511    ( 0.0000,  0.0000,  0.0000)
  23 Li     8.111856    4.925728   13.443339    ( 0.0000,  0.0000,  0.0000)
  24 Li     1.794718    7.930175   13.529208    ( 0.0000,  0.0000,  0.0000)
  25 Li     5.031978    8.062634   13.486113    ( 0.0000,  0.0000,  0.0000)
  26 Li     8.361640    7.995895   13.459380    ( 0.0000,  0.0000,  0.0000)
  27 Li     0.358121   -0.537772   15.891001    ( 0.0000,  0.0000,  0.0000)
  28 Li     3.565038   -0.053962   15.508538    ( 0.0000,  0.0000,  0.0000)
  29 Li     7.208974   -0.004559   15.351977    ( 0.0000,  0.0000,  0.0000)
  30 Li    -0.116346    2.950195   15.664402    ( 0.0000,  0.0000,  0.0000)
  31 Li     3.195028    3.263264   15.337911    ( 0.0000,  0.0000,  0.0000)
  32 Li     6.621172    3.109373   15.462800    ( 0.0000,  0.0000,  0.0000)
  33 Li     0.209829    6.123315   15.430168    ( 0.0000,  0.0000,  0.0000)
  34 Li     3.366358    6.539638   15.691837    ( 0.0000,  0.0000,  0.0000)
  35 Li     6.659855    6.374499   15.503881    ( 0.0000,  0.0000,  0.0000)
  36 Br     5.300990   -1.547851   16.610481    ( 0.0000,  0.0000,  0.0000)
  37 H      7.840456    1.522957   16.805987    ( 0.0000,  0.0000,  0.0000)
  38 N      9.152706    1.009685   15.308329    ( 0.0000,  0.0000,  0.0000)
  39 N      8.002553    1.761545   15.810634    ( 0.0000,  0.0000,  0.0000)

Unit cell:
           periodic     x           y           z      points  spacing
  1. axis:    yes    9.702222    0.000000    0.000000    60     0.1617
  2. axis:    yes    0.000000    9.702222    0.000000    60     0.1617
  3. axis:    no     0.000000    0.000000   26.851111   168     0.1598

  Lengths:   9.702222   9.702222  26.851111
  Angles:   90.000000  90.000000  90.000000

Effective grid spacing dv^(1/3) = 0.1611

     iter     time        total  log10-change:
                         energy  eigst   dens
iter:   1 01:30:26  -334.906441  -1.56
iter:   2 01:31:08  -334.906277  -2.30  -2.34
iter:   3 01:31:49  -334.905399c -2.80  -2.46
iter:   4 01:32:31  -334.905189c -2.73  -2.64
