
  ___ ___ ___ _ _ _  
 |   |   |_  | | | | 
 | | | | | . | | | | 
 |__ |  _|___|_____|  22.8.0
 |___|_|             

User:   vazumah@r263.ib.bridges2.psc.edu
Date:   Fri Mar 10 11:14:10 2023
Arch:   x86_64
Pid:    14272
CWD:    /jet/home/vazumah/Calcs/LiMEAS/proton_donors/methanol_x/bridge/8.085_1.617/N2_y
Python: 3.11.0
gpaw:   /jet/home/vazumah/.conda/envs/GPAW_mpich/lib/python3.11/site-packages/gpaw
_gpaw:  /jet/home/vazumah/.conda/envs/GPAW_mpich/lib/python3.11/site-packages/
        _gpaw.cpython-311-x86_64-linux-gnu.so
ase:    /jet/home/vazumah/.conda/envs/GPAW_mpich/lib/python3.11/site-packages/ase (version 3.22.1)
numpy:  /jet/home/vazumah/.conda/envs/GPAW_mpich/lib/python3.11/site-packages/numpy (version 1.24.2)
scipy:  /jet/home/vazumah/.conda/envs/GPAW_mpich/lib/python3.11/site-packages/scipy (version 1.10.1)
libxc:  5.2.3
units:  Angstrom and eV
cores: 128
OpenMP: True
OMP_NUM_THREADS: 1

Input parameters:
  h: 0.16
  kpts: {size: [4, 4, 1]}
  occupations: {name: fermi-dirac,
                width: 0.05}
  poissonsolver: {dipolelayer: xy}
  xc: BEEF-vdW

System changes: positions, numbers, cell, pbc, initial_charges, initial_magmoms 

Initialize ...

species:
  Li:
    name: Lithium
    id: 830b4218f175192f93f959cfc0aad614
    Z: 3.0
    valence: 1
    core: 2
    charge: 0.0
    file: /jet/home/vazumah/datasets/gpaw-setups-0.9.20000/Li.PBE.gz
    compensation charges: {type: gauss,
                           rc: 0.33,
                           lmax: 2}
    cutoffs: {filter: 1.91,
              core: 2.55}
    valence states:
      #              energy  rcut
      - 2s(1.00)    -2.874   1.058
      - 2p(0.00)    -1.090   1.058
      -  s          24.337   1.058
  
    # Using partial waves for Li as LCAO basis

  O:
    name: Oxygen
    id: 32ecd46bf208036f09c70b0ec9a88b78
    Z: 8.0
    valence: 6
    core: 2
    charge: 0.0
    file: /jet/home/vazumah/datasets/gpaw-setups-0.9.20000/O.PBE.gz
    compensation charges: {type: gauss,
                           rc: 0.21,
                           lmax: 2}
    cutoffs: {filter: 1.17,
              core: 0.83}
    valence states:
      #              energy  rcut
      - 2s(2.00)   -23.961   0.688
      - 2p(4.00)    -9.029   0.598
      -  s           3.251   0.688
      -  p          18.182   0.598
      -  d           0.000   0.619
  
    # Using partial waves for O as LCAO basis

  C:
    name: Carbon
    id: 4aa54d4b901d75f77cc0ea3eec22967b
    Z: 6.0
    valence: 4
    core: 2
    charge: 0.0
    file: /jet/home/vazumah/datasets/gpaw-setups-0.9.20000/C.PBE.gz
    compensation charges: {type: gauss,
                           rc: 0.20,
                           lmax: 2}
    cutoffs: {filter: 1.14,
              core: 1.14}
    valence states:
      #              energy  rcut
      - 2s(2.00)   -13.751   0.635
      - 2p(2.00)    -5.284   0.635
      -  s          13.461   0.635
      -  p          21.927   0.635
      -  d           0.000   0.635
  
    # Using partial waves for C as LCAO basis

  H:
    name: Hydrogen
    id: d65de229564ff8ea4db303e23b6d1ecf
    Z: 1.0
    valence: 1
    core: 0
    charge: 0.0
    file: /jet/home/vazumah/datasets/gpaw-setups-0.9.20000/H.PBE.gz
    compensation charges: {type: gauss,
                           rc: 0.15,
                           lmax: 2}
    cutoffs: {filter: 0.85,
              core: 0.53}
    valence states:
      #              energy  rcut
      - 1s(1.00)    -6.494   0.476
      -  s          20.717   0.476
      -  p           0.000   0.476
  
    # Using partial waves for H as LCAO basis

  N:
    name: Nitrogen
    id: f7500608b86eaa90eef8b1d9a670dc53
    Z: 7.0
    valence: 5
    core: 2
    charge: 0.0
    file: /jet/home/vazumah/datasets/gpaw-setups-0.9.20000/N.PBE.gz
    compensation charges: {type: gauss,
                           rc: 0.18,
                           lmax: 2}
    cutoffs: {filter: 1.11,
              core: 0.96}
    valence states:
      #              energy  rcut
      - 2s(2.00)   -18.583   0.603
      - 2p(3.00)    -7.089   0.529
      -  s           8.629   0.603
      -  p          20.123   0.529
      -  d           0.000   0.577
  
    # Using partial waves for N as LCAO basis

Reference energy: -13382.245603  # eV

Spin-paired calculation

Convergence criteria:
 Maximum [total energy] change in last 3 cyles: 0.0005 eV / electron
 Maximum integral of absolute [dens]ity change: 0.0001 electrons / valence electron
 Maximum integral of absolute [eigenst]ate change: 4e-08 eV^2 / valence electron
 Maximum number of scf [iter]ations: 333
 (Square brackets indicate name in SCF output, whereas a 'c' in
 the SCF output indicates the quantity has converged.)

Symmetries present (total): 1

  ( 1  0  0)
  ( 0  1  0)
  ( 0  0  1)

16 k-points: 4 x 4 x 1 Monkhorst-Pack grid
8 k-points in the irreducible part of the Brillouin zone
       k-points in crystal coordinates                weights
   0:     0.12500000   -0.37500000    0.00000000          2/16
   1:     0.12500000   -0.12500000    0.00000000          2/16
   2:     0.12500000    0.12500000    0.00000000          2/16
   3:     0.12500000    0.37500000    0.00000000          2/16
   4:     0.37500000   -0.37500000    0.00000000          2/16
   5:     0.37500000   -0.12500000    0.00000000          2/16
   6:     0.37500000    0.12500000    0.00000000          2/16
   7:     0.37500000    0.37500000    0.00000000          2/16

Wave functions: Uniform real-space grid
  Kinetic energy operator: 6*3+1=19 point O(h^6) finite-difference Laplacian
  ScaLapack parameters: grid=1x1, blocksize=None
  Wavefunction extrapolation:
    Improved wavefunction reuse through dual PAW basis 

Occupation numbers: Fermi-Dirac:
  width: 0.0500  # eV
 

Eigensolver
   Davidson(niter=2) 

Densities:
  Coarse grid: 60*60*168 grid
  Fine grid: 120*120*336 grid
  Total Charge: 0.000000 

Density mixing:
  Method: separate
  Backend: pulay
  Linear mixing parameter: 0.05
  old densities: 5
  Damping of long wavelength oscillations: 50 

Hamiltonian:
  XC and Coulomb potentials evaluated on a 120*120*336 grid
  Using the BEEF-vdW Exchange-Correlation functional
  Interpolation: tri-quintic (5. degree polynomial)
  Poisson solver: FastPoissonSolver using
    Stencil: 6*3+1=19 point O(h^6) finite-difference Laplacian
    FFT axes: [0, 1]
    FST axes: [2]

Dipole correction along z-axis 

XC parameters: BEEF-vdW with 2 nearest neighbor stencil

Memory estimate:
  Process memory now: 125.59 MiB
  Calculator: 77.36 MiB
    Density: 22.77 MiB
      Arrays: 7.40 MiB
      Localized functions: 12.55 MiB
      Mixer: 2.82 MiB
    Hamiltonian: 5.83 MiB
      Arrays: 4.84 MiB
      XC: 0.00 MiB
      Poisson: 0.00 MiB
      vbar: 0.99 MiB
    Wavefunctions: 48.76 MiB
      Arrays psit_nG: 22.52 MiB
      Eigensolver: 25.58 MiB
      Projections: 0.01 MiB
      Projectors: 0.64 MiB

Total number of cores used: 128
Parallelization over k-points: 8
Domain decomposition: 2 x 2 x 4

Number of atoms: 44
Number of atomic orbitals: 164
Number of bands in calculation: 40
Number of valence electrons: 60
Bands to converge: occupied

... initialized

Initializing position-dependent things.

Density initialized from atomic densities
Creating initial wave functions:
  40 bands from LCAO basis set

       .-----------------------.  
      /|                       |  
     / |                       |  
    /  |                       |  
   /   |                       |  
  /    |                       |  
 *     |                       |  
 |     |                       |  
 |     |                       |  
 |     |                       |  
 |     |                       |  
 |     |                       |  
 |     |                       |  
 |     |                       |  
 |H    |                       |  
 | H   |             HO   C    |  
 |H  Li|     Li      LiN       |  
 |     |  Li      Li  N   Li   |  
 | Li  |   Li      Li          |  
 |     |Li      Li      Li     |  
 Li    | Li      Li            |  
 |   LLi     LLi     LLi       |  
 |     |  Li      Li      Li   |  
 | Li  |   Li      Li          |  
 |     |Li      Li      Li     |  
 Li    | Li      Li            |  
 |    Li      Li      Li       |  
 |     |                       |  
 |     |                       |  
 |     |                       |  
 |     |                       |  
 |     |                       |  
 |     |                       |  
 |     .-----------------------.  
 |    /                       /   
 |   /                       /    
 |  /                       /     
 | /                       /      
 |/                       /       
 *-----------------------*        

Positions:
   0 Li     1.617037    1.617037   10.000000    ( 0.0000,  0.0000,  0.0000)
   1 Li     4.851111    1.617037   10.000000    ( 0.0000,  0.0000,  0.0000)
   2 Li     8.085185    1.617037   10.000000    ( 0.0000,  0.0000,  0.0000)
   3 Li     1.617037    4.851111   10.000000    ( 0.0000,  0.0000,  0.0000)
   4 Li     4.851111    4.851111   10.000000    ( 0.0000,  0.0000,  0.0000)
   5 Li     8.085185    4.851111   10.000000    ( 0.0000,  0.0000,  0.0000)
   6 Li     1.617037    8.085185   10.000000    ( 0.0000,  0.0000,  0.0000)
   7 Li     4.851111    8.085185   10.000000    ( 0.0000,  0.0000,  0.0000)
   8 Li     8.085185    8.085185   10.000000    ( 0.0000,  0.0000,  0.0000)
   9 Li     0.000000    0.000000   11.617037    ( 0.0000,  0.0000,  0.0000)
  10 Li     3.234074    0.000000   11.617037    ( 0.0000,  0.0000,  0.0000)
  11 Li     6.468148    0.000000   11.617037    ( 0.0000,  0.0000,  0.0000)
  12 Li     0.000000    3.234074   11.617037    ( 0.0000,  0.0000,  0.0000)
  13 Li     3.234074    3.234074   11.617037    ( 0.0000,  0.0000,  0.0000)
  14 Li     6.468148    3.234074   11.617037    ( 0.0000,  0.0000,  0.0000)
  15 Li     0.000000    6.468148   11.617037    ( 0.0000,  0.0000,  0.0000)
  16 Li     3.234074    6.468148   11.617037    ( 0.0000,  0.0000,  0.0000)
  17 Li     6.468148    6.468148   11.617037    ( 0.0000,  0.0000,  0.0000)
  18 Li     1.617038    1.617038   13.469728    ( 0.0000,  0.0000,  0.0000)
  19 Li     4.851111    1.617038   13.469729    ( 0.0000,  0.0000,  0.0000)
  20 Li     8.085184    1.617038   13.469728    ( 0.0000,  0.0000,  0.0000)
  21 Li     1.617038    4.851111   13.469729    ( 0.0000,  0.0000,  0.0000)
  22 Li     4.851111    4.851111   13.469730    ( 0.0000,  0.0000,  0.0000)
  23 Li     8.085184    4.851111   13.469729    ( 0.0000,  0.0000,  0.0000)
  24 Li     1.617038    8.085184   13.469728    ( 0.0000,  0.0000,  0.0000)
  25 Li     4.851111    8.085184   13.469729    ( 0.0000,  0.0000,  0.0000)
  26 Li     8.085184    8.085184   13.469728    ( 0.0000,  0.0000,  0.0000)
  27 Li    -0.000000   -0.000000   15.445939    ( 0.0000,  0.0000,  0.0000)
  28 Li     3.234074    0.000000   15.445939    ( 0.0000,  0.0000,  0.0000)
  29 Li     6.468148    0.000000   15.445939    ( 0.0000,  0.0000,  0.0000)
  30 Li     0.000000    3.234074   15.445939    ( 0.0000,  0.0000,  0.0000)
  31 Li     3.234076    3.234076   15.445938    ( 0.0000,  0.0000,  0.0000)
  32 Li     6.468146    3.234076   15.445938    ( 0.0000,  0.0000,  0.0000)
  33 Li     0.000000    6.468148   15.445939    ( 0.0000,  0.0000,  0.0000)
  34 Li     3.234076    6.468146   15.445938    ( 0.0000,  0.0000,  0.0000)
  35 Li     6.468146    6.468146   15.445938    ( 0.0000,  0.0000,  0.0000)
  36 O      8.085185    1.617037   18.445939    ( 0.0000,  0.0000,  0.0000)
  37 C      9.515148    1.601963   18.451439    ( 0.0000,  0.0000,  0.0000)
  38 H      9.919419    0.852010   17.764289    ( 0.0000,  0.0000,  0.0000)
  39 H      9.918660    1.423554   19.453228    ( 0.0000,  0.0000,  0.0000)
  40 H      9.834591    2.587678   18.118510    ( 0.0000,  0.0000,  0.0000)
  41 H      7.773530    0.753908   18.736944    ( 0.0000,  0.0000,  0.0000)
  42 N      8.085000    1.617000   17.195939    ( 0.0000,  0.0000,  0.0000)
  43 N      8.085000    2.713622   17.195939    ( 0.0000,  0.0000,  0.0000)

Unit cell:
           periodic     x           y           z      points  spacing
  1. axis:    yes    9.702222    0.000000    0.000000    60     0.1617
  2. axis:    yes    0.000000    9.702222    0.000000    60     0.1617
  3. axis:    no     0.000000    0.000000   26.601111   168     0.1583

  Lengths:   9.702222   9.702222  26.601111
  Angles:   90.000000  90.000000  90.000000

Effective grid spacing dv^(1/3) = 0.1606

     iter     time        total  log10-change:
                         energy  eigst   dens
iter:   1 11:14:25  -447.352527
iter:   2 11:14:32  -151.180332  +2.38  -0.05
iter:   3 11:14:39  -156.039856  +3.27  -0.26
iter:   4 11:14:46  -252.865266  +3.04  -0.31
Writing to output.gpw (mode='')

iter:   5 11:14:53  -247.379758  +2.49  -0.33
iter:   6 11:15:00  -260.877335  +2.17  -0.65
iter:   7 11:15:07  -274.816950  +1.85  -0.83
iter:   8 11:15:15  -279.821040  +1.43  -0.74
iter:   9 11:15:22  -280.842890  +1.26  -0.69
Writing to output.gpw (mode='')

iter:  10 11:15:29  -278.091208  +1.21  -0.78
iter:  11 11:15:36  -278.408027  +0.93  -0.78
iter:  12 11:15:43  -291.711978  +1.54  -0.80
iter:  13 11:15:50  -275.080375  +1.02  -0.71
iter:  14 11:15:57  -275.548143  +1.17  -0.85
Writing to output.gpw (mode='')

iter:  15 11:16:04  -274.118188  +0.34  -0.80
iter:  16 11:16:11  -275.547034  +1.10  -0.91
iter:  17 11:16:18  -274.275133  +0.42  -0.95
iter:  18 11:16:25  -273.126363  +0.37  -1.00
iter:  19 11:16:32  -272.853805  -0.00  -1.11
Writing to output.gpw (mode='')

iter:  20 11:16:39  -272.794963  +0.49  -1.19
iter:  21 11:16:47  -272.749619  +0.07  -1.32
iter:  22 11:16:54  -272.590899  -0.27  -1.42
iter:  23 11:17:06  -272.616389  -0.05  -1.55
iter:  24 11:17:14  -272.680583  -0.45  -1.61
Writing to output.gpw (mode='')

iter:  25 11:17:21  -272.614682  -0.74  -1.59
iter:  26 11:17:28  -272.592394  -0.74  -1.70
iter:  27 11:17:35  -272.607149c -0.87  -2.00
iter:  28 11:17:42  -272.601894c -1.51  -1.99
iter:  29 11:17:49  -272.604015c -1.33  -2.12
Writing to output.gpw (mode='')

iter:  30 11:17:56  -272.606363c -1.71  -2.31
iter:  31 11:18:03  -272.607552c -1.76  -2.35
iter:  32 11:18:10  -272.609935c -1.73  -2.44
iter:  33 11:18:18  -272.610112c -2.13  -2.42
iter:  34 11:18:25  -272.610131c -1.91  -2.49
Writing to output.gpw (mode='')

iter:  35 11:18:32  -272.611576c -2.15  -2.73
iter:  36 11:18:39  -272.612157c -2.29  -2.82
iter:  37 11:18:46  -272.613213c -2.28  -2.84
iter:  38 11:18:53  -272.613949c -2.42  -2.94
iter:  39 11:19:00  -272.614263c -2.54  -3.06
Writing to output.gpw (mode='')

iter:  40 11:19:07  -272.614643c -2.58  -3.11
iter:  41 11:19:14  -272.615118c -2.60  -3.23
iter:  42 11:19:22  -272.615451c -2.83  -3.44
iter:  43 11:19:29  -272.615690c -2.89  -3.54
iter:  44 11:19:36  -272.615889c -2.86  -3.48
Writing to output.gpw (mode='')

iter:  45 11:19:43  -272.616070c -3.03  -3.43
iter:  46 11:19:50  -272.616299c -2.86  -3.38
iter:  47 11:19:57  -272.616414c -3.16  -3.33
iter:  48 11:20:04  -272.616583c -3.01  -3.25
iter:  49 11:20:11  -272.616598c -2.97  -3.30
Writing to output.gpw (mode='')

iter:  50 11:20:18  -272.616698c -3.34  -3.07
iter:  51 11:20:25  -272.616927c -3.16  -3.12
iter:  52 11:20:33  -272.617011c -3.42  -3.36
iter:  53 11:20:40  -272.617178c -3.12  -3.38
iter:  54 11:20:47  -272.617257c -3.28  -3.46
Writing to output.gpw (mode='')

iter:  55 11:20:54  -272.617301c -3.36  -3.50
iter:  56 11:21:01  -272.617372c -3.44  -3.54
iter:  57 11:21:10  -272.617377c -3.63  -3.64
iter:  58 11:21:18  -272.617412c -3.81  -3.80
iter:  59 11:21:25  -272.617468c -3.74  -3.83
Writing to output.gpw (mode='')

iter:  60 11:21:32  -272.617481c -3.82  -3.93
iter:  61 11:21:39  -272.617470c -3.89  -3.97
iter:  62 11:21:46  -272.617501c -3.97  -4.08c
iter:  63 11:21:53  -272.617522c -3.74  -4.12c
iter:  64 11:22:04  -272.617533c -3.96  -4.19c
Writing to output.gpw (mode='')

iter:  65 11:22:14  -272.617533c -3.97  -4.26c
iter:  66 11:22:21  -272.617554c -4.05  -4.38c
iter:  67 11:22:28  -272.617565c -4.05  -4.46c
iter:  68 11:22:35  -272.617567c -4.20  -4.49c
iter:  69 11:22:42  -272.617572c -4.18  -4.48c
Writing to output.gpw (mode='')

iter:  70 11:22:49  -272.617576c -4.37  -4.44c
iter:  71 11:22:56  -272.617578c -4.38  -4.41c
iter:  72 11:23:03  -272.617581c -4.33  -4.35c
iter:  73 11:23:10  -272.617584c -4.40  -4.30c
iter:  74 11:23:17  -272.617585c -4.69  -4.29c
Writing to output.gpw (mode='')

iter:  75 11:23:24  -272.617588c -4.48  -4.26c
iter:  76 11:23:31  -272.617592c -4.44  -4.27c
iter:  77 11:23:38  -272.617594c -4.73  -4.26c
iter:  78 11:23:45  -272.617594c -4.75  -4.26c
iter:  79 11:23:52  -272.617595c -4.80  -4.22c
Writing to output.gpw (mode='')

iter:  80 11:23:59  -272.617599c -4.93  -4.11c
iter:  81 11:24:06  -272.617605c -4.79  -4.20c
iter:  82 11:24:13  -272.617614c -4.88  -4.40c
iter:  83 11:24:21  -272.617612c -4.98  -4.60c
iter:  84 11:24:30  -272.617615c -4.81  -4.66c
Writing to output.gpw (mode='')

iter:  85 11:24:40  -272.617613c -5.15  -4.90c
iter:  86 11:24:49  -272.617614c -5.10  -4.92c
iter:  87 11:24:56  -272.617615c -5.03  -5.03c
iter:  88 11:25:03  -272.617615c -5.07  -5.12c
iter:  89 11:25:10  -272.617616c -5.17  -5.22c
Writing to output.gpw (mode='')

iter:  90 11:25:17  -272.617617c -5.26  -5.28c
iter:  91 11:25:24  -272.617617c -5.49  -5.47c
iter:  92 11:25:31  -272.617616c -5.48  -5.52c
iter:  93 11:25:38  -272.617617c -5.49  -5.54c
iter:  94 11:25:45  -272.617616c -5.46  -5.51c
Writing to output.gpw (mode='')

iter:  95 11:25:52  -272.617616c -5.48  -5.44c
iter:  96 11:25:59  -272.617616c -5.64  -5.43c
iter:  97 11:26:06  -272.617616c -5.65  -5.24c
iter:  98 11:26:13  -272.617615c -5.54  -5.20c
iter:  99 11:26:20  -272.617616c -5.54  -5.19c
Writing to output.gpw (mode='')

iter: 100 11:26:27  -272.617615c -5.72  -5.14c
iter: 101 11:26:34  -272.617614c -5.74  -5.09c
iter: 102 11:26:41  -272.617615c -5.86  -4.92c
iter: 103 11:26:48  -272.617616c -5.82  -4.97c
iter: 104 11:26:55  -272.617615c -5.93  -5.18c
Writing to output.gpw (mode='')

iter: 105 11:27:07  -272.617617c -5.92  -4.90c
iter: 106 11:27:14  -272.617617c -5.95  -5.42c
iter: 107 11:27:22  -272.617617c -5.90  -5.48c
iter: 108 11:27:29  -272.617617c -6.11  -5.64c
iter: 109 11:27:36  -272.617617c -6.10  -5.68c
Writing to output.gpw (mode='')

iter: 110 11:27:43  -272.617617c -6.02  -5.75c
iter: 111 11:27:50  -272.617617c -6.19  -5.85c
iter: 112 11:27:57  -272.617617c -6.25  -5.79c
iter: 113 11:28:04  -272.617617c -6.17  -5.94c
iter: 114 11:28:11  -272.617617c -6.19  -6.04c
Writing to output.gpw (mode='')

iter: 115 11:28:18  -272.617617c -6.34  -6.02c
iter: 116 11:28:25  -272.617617c -6.32  -5.82c
iter: 117 11:28:32  -272.617617c -6.28  -5.82c
iter: 118 11:28:39  -272.617617c -6.32  -5.81c
iter: 119 11:28:46  -272.617617c -6.47  -5.86c
Writing to output.gpw (mode='')

iter: 120 11:28:53  -272.617617c -6.49  -6.21c
iter: 121 11:29:00  -272.617617c -6.44  -6.29c
iter: 122 11:29:07  -272.617617c -6.52  -6.36c
iter: 123 11:29:14  -272.617617c -6.56  -6.37c
iter: 124 11:29:21  -272.617617c -6.67  -6.43c
Writing to output.gpw (mode='')

iter: 125 11:29:28  -272.617617c -6.70  -6.54c
iter: 126 11:29:35  -272.617617c -6.62  -6.51c
iter: 127 11:29:42  -272.617616c -6.58  -6.57c
iter: 128 11:29:49  -272.617616c -6.76  -6.53c
iter: 129 11:29:56  -272.617616c -6.76  -6.36c
Writing to output.gpw (mode='')

iter: 130 11:30:04  -272.617616c -6.84  -6.32c
iter: 131 11:30:11  -272.617616c -6.86  -6.02c
iter: 132 11:30:18  -272.617616c -6.80  -6.11c
iter: 133 11:30:25  -272.617616c -6.93  -6.14c
iter: 134 11:30:32  -272.617616c -6.92  -5.94c
Writing to output.gpw (mode='')

iter: 135 11:30:39  -272.617616c -6.98  -6.08c
iter: 136 11:30:46  -272.617616c -6.95  -5.92c
iter: 137 11:30:53  -272.617616c -7.00  -5.89c
iter: 138 11:31:00  -272.617616c -6.99  -6.10c
iter: 139 11:31:07  -272.617616c -7.02  -6.40c
Writing to output.gpw (mode='')

iter: 140 11:31:14  -272.617616c -6.98  -6.46c
iter: 141 11:31:21  -272.617616c -6.99  -6.51c
iter: 142 11:31:28  -272.617616c -7.17  -6.68c
iter: 143 11:31:35  -272.617616c -7.20  -6.67c
iter: 144 11:31:42  -272.617616c -7.15  -6.71c
Writing to output.gpw (mode='')

iter: 145 11:31:49  -272.617616c -7.17  -6.81c
iter: 146 11:31:56  -272.617616c -7.16  -6.87c
iter: 147 11:32:09  -272.617616c -7.24  -6.85c
iter: 148 11:32:16  -272.617616c -7.21  -6.86c
iter: 149 11:32:23  -272.617616c -7.13  -6.89c
Writing to output.gpw (mode='')

iter: 150 11:32:30  -272.617616c -7.30  -6.87c
iter: 151 11:32:37  -272.617616c -7.39  -6.79c
iter: 152 11:32:44  -272.617616c -7.40  -6.53c
iter: 153 11:32:52  -272.617616c -7.43c -6.52c

Converged after 153 iterations.

Dipole moment: (-0.167478, -5.303757, 0.477784) |e|*Ang

Energy contributions relative to reference atoms: (reference = -13382.245603)

Kinetic:       +181.307656
Potential:     -156.585008
External:        +0.000000
XC:            -297.923242
Entropy (-ST):   -0.155226
Local:           +0.660590
--------------------------
Free energy:   -272.695229
Extrapolated:  -272.617616

Dipole-layer corrected work functions: 3.364060, 2.445595 eV

Showing only first 2 kpts
 Kpt  Band  Eigenvalues  Occupancy
  0    28     -3.15250    1.98598
  0    29     -3.06538    1.92249
  0    30     -2.76550    0.11611
  0    31     -2.70002    0.03273

  1    28     -2.96130    1.51148
  1    29     -2.91740    1.12503
  1    30     -2.84895    0.49291
  1    31     -2.81699    0.29440


Fermi level: -2.90483

Gap: 0.019 eV
Transition (v -> c):
  (s=0, k=2, n=29, [0.12, 0.12, 0.00]) -> (s=0, k=4, n=30, [0.38, -0.38, 0.00])
Writing to output.gpw (mode='')


Forces in eV/Ang:
  0 Li    0.01435    0.00454   -0.27125
  1 Li   -0.01418    0.00559   -0.27190
  2 Li   -0.00050   -0.00852   -0.28145
  3 Li    0.00910   -0.00557   -0.27383
  4 Li   -0.00770   -0.00484   -0.27295
  5 Li   -0.00084    0.01663   -0.27571
  6 Li   -0.00547   -0.00005   -0.26969
  7 Li    0.00617   -0.00111   -0.27315
  8 Li    0.00001   -0.00711   -0.26826
  9 Li   -0.00359   -0.00752    0.28960
 10 Li    0.00104    0.01437    0.25470
 11 Li    0.00246   -0.01361    0.28600
 12 Li   -0.00516   -0.00029    0.30907
 13 Li    0.00246   -0.00684    0.23540
 14 Li    0.00354    0.00157    0.30533
 15 Li    0.00006    0.00708    0.25247
 16 Li   -0.00305   -0.00487    0.28402
 17 Li    0.00271    0.00975    0.25174
 18 Li   -0.02068    0.00857    0.06967
 19 Li    0.02282    0.00689    0.04567
 20 Li   -0.00005   -0.01365   -0.20254
 21 Li   -0.02319   -0.02214    0.05695
 22 Li    0.02380   -0.01660    0.05332
 23 Li   -0.00156    0.03602   -0.07701
 24 Li   -0.00458    0.01460    0.04483
 25 Li    0.00228    0.01025    0.03453
 26 Li    0.00109   -0.00655    0.05944
 27 Li    0.02092   -0.16753   -0.21527
 28 Li   -0.00880    0.03039   -0.00381
 29 Li   -0.03744   -0.10793   -0.04542
 30 Li   -0.23159    0.11889   -0.00292
 31 Li   -0.01190   -0.01460   -0.01418
 32 Li    0.20501    0.07692    0.14422
 33 Li    0.03373    0.06748   -0.02278
 34 Li   -0.00626   -0.01744    0.00026
 35 Li   -0.02717    0.06290   -0.02404
 36 O     0.68153   -6.48362   16.53688
 37 C     5.08852   -0.29870    3.71435
 38 H    -0.23378   -0.04303    0.13205
 39 H    -0.34623   -0.17010    0.11656
 40 H    -0.03279   -0.18352    0.28806
 41 H    -0.69343   -3.14805    1.97134
 42 N    -3.62769   -8.80477  -11.14679
 43 N    -0.78746   19.01939  -11.52728

System changes: positions 

Initializing position-dependent things.

Density initialized from wave functions
       .-----------------------.  
      /|                       |  
     / |                       |  
    /  |                       |  
   /   |                       |  
  /    |                       |  
 *     |                       |  
 |     |                       |  
 |     |                       |  
 |     |                       |  
 |     |                       |  
 |     |                       |  
 |     |                       |  
 |     |                       |  
 |H    Li              Li      |  
 | H   |             HO   C    |  
 |H  Li|     Li      LiN       |  
 |     |  Li      Li  N   Li   |  
 |     |   Li      Li      Li  |  
 |     |Li      Li      Li     |  
 |     | Li                    |  
 |   LLi     LLi     LLi       |  
 |     |  Li      Li      Li   |  
 | Li  |   Li      Li          |  
 |     |Li      Li      Li     |  
 Li    | Li      Li            |  
 |    Li      Li      Li       |  
 |     |                       |  
 |     |                       |  
 |     |                       |  
 |     |                       |  
 |     |                       |  
 |     |                       |  
 |     .-----------------------.  
 |    /                       /   
 |   /                       /    
 |  /                       /     
 | /                       /      
 |/                       /       
 *-----------------------*        

Positions:
   0 Li     1.617037    1.617037   10.000000    ( 0.0000,  0.0000,  0.0000)
   1 Li     4.851111    1.617037   10.000000    ( 0.0000,  0.0000,  0.0000)
   2 Li     8.085185    1.617037   10.000000    ( 0.0000,  0.0000,  0.0000)
   3 Li     1.617037    4.851111   10.000000    ( 0.0000,  0.0000,  0.0000)
   4 Li     4.851111    4.851111   10.000000    ( 0.0000,  0.0000,  0.0000)
   5 Li     8.085185    4.851111   10.000000    ( 0.0000,  0.0000,  0.0000)
   6 Li     1.617037    8.085185   10.000000    ( 0.0000,  0.0000,  0.0000)
   7 Li     4.851111    8.085185   10.000000    ( 0.0000,  0.0000,  0.0000)
   8 Li     8.085185    8.085185   10.000000    ( 0.0000,  0.0000,  0.0000)
   9 Li     0.000000    0.000000   11.617037    ( 0.0000,  0.0000,  0.0000)
  10 Li     3.234074    0.000000   11.617037    ( 0.0000,  0.0000,  0.0000)
  11 Li     6.468148    0.000000   11.617037    ( 0.0000,  0.0000,  0.0000)
  12 Li     0.000000    3.234074   11.617037    ( 0.0000,  0.0000,  0.0000)
  13 Li     3.234074    3.234074   11.617037    ( 0.0000,  0.0000,  0.0000)
  14 Li     6.468148    3.234074   11.617037    ( 0.0000,  0.0000,  0.0000)
  15 Li     0.000000    6.468148   11.617037    ( 0.0000,  0.0000,  0.0000)
  16 Li     3.234074    6.468148   11.617037    ( 0.0000,  0.0000,  0.0000)
  17 Li     6.468148    6.468148   11.617037    ( 0.0000,  0.0000,  0.0000)
  18 Li     1.617001    1.617054   13.469853    ( 0.0000,  0.0000,  0.0000)
  19 Li     4.851152    1.617051   13.469812    ( 0.0000,  0.0000,  0.0000)
  20 Li     8.085184    1.617014   13.469364    ( 0.0000,  0.0000,  0.0000)
  21 Li     1.616997    4.851071   13.469832    ( 0.0000,  0.0000,  0.0000)
  22 Li     4.851154    4.851081   13.469826    ( 0.0000,  0.0000,  0.0000)
  23 Li     8.085181    4.851176   13.469591    ( 0.0000,  0.0000,  0.0000)
  24 Li     1.617030    8.085210   13.469808    ( 0.0000,  0.0000,  0.0000)
  25 Li     4.851115    8.085202   13.469792    ( 0.0000,  0.0000,  0.0000)
  26 Li     8.085186    8.085172   13.469835    ( 0.0000,  0.0000,  0.0000)
  27 Li     0.000038   -0.000301   15.445552    ( 0.0000,  0.0000,  0.0000)
  28 Li     3.234058    0.000055   15.445932    ( 0.0000,  0.0000,  0.0000)
  29 Li     6.468081   -0.000194   15.445857    ( 0.0000,  0.0000,  0.0000)
  30 Li    -0.000416    3.234287   15.445934    ( 0.0000,  0.0000,  0.0000)
  31 Li     3.234055    3.234050   15.445913    ( 0.0000,  0.0000,  0.0000)
  32 Li     6.468514    3.234215   15.446197    ( 0.0000,  0.0000,  0.0000)
  33 Li     0.000061    6.468270   15.445898    ( 0.0000,  0.0000,  0.0000)
  34 Li     3.234065    6.468114   15.445939    ( 0.0000,  0.0000,  0.0000)
  35 Li     6.468097    6.468259   15.445895    ( 0.0000,  0.0000,  0.0000)
  36 O      8.086410    1.605383   18.475663    ( 0.0000,  0.0000,  0.0000)
  37 C      9.524294    1.601426   18.458115    ( 0.0000,  0.0000,  0.0000)
  38 H      9.918999    0.851932   17.764526    ( 0.0000,  0.0000,  0.0000)
  39 H      9.918037    1.423248   19.453437    ( 0.0000,  0.0000,  0.0000)
  40 H      9.834532    2.587348   18.119028    ( 0.0000,  0.0000,  0.0000)
  41 H      7.772284    0.748250   18.740488    ( 0.0000,  0.0000,  0.0000)
  42 N      8.078479    1.601174   17.175904    ( 0.0000,  0.0000,  0.0000)
  43 N      8.083585    2.747808   17.175220    ( 0.0000,  0.0000,  0.0000)

Unit cell:
           periodic     x           y           z      points  spacing
  1. axis:    yes    9.702222    0.000000    0.000000    60     0.1617
  2. axis:    yes    0.000000    9.702222    0.000000    60     0.1617
  3. axis:    no     0.000000    0.000000   26.601111   168     0.1583

  Lengths:   9.702222   9.702222  26.601111
  Angles:   90.000000  90.000000  90.000000

Effective grid spacing dv^(1/3) = 0.1606

     iter     time        total  log10-change:
                         energy  eigst   dens
iter:   1 11:33:00  -276.171003  -0.18
iter:   2 11:33:07  -274.884710  +0.06  -1.15
iter:   3 11:33:14  -274.491517  -0.58  -1.17
iter:   4 11:33:21  -274.466995  -0.31  -1.37
Writing to output.gpw (mode='')

iter:   5 11:33:28  -274.278752  -1.00  -1.59
iter:   6 11:33:35  -274.954027  -0.28  -1.95
iter:   7 11:33:43  -274.492499  -1.07  -1.25
iter:   8 11:33:50  -274.331374  -0.93  -1.36
iter:   9 11:33:57  -274.322390  -1.67  -1.91
Writing to output.gpw (mode='')

iter:  10 11:34:04  -274.289452  -2.11  -1.94
iter:  11 11:34:11  -274.251084  -1.76  -1.99
iter:  12 11:34:18  -274.304779  -1.41  -2.18
iter:  13 11:34:25  -274.267420  -2.10  -2.01
iter:  14 11:34:32  -274.264961  -2.66  -2.19
Writing to output.gpw (mode='')

iter:  15 11:34:39  -274.249438c -1.92  -2.22
iter:  16 11:34:46  -274.252458c -2.46  -2.23
iter:  17 11:34:53  -274.250120c -3.32  -2.58
iter:  18 11:35:00  -274.248601c -2.98  -2.76
iter:  19 11:35:08  -274.249333c -3.72  -2.87
Writing to output.gpw (mode='')

iter:  20 11:35:15  -274.248711c -3.30  -2.88
iter:  21 11:35:22  -274.248708c -3.66  -2.84
iter:  22 11:35:29  -274.248539c -3.45  -2.83
iter:  23 11:35:36  -274.249480c -3.50  -2.90
iter:  24 11:35:43  -274.249072c -4.23  -3.05
Writing to output.gpw (mode='')

iter:  25 11:35:50  -274.249087c -4.03  -3.23
iter:  26 11:35:57  -274.249309c -4.18  -3.35
iter:  27 11:36:04  -274.249121c -4.09  -3.48
iter:  28 11:36:11  -274.249230c -4.68  -3.56
iter:  29 11:36:18  -274.249202c -4.86  -3.67
Writing to output.gpw (mode='')

iter:  30 11:36:25  -274.249143c -5.02  -3.83
iter:  31 11:36:33  -274.249176c -5.25  -3.94
iter:  32 11:36:40  -274.249191c -5.16  -4.08c
iter:  33 11:36:47  -274.249175c -5.34  -4.18c
iter:  34 11:36:54  -274.249175c -5.38  -4.41c
Writing to output.gpw (mode='')

iter:  35 11:37:08  -274.249180c -5.70  -4.44c
iter:  36 11:37:16  -274.249180c -5.81  -4.47c
iter:  37 11:37:23  -274.249184c -5.73  -4.52c
iter:  38 11:37:30  -274.249181c -5.85  -4.60c
iter:  39 11:37:37  -274.249184c -6.14  -4.64c
Writing to output.gpw (mode='')

iter:  40 11:37:44  -274.249184c -6.14  -4.68c
iter:  41 11:37:51  -274.249182c -6.45  -4.95c
iter:  42 11:37:58  -274.249183c -6.51  -5.04c
iter:  43 11:38:05  -274.249184c -6.53  -5.03c
iter:  44 11:38:12  -274.249182c -6.38  -5.02c
Writing to output.gpw (mode='')

iter:  45 11:38:20  -274.249181c -6.68  -4.92c
iter:  46 11:38:27  -274.249183c -6.69  -5.02c
iter:  47 11:38:34  -274.249184c -6.55  -5.16c
iter:  48 11:38:41  -274.249185c -6.70  -5.15c
iter:  49 11:38:48  -274.249186c -6.89  -5.25c
Writing to output.gpw (mode='')

iter:  50 11:38:55  -274.249186c -6.96  -5.27c
iter:  51 11:39:02  -274.249185c -6.70  -5.28c
iter:  52 11:39:09  -274.249186c -7.03  -5.30c
iter:  53 11:39:16  -274.249184c -7.29  -5.31c
iter:  54 11:39:23  -274.249185c -7.31  -5.23c
Writing to output.gpw (mode='')

iter:  55 11:39:31  -274.249184c -7.25  -5.38c
iter:  56 11:39:38  -274.249184c -7.55c -5.52c

Converged after 56 iterations.

Dipole moment: (-0.545371, -5.199185, 0.451805) |e|*Ang

Energy contributions relative to reference atoms: (reference = -13382.245603)

Kinetic:       +169.013938
Potential:     -147.816296
External:        +0.000000
XC:            -296.029753
Entropy (-ST):   -0.163489
Local:           +0.664671
--------------------------
Free energy:   -274.330929
Extrapolated:  -274.249184

Dipole-layer corrected work functions: 3.367763, 2.499239 eV

Showing only first 2 kpts
 Kpt  Band  Eigenvalues  Occupancy
  0    28     -3.17826    1.98515
  0    29     -3.08784    1.91269
  0    30     -2.82511    0.20537
  0    31     -2.73150    0.03459

  1    28     -2.98353    1.46237
  1    29     -2.95066    1.16988
  1    30     -2.87254    0.45613
  1    31     -2.84595    0.29582


Fermi level: -2.93350

No gap
Writing to output.gpw (mode='')


Forces in eV/Ang:
  0 Li    0.01588    0.00493   -0.27226
  1 Li   -0.01560    0.00560   -0.27327
  2 Li   -0.00056   -0.00824   -0.28274
  3 Li    0.01066   -0.00550   -0.27520
  4 Li   -0.00932   -0.00466   -0.27384
  5 Li   -0.00085    0.01638   -0.27632
  6 Li   -0.00415   -0.00030   -0.26986
  7 Li    0.00504   -0.00127   -0.27384
  8 Li   -0.00016   -0.00703   -0.26742
  9 Li   -0.00417   -0.00667    0.29312
 10 Li    0.00073    0.01354    0.25150
 11 Li    0.00305   -0.01284    0.28928
 12 Li   -0.00441   -0.00028    0.31243
 13 Li    0.00222   -0.00668    0.23326
 14 Li    0.00307    0.00124    0.30972
 15 Li   -0.00062    0.00608    0.25231
 16 Li   -0.00292   -0.00409    0.28394
 17 Li    0.00338    0.00950    0.25202
 18 Li   -0.01571    0.00816    0.06332
 19 Li    0.01724    0.00713    0.03802
 20 Li    0.00051   -0.01272   -0.20682
 21 Li   -0.02342   -0.02337    0.05515
 22 Li    0.02469   -0.01817    0.05214
 23 Li   -0.00239    0.03941   -0.08820
 24 Li   -0.00607    0.01593    0.04680
 25 Li    0.00373    0.01136    0.03563
 26 Li    0.00127   -0.00916    0.05922
 27 Li    0.00825   -0.14754   -0.18436
 28 Li   -0.00779    0.02552   -0.01066
 29 Li   -0.02000   -0.08632   -0.01522
 30 Li   -0.27736    0.09371    0.06523
 31 Li   -0.01266   -0.01056   -0.02101
 32 Li    0.25288    0.04527    0.22226
 33 Li    0.03655    0.06894   -0.02277
 34 Li   -0.00589   -0.01643   -0.00090
 35 Li   -0.03042    0.06343   -0.02242
 36 O     0.93668   -4.91642   12.54142
 37 C     4.29916   -0.31386    3.19090
 38 H    -0.19717   -0.04435    0.20752
 39 H    -0.11601   -0.18469    0.37224
 40 H    -0.06579   -0.17182    0.29814
 41 H    -0.69636   -3.14639    1.96558
 42 N    -3.37116   -2.77199   -8.88643
 43 N    -0.75526   11.43857   -9.71074

System changes: positions 

Initializing position-dependent things.

Density initialized from wave functions
       .-----------------------.  
      /|                       |  
     / |                       |  
    /  |                       |  
   /   |                       |  
  /    |                       |  
 *     |                       |  
 |     |                       |  
 |     |                       |  
 |     |                       |  
 |     |                       |  
 |     |                       |  
 |     |                       |  
 |     |                       |  
 |H    Li              Li      |  
 | H   |             HO   C    |  
 |H  Li|     Li      LiN       |  
 |     |  Li      Li  N   Li   |  
 |     |   Li      Li      Li  |  
 |     |Li      Li      Li     |  
 |     | Li                    |  
 |   LLi     LLi     LLi       |  
 |     |  Li      Li      Li   |  
 | Li  |   Li      Li          |  
 |     |Li      Li      Li     |  
 Li    | Li      Li            |  
 |    Li      Li      Li       |  
 |     |                       |  
 |     |                       |  
 |     |                       |  
 |     |                       |  
 |     |                       |  
 |     |                       |  
 |     .-----------------------.  
 |    /                       /   
 |   /                       /    
 |  /                       /     
 | /                       /      
 |/                       /       
 *-----------------------*        

Positions:
   0 Li     1.617037    1.617037   10.000000    ( 0.0000,  0.0000,  0.0000)
   1 Li     4.851111    1.617037   10.000000    ( 0.0000,  0.0000,  0.0000)
   2 Li     8.085185    1.617037   10.000000    ( 0.0000,  0.0000,  0.0000)
   3 Li     1.617037    4.851111   10.000000    ( 0.0000,  0.0000,  0.0000)
   4 Li     4.851111    4.851111   10.000000    ( 0.0000,  0.0000,  0.0000)
   5 Li     8.085185    4.851111   10.000000    ( 0.0000,  0.0000,  0.0000)
   6 Li     1.617037    8.085185   10.000000    ( 0.0000,  0.0000,  0.0000)
   7 Li     4.851111    8.085185   10.000000    ( 0.0000,  0.0000,  0.0000)
   8 Li     8.085185    8.085185   10.000000    ( 0.0000,  0.0000,  0.0000)
   9 Li     0.000000    0.000000   11.617037    ( 0.0000,  0.0000,  0.0000)
  10 Li     3.234074    0.000000   11.617037    ( 0.0000,  0.0000,  0.0000)
  11 Li     6.468148    0.000000   11.617037    ( 0.0000,  0.0000,  0.0000)
  12 Li     0.000000    3.234074   11.617037    ( 0.0000,  0.0000,  0.0000)
  13 Li     3.234074    3.234074   11.617037    ( 0.0000,  0.0000,  0.0000)
  14 Li     6.468148    3.234074   11.617037    ( 0.0000,  0.0000,  0.0000)
  15 Li     0.000000    6.468148   11.617037    ( 0.0000,  0.0000,  0.0000)
  16 Li     3.234074    6.468148   11.617037    ( 0.0000,  0.0000,  0.0000)
  17 Li     6.468148    6.468148   11.617037    ( 0.0000,  0.0000,  0.0000)
  18 Li     1.616955    1.617089   13.470115    ( 0.0000,  0.0000,  0.0000)
  19 Li     4.851202    1.617086   13.469948    ( 0.0000,  0.0000,  0.0000)
  20 Li     8.085189    1.616959   13.468372    ( 0.0000,  0.0000,  0.0000)
  21 Li     1.616886    4.850955   13.470080    ( 0.0000,  0.0000,  0.0000)
  22 Li     4.851274    4.850988   13.470064    ( 0.0000,  0.0000,  0.0000)
  23 Li     8.085165    4.851379   13.469117    ( 0.0000,  0.0000,  0.0000)
  24 Li     1.616993    8.085292   13.470038    ( 0.0000,  0.0000,  0.0000)
  25 Li     4.851141    8.085261   13.469964    ( 0.0000,  0.0000,  0.0000)
  26 Li     8.085193    8.085115   13.470111    ( 0.0000,  0.0000,  0.0000)
  27 Li     0.000007   -0.000882   15.444859    ( 0.0000,  0.0000,  0.0000)
  28 Li     3.234027    0.000147   15.445845    ( 0.0000,  0.0000,  0.0000)
  29 Li     6.468083   -0.000480   15.445951    ( 0.0000,  0.0000,  0.0000)
  30 Li    -0.001965    3.234588   15.446612    ( 0.0000,  0.0000,  0.0000)
  31 Li     3.233992    3.234023   15.445777    ( 0.0000,  0.0000,  0.0000)
  32 Li     6.469960    3.234253   15.447665    ( 0.0000,  0.0000,  0.0000)
  33 Li     0.000247    6.468600   15.445791    ( 0.0000,  0.0000,  0.0000)
  34 Li     3.234040    6.468043   15.445928    ( 0.0000,  0.0000,  0.0000)
  35 Li     6.467937    6.468558   15.445799    ( 0.0000,  0.0000,  0.0000)
  36 O      8.092191    1.590942   18.512515    ( 0.0000,  0.0000,  0.0000)
  37 C      9.540101    1.599874   18.470189    ( 0.0000,  0.0000,  0.0000)
  38 H      9.918276    0.851717   17.765911    ( 0.0000,  0.0000,  0.0000)
  39 H      9.918754    1.422304   19.456578    ( 0.0000,  0.0000,  0.0000)
  40 H      9.834044    2.586608   18.120479    ( 0.0000,  0.0000,  0.0000)
  41 H      7.769008    0.733530   18.749657    ( 0.0000,  0.0000,  0.0000)
  42 N      8.064102    1.621199   17.146670    ( 0.0000,  0.0000,  0.0000)
  43 N      8.080225    2.759884   17.139700    ( 0.0000,  0.0000,  0.0000)

Unit cell:
           periodic     x           y           z      points  spacing
  1. axis:    yes    9.702222    0.000000    0.000000    60     0.1617
  2. axis:    yes    0.000000    9.702222    0.000000    60     0.1617
  3. axis:    no     0.000000    0.000000   26.601111   168     0.1583

  Lengths:   9.702222   9.702222  26.601111
  Angles:   90.000000  90.000000  90.000000

Effective grid spacing dv^(1/3) = 0.1606

     iter     time        total  log10-change:
                         energy  eigst   dens
iter:   1 11:39:46  -275.663309  -0.39
iter:   2 11:39:53  -275.626165  -0.72  -1.61
iter:   3 11:40:00  -275.616087  -1.15  -1.73
iter:   4 11:40:07  -275.625454c -1.31  -2.03
Writing to output.gpw (mode='')

iter:   5 11:40:14  -275.586173  -1.24  -2.01
iter:   6 11:40:21  -275.585204  -1.49  -2.05
iter:   7 11:40:28  -275.584885c -1.69  -2.00
iter:   8 11:40:35  -275.582245c -2.37  -2.27
iter:   9 11:40:43  -275.576945c -2.24  -2.30
Writing to output.gpw (mode='')

iter:  10 11:40:50  -275.582160c -1.86  -2.36
iter:  11 11:40:57  -275.579302c -2.71  -2.33
iter:  12 11:41:04  -275.576386c -2.58  -2.53
iter:  13 11:41:11  -275.577721c -2.55  -2.56
iter:  14 11:41:18  -275.577591c -3.13  -2.78
Writing to output.gpw (mode='')

iter:  15 11:41:25  -275.577446c -3.29  -2.89
iter:  16 11:41:32  -275.577078c -3.07  -2.97
iter:  17 11:41:39  -275.577270c -3.70  -2.95
iter:  18 11:41:46  -275.577272c -3.65  -3.05
iter:  19 11:41:53  -275.577386c -3.83  -3.24
Writing to output.gpw (mode='')

iter:  20 11:42:06  -275.577382c -4.14  -3.36
iter:  21 11:42:14  -275.577416c -4.15  -3.54
iter:  22 11:42:21  -275.577340c -4.66  -3.67
iter:  23 11:42:28  -275.577433c -4.79  -3.68
iter:  24 11:42:35  -275.577389c -5.04  -3.82
Writing to output.gpw (mode='')

iter:  25 11:42:42  -275.577416c -4.91  -3.88
iter:  26 11:42:49  -275.577406c -5.37  -4.08c
iter:  27 11:42:56  -275.577405c -5.22  -4.10c
iter:  28 11:43:03  -275.577385c -5.35  -4.14c
iter:  29 11:43:10  -275.577394c -5.45  -4.28c
Writing to output.gpw (mode='')

iter:  30 11:43:18  -275.577402c -5.66  -4.40c
iter:  31 11:43:25  -275.577400c -5.71  -4.54c
iter:  32 11:43:32  -275.577400c -6.03  -4.64c
iter:  33 11:43:39  -275.577404c -5.97  -4.68c
iter:  34 11:43:46  -275.577402c -5.99  -4.77c
Writing to output.gpw (mode='')

iter:  35 11:43:53  -275.577402c -6.29  -4.85c
iter:  36 11:44:00  -275.577403c -6.27  -4.93c
iter:  37 11:44:07  -275.577402c -6.45  -5.06c
iter:  38 11:44:14  -275.577404c -6.38  -5.07c
iter:  39 11:44:21  -275.577404c -6.62  -5.09c
Writing to output.gpw (mode='')

iter:  40 11:44:28  -275.577402c -6.74  -5.07c
iter:  41 11:44:35  -275.577404c -6.90  -5.46c
iter:  42 11:44:42  -275.577404c -7.06  -5.47c
iter:  43 11:44:49  -275.577405c -7.02  -5.47c
iter:  44 11:44:56  -275.577404c -7.06  -5.51c
Writing to output.gpw (mode='')

iter:  45 11:45:04  -275.577404c -7.19  -5.53c
iter:  46 11:45:11  -275.577404c -7.24  -5.59c
iter:  47 11:45:18  -275.577404c -7.19  -5.73c
iter:  48 11:45:25  -275.577404c -7.19  -5.78c
iter:  49 11:45:32  -275.577404c -7.47c -5.86c

Converged after 49 iterations.

Dipole moment: (-1.082363, -5.168643, 0.458042) |e|*Ang

Energy contributions relative to reference atoms: (reference = -13382.245603)

Kinetic:       +164.864159
Potential:     -145.687510
External:        +0.000000
XC:            -295.343867
Entropy (-ST):   -0.161534
Local:           +0.670580
--------------------------
Free energy:   -275.658172
Extrapolated:  -275.577404

Dipole-layer corrected work functions: 3.367259, 2.486746 eV

Showing only first 2 kpts
 Kpt  Band  Eigenvalues  Occupancy
  0    28     -3.17373    1.98571
  0    29     -3.08320    1.91574
  0    30     -2.81210    0.18258
  0    31     -2.71793    0.03009

  1    28     -2.97992    1.48478
  1    29     -2.94434    1.17164
  1    30     -2.86930    0.47951
  1    31     -2.84161    0.30689


Fermi level: -2.92700

Gap: 0.022 eV
Transition (v -> c):
  (s=0, k=2, n=29, [0.12, 0.12, 0.00]) -> (s=0, k=7, n=30, [0.38, 0.38, 0.00])
Writing to output.gpw (mode='')


Forces in eV/Ang:
  0 Li    0.01726    0.00563   -0.27186
  1 Li   -0.01692    0.00568   -0.27349
  2 Li   -0.00038   -0.00883   -0.28234
  3 Li    0.01077   -0.00610   -0.27533
  4 Li   -0.00977   -0.00485   -0.27402
  5 Li   -0.00078    0.01785   -0.27630
  6 Li   -0.00427   -0.00031   -0.27003
  7 Li    0.00550   -0.00126   -0.27402
  8 Li   -0.00052   -0.00802   -0.26725
  9 Li   -0.00372   -0.00706    0.29322
 10 Li   -0.00010    0.01442    0.25126
 11 Li    0.00286   -0.01340    0.28950
 12 Li   -0.00436   -0.00045    0.31315
 13 Li    0.00160   -0.00690    0.23190
 14 Li    0.00369    0.00051    0.31205
 15 Li   -0.00071    0.00674    0.25128
 16 Li   -0.00312   -0.00478    0.28505
 17 Li    0.00382    0.01102    0.25080
 18 Li   -0.01708    0.00882    0.06445
 19 Li    0.01738    0.00832    0.03923
 20 Li    0.00067   -0.01622   -0.21278
 21 Li   -0.02557   -0.02469    0.05756
 22 Li    0.02722   -0.01948    0.05416
 23 Li   -0.00286    0.04171   -0.08974
 24 Li   -0.00513    0.01622    0.04577
 25 Li    0.00301    0.01146    0.03509
 26 Li    0.00135   -0.00806    0.06128
 27 Li    0.01754   -0.15295   -0.19017
 28 Li   -0.00560    0.02601   -0.01078
 29 Li   -0.02260   -0.08904   -0.02219
 30 Li   -0.24835    0.09475    0.03465
 31 Li   -0.01403   -0.01058   -0.02139
 32 Li    0.22266    0.04383    0.18882
 33 Li    0.03359    0.06950   -0.02186
 34 Li   -0.00572   -0.01676   -0.00019
 35 Li   -0.02775    0.06478   -0.02206
 36 O     1.07784   -3.85889   10.39320
 37 C     3.12790   -0.35205    2.40810
 38 H    -0.12096   -0.04764    0.23871
 39 H     0.19417   -0.22542    0.67959
 40 H    -0.02176   -0.15131    0.35626
 41 H    -0.52365   -2.73490    1.68012
 42 N    -3.01469   -2.32848   -7.53986
 43 N    -0.67464    9.59585   -8.22775

System changes: positions 

Initializing position-dependent things.

Density initialized from wave functions
       .-----------------------.  
      /|                       |  
     / |                       |  
    /  |                       |  
   /   |                       |  
  /    |                       |  
 *     |                       |  
 |     |                       |  
 |     |                       |  
 |     |                       |  
 |     |                       |  
 |     |                       |  
 |     |                       |  
 |     |                       |  
 |H    Li              Li      |  
 | H   |             HO   C    |  
 |H  Li|     Li      LiN       |  
 |     |  Li      Li  N   Li   |  
 |     |   Li      Li      Li  |  
 |     |Li      Li      Li     |  
 |     | Li                    |  
 |   LLi     LLi     LLi       |  
 |     |  Li      Li      Li   |  
 | Li  |   Li      Li          |  
 |     |Li      Li      Li     |  
 Li    | Li      Li            |  
 |    Li      Li      Li       |  
 |     |                       |  
 |     |                       |  
 |     |                       |  
 |     |                       |  
 |     |                       |  
 |     |                       |  
 |     .-----------------------.  
 |    /                       /   
 |   /                       /    
 |  /                       /     
 | /                       /      
 |/                       /       
 *-----------------------*        

Positions:
   0 Li     1.617037    1.617037   10.000000    ( 0.0000,  0.0000,  0.0000)
   1 Li     4.851111    1.617037   10.000000    ( 0.0000,  0.0000,  0.0000)
   2 Li     8.085185    1.617037   10.000000    ( 0.0000,  0.0000,  0.0000)
   3 Li     1.617037    4.851111   10.000000    ( 0.0000,  0.0000,  0.0000)
   4 Li     4.851111    4.851111   10.000000    ( 0.0000,  0.0000,  0.0000)
   5 Li     8.085185    4.851111   10.000000    ( 0.0000,  0.0000,  0.0000)
   6 Li     1.617037    8.085185   10.000000    ( 0.0000,  0.0000,  0.0000)
   7 Li     4.851111    8.085185   10.000000    ( 0.0000,  0.0000,  0.0000)
   8 Li     8.085185    8.085185   10.000000    ( 0.0000,  0.0000,  0.0000)
   9 Li     0.000000    0.000000   11.617037    ( 0.0000,  0.0000,  0.0000)
  10 Li     3.234074    0.000000   11.617037    ( 0.0000,  0.0000,  0.0000)
  11 Li     6.468148    0.000000   11.617037    ( 0.0000,  0.0000,  0.0000)
  12 Li     0.000000    3.234074   11.617037    ( 0.0000,  0.0000,  0.0000)
  13 Li     3.234074    3.234074   11.617037    ( 0.0000,  0.0000,  0.0000)
  14 Li     6.468148    3.234074   11.617037    ( 0.0000,  0.0000,  0.0000)
  15 Li     0.000000    6.468148   11.617037    ( 0.0000,  0.0000,  0.0000)
  16 Li     3.234074    6.468148   11.617037    ( 0.0000,  0.0000,  0.0000)
  17 Li     6.468148    6.468148   11.617037    ( 0.0000,  0.0000,  0.0000)
  18 Li     1.616846    1.617156   13.470555    ( 0.0000,  0.0000,  0.0000)
  19 Li     4.851299    1.617157   13.470200    ( 0.0000,  0.0000,  0.0000)
  20 Li     8.085199    1.616817   13.466766    ( 0.0000,  0.0000,  0.0000)
  21 Li     1.616682    4.850759   13.470506    ( 0.0000,  0.0000,  0.0000)
  22 Li     4.851497    4.850828   13.470465    ( 0.0000,  0.0000,  0.0000)
  23 Li     8.085136    4.851717   13.468398    ( 0.0000,  0.0000,  0.0000)
  24 Li     1.616957    8.085418   13.470369    ( 0.0000,  0.0000,  0.0000)
  25 Li     4.851164    8.085350   13.470218    ( 0.0000,  0.0000,  0.0000)
  26 Li     8.085204    8.085053   13.470569    ( 0.0000,  0.0000,  0.0000)
  27 Li     0.000146   -0.001924   15.443603    ( 0.0000,  0.0000,  0.0000)
  28 Li     3.234011    0.000313   15.445730    ( 0.0000,  0.0000,  0.0000)
  29 Li     6.467990   -0.001030   15.445891    ( 0.0000,  0.0000,  0.0000)
  30 Li    -0.003745    3.235146   15.446958    ( 0.0000,  0.0000,  0.0000)
  31 Li     3.233875    3.233968   15.445583    ( 0.0000,  0.0000,  0.0000)
  32 Li     6.471555    3.234389   15.449149    ( 0.0000,  0.0000,  0.0000)
  33 Li     0.000478    6.469113   15.445642    ( 0.0000,  0.0000,  0.0000)
  34 Li     3.234002    6.467925   15.445927    ( 0.0000,  0.0000,  0.0000)
  35 Li     6.467743    6.469039   15.445652    ( 0.0000,  0.0000,  0.0000)
  36 O      8.102527    1.580641   18.547519    ( 0.0000,  0.0000,  0.0000)
  37 C      9.548284    1.596929   18.477966    ( 0.0000,  0.0000,  0.0000)
  38 H      9.918260    0.851339   17.768300    ( 0.0000,  0.0000,  0.0000)
  39 H      9.924060    1.420251   19.465490    ( 0.0000,  0.0000,  0.0000)
  40 H      9.834093    2.585758   18.123600    ( 0.0000,  0.0000,  0.0000)
  41 H      7.766718    0.717415   18.759249    ( 0.0000,  0.0000,  0.0000)
  42 N      8.046849    1.640302   17.116053    ( 0.0000,  0.0000,  0.0000)
  43 N      8.076238    2.772762   17.102956    ( 0.0000,  0.0000,  0.0000)

Unit cell:
           periodic     x           y           z      points  spacing
  1. axis:    yes    9.702222    0.000000    0.000000    60     0.1617
  2. axis:    yes    0.000000    9.702222    0.000000    60     0.1617
  3. axis:    no     0.000000    0.000000   26.601111   168     0.1583

  Lengths:   9.702222   9.702222  26.601111
  Angles:   90.000000  90.000000  90.000000

Effective grid spacing dv^(1/3) = 0.1606

     iter     time        total  log10-change:
                         energy  eigst   dens
iter:   1 11:45:41  -276.752496  -0.42
iter:   2 11:45:48  -276.733668  -0.82  -1.72
iter:   3 11:45:55  -276.729401c -1.18  -1.84
iter:   4 11:46:02  -276.720576c -1.28  -2.09
Writing to output.gpw (mode='')

iter:   5 11:46:09  -276.722768c -1.42  -2.18
iter:   6 11:46:16  -276.724572c -1.67  -2.05
iter:   7 11:46:23  -276.701305c -1.74  -2.02
iter:   8 11:46:31  -276.698287c -1.48  -2.30
iter:   9 11:46:38  -276.702063c -2.02  -2.13
Writing to output.gpw (mode='')

iter:  10 11:46:45  -276.697157c -2.62  -2.42
iter:  11 11:46:52  -276.695875c -2.12  -2.65
iter:  12 11:47:06  -276.694901c -2.68  -2.29
iter:  13 11:47:13  -276.694887c -2.98  -3.01
iter:  14 11:47:20  -276.695032c -2.98  -3.06
Writing to output.gpw (mode='')

iter:  15 11:47:27  -276.695168c -3.50  -3.07
iter:  16 11:47:35  -276.694788c -3.89  -3.12
iter:  17 11:47:42  -276.694797c -3.93  -3.24
iter:  18 11:47:49  -276.694901c -4.20  -3.34
iter:  19 11:47:56  -276.695122c -4.26  -3.48
Writing to output.gpw (mode='')

iter:  20 11:48:03  -276.695098c -4.34  -3.60
iter:  21 11:48:10  -276.695074c -4.46  -3.70
iter:  22 11:48:18  -276.695046c -4.75  -3.84
iter:  23 11:48:25  -276.695064c -4.75  -4.01c
iter:  24 11:48:32  -276.695057c -5.07  -4.14c
Writing to output.gpw (mode='')

iter:  25 11:48:39  -276.695064c -5.12  -4.15c
iter:  26 11:48:46  -276.695059c -5.30  -4.20c
iter:  27 11:48:53  -276.695064c -5.27  -4.24c
iter:  28 11:49:01  -276.695073c -5.42  -4.27c
iter:  29 11:49:08  -276.695073c -5.64  -4.37c
Writing to output.gpw (mode='')

iter:  30 11:49:15  -276.695071c -5.69  -4.54c
iter:  31 11:49:22  -276.695072c -5.76  -4.64c
iter:  32 11:49:29  -276.695073c -5.85  -4.65c
iter:  33 11:49:36  -276.695074c -6.03  -4.70c
iter:  34 11:49:44  -276.695073c -6.32  -4.77c
Writing to output.gpw (mode='')

iter:  35 11:49:51  -276.695072c -6.23  -4.79c
iter:  36 11:49:58  -276.695070c -6.28  -4.89c
iter:  37 11:50:05  -276.695072c -6.34  -5.05c
iter:  38 11:50:12  -276.695072c -6.66  -5.12c
iter:  39 11:50:19  -276.695074c -6.47  -5.17c
Writing to output.gpw (mode='')

iter:  40 11:50:26  -276.695072c -6.65  -5.31c
iter:  41 11:50:34  -276.695072c -6.78  -5.37c
iter:  42 11:50:41  -276.695073c -6.79  -5.46c
iter:  43 11:50:48  -276.695073c -7.11  -5.50c
iter:  44 11:50:55  -276.695072c -7.18  -5.46c
Writing to output.gpw (mode='')

iter:  45 11:51:02  -276.695072c -7.23  -5.46c
iter:  46 11:51:09  -276.695072c -7.23  -5.42c
iter:  47 11:51:16  -276.695072c -7.26  -5.40c
iter:  48 11:51:24  -276.695072c -7.28  -5.39c
iter:  49 11:51:31  -276.695073c -7.45c -5.30c

Converged after 49 iterations.

Dipole moment: (-1.351310, -5.093535, 0.446229) |e|*Ang

Energy contributions relative to reference atoms: (reference = -13382.245603)

Kinetic:       +161.235736
Potential:     -143.783802
External:        +0.000000
XC:            -294.740407
Entropy (-ST):   -0.160756
Local:           +0.673778
--------------------------
Free energy:   -276.775451
Extrapolated:  -276.695073

Dipole-layer corrected work functions: 3.368229, 2.510424 eV

Showing only first 2 kpts
 Kpt  Band  Eigenvalues  Occupancy
  0    28     -3.18733    1.98607
  0    29     -3.09687    1.91788
  0    30     -2.82336    0.17906
  0    31     -2.72160    0.02537

  1    28     -2.99268    1.48805
  1    29     -2.95707    1.17562
  1    30     -2.88469    0.50218
  1    31     -2.85461    0.31039


Fermi level: -2.93933

Gap: 0.020 eV
Transition (v -> c):
  (s=0, k=2, n=29, [0.12, 0.12, 0.00]) -> (s=0, k=7, n=30, [0.38, 0.38, 0.00])
Writing to output.gpw (mode='')


Forces in eV/Ang:
  0 Li    0.01867    0.00611   -0.27177
  1 Li   -0.01825    0.00565   -0.27367
  2 Li   -0.00024   -0.00937   -0.28204
  3 Li    0.01086   -0.00650   -0.27553
  4 Li   -0.01027   -0.00491   -0.27435
  5 Li   -0.00077    0.01915   -0.27627
  6 Li   -0.00414   -0.00028   -0.27050
  7 Li    0.00561   -0.00121   -0.27424
  8 Li   -0.00077   -0.00898   -0.26697
  9 Li   -0.00322   -0.00746    0.29315
 10 Li   -0.00092    0.01505    0.25067
 11 Li    0.00247   -0.01384    0.28953
 12 Li   -0.00420   -0.00054    0.31374
 13 Li    0.00110   -0.00697    0.23079
 14 Li    0.00410   -0.00015    0.31426
 15 Li   -0.00076    0.00749    0.25021
 16 Li   -0.00314   -0.00544    0.28554
 17 Li    0.00410    0.01244    0.24960
 18 Li   -0.01785    0.00934    0.06385
 19 Li    0.01714    0.00931    0.04040
 20 Li    0.00073   -0.01942   -0.21671
 21 Li   -0.02726   -0.02562    0.05930
 22 Li    0.02930   -0.02061    0.05572
 23 Li   -0.00321    0.04317   -0.08952
 24 Li   -0.00401    0.01622    0.04465
 25 Li    0.00242    0.01150    0.03458
 26 Li    0.00126   -0.00694    0.06213
 27 Li    0.02610   -0.15534   -0.19056
 28 Li   -0.00285    0.02545   -0.01237
 29 Li   -0.02197   -0.08820   -0.02365
 30 Li   -0.20877    0.09705    0.00556
 31 Li   -0.01411   -0.00994   -0.02275
 32 Li    0.18363    0.04230    0.15603
 33 Li    0.03041    0.06847   -0.02158
 34 Li   -0.00538   -0.01662   -0.00013
 35 Li   -0.02509    0.06401   -0.02221
 36 O     0.92355   -3.21772    9.15642
 37 C     2.44864   -0.38443    2.13839
 38 H    -0.06259   -0.07886    0.22575
 39 H     0.33929   -0.20064    0.59921
 40 H    -0.00813   -0.17451    0.39011
 41 H    -0.25934   -2.11188    1.35270
 42 N    -2.67150   -1.81619   -6.95088
 43 N    -0.66045    7.95403   -6.85113

System changes: positions 

Initializing position-dependent things.

Density initialized from wave functions
       .-----------------------.  
      /|                       |  
     / |                       |  
    /  |                       |  
   /   |                       |  
  /    |                       |  
 *     |                       |  
 |     |                       |  
 |     |                       |  
 |     |                       |  
 |     |                       |  
 |     |                       |  
 |     |                       |  
 |     |                       |  
 |H    Li              Li      |  
 | H   |             HO   C    |  
 |H  Li|     Li      LiN       |  
 |     |  Li      Li  N   Li   |  
 |     |   Li      Li      Li  |  
 |     |Li      Li      Li     |  
 |     | Li                    |  
 |   LLi     LLi     LLi       |  
 |     |  Li      Li      Li   |  
 | Li  |   Li      Li          |  
 |     |Li      Li      Li     |  
 Li    | Li      Li            |  
 |    Li      Li      Li       |  
 |     |                       |  
 |     |                       |  
 |     |                       |  
 |     |                       |  
 |     |                       |  
 |     |                       |  
 |     .-----------------------.  
 |    /                       /   
 |   /                       /    
 |  /                       /     
 | /                       /      
 |/                       /       
 *-----------------------*        

Positions:
   0 Li     1.617037    1.617037   10.000000    ( 0.0000,  0.0000,  0.0000)
   1 Li     4.851111    1.617037   10.000000    ( 0.0000,  0.0000,  0.0000)
   2 Li     8.085185    1.617037   10.000000    ( 0.0000,  0.0000,  0.0000)
   3 Li     1.617037    4.851111   10.000000    ( 0.0000,  0.0000,  0.0000)
   4 Li     4.851111    4.851111   10.000000    ( 0.0000,  0.0000,  0.0000)
   5 Li     8.085185    4.851111   10.000000    ( 0.0000,  0.0000,  0.0000)
   6 Li     1.617037    8.085185   10.000000    ( 0.0000,  0.0000,  0.0000)
   7 Li     4.851111    8.085185   10.000000    ( 0.0000,  0.0000,  0.0000)
   8 Li     8.085185    8.085185   10.000000    ( 0.0000,  0.0000,  0.0000)
   9 Li     0.000000    0.000000   11.617037    ( 0.0000,  0.0000,  0.0000)
  10 Li     3.234074    0.000000   11.617037    ( 0.0000,  0.0000,  0.0000)
  11 Li     6.468148    0.000000   11.617037    ( 0.0000,  0.0000,  0.0000)
  12 Li     0.000000    3.234074   11.617037    ( 0.0000,  0.0000,  0.0000)
  13 Li     3.234074    3.234074   11.617037    ( 0.0000,  0.0000,  0.0000)
  14 Li     6.468148    3.234074   11.617037    ( 0.0000,  0.0000,  0.0000)
  15 Li     0.000000    6.468148   11.617037    ( 0.0000,  0.0000,  0.0000)
  16 Li     3.234074    6.468148   11.617037    ( 0.0000,  0.0000,  0.0000)
  17 Li     6.468148    6.468148   11.617037    ( 0.0000,  0.0000,  0.0000)
  18 Li     1.616712    1.617236   13.471039    ( 0.0000,  0.0000,  0.0000)
  19 Li     4.851411    1.617246   13.470502    ( 0.0000,  0.0000,  0.0000)
  20 Li     8.085208    1.616624   13.464966    ( 0.0000,  0.0000,  0.0000)
  21 Li     1.616440    4.850536   13.470995    ( 0.0000,  0.0000,  0.0000)
  22 Li     4.851762    4.850642   13.470924    ( 0.0000,  0.0000,  0.0000)
  23 Li     8.085102    4.852098   13.467631    ( 0.0000,  0.0000,  0.0000)
  24 Li     1.616931    8.085555   13.470718    ( 0.0000,  0.0000,  0.0000)
  25 Li     4.851181    8.085447   13.470490    ( 0.0000,  0.0000,  0.0000)
  26 Li     8.085215    8.085000   13.471080    ( 0.0000,  0.0000,  0.0000)
  27 Li     0.000412   -0.003122   15.442181    ( 0.0000,  0.0000,  0.0000)
  28 Li     3.234023    0.000494   15.445593    ( 0.0000,  0.0000,  0.0000)
  29 Li     6.467875   -0.001651   15.445775    ( 0.0000,  0.0000,  0.0000)
  30 Li    -0.005172    3.235827   15.446916    ( 0.0000,  0.0000,  0.0000)
  31 Li     3.233749    3.233910   15.445364    ( 0.0000,  0.0000,  0.0000)
  32 Li     6.472786    3.234569   15.450301    ( 0.0000,  0.0000,  0.0000)
  33 Li     0.000693    6.469661   15.445479    ( 0.0000,  0.0000,  0.0000)
  34 Li     3.233964    6.467796   15.445926    ( 0.0000,  0.0000,  0.0000)
  35 Li     6.467564    6.469555   15.445484    ( 0.0000,  0.0000,  0.0000)
  36 O      8.111146    1.573012   18.580646    ( 0.0000,  0.0000,  0.0000)
  37 C      9.552122    1.593365   18.485511    ( 0.0000,  0.0000,  0.0000)
  38 H      9.918789    0.850518   17.770571    ( 0.0000,  0.0000,  0.0000)
  39 H      9.930776    1.418434   19.473149    ( 0.0000,  0.0000,  0.0000)
  40 H      9.834282    2.584451   18.127340    ( 0.0000,  0.0000,  0.0000)
  41 H      7.767324    0.707019   18.766111    ( 0.0000,  0.0000,  0.0000)
  42 N      8.031215    1.657774   17.083645    ( 0.0000,  0.0000,  0.0000)
  43 N      8.071806    2.781038   17.074640    ( 0.0000,  0.0000,  0.0000)

Unit cell:
           periodic     x           y           z      points  spacing
  1. axis:    yes    9.702222    0.000000    0.000000    60     0.1617
  2. axis:    yes    0.000000    9.702222    0.000000    60     0.1617
  3. axis:    no     0.000000    0.000000   26.601111   168     0.1583

  Lengths:   9.702222   9.702222  26.601111
  Angles:   90.000000  90.000000  90.000000

Effective grid spacing dv^(1/3) = 0.1606

     iter     time        total  log10-change:
                         energy  eigst   dens
iter:   1 11:51:39  -277.635536  -0.49
iter:   2 11:51:46  -277.596663  -0.82  -1.66
iter:   3 11:51:54  -277.585304  -1.24  -1.79
iter:   4 11:52:08  -277.563223  -1.26  -2.09
Writing to output.gpw (mode='')

iter:   5 11:52:15  -277.613536  -1.21  -2.25
iter:   6 11:52:22  -277.644242  -1.24  -1.98
iter:   7 11:52:29  -277.568762  -1.68  -1.86
iter:   8 11:52:36  -277.551845  -1.35  -2.14
iter:   9 11:52:43  -277.561796c -1.79  -2.31
Writing to output.gpw (mode='')

iter:  10 11:52:50  -277.578039c -1.81  -2.27
iter:  11 11:52:57  -277.550267c -1.93  -2.05
iter:  12 11:53:06  -277.549575c -1.92  -2.50
iter:  13 11:53:13  -277.556170c -2.72  -2.58
iter:  14 11:53:20  -277.551922c -2.72  -2.47
Writing to output.gpw (mode='')

iter:  15 11:53:27  -277.550994c -2.78  -2.79
iter:  16 11:53:34  -277.550744c -2.93  -2.98
iter:  17 11:53:41  -277.550405c -3.08  -3.08
iter:  18 11:53:48  -277.550576c -3.63  -3.08
iter:  19 11:53:55  -277.550632c -3.76  -3.16
Writing to output.gpw (mode='')

iter:  20 11:54:03  -277.550681c -3.75  -3.19
iter:  21 11:54:10  -277.550737c -3.95  -3.47
iter:  22 11:54:17  -277.550620c -4.05  -3.43
iter:  23 11:54:24  -277.550691c -4.51  -3.55
iter:  24 11:54:35  -277.550680c -4.42  -3.57
Writing to output.gpw (mode='')

iter:  25 11:54:46  -277.550715c -4.63  -3.78
iter:  26 11:54:53  -277.550667c -4.61  -3.86
iter:  27 11:55:00  -277.550725c -4.70  -3.89
iter:  28 11:55:07  -277.550729c -4.84  -3.96
iter:  29 11:55:14  -277.550717c -4.97  -4.00c
Writing to output.gpw (mode='')

iter:  30 11:55:21  -277.550717c -5.25  -4.14c
iter:  31 11:55:29  -277.550739c -5.11  -4.18c
iter:  32 11:55:36  -277.550728c -5.33  -4.28c
iter:  33 11:55:43  -277.550735c -5.56  -4.33c
iter:  34 11:55:50  -277.550737c -5.52  -4.55c
Writing to output.gpw (mode='')

iter:  35 11:55:57  -277.550737c -5.55  -4.56c
iter:  36 11:56:04  -277.550737c -5.66  -4.68c
iter:  37 11:56:11  -277.550740c -5.75  -4.76c
iter:  38 11:56:18  -277.550739c -5.94  -4.77c
iter:  39 11:56:25  -277.550742c -5.90  -4.79c
Writing to output.gpw (mode='')

iter:  40 11:56:32  -277.550742c -6.08  -4.79c
iter:  41 11:56:40  -277.550742c -6.19  -4.85c
iter:  42 11:56:47  -277.550743c -6.34  -4.90c
iter:  43 11:56:54  -277.550742c -6.21  -4.90c
iter:  44 11:57:07  -277.550743c -6.51  -4.78c
Writing to output.gpw (mode='')

iter:  45 11:57:14  -277.550746c -6.44  -4.95c
iter:  46 11:57:22  -277.550745c -6.91  -5.17c
iter:  47 11:57:29  -277.550747c -6.71  -5.20c
iter:  48 11:57:36  -277.550746c -6.80  -5.17c
iter:  49 11:57:43  -277.550747c -6.74  -5.47c
Writing to output.gpw (mode='')

iter:  50 11:57:50  -277.550747c -6.79  -5.36c
iter:  51 11:57:57  -277.550748c -6.99  -5.35c
iter:  52 11:58:04  -277.550748c -7.19  -5.59c
iter:  53 11:58:11  -277.550747c -7.27  -5.67c
iter:  54 11:58:18  -277.550747c -7.24  -5.71c
Writing to output.gpw (mode='')

iter:  55 11:58:25  -277.550748c -7.15  -5.80c
iter:  56 11:58:32  -277.550748c -7.37  -5.98c
iter:  57 11:58:39  -277.550748c -7.48c -6.04c

Converged after 57 iterations.

Dipole moment: (-1.440580, -4.990350, 0.425001) |e|*Ang

Energy contributions relative to reference atoms: (reference = -13382.245603)

Kinetic:       +159.278789
Potential:     -142.986650
External:        +0.000000
XC:            -294.439445
Entropy (-ST):   -0.159959
Local:           +0.676537
--------------------------
Free energy:   -277.630727
Extrapolated:  -277.550748

Dipole-layer corrected work functions: 3.369959, 2.552961 eV

Showing only first 2 kpts
 Kpt  Band  Eigenvalues  Occupancy
  0    28     -3.21060    1.98638
  0    29     -3.12087    1.92078
  0    30     -2.84357    0.17290
  0    31     -2.73647    0.02198

  1    28     -3.01326    1.47618
  1    29     -2.97954    1.17882
  1    30     -2.91114    0.53536
  1    31     -2.87646    0.30895


Fermi level: -2.96146

Gap: 0.018 eV
Transition (v -> c):
  (s=0, k=2, n=29, [0.12, 0.12, 0.00]) -> (s=0, k=7, n=30, [0.38, 0.38, 0.00])
Writing to output.gpw (mode='')


Forces in eV/Ang:
  0 Li    0.02007    0.00634   -0.27170
  1 Li   -0.01951    0.00555   -0.27362
  2 Li   -0.00019   -0.00987   -0.28159
  3 Li    0.01068   -0.00662   -0.27569
  4 Li   -0.01053   -0.00484   -0.27467
  5 Li   -0.00080    0.02051   -0.27611
  6 Li   -0.00403   -0.00024   -0.27120
  7 Li    0.00559   -0.00110   -0.27447
  8 Li   -0.00094   -0.01018   -0.26667
  9 Li   -0.00269   -0.00792    0.29252
 10 Li   -0.00161    0.01558    0.25012
 11 Li    0.00194   -0.01422    0.28889
 12 Li   -0.00414   -0.00053    0.31404
 13 Li    0.00074   -0.00708    0.23017
 14 Li    0.00438   -0.00063    0.31588
 15 Li   -0.00084    0.00838    0.24894
 16 Li   -0.00291   -0.00614    0.28532
 17 Li    0.00427    0.01376    0.24820
 18 Li   -0.01881    0.00968    0.06300
 19 Li    0.01739    0.01003    0.04250
 20 Li    0.00070   -0.02202   -0.21817
 21 Li   -0.02835   -0.02607    0.06059
 22 Li    0.03085   -0.02135    0.05700
 23 Li   -0.00345    0.04317   -0.08589
 24 Li   -0.00270    0.01585    0.04347
 25 Li    0.00181    0.01126    0.03424
 26 Li    0.00108   -0.00561    0.06232
 27 Li    0.03499   -0.15744   -0.19082
 28 Li   -0.00017    0.02501   -0.01388
 29 Li   -0.02246   -0.08760   -0.02738
 30 Li   -0.15913    0.10233   -0.02613
 31 Li   -0.01310   -0.00950   -0.02400
 32 Li    0.13454    0.04449    0.11773
 33 Li    0.02675    0.06587   -0.02206
 34 Li   -0.00498   -0.01630   -0.00050
 35 Li   -0.02208    0.06135   -0.02323
 36 O     0.84922   -2.65005    8.26985
 37 C     1.95997   -0.40125    1.95215
 38 H    -0.04098   -0.08437    0.23131
 39 H     0.44480   -0.18087    0.50558
 40 H    -0.01410   -0.22001    0.42066
 41 H    -0.11544   -1.79820    1.14169
 42 N    -2.44608   -1.78487   -6.49227
 43 N    -0.57955    7.04392   -5.86377

System changes: positions 

Initializing position-dependent things.

Density initialized from wave functions
       .-----------------------.  
      /|                       |  
     / |                       |  
    /  |                       |  
   /   |                       |  
  /    |                       |  
 *     |                       |  
 |     |                       |  
 |     |                       |  
 |     |                       |  
 |     |                       |  
 |     |                       |  
 |     |                       |  
 |     |                       |  
 |H    Li              Li      |  
 | H   |             HO   C    |  
 |H  Li|     Li      LiN       |  
 |     |  Li      Li  N   Li   |  
 |     |   Li      Li      Li  |  
 |     |Li      Li      Li     |  
 |     | Li                    |  
 |   LLi     LLi     LLi       |  
 |     |  Li      Li      Li   |  
 | Li  |   Li      Li          |  
 |     |Li      Li      Li     |  
 Li    | Li      Li            |  
 |    Li      Li      Li       |  
 |     |                       |  
 |     |                       |  
 |     |                       |  
 |     |                       |  
 |     |                       |  
 |     |                       |  
 |     .-----------------------.  
 |    /                       /   
 |   /                       /    
 |  /                       /     
 | /                       /      
 |/                       /       
 *-----------------------*        

Positions:
   0 Li     1.617037    1.617037   10.000000    ( 0.0000,  0.0000,  0.0000)
   1 Li     4.851111    1.617037   10.000000    ( 0.0000,  0.0000,  0.0000)
   2 Li     8.085185    1.617037   10.000000    ( 0.0000,  0.0000,  0.0000)
   3 Li     1.617037    4.851111   10.000000    ( 0.0000,  0.0000,  0.0000)
   4 Li     4.851111    4.851111   10.000000    ( 0.0000,  0.0000,  0.0000)
   5 Li     8.085185    4.851111   10.000000    ( 0.0000,  0.0000,  0.0000)
   6 Li     1.617037    8.085185   10.000000    ( 0.0000,  0.0000,  0.0000)
   7 Li     4.851111    8.085185   10.000000    ( 0.0000,  0.0000,  0.0000)
   8 Li     8.085185    8.085185   10.000000    ( 0.0000,  0.0000,  0.0000)
   9 Li     0.000000    0.000000   11.617037    ( 0.0000,  0.0000,  0.0000)
  10 Li     3.234074    0.000000   11.617037    ( 0.0000,  0.0000,  0.0000)
  11 Li     6.468148    0.000000   11.617037    ( 0.0000,  0.0000,  0.0000)
  12 Li     0.000000    3.234074   11.617037    ( 0.0000,  0.0000,  0.0000)
  13 Li     3.234074    3.234074   11.617037    ( 0.0000,  0.0000,  0.0000)
  14 Li     6.468148    3.234074   11.617037    ( 0.0000,  0.0000,  0.0000)
  15 Li     0.000000    6.468148   11.617037    ( 0.0000,  0.0000,  0.0000)
  16 Li     3.234074    6.468148   11.617037    ( 0.0000,  0.0000,  0.0000)
  17 Li     6.468148    6.468148   11.617037    ( 0.0000,  0.0000,  0.0000)
  18 Li     1.616550    1.617328   13.471567    ( 0.0000,  0.0000,  0.0000)
  19 Li     4.851542    1.617351   13.470869    ( 0.0000,  0.0000,  0.0000)
  20 Li     8.085218    1.616384   13.462966    ( 0.0000,  0.0000,  0.0000)
  21 Li     1.616163    4.850287   13.471550    ( 0.0000,  0.0000,  0.0000)
  22 Li     4.852071    4.850430   13.471447    ( 0.0000,  0.0000,  0.0000)
  23 Li     8.085062    4.852513   13.466839    ( 0.0000,  0.0000,  0.0000)
  24 Li     1.616920    8.085699   13.471090    ( 0.0000,  0.0000,  0.0000)
  25 Li     4.851192    8.085551   13.470788    ( 0.0000,  0.0000,  0.0000)
  26 Li     8.085224    8.084960   13.471645    ( 0.0000,  0.0000,  0.0000)
  27 Li     0.000813   -0.004481   15.440589    ( 0.0000,  0.0000,  0.0000)
  28 Li     3.234067    0.000693   15.445427    ( 0.0000,  0.0000,  0.0000)
  29 Li     6.467733   -0.002343   15.445587    ( 0.0000,  0.0000,  0.0000)
  30 Li    -0.006133    3.236668   15.446470    ( 0.0000,  0.0000,  0.0000)
  31 Li     3.233627    3.233848   15.445110    ( 0.0000,  0.0000,  0.0000)
  32 Li     6.473537    3.234826   15.451091    ( 0.0000,  0.0000,  0.0000)
  33 Li     0.000887    6.470231   15.445290    ( 0.0000,  0.0000,  0.0000)
  34 Li     3.233926    6.467657   15.445920    ( 0.0000,  0.0000,  0.0000)
  35 Li     6.467401    6.470088   15.445283    ( 0.0000,  0.0000,  0.0000)
  36 O      8.119504    1.568890   18.612752    ( 0.0000,  0.0000,  0.0000)
  37 C      9.552874    1.589293   18.493234    ( 0.0000,  0.0000,  0.0000)
  38 H      9.919450    0.849581   17.773090    ( 0.0000,  0.0000,  0.0000)
  39 H      9.938858    1.416732   19.479801    ( 0.0000,  0.0000,  0.0000)
  40 H      9.834339    2.582357   18.131771    ( 0.0000,  0.0000,  0.0000)
  41 H      7.769358    0.698327   18.771694    ( 0.0000,  0.0000,  0.0000)
  42 N      8.015803    1.672210   17.049673    ( 0.0000,  0.0000,  0.0000)
  43 N      8.067857    2.787700   17.051547    ( 0.0000,  0.0000,  0.0000)

Unit cell:
           periodic     x           y           z      points  spacing
  1. axis:    yes    9.702222    0.000000    0.000000    60     0.1617
  2. axis:    yes    0.000000    9.702222    0.000000    60     0.1617
  3. axis:    no     0.000000    0.000000   26.601111   168     0.1583

  Lengths:   9.702222   9.702222  26.601111
  Angles:   90.000000  90.000000  90.000000

Effective grid spacing dv^(1/3) = 0.1606

     iter     time        total  log10-change:
                         energy  eigst   dens
iter:   1 11:58:48  -278.342902  -0.57
iter:   2 11:58:55  -278.308181  -0.91  -1.69
iter:   3 11:59:02  -278.297797  -1.34  -1.83
iter:   4 11:59:09  -278.280548c -1.38  -2.13
Writing to output.gpw (mode='')

iter:   5 11:59:17  -278.326143  -1.26  -2.28
iter:   6 11:59:24  -278.340708  -1.47  -1.98
iter:   7 11:59:31  -278.274410  -1.66  -1.91
iter:   8 11:59:38  -278.268149  -1.41  -2.30
iter:   9 11:59:45  -278.277081c -1.79  -2.31
Writing to output.gpw (mode='')

iter:  10 11:59:52  -278.289923c -1.85  -2.32
iter:  11 11:59:59  -278.266541c -1.96  -2.10
iter:  12 12:00:07  -278.266580c -2.01  -2.62
iter:  13 12:00:14  -278.273028c -2.66  -2.61
iter:  14 12:00:21  -278.269081c -2.86  -2.51
Writing to output.gpw (mode='')

iter:  15 12:00:28  -278.266974c -2.52  -2.78
iter:  16 12:00:35  -278.267513c -3.24  -2.94
iter:  17 12:00:42  -278.267244c -3.49  -3.21
iter:  18 12:00:49  -278.268200c -3.55  -3.21
iter:  19 12:00:56  -278.267502c -3.75  -3.13
Writing to output.gpw (mode='')

iter:  20 12:01:04  -278.267546c -3.74  -3.53
iter:  21 12:01:11  -278.267536c -4.26  -3.50
iter:  22 12:01:18  -278.267491c -3.99  -3.53
iter:  23 12:01:25  -278.267472c -4.13  -3.42
iter:  24 12:01:32  -278.267566c -4.23  -3.60
Writing to output.gpw (mode='')

iter:  25 12:01:39  -278.267613c -4.44  -3.67
iter:  26 12:01:46  -278.267605c -4.60  -3.70
iter:  27 12:01:53  -278.267614c -4.78  -3.93
iter:  28 12:02:08  -278.267632c -4.72  -4.09c
iter:  29 12:02:15  -278.267626c -5.10  -4.12c
Writing to output.gpw (mode='')

iter:  30 12:02:22  -278.267629c -4.98  -4.15c
iter:  31 12:02:29  -278.267649c -5.03  -4.18c
iter:  32 12:02:36  -278.267643c -5.40  -4.31c
iter:  33 12:02:43  -278.267640c -5.28  -4.35c
iter:  34 12:02:50  -278.267640c -5.25  -4.36c
Writing to output.gpw (mode='')

iter:  35 12:02:57  -278.267653c -5.43  -4.36c
iter:  36 12:03:04  -278.267650c -5.40  -4.39c
iter:  37 12:03:11  -278.267645c -5.68  -4.42c
iter:  38 12:03:18  -278.267645c -5.79  -4.51c
iter:  39 12:03:26  -278.267650c -5.75  -4.60c
Writing to output.gpw (mode='')

iter:  40 12:03:33  -278.267649c -5.93  -4.72c
iter:  41 12:03:40  -278.267650c -5.94  -4.82c
iter:  42 12:03:47  -278.267652c -6.07  -5.04c
iter:  43 12:03:54  -278.267653c -6.27  -5.06c
iter:  44 12:04:01  -278.267653c -6.26  -5.15c
Writing to output.gpw (mode='')

iter:  45 12:04:08  -278.267653c -6.33  -5.15c
iter:  46 12:04:15  -278.267652c -6.32  -5.09c
iter:  47 12:04:22  -278.267653c -6.58  -5.02c
iter:  48 12:04:29  -278.267653c -6.53  -5.06c
iter:  49 12:04:36  -278.267654c -6.62  -5.16c
Writing to output.gpw (mode='')

iter:  50 12:04:44  -278.267656c -6.69  -5.21c
iter:  51 12:04:51  -278.267656c -6.68  -5.29c
iter:  52 12:04:58  -278.267656c -6.90  -5.35c
iter:  53 12:05:05  -278.267657c -6.97  -5.27c
iter:  54 12:05:12  -278.267657c -7.01  -5.37c
Writing to output.gpw (mode='')

iter:  55 12:05:19  -278.267657c -7.28  -5.39c
iter:  56 12:05:26  -278.267658c -7.29  -5.31c
iter:  57 12:05:33  -278.267657c -7.36  -5.60c
iter:  58 12:05:40  -278.267658c -7.41c -5.80c

Converged after 58 iterations.

Dipole moment: (-1.398178, -4.868899, 0.393958) |e|*Ang

Energy contributions relative to reference atoms: (reference = -13382.245603)

Kinetic:       +157.625566
Potential:     -142.278803
External:        +0.000000
XC:            -294.213076
Entropy (-ST):   -0.159629
Local:           +0.678470
--------------------------
Free energy:   -278.347472
Extrapolated:  -278.267658

Dipole-layer corrected work functions: 3.372398, 2.615077 eV

Showing only first 2 kpts
 Kpt  Band  Eigenvalues  Occupancy
  0    28     -3.24360    1.98658
  0    29     -3.15487    1.92335
  0    30     -2.87511    0.17057
  0    31     -2.76372    0.01990

  1    28     -3.04217    1.44973
  1    29     -3.01240    1.18447
  1    30     -2.94816    0.57335
  1    31     -2.90720    0.30100


Fermi level: -2.99374

Gap: 0.017 eV
Transition (v -> c):
  (s=0, k=2, n=29, [0.12, 0.12, 0.00]) -> (s=0, k=7, n=30, [0.38, 0.38, 0.00])
Writing to output.gpw (mode='')


Forces in eV/Ang:
  0 Li    0.02138    0.00641   -0.27174
  1 Li   -0.02062    0.00541   -0.27349
  2 Li   -0.00023   -0.01024   -0.28112
  3 Li    0.01039   -0.00646   -0.27586
  4 Li   -0.01068   -0.00460   -0.27501
  5 Li   -0.00091    0.02171   -0.27598
  6 Li   -0.00385   -0.00014   -0.27206
  7 Li    0.00537   -0.00093   -0.27476
  8 Li   -0.00105   -0.01148   -0.26638
  9 Li   -0.00219   -0.00830    0.29169
 10 Li   -0.00226    0.01595    0.24966
 11 Li    0.00137   -0.01445    0.28801
 12 Li   -0.00417   -0.00041    0.31431
 13 Li    0.00054   -0.00722    0.22985
 14 Li    0.00456   -0.00095    0.31712
 15 Li   -0.00087    0.00938    0.24770
 16 Li   -0.00255   -0.00694    0.28451
 17 Li    0.00436    0.01496    0.24683
 18 Li   -0.01936    0.00984    0.06126
 19 Li    0.01760    0.01039    0.04446
 20 Li    0.00046   -0.02364   -0.21660
 21 Li   -0.02875   -0.02622    0.06124
 22 Li    0.03179   -0.02179    0.05764
 23 Li   -0.00365    0.04239   -0.08059
 24 Li   -0.00138    0.01515    0.04232
 25 Li    0.00136    0.01085    0.03401
 26 Li    0.00086   -0.00428    0.06164
 27 Li    0.04259   -0.15763   -0.18791
 28 Li    0.00244    0.02436   -0.01546
 29 Li   -0.02155   -0.08475   -0.02892
 30 Li   -0.11194    0.10649   -0.05090
 31 Li   -0.01146   -0.00897   -0.02548
 32 Li    0.08632    0.04629    0.08337
 33 Li    0.02315    0.06224   -0.02308
 34 Li   -0.00457   -0.01568   -0.00127
 35 Li   -0.01925    0.05719   -0.02457
 36 O     0.70654   -2.31894    7.46434
 37 C     1.65321   -0.36852    1.79111
 38 H    -0.04809   -0.08018    0.24619
 39 H     0.52863   -0.16677    0.41698
 40 H    -0.02642   -0.26779    0.44229
 41 H     0.01251   -1.48054    0.96101
 42 N    -2.28033   -1.86419   -6.04360
 43 N    -0.52487    6.52476   -5.06309

System changes: positions 

Initializing position-dependent things.

Density initialized from wave functions
       .-----------------------.  
      /|                       |  
     / |                       |  
    /  |                       |  
   /   |                       |  
  /    |                       |  
 *     |                       |  
 |     |                       |  
 |     |                       |  
 |     |                       |  
 |     |                       |  
 |     |                       |  
 |     |                       |  
 |     |                       |  
 |H    Li              Li      |  
 | H   |             HO   C    |  
 |H  Li|     Li      LiN       |  
 |     |  Li      Li  N   Li   |  
 |     |   Li      Li      Li  |  
 |     |Li      Li      Li     |  
 |     | Li                    |  
 |   LLi     LLi     LLi       |  
 |     |  Li      Li      Li   |  
 | Li  |   Li      Li          |  
 |     |Li      Li      Li     |  
 Li    | Li      Li            |  
 |    Li      Li      Li       |  
 |     |                       |  
 |     |                       |  
 |     |                       |  
 |     |                       |  
 |     |                       |  
 |     |                       |  
 |     .-----------------------.  
 |    /                       /   
 |   /                       /    
 |  /                       /     
 | /                       /      
 |/                       /       
 *-----------------------*        

Positions:
   0 Li     1.617037    1.617037   10.000000    ( 0.0000,  0.0000,  0.0000)
   1 Li     4.851111    1.617037   10.000000    ( 0.0000,  0.0000,  0.0000)
   2 Li     8.085185    1.617037   10.000000    ( 0.0000,  0.0000,  0.0000)
[...]
Writing to output.gpw (mode='')

iter:  15 21:53:54  -284.429397c -5.42  -3.73
iter:  16 21:54:01  -284.429412c -5.01  -3.87
iter:  17 21:54:08  -284.429412c -5.63  -3.96
iter:  18 21:54:15  -284.429416c -5.45  -4.10c
iter:  19 21:54:22  -284.429410c -6.36  -4.14c
Writing to output.gpw (mode='')

iter:  20 21:54:35  -284.429408c -6.04  -4.28c
iter:  21 21:54:45  -284.429410c -6.53  -4.38c
iter:  22 21:54:53  -284.429414c -6.00  -4.53c
iter:  23 21:55:00  -284.429411c -6.24  -4.32c
iter:  24 21:55:07  -284.429411c -7.01  -4.71c
Writing to output.gpw (mode='')

iter:  25 21:55:14  -284.429410c -6.94  -4.82c
iter:  26 21:55:21  -284.429410c -6.94  -4.95c
iter:  27 21:55:28  -284.429410c -7.29  -5.08c
iter:  28 21:55:35  -284.429410c -7.60c -5.22c

Converged after 28 iterations.

Dipole moment: (-2.720249, -4.325527, -0.188770) |e|*Ang

Energy contributions relative to reference atoms: (reference = -13382.245603)

Kinetic:       +130.068141
Potential:     -120.964089
External:        +0.000000
XC:            -294.176875
Entropy (-ST):   -0.160487
Local:           +0.723657
--------------------------
Free energy:   -284.509654
Extrapolated:  -284.429410

Dipole-layer corrected work functions: 3.410192, 3.773074 eV

Showing only first 2 kpts
 Kpt  Band  Eigenvalues  Occupancy
  0    28     -3.82871    1.98270
  0    29     -3.63123    1.37647
  0    30     -3.55778    0.67384
  0    31     -3.37847    0.02776

  1    28     -3.83140    1.98360
  1    29     -3.75215    1.92245
  1    30     -3.52370    0.40889
  1    31     -3.33998    0.01295


Fermi level: -3.59163

No gap
Writing to output.gpw (mode='')


Forces in eV/Ang:
  0 Li   -0.00443    0.00956   -0.29596
  1 Li    0.00345   -0.01152   -0.29380
  2 Li   -0.00037    0.00071   -0.25528
  3 Li    0.00810    0.00745   -0.29259
  4 Li   -0.01656    0.01356   -0.28537
  5 Li    0.01034   -0.00412   -0.29461
  6 Li    0.01344   -0.01694   -0.28422
  7 Li   -0.00854   -0.00783   -0.29125
  8 Li   -0.01135    0.00404   -0.29420
  9 Li   -0.04567    0.04514    0.27292
 10 Li   -0.00502    0.01094    0.27586
 11 Li    0.04023    0.03889    0.32168
 12 Li   -0.03894   -0.03818    0.33732
 13 Li    0.01849   -0.01156    0.28430
 14 Li    0.04295   -0.04837    0.27197
 15 Li   -0.01389    0.01424    0.28205
 16 Li    0.01617    0.01735    0.28271
 17 Li    0.00776   -0.01284    0.27245
 18 Li   -0.00937    0.00183    0.01074
 19 Li    0.01659   -0.00223    0.00365
 20 Li    0.00166    0.00408   -0.00782
 21 Li    0.00247   -0.00413   -0.00697
 22 Li   -0.00560    0.01409   -0.00640
 23 Li    0.01000   -0.00712    0.01217
 24 Li    0.01625   -0.00802   -0.00130
 25 Li   -0.00318   -0.00918    0.00149
 26 Li    0.00458    0.02337    0.02265
 27 Li   -0.02326   -0.00168   -0.02952
 28 Li   -0.00919   -0.00703    0.00187
 29 Li    0.01169    0.01586   -0.00330
 30 Li    0.00417    0.00646    0.00384
 31 Li   -0.00893    0.00895    0.01300
 32 Li    0.02362   -0.00619    0.01399
 33 Li   -0.00493    0.00171    0.00463
 34 Li    0.00752    0.00259    0.00340
 35 Li   -0.00870   -0.00244    0.00895
 36 O     0.02715   -0.02587   -0.08183
 37 C    -0.02433   -0.00938    0.00224
 38 H     0.00845   -0.00142    0.00595
 39 H     0.00600   -0.00069    0.00749
 40 H    -0.00120   -0.01626    0.01586
 41 H     0.01265    0.00485    0.06426
 42 N     0.04196   -0.00906    0.01824
 43 N    -0.04949   -0.00848   -0.03856

System changes: positions 

Initializing position-dependent things.

Density initialized from wave functions
       .-----------------------.  
      /|                       |  
     / |                       |  
    /  |                       |  
   /   |                       |  
  /    |                       |  
 *     |                       |  
 |     |                       |  
 |     |                       |  
 |     |                       |  
 |     |                       |  
 |     |                       |  
 |     |                       |  
 |H    |                       |  
 |     |       Li      Li      |  
 | H   |              O   C    |  
 | H Li|     Li      Hi        |  
 |     |  Li      Li      Li   |  
 | Li  |   Li       Li N       |  
 |     |Li      Li   N  Li     |  
 |     |                 Li    |  
 |   LLi     LLi     LLi       |  
 |     |  Li      Li      Li   |  
 | Li  |   Li      Li          |  
 |     |Li      Li      Li     |  
 Li    | Li      Li            |  
 |    Li      Li      Li       |  
 |     |                       |  
 |     |                       |  
 |     |                       |  
 |     |                       |  
 |     |                       |  
 |     |                       |  
 |     .-----------------------.  
 |    /                       /   
 |   /                       /    
 |  /                       /     
 | /                       /      
 |/                       /       
 *-----------------------*        

Positions:
   0 Li     1.617037    1.617037   10.000000    ( 0.0000,  0.0000,  0.0000)
   1 Li     4.851111    1.617037   10.000000    ( 0.0000,  0.0000,  0.0000)
   2 Li     8.085185    1.617037   10.000000    ( 0.0000,  0.0000,  0.0000)
   3 Li     1.617037    4.851111   10.000000    ( 0.0000,  0.0000,  0.0000)
   4 Li     4.851111    4.851111   10.000000    ( 0.0000,  0.0000,  0.0000)
   5 Li     8.085185    4.851111   10.000000    ( 0.0000,  0.0000,  0.0000)
   6 Li     1.617037    8.085185   10.000000    ( 0.0000,  0.0000,  0.0000)
   7 Li     4.851111    8.085185   10.000000    ( 0.0000,  0.0000,  0.0000)
   8 Li     8.085185    8.085185   10.000000    ( 0.0000,  0.0000,  0.0000)
   9 Li     0.000000    0.000000   11.617037    ( 0.0000,  0.0000,  0.0000)
  10 Li     3.234074    0.000000   11.617037    ( 0.0000,  0.0000,  0.0000)
  11 Li     6.468148    0.000000   11.617037    ( 0.0000,  0.0000,  0.0000)
  12 Li     0.000000    3.234074   11.617037    ( 0.0000,  0.0000,  0.0000)
  13 Li     3.234074    3.234074   11.617037    ( 0.0000,  0.0000,  0.0000)
  14 Li     6.468148    3.234074   11.617037    ( 0.0000,  0.0000,  0.0000)
  15 Li     0.000000    6.468148   11.617037    ( 0.0000,  0.0000,  0.0000)
  16 Li     3.234074    6.468148   11.617037    ( 0.0000,  0.0000,  0.0000)
  17 Li     6.468148    6.468148   11.617037    ( 0.0000,  0.0000,  0.0000)
  18 Li     1.622509    1.660484   13.487726    ( 0.0000,  0.0000,  0.0000)
  19 Li     4.866776    1.568916   13.494309    ( 0.0000,  0.0000,  0.0000)
  20 Li     8.079384    1.606263   13.619720    ( 0.0000,  0.0000,  0.0000)
  21 Li     1.664718    4.910612   13.471144    ( 0.0000,  0.0000,  0.0000)
  22 Li     4.929100    4.778373   13.491431    ( 0.0000,  0.0000,  0.0000)
  23 Li     8.117627    4.843828   13.490337    ( 0.0000,  0.0000,  0.0000)
  24 Li     1.547517    8.170876   13.493776    ( 0.0000,  0.0000,  0.0000)
  25 Li     4.829346    8.058016   13.489353    ( 0.0000,  0.0000,  0.0000)
  26 Li     8.040060    8.085546   13.483703    ( 0.0000,  0.0000,  0.0000)
  27 Li    -0.192942    0.284889   15.572777    ( 0.0000,  0.0000,  0.0000)
  28 Li     3.132317   -0.050327   15.426667    ( 0.0000,  0.0000,  0.0000)
  29 Li     6.391562   -0.109082   15.523321    ( 0.0000,  0.0000,  0.0000)
  30 Li     0.146959    3.395351   15.442802    ( 0.0000,  0.0000,  0.0000)
  31 Li     3.404160    3.271550   15.411226    ( 0.0000,  0.0000,  0.0000)
  32 Li     6.734869    2.999408   15.589650    ( 0.0000,  0.0000,  0.0000)
  33 Li     0.048714    6.639431   15.426074    ( 0.0000,  0.0000,  0.0000)
  34 Li     3.222734    6.460706   15.427812    ( 0.0000,  0.0000,  0.0000)
  35 Li     6.420609    6.335358   15.428081    ( 0.0000,  0.0000,  0.0000)
  36 O      8.188253    1.045193   18.893526    ( 0.0000,  0.0000,  0.0000)
  37 C      9.583069    1.339969   18.933258    ( 0.0000,  0.0000,  0.0000)
  38 H     10.182975    0.575892   18.417089    ( 0.0000,  0.0000,  0.0000)
  39 H      9.874333    1.348816   19.983207    ( 0.0000,  0.0000,  0.0000)
  40 H      9.810575    2.319289   18.494998    ( 0.0000,  0.0000,  0.0000)
  41 H      7.903265    1.052761   17.969372    ( 0.0000,  0.0000,  0.0000)
  42 N      7.681002    1.198519   15.671903    ( 0.0000,  0.0000,  0.0000)
  43 N      8.570443    2.099321   15.610568    ( 0.0000,  0.0000,  0.0000)

Unit cell:
           periodic     x           y           z      points  spacing
  1. axis:    yes    9.702222    0.000000    0.000000    60     0.1617
  2. axis:    yes    0.000000    9.702222    0.000000    60     0.1617
  3. axis:    no     0.000000    0.000000   26.601111   168     0.1583

  Lengths:   9.702222   9.702222  26.601111
  Angles:   90.000000  90.000000  90.000000

Effective grid spacing dv^(1/3) = 0.1606

     iter     time        total  log10-change:
                         energy  eigst   dens
iter:   1 21:55:44  -284.430564  -2.59
iter:   2 21:55:51  -284.430373  -3.22  -2.67
iter:   3 21:55:58  -284.430137c -3.83  -2.84
iter:   4 21:56:05  -284.430096c -4.01  -3.12
Writing to output.gpw (mode='')

iter:   5 21:56:12  -284.429971c -3.74  -3.22
iter:   6 21:56:19  -284.429964c -3.87  -3.48
iter:   7 21:56:26  -284.429980c -4.63  -3.49
iter:   8 21:56:34  -284.430014c -4.66  -3.63
iter:   9 21:56:41  -284.430005c -4.71  -3.71
Writing to output.gpw (mode='')

iter:  10 21:56:48  -284.429989c -5.08  -3.88
iter:  11 21:56:55  -284.430007c -5.46  -3.95
iter:  12 21:57:08  -284.429993c -5.56  -3.95
iter:  13 21:57:15  -284.429984c -5.46  -4.16c
iter:  14 21:57:22  -284.429984c -6.15  -4.11c
Writing to output.gpw (mode='')

iter:  15 21:57:29  -284.429990c -5.94  -4.19c
iter:  16 21:57:36  -284.429987c -6.56  -4.42c
iter:  17 21:57:43  -284.429991c -6.42  -4.55c
iter:  18 21:57:50  -284.429991c -6.83  -4.70c
iter:  19 21:57:58  -284.429992c -6.94  -4.80c
Writing to output.gpw (mode='')

iter:  20 21:58:05  -284.429989c -7.15  -4.87c
iter:  21 21:58:12  -284.429990c -7.45c -4.99c

Converged after 21 iterations.

Dipole moment: (-2.713508, -4.321920, -0.187714) |e|*Ang

Energy contributions relative to reference atoms: (reference = -13382.245603)

Kinetic:       +130.222389
Potential:     -121.074642
External:        +0.000000
XC:            -294.221014
Entropy (-ST):   -0.160473
Local:           +0.723514
--------------------------
Free energy:   -284.510227
Extrapolated:  -284.429990

Dipole-layer corrected work functions: 3.410208, 3.771058 eV

Showing only first 2 kpts
 Kpt  Band  Eigenvalues  Occupancy
  0    28     -3.82767    1.98269
  0    29     -3.63027    1.37683
  0    30     -3.55670    0.67308
  0    31     -3.37745    0.02775

  1    28     -3.83022    1.98354
  1    29     -3.75137    1.92277
  1    30     -3.52283    0.40977
  1    31     -3.33896    0.01295


Fermi level: -3.59063

No gap
Writing to output.gpw (mode='')


Forces in eV/Ang:
  0 Li   -0.00449    0.00955   -0.29594
  1 Li    0.00352   -0.01144   -0.29367
  2 Li   -0.00045    0.00079   -0.25540
  3 Li    0.00814    0.00757   -0.29251
  4 Li   -0.01659    0.01351   -0.28541
  5 Li    0.01030   -0.00424   -0.29452
  6 Li    0.01342   -0.01697   -0.28429
  7 Li   -0.00850   -0.00776   -0.29108
  8 Li   -0.01137    0.00413   -0.29425
  9 Li   -0.04572    0.04491    0.27343
 10 Li   -0.00497    0.01084    0.27588
 11 Li    0.04058    0.03888    0.32159
 12 Li   -0.03842   -0.03817    0.33691
 13 Li    0.01816   -0.01194    0.28411
 14 Li    0.04326   -0.04843    0.27133
 15 Li   -0.01476    0.01414    0.28219
 16 Li    0.01673    0.01774    0.28238
 17 Li    0.00824   -0.01306    0.27259
 18 Li   -0.00880    0.00259    0.00962
 19 Li    0.01631   -0.00191    0.00501
 20 Li   -0.00097    0.00048   -0.01096
 21 Li    0.00262   -0.00539   -0.00547
 22 Li   -0.00538    0.01444   -0.00368
 23 Li    0.00911   -0.00492    0.01115
 24 Li    0.01665   -0.00761   -0.00043
 25 Li   -0.00462   -0.01011    0.00183
 26 Li    0.00558    0.02283    0.02163
 27 Li   -0.02433   -0.00423   -0.02704
 28 Li   -0.00754   -0.00738    0.00118
 29 Li    0.00399    0.00919   -0.00253
 30 Li    0.00629    0.00745    0.00207
 31 Li   -0.00882    0.00869    0.01142
 32 Li    0.01325    0.00020    0.01333
 33 Li   -0.00551    0.00110    0.00388
 34 Li    0.00782    0.00306    0.00224
 35 Li   -0.00839   -0.00275    0.00810
 36 O     0.01511   -0.04255   -0.01569
 37 C    -0.01781   -0.00808    0.00561
 38 H     0.00569    0.00179    0.01044
 39 H     0.01206    0.00168   -0.00543
 40 H     0.00771   -0.00863    0.01444
 41 H     0.00434    0.00375   -0.00591
 42 N     0.03878   -0.01049    0.00754
 43 N    -0.03049    0.00489   -0.03237

Timing:                                      incl.     excl.
-------------------------------------------------------------------
Density initialized from wave functions:     7.681     7.678   0.0% |
 Symmetrize density:                         0.003     0.003   0.0% |
Forces:                                     53.655    53.655   0.1% |
Hamiltonian:                               838.880     0.018   0.0% |
 Atomic:                                     0.030     0.029   0.0% |
  XC Correction:                             0.000     0.000   0.0% |
 Calculate atomic Hamiltonians:              0.049     0.049   0.0% |
 Communicate:                               11.208    11.208   0.0% |
 Hartree integrate/restrict:                 3.053     3.053   0.0% |
 Initialize Hamiltonian:                     0.000     0.000   0.0% |
 Poisson:                                   39.700    14.759   0.0% |
  Communicate from 1D:                       3.822     3.822   0.0% |
  Communicate from 2D:                       4.414     4.414   0.0% |
  Communicate to 1D:                         2.158     2.158   0.0% |
  Communicate to 2D:                         4.615     4.615   0.0% |
  FFT 1D:                                    5.053     5.053   0.0% |
  FFT 2D:                                    4.879     4.879   0.0% |
 XC 3D grid:                               784.176   119.459   0.3% |
  VdW-DF integral:                         664.718     5.323   0.0% |
   Convolution:                             58.025    58.025   0.2% |
   FFT:                                     25.370    25.370   0.1% |
   gather:                                 235.740   235.740   0.6% |
   hmm1:                                    21.238    21.238   0.1% |
   hmm2:                                    27.855    27.855   0.1% |
   iFFT:                                    26.153    26.153   0.1% |
   potential:                              261.385     7.058   0.0% |
    collect:                                41.888    41.888   0.1% |
    p1:                                    115.204   115.204   0.3% |
    p2:                                     42.453    42.453   0.1% |
    sum:                                    54.783    54.783   0.1% |
   splines:                                  3.628     3.628   0.0% |
 vbar:                                       0.647     0.647   0.0% |
LCAO initialization:                         1.013     0.183   0.0% |
 LCAO eigensolver:                           0.209     0.000   0.0% |
  Calculate projections:                     0.000     0.000   0.0% |
  DenseAtomicCorrection:                     0.000     0.000   0.0% |
  Distribute overlap matrix:                 0.177     0.177   0.0% |
  Orbital Layouts:                           0.031     0.031   0.0% |
  Potential matrix:                          0.001     0.001   0.0% |
  Sum over cells:                            0.001     0.001   0.0% |
 LCAO to grid:                               0.530     0.530   0.0% |
 Set positions (LCAO WFS):                   0.091     0.051   0.0% |
  Basic WFS set positions:                   0.001     0.001   0.0% |
  Basis functions set positions:             0.000     0.000   0.0% |
  P tci:                                     0.000     0.000   0.0% |
  ST tci:                                    0.011     0.011   0.0% |
  mktci:                                     0.028     0.028   0.0% |
Redistribute:                                0.091     0.091   0.0% |
SCF-cycle:                               37608.727   541.605   1.4% ||
 Davidson:                                8786.976  2616.866   6.8% |--|
  Apply hamiltonian:                       556.748   556.748   1.4% ||
  Subspace diag:                          1677.817     0.625   0.0% |
   calc_h_matrix:                          811.774   231.289   0.6% |
    Apply hamiltonian:                     580.485   580.485   1.5% ||
   diagonalize:                             99.753    99.753   0.3% |
   rotate_psi:                             765.665   765.665   2.0% ||
  calc. matrices:                         2701.760  1341.759   3.5% ||
   Apply hamiltonian:                     1360.000  1360.000   3.5% ||
  diagonalize:                              22.081    22.081   0.1% |
  rotate_psi:                             1211.705  1211.705   3.1% ||
 Density:                                  173.992     0.129   0.0% |
  Atomic density matrices:                  19.356    19.356   0.1% |
  Mix:                                      79.596    79.596   0.2% |
  Multipole moments:                         6.698     6.698   0.0% |
  Pseudo density:                           68.213    68.103   0.2% |
   Symmetrize density:                       0.109     0.109   0.0% |
 Hamiltonian:                            28082.790     0.624   0.0% |
  Atomic:                                    1.137     1.124   0.0% |
   XC Correction:                            0.013     0.013   0.0% |
  Calculate atomic Hamiltonians:             1.731     1.731   0.0% |
  Communicate:                             397.646   397.646   1.0% |
  Hartree integrate/restrict:              102.608   102.608   0.3% |
  Poisson:                                1346.541   499.647   1.3% ||
   Communicate from 1D:                    134.065   134.065   0.3% |
   Communicate from 2D:                    131.684   131.684   0.3% |
   Communicate to 1D:                       74.885    74.885   0.2% |
   Communicate to 2D:                      157.579   157.579   0.4% |
   FFT 1D:                                 176.491   176.491   0.5% |
   FFT 2D:                                 172.191   172.191   0.4% |
  XC 3D grid:                            26209.757  4101.292  10.6% |---|
   VdW-DF integral:                      22108.465   183.274   0.5% |
    Convolution:                          1994.868  1994.868   5.2% |-|
    FFT:                                   873.572   873.572   2.3% ||
    gather:                               7615.898  7615.898  19.7% |-------|
    hmm1:                                  734.425   734.425   1.9% ||
    hmm2:                                  959.688   959.688   2.5% ||
    iFFT:                                  899.124   899.124   2.3% ||
    potential:                            8847.567   243.611   0.6% |
     collect:                             1357.728  1357.728   3.5% ||
     p1:                                  3943.551  3943.551  10.2% |---|
     p2:                                  1469.938  1469.938   3.8% |-|
     sum:                                 1832.740  1832.740   4.7% |-|
    splines:                                 0.049     0.049   0.0% |
  vbar:                                     22.746    22.746   0.1% |
 Orthonormalize:                            23.363     0.019   0.0% |
  calc_s_matrix:                             3.159     3.159   0.0% |
  inverse-cholesky:                          7.024     7.024   0.0% |
  projections:                               0.003     0.003   0.0% |
  rotate_psi_s:                             13.157    13.157   0.0% |
Set symmetry:                                0.019     0.019   0.0% |
Other:                                     132.390   132.390   0.3% |
-------------------------------------------------------------------
Total:                                             38642.456 100.0%

Memory usage: 1.12 GiB
Date: Fri Mar 10 21:58:13 2023
