
  ___ ___ ___ _ _ _  
 |   |   |_  | | | | 
 | | | | | . | | | | 
 |__ |  _|___|_____|  22.8.0
 |___|_|             

User:   vazumah@r341.ib.bridges2.psc.edu
Date:   Fri Mar 10 12:22:51 2023
Arch:   x86_64
Pid:    88625
CWD:    /jet/home/vazumah/Calcs/LiMEAS/proton_donors/ethanediol_z/bridge/0.0_1.617/N2_y
Python: 3.11.0
gpaw:   /jet/home/vazumah/.conda/envs/GPAW_mpich/lib/python3.11/site-packages/gpaw
_gpaw:  /jet/home/vazumah/.conda/envs/GPAW_mpich/lib/python3.11/site-packages/
        _gpaw.cpython-311-x86_64-linux-gnu.so
ase:    /jet/home/vazumah/.conda/envs/GPAW_mpich/lib/python3.11/site-packages/ase (version 3.22.1)
numpy:  /jet/home/vazumah/.conda/envs/GPAW_mpich/lib/python3.11/site-packages/numpy (version 1.24.2)
scipy:  /jet/home/vazumah/.conda/envs/GPAW_mpich/lib/python3.11/site-packages/scipy (version 1.10.1)
libxc:  5.2.3
units:  Angstrom and eV
cores: 128
OpenMP: True
OMP_NUM_THREADS: 1

Input parameters:
  h: 0.16
  kpts: {size: [4, 4, 1]}
  occupations: {name: fermi-dirac,
                width: 0.05}
  poissonsolver: {dipolelayer: xy}
  xc: BEEF-vdW

System changes: positions, numbers, cell, pbc, initial_charges, initial_magmoms 

Initialize ...

species:
  Li:
    name: Lithium
    id: 830b4218f175192f93f959cfc0aad614
    Z: 3.0
    valence: 1
    core: 2
    charge: 0.0
    file: /jet/home/vazumah/datasets/gpaw-setups-0.9.20000/Li.PBE.gz
    compensation charges: {type: gauss,
                           rc: 0.33,
                           lmax: 2}
    cutoffs: {filter: 1.91,
              core: 2.55}
    valence states:
      #              energy  rcut
      - 2s(1.00)    -2.874   1.058
      - 2p(0.00)    -1.090   1.058
      -  s          24.337   1.058
  
    # Using partial waves for Li as LCAO basis

  O:
    name: Oxygen
    id: 32ecd46bf208036f09c70b0ec9a88b78
    Z: 8.0
    valence: 6
    core: 2
    charge: 0.0
    file: /jet/home/vazumah/datasets/gpaw-setups-0.9.20000/O.PBE.gz
    compensation charges: {type: gauss,
                           rc: 0.21,
                           lmax: 2}
    cutoffs: {filter: 1.17,
              core: 0.83}
    valence states:
      #              energy  rcut
      - 2s(2.00)   -23.961   0.688
      - 2p(4.00)    -9.029   0.598
      -  s           3.251   0.688
      -  p          18.182   0.598
      -  d           0.000   0.619
  
    # Using partial waves for O as LCAO basis

  C:
    name: Carbon
    id: 4aa54d4b901d75f77cc0ea3eec22967b
    Z: 6.0
    valence: 4
    core: 2
    charge: 0.0
    file: /jet/home/vazumah/datasets/gpaw-setups-0.9.20000/C.PBE.gz
    compensation charges: {type: gauss,
                           rc: 0.20,
                           lmax: 2}
    cutoffs: {filter: 1.14,
              core: 1.14}
    valence states:
      #              energy  rcut
      - 2s(2.00)   -13.751   0.635
      - 2p(2.00)    -5.284   0.635
      -  s          13.461   0.635
      -  p          21.927   0.635
      -  d           0.000   0.635
  
    # Using partial waves for C as LCAO basis

  H:
    name: Hydrogen
    id: d65de229564ff8ea4db303e23b6d1ecf
    Z: 1.0
    valence: 1
    core: 0
    charge: 0.0
    file: /jet/home/vazumah/datasets/gpaw-setups-0.9.20000/H.PBE.gz
    compensation charges: {type: gauss,
                           rc: 0.15,
                           lmax: 2}
    cutoffs: {filter: 0.85,
              core: 0.53}
    valence states:
      #              energy  rcut
      - 1s(1.00)    -6.494   0.476
      -  s          20.717   0.476
      -  p           0.000   0.476
  
    # Using partial waves for H as LCAO basis

  N:
    name: Nitrogen
    id: f7500608b86eaa90eef8b1d9a670dc53
    Z: 7.0
    valence: 5
    core: 2
    charge: 0.0
    file: /jet/home/vazumah/datasets/gpaw-setups-0.9.20000/N.PBE.gz
    compensation charges: {type: gauss,
                           rc: 0.18,
                           lmax: 2}
    cutoffs: {filter: 1.11,
              core: 0.96}
    valence states:
      #              energy  rcut
      - 2s(2.00)   -18.583   0.603
      - 2p(3.00)    -7.089   0.529
      -  s           8.629   0.603
      -  p          20.123   0.529
      -  d           0.000   0.577
  
    # Using partial waves for N as LCAO basis

Reference energy: -16475.706344  # eV

Spin-paired calculation

Convergence criteria:
 Maximum [total energy] change in last 3 cyles: 0.0005 eV / electron
 Maximum integral of absolute [dens]ity change: 0.0001 electrons / valence electron
 Maximum integral of absolute [eigenst]ate change: 4e-08 eV^2 / valence electron
 Maximum number of scf [iter]ations: 333
 (Square brackets indicate name in SCF output, whereas a 'c' in
 the SCF output indicates the quantity has converged.)

Symmetries present (total): 1

  ( 1  0  0)
  ( 0  1  0)
  ( 0  0  1)

16 k-points: 4 x 4 x 1 Monkhorst-Pack grid
8 k-points in the irreducible part of the Brillouin zone
       k-points in crystal coordinates                weights
   0:     0.12500000   -0.37500000    0.00000000          2/16
   1:     0.12500000   -0.12500000    0.00000000          2/16
   2:     0.12500000    0.12500000    0.00000000          2/16
   3:     0.12500000    0.37500000    0.00000000          2/16
   4:     0.37500000   -0.37500000    0.00000000          2/16
   5:     0.37500000   -0.12500000    0.00000000          2/16
   6:     0.37500000    0.12500000    0.00000000          2/16
   7:     0.37500000    0.37500000    0.00000000          2/16

Wave functions: Uniform real-space grid
  Kinetic energy operator: 6*3+1=19 point O(h^6) finite-difference Laplacian
  ScaLapack parameters: grid=1x1, blocksize=None
  Wavefunction extrapolation:
    Improved wavefunction reuse through dual PAW basis 

Occupation numbers: Fermi-Dirac:
  width: 0.0500  # eV
 

Eigensolver
   Davidson(niter=2) 

Densities:
  Coarse grid: 60*60*164 grid
  Fine grid: 120*120*328 grid
  Total Charge: 0.000000 

Density mixing:
  Method: separate
  Backend: pulay
  Linear mixing parameter: 0.05
  old densities: 5
  Damping of long wavelength oscillations: 50 

Hamiltonian:
  XC and Coulomb potentials evaluated on a 120*120*328 grid
  Using the BEEF-vdW Exchange-Correlation functional
  Interpolation: tri-quintic (5. degree polynomial)
  Poisson solver: FastPoissonSolver using
    Stencil: 6*3+1=19 point O(h^6) finite-difference Laplacian
    FFT axes: [0, 1]
    FST axes: [2]

Dipole correction along z-axis 

XC parameters: BEEF-vdW with 2 nearest neighbor stencil

Memory estimate:
  Process memory now: 128.66 MiB
  Calculator: 84.78 MiB
    Density: 22.56 MiB
      Arrays: 7.22 MiB
      Localized functions: 12.59 MiB
      Mixer: 2.75 MiB
    Hamiltonian: 5.72 MiB
      Arrays: 4.72 MiB
      XC: 0.00 MiB
      Poisson: 0.00 MiB
      vbar: 0.99 MiB
    Wavefunctions: 56.50 MiB
      Arrays psit_nG: 26.37 MiB
      Eigensolver: 29.47 MiB
      Projections: 0.01 MiB
      Projectors: 0.66 MiB

Total number of cores used: 128
Parallelization over k-points: 8
Domain decomposition: 2 x 2 x 4

Number of atoms: 48
Number of atomic orbitals: 174
Number of bands in calculation: 48
Number of valence electrons: 72
Bands to converge: occupied

... initialized

Initializing position-dependent things.

Density initialized from atomic densities
Creating initial wave functions:
  48 bands from LCAO basis set

       .-----------------------.  
      /|                       |  
     / |                       |  
    /  |                       |  
   /   |                       |  
  /    |                       |  
 *     |                       |  
 |     |                       |  
 |     |                       |  
 |     |                       |  
 |     |                   H   |  
 | C  H|                 O     |  
 |     |                 H     |  
 |     |               H  CH   |  
 |     |                       |  
 |O HLi|     Li      Li        |  
 |NN   |                       |  
 | Li  |  LLi     LLi     Li   |  
 |     |                       |  
 Li    |LLi     LLi     Li     |  
 |   Li|     Li      Li        |  
 |    Li  Li  Li  Li  Li  Li   |  
 | Li  |   Li      Li          |  
 |     |Li      Li      Li     |  
 Li    | Li      Li            |  
 |    Li      Li      Li       |  
 |     |                       |  
 |     |                       |  
 |     |                       |  
 |     |                       |  
 |     |                       |  
 |     |                       |  
 |     .-----------------------.  
 |    /                       /   
 |   /                       /    
 |  /                       /     
 | /                       /      
 |/                       /       
 *-----------------------*        

Positions:
   0 Li     1.617037    1.617037   10.000000    ( 0.0000,  0.0000,  0.0000)
   1 Li     4.851111    1.617037   10.000000    ( 0.0000,  0.0000,  0.0000)
   2 Li     8.085185    1.617037   10.000000    ( 0.0000,  0.0000,  0.0000)
   3 Li     1.617037    4.851111   10.000000    ( 0.0000,  0.0000,  0.0000)
   4 Li     4.851111    4.851111   10.000000    ( 0.0000,  0.0000,  0.0000)
   5 Li     8.085185    4.851111   10.000000    ( 0.0000,  0.0000,  0.0000)
   6 Li     1.617037    8.085185   10.000000    ( 0.0000,  0.0000,  0.0000)
   7 Li     4.851111    8.085185   10.000000    ( 0.0000,  0.0000,  0.0000)
   8 Li     8.085185    8.085185   10.000000    ( 0.0000,  0.0000,  0.0000)
   9 Li     0.000000    0.000000   11.617037    ( 0.0000,  0.0000,  0.0000)
  10 Li     3.234074    0.000000   11.617037    ( 0.0000,  0.0000,  0.0000)
  11 Li     6.468148    0.000000   11.617037    ( 0.0000,  0.0000,  0.0000)
  12 Li     0.000000    3.234074   11.617037    ( 0.0000,  0.0000,  0.0000)
  13 Li     3.234074    3.234074   11.617037    ( 0.0000,  0.0000,  0.0000)
  14 Li     6.468148    3.234074   11.617037    ( 0.0000,  0.0000,  0.0000)
  15 Li     0.000000    6.468148   11.617037    ( 0.0000,  0.0000,  0.0000)
  16 Li     3.234074    6.468148   11.617037    ( 0.0000,  0.0000,  0.0000)
  17 Li     6.468148    6.468148   11.617037    ( 0.0000,  0.0000,  0.0000)
  18 Li     1.617038    1.617038   13.469728    ( 0.0000,  0.0000,  0.0000)
  19 Li     4.851111    1.617038   13.469729    ( 0.0000,  0.0000,  0.0000)
  20 Li     8.085184    1.617038   13.469728    ( 0.0000,  0.0000,  0.0000)
  21 Li     1.617038    4.851111   13.469729    ( 0.0000,  0.0000,  0.0000)
  22 Li     4.851111    4.851111   13.469730    ( 0.0000,  0.0000,  0.0000)
  23 Li     8.085184    4.851111   13.469729    ( 0.0000,  0.0000,  0.0000)
  24 Li     1.617038    8.085184   13.469728    ( 0.0000,  0.0000,  0.0000)
  25 Li     4.851111    8.085184   13.469729    ( 0.0000,  0.0000,  0.0000)
  26 Li     8.085184    8.085184   13.469728    ( 0.0000,  0.0000,  0.0000)
  27 Li    -0.000000   -0.000000   15.445939    ( 0.0000,  0.0000,  0.0000)
  28 Li     3.234074    0.000000   15.445939    ( 0.0000,  0.0000,  0.0000)
  29 Li     6.468148    0.000000   15.445939    ( 0.0000,  0.0000,  0.0000)
  30 Li     0.000000    3.234074   15.445939    ( 0.0000,  0.0000,  0.0000)
  31 Li     3.234076    3.234076   15.445938    ( 0.0000,  0.0000,  0.0000)
  32 Li     6.468146    3.234076   15.445938    ( 0.0000,  0.0000,  0.0000)
  33 Li     0.000000    6.468148   15.445939    ( 0.0000,  0.0000,  0.0000)
  34 Li     3.234076    6.468146   15.445938    ( 0.0000,  0.0000,  0.0000)
  35 Li     6.468146    6.468146   15.445938    ( 0.0000,  0.0000,  0.0000)
  36 O      0.000000    1.617037   18.445939    ( 0.0000,  0.0000,  0.0000)
  37 O     -0.232689    1.661030   21.344137    ( 0.0000,  0.0000,  0.0000)
  38 C     -0.412377    2.788249   19.174500    ( 0.0000,  0.0000,  0.0000)
  39 C      0.156774    2.801939   20.583686    ( 0.0000,  0.0000,  0.0000)
  40 H     -0.119544    3.702639   18.646375    ( 0.0000,  0.0000,  0.0000)
  41 H     -1.501944    2.740951   19.207249    ( 0.0000,  0.0000,  0.0000)
  42 H     -0.219707    3.676205   21.120404    ( 0.0000,  0.0000,  0.0000)
  43 H      1.255834    2.877440   20.533956    ( 0.0000,  0.0000,  0.0000)
  44 H      0.947321    1.691552   18.276515    ( 0.0000,  0.0000,  0.0000)
  45 H     -0.136250    0.893910   20.764672    ( 0.0000,  0.0000,  0.0000)
  46 N      0.000000    1.617000   16.945939    ( 0.0000,  0.0000,  0.0000)
  47 N      0.000000    2.713622   16.945939    ( 0.0000,  0.0000,  0.0000)

Unit cell:
           periodic     x           y           z      points  spacing
  1. axis:    yes    9.702222    0.000000    0.000000    60     0.1617
  2. axis:    yes    0.000000    9.702222    0.000000    60     0.1617
  3. axis:    no     0.000000    0.000000   26.351111   164     0.1607

  Lengths:   9.702222   9.702222  26.351111
  Angles:   90.000000  90.000000  90.000000

Effective grid spacing dv^(1/3) = 0.1614

     iter     time        total  log10-change:
                         energy  eigst   dens
iter:   1 12:23:06  -666.254258
iter:   2 12:23:13   -25.349340  +2.65  +0.02
iter:   3 12:23:21    36.889612  +3.24  -0.15
iter:   4 12:23:28  -163.447471  +3.24  -0.24
Writing to output.gpw (mode='')

iter:   5 12:23:35  -275.262352  +2.96  -0.27
iter:   6 12:23:43  -324.642540  +2.52  -0.47
iter:   7 12:23:50  -340.973297  +2.20  -0.54
iter:   8 12:23:58  -373.111090  +2.09  -0.53
iter:   9 12:24:05  -469.528271  +2.39  -0.44
Writing to output.gpw (mode='')

iter:  10 12:24:12  -382.139128  +1.68  -0.34
iter:  11 12:24:20  -327.808914  +1.44  -0.46
iter:  12 12:24:27  -328.032366  +1.38  -0.76
iter:  13 12:24:35  -332.713769  +1.49  -0.75
iter:  14 12:24:48  -327.584184  +0.80  -0.64
Writing to output.gpw (mode='')

iter:  15 12:24:56  -330.557959  +1.18  -0.74
iter:  16 12:25:06  -325.305071  +0.25  -0.72
iter:  17 12:25:14  -323.187372  +0.39  -0.83
iter:  18 12:25:21  -322.818587  +1.08  -0.88
iter:  19 12:25:28  -322.172885  +0.33  -0.85
Writing to output.gpw (mode='')

iter:  20 12:25:36  -320.756326  +0.77  -0.88
iter:  21 12:25:43  -320.547432  +0.45  -1.08
iter:  22 12:25:50  -319.826338  -0.21  -1.14
iter:  23 12:25:58  -319.981142  +0.04  -1.38
iter:  24 12:26:05  -319.754969  -0.23  -1.37
Writing to output.gpw (mode='')

iter:  25 12:26:12  -319.763190  -0.81  -1.67
iter:  26 12:26:19  -319.772140c -0.98  -1.67
iter:  27 12:26:27  -319.779876c -1.19  -1.67
iter:  28 12:26:34  -319.781960c -1.28  -1.67
iter:  29 12:26:41  -319.787204c -1.03  -1.69
Writing to output.gpw (mode='')

iter:  30 12:26:49  -319.781034c -1.23  -1.84
iter:  31 12:26:56  -319.773287c -1.46  -1.98
iter:  32 12:27:03  -319.765675c -1.51  -2.06
iter:  33 12:27:11  -319.767600c -1.77  -2.37
iter:  34 12:27:18  -319.769400c -1.96  -2.43
Writing to output.gpw (mode='')

iter:  35 12:27:25  -319.771089c -2.18  -2.45
iter:  36 12:27:33  -319.771414c -2.19  -2.44
iter:  37 12:27:40  -319.772109c -2.07  -2.52
iter:  38 12:27:47  -319.772900c -2.39  -2.62
iter:  39 12:27:55  -319.773757c -2.46  -2.68
Writing to output.gpw (mode='')

iter:  40 12:28:02  -319.774188c -2.58  -2.79
iter:  41 12:28:09  -319.774755c -2.59  -2.80
iter:  42 12:28:17  -319.775120c -2.60  -2.80
iter:  43 12:28:24  -319.775483c -2.79  -2.87
iter:  44 12:28:31  -319.775845c -2.84  -2.91
Writing to output.gpw (mode='')

iter:  45 12:28:39  -319.776109c -3.06  -3.12
iter:  46 12:28:46  -319.776387c -2.98  -3.15
iter:  47 12:28:53  -319.776551c -3.32  -3.47
iter:  48 12:29:00  -319.776712c -3.10  -3.52
iter:  49 12:29:08  -319.776845c -3.26  -3.59
Writing to output.gpw (mode='')

iter:  50 12:29:15  -319.776965c -3.47  -3.56
iter:  51 12:29:22  -319.777049c -3.60  -3.53
iter:  52 12:29:29  -319.777122c -3.56  -3.51
iter:  53 12:29:37  -319.777211c -3.55  -3.51
iter:  54 12:29:48  -319.777293c -3.59  -3.45
Writing to output.gpw (mode='')

iter:  55 12:29:57  -319.777340c -3.79  -3.47
iter:  56 12:30:04  -319.777389c -3.74  -3.48
iter:  57 12:30:11  -319.777429c -3.76  -3.48
iter:  58 12:30:19  -319.777473c -3.84  -3.51
iter:  59 12:30:27  -319.777552c -3.88  -3.54
Writing to output.gpw (mode='')

iter:  60 12:30:34  -319.777567c -4.07  -3.64
iter:  61 12:30:41  -319.777581c -4.04  -3.66
iter:  62 12:30:49  -319.777583c -4.32  -3.69
iter:  63 12:30:56  -319.777594c -4.49  -4.01c
iter:  64 12:31:03  -319.777601c -4.45  -4.03c
Writing to output.gpw (mode='')

iter:  65 12:31:11  -319.777621c -4.36  -4.13c
iter:  66 12:31:18  -319.777630c -4.63  -4.29c
iter:  67 12:31:26  -319.777639c -4.58  -4.34c
iter:  68 12:31:33  -319.777648c -4.52  -4.36c
iter:  69 12:31:40  -319.777654c -4.75  -4.41c
Writing to output.gpw (mode='')

iter:  70 12:31:48  -319.777659c -4.89  -4.44c
iter:  71 12:31:55  -319.777665c -4.93  -4.49c
iter:  72 12:32:03  -319.777669c -4.99  -4.63c
iter:  73 12:32:10  -319.777673c -5.01  -4.75c
iter:  74 12:32:17  -319.777677c -5.15  -4.77c
Writing to output.gpw (mode='')

iter:  75 12:32:25  -319.777681c -5.03  -4.97c
iter:  76 12:32:32  -319.777684c -5.15  -5.07c
iter:  77 12:32:40  -319.777685c -5.15  -5.06c
iter:  78 12:32:47  -319.777687c -5.13  -5.08c
iter:  79 12:32:55  -319.777689c -5.25  -5.11c
Writing to output.gpw (mode='')

iter:  80 12:33:02  -319.777690c -5.27  -5.20c
iter:  81 12:33:10  -319.777691c -5.44  -5.22c
iter:  82 12:33:17  -319.777692c -5.41  -5.37c
iter:  83 12:33:25  -319.777693c -5.51  -5.34c
iter:  84 12:33:32  -319.777693c -5.53  -5.38c
Writing to output.gpw (mode='')

iter:  85 12:33:39  -319.777694c -5.59  -5.38c
iter:  86 12:33:47  -319.777695c -5.66  -5.41c
iter:  87 12:33:54  -319.777695c -5.71  -5.54c
iter:  88 12:34:02  -319.777695c -5.84  -5.51c
iter:  89 12:34:09  -319.777696c -5.88  -5.30c
Writing to output.gpw (mode='')

iter:  90 12:34:17  -319.777696c -5.91  -5.42c
iter:  91 12:34:24  -319.777697c -5.97  -5.44c
iter:  92 12:34:31  -319.777697c -5.87  -5.41c
iter:  93 12:34:39  -319.777697c -6.02  -5.37c
iter:  94 12:34:53  -319.777697c -6.14  -5.35c
Writing to output.gpw (mode='')

iter:  95 12:35:01  -319.777697c -6.18  -5.28c
iter:  96 12:35:08  -319.777697c -6.25  -5.26c
iter:  97 12:35:15  -319.777698c -6.29  -5.19c
iter:  98 12:35:23  -319.777698c -6.30  -5.26c
iter:  99 12:35:30  -319.777698c -6.37  -5.34c
Writing to output.gpw (mode='')

iter: 100 12:35:38  -319.777698c -6.53  -5.51c
iter: 101 12:35:45  -319.777698c -6.54  -5.41c
iter: 102 12:35:52  -319.777698c -6.58  -5.73c
iter: 103 12:36:00  -319.777698c -6.63  -5.92c
iter: 104 12:36:07  -319.777699c -6.67  -5.96c
Writing to output.gpw (mode='')

iter: 105 12:36:15  -319.777699c -6.77  -6.08c
iter: 106 12:36:22  -319.777699c -6.82  -6.07c
iter: 107 12:36:30  -319.777699c -6.80  -6.17c
iter: 108 12:36:37  -319.777699c -6.89  -6.18c
iter: 109 12:36:45  -319.777699c -6.95  -6.28c
Writing to output.gpw (mode='')

iter: 110 12:36:52  -319.777699c -7.06  -6.31c
iter: 111 12:36:59  -319.777699c -7.09  -6.36c
iter: 112 12:37:07  -319.777699c -7.15  -6.38c
iter: 113 12:37:14  -319.777699c -7.19  -6.51c
iter: 114 12:37:21  -319.777699c -7.19  -6.41c
Writing to output.gpw (mode='')

iter: 115 12:37:29  -319.777699c -7.34  -6.81c
iter: 116 12:37:36  -319.777699c -7.36  -6.73c
iter: 117 12:37:43  -319.777699c -7.38  -6.73c
iter: 118 12:37:51  -319.777699c -7.48c -6.68c

Converged after 118 iterations.

Dipole moment: (1.006296, -3.425895, 0.112131) |e|*Ang

Energy contributions relative to reference atoms: (reference = -16475.706344)

Kinetic:       +203.577876
Potential:     -183.562553
External:        +0.000000
XC:            -340.831189
Entropy (-ST):   -0.155912
Local:           +1.116123
--------------------------
Free energy:   -319.855655
Extrapolated:  -319.777699

Dipole-layer corrected work functions: 3.377039, 3.161484 eV

Showing only first 2 kpts
 Kpt  Band  Eigenvalues  Occupancy
  0    34     -3.52014    1.98684
  0    35     -3.40973    1.88637
  0    36     -3.15624    0.18890
  0    37     -3.02776    0.01585

  1    34     -3.32680    1.51933
  1    35     -3.28367    1.14314
  1    36     -3.19503    0.36944
  1    37     -3.18091    0.29181


Fermi level: -3.26926

Gap: 0.026 eV
Transition (v -> c):
  (s=0, k=1, n=35, [0.12, -0.12, 0.00]) -> (s=0, k=4, n=36, [0.38, -0.38, 0.00])
Writing to output.gpw (mode='')


Forces in eV/Ang:
  0 Li    0.02175   -0.00135   -0.27739
  1 Li   -0.00235    0.00098   -0.26955
  2 Li   -0.01892   -0.00290   -0.27542
  3 Li   -0.00226    0.01654   -0.27569
  4 Li   -0.00027   -0.00814   -0.26559
  5 Li    0.00130    0.01827   -0.27336
  6 Li   -0.00655   -0.01219   -0.26728
  7 Li    0.00015    0.00431   -0.27788
  8 Li    0.00669   -0.01494   -0.26531
  9 Li    0.00170   -0.00215    0.29497
 10 Li    0.00873    0.00102    0.26270
 11 Li   -0.01250   -0.00379    0.26413
 12 Li   -0.00116   -0.00440    0.33231
 13 Li    0.01803   -0.00022    0.25534
 14 Li   -0.01602    0.00036    0.26441
 15 Li   -0.00218    0.00173    0.24269
 16 Li   -0.00408    0.00065    0.26021
 17 Li    0.00720    0.00887    0.25123
 18 Li    0.03950   -0.00667   -0.10008
 19 Li   -0.00008    0.00656    0.07498
 20 Li   -0.03785   -0.01296   -0.10895
 21 Li    0.00456   -0.01244    0.00748
 22 Li    0.00365    0.01156    0.04128
 23 Li   -0.00708   -0.00730    0.01239
 24 Li   -0.01596    0.01939    0.06506
 25 Li    0.00136   -0.02065    0.00872
 26 Li    0.01511    0.02114    0.06304
 27 Li   -0.00095    0.01787    0.22189
 28 Li    0.08392   -0.05084   -0.04951
 29 Li   -0.07193   -0.05465   -0.04093
 30 Li    0.00804    2.13722   -4.50162
 31 Li    0.08544    0.03739   -0.04453
 32 Li   -0.08726    0.04384   -0.05113
 33 Li   -0.00143    0.04091   -0.03926
 34 Li   -0.01110    0.00554   -0.01360
 35 Li    0.01210   -0.00031   -0.02197
 36 O     1.26916   -6.13629   13.51961
 37 O    -0.04418    0.04971    0.06618
 38 C    -0.84340    1.21995    1.19108
 39 C     0.23570   -0.54311   -0.13366
 40 H    -0.05014   -0.20464    0.29701
 41 H    -0.02374   -0.10124   -0.07262
 42 H    -0.02303    0.01225   -0.12799
 43 H    -0.05266    0.04256    0.00336
 44 H     0.79486   -0.34511    1.85907
 45 H     0.02180   -0.06392    0.07338
 46 N    -1.52710   -5.70255   -6.36794
 47 N     0.21998    9.54953   -5.80833

System changes: positions 

Initializing position-dependent things.

Density initialized from wave functions
       .-----------------------.  
      /|                       |  
     / |                       |  
    /  |                       |  
   /   |                       |  
  /    |                       |  
 *     |                       |  
 |     |                       |  
 |     |                       |  
 |     |                       |  
 |     |                   H   |  
 | C  H|                 O     |  
 |     |                 H     |  
 |     |       Li      Hi CH   |  
 |     |                       |  
 |O H  |     Li      Li      Li|  
 | N   |                  N    |  
 | Li  |  LLi     LLi     Li   |  
 |     |                       |  
 |     |Li      Li      LLi    |  
 |   Li|     Li      Li        |  
 |    Li  Li  Li  Li  Li  Li   |  
 | Li  |   Li      Li          |  
 |     |Li      Li      Li     |  
 Li    | Li      Li            |  
 |    Li      Li      Li       |  
 |     |                       |  
 |     |                       |  
 |     |                       |  
 |     |                       |  
 |     |                       |  
 |     |                       |  
 |     .-----------------------.  
 |    /                       /   
 |   /                       /    
 |  /                       /     
 | /                       /      
 |/                       /       
 *-----------------------*        

Positions:
   0 Li     1.617037    1.617037   10.000000    ( 0.0000,  0.0000,  0.0000)
   1 Li     4.851111    1.617037   10.000000    ( 0.0000,  0.0000,  0.0000)
   2 Li     8.085185    1.617037   10.000000    ( 0.0000,  0.0000,  0.0000)
   3 Li     1.617037    4.851111   10.000000    ( 0.0000,  0.0000,  0.0000)
   4 Li     4.851111    4.851111   10.000000    ( 0.0000,  0.0000,  0.0000)
   5 Li     8.085185    4.851111   10.000000    ( 0.0000,  0.0000,  0.0000)
   6 Li     1.617037    8.085185   10.000000    ( 0.0000,  0.0000,  0.0000)
   7 Li     4.851111    8.085185   10.000000    ( 0.0000,  0.0000,  0.0000)
   8 Li     8.085185    8.085185   10.000000    ( 0.0000,  0.0000,  0.0000)
   9 Li     0.000000    0.000000   11.617037    ( 0.0000,  0.0000,  0.0000)
  10 Li     3.234074    0.000000   11.617037    ( 0.0000,  0.0000,  0.0000)
  11 Li     6.468148    0.000000   11.617037    ( 0.0000,  0.0000,  0.0000)
  12 Li     0.000000    3.234074   11.617037    ( 0.0000,  0.0000,  0.0000)
  13 Li     3.234074    3.234074   11.617037    ( 0.0000,  0.0000,  0.0000)
  14 Li     6.468148    3.234074   11.617037    ( 0.0000,  0.0000,  0.0000)
  15 Li     0.000000    6.468148   11.617037    ( 0.0000,  0.0000,  0.0000)
  16 Li     3.234074    6.468148   11.617037    ( 0.0000,  0.0000,  0.0000)
  17 Li     6.468148    6.468148   11.617037    ( 0.0000,  0.0000,  0.0000)
  18 Li     1.617144    1.617020   13.469459    ( 0.0000,  0.0000,  0.0000)
  19 Li     4.851111    1.617056   13.469931    ( 0.0000,  0.0000,  0.0000)
  20 Li     8.085082    1.617003   13.469435    ( 0.0000,  0.0000,  0.0000)
  21 Li     1.617051    4.851078   13.469750    ( 0.0000,  0.0000,  0.0000)
  22 Li     4.851121    4.851142   13.469841    ( 0.0000,  0.0000,  0.0000)
  23 Li     8.085165    4.851091   13.469763    ( 0.0000,  0.0000,  0.0000)
  24 Li     1.616995    8.085236   13.469903    ( 0.0000,  0.0000,  0.0000)
  25 Li     4.851115    8.085128   13.469753    ( 0.0000,  0.0000,  0.0000)
  26 Li     8.085224    8.085241   13.469897    ( 0.0000,  0.0000,  0.0000)
  27 Li    -0.000003    0.000048   15.446535    ( 0.0000,  0.0000,  0.0000)
  28 Li     3.234299   -0.000136   15.445806    ( 0.0000,  0.0000,  0.0000)
  29 Li     6.467955   -0.000147   15.445829    ( 0.0000,  0.0000,  0.0000)
  30 Li     0.000022    3.239811   15.433855    ( 0.0000,  0.0000,  0.0000)
  31 Li     3.234306    3.234177   15.445819    ( 0.0000,  0.0000,  0.0000)
  32 Li     6.467911    3.234194   15.445801    ( 0.0000,  0.0000,  0.0000)
  33 Li    -0.000004    6.468258   15.445833    ( 0.0000,  0.0000,  0.0000)
  34 Li     3.234047    6.468160   15.445902    ( 0.0000,  0.0000,  0.0000)
  35 Li     6.468178    6.468145   15.445879    ( 0.0000,  0.0000,  0.0000)
  36 O      0.003407    1.600565   18.482231    ( 0.0000,  0.0000,  0.0000)
  37 O     -0.232808    1.661164   21.344315    ( 0.0000,  0.0000,  0.0000)
  38 C     -0.414641    2.791524   19.177697    ( 0.0000,  0.0000,  0.0000)
  39 C      0.157407    2.800481   20.583327    ( 0.0000,  0.0000,  0.0000)
  40 H     -0.119679    3.702090   18.647172    ( 0.0000,  0.0000,  0.0000)
  41 H     -1.502007    2.740679   19.207054    ( 0.0000,  0.0000,  0.0000)
  42 H     -0.219769    3.676237   21.120060    ( 0.0000,  0.0000,  0.0000)
  43 H      1.255693    2.877555   20.533965    ( 0.0000,  0.0000,  0.0000)
  44 H      0.949455    1.690625   18.281505    ( 0.0000,  0.0000,  0.0000)
  45 H     -0.136192    0.893739   20.764869    ( 0.0000,  0.0000,  0.0000)
  46 N     -0.004099    1.601692   16.928846    ( 0.0000,  0.0000,  0.0000)
  47 N      0.000590    2.739256   16.930348    ( 0.0000,  0.0000,  0.0000)

Unit cell:
           periodic     x           y           z      points  spacing
  1. axis:    yes    9.702222    0.000000    0.000000    60     0.1617
  2. axis:    yes    0.000000    9.702222    0.000000    60     0.1617
  3. axis:    no     0.000000    0.000000   26.351111   164     0.1607

  Lengths:   9.702222   9.702222  26.351111
  Angles:   90.000000  90.000000  90.000000

Effective grid spacing dv^(1/3) = 0.1614

     iter     time        total  log10-change:
                         energy  eigst   dens
iter:   1 12:38:00  -321.723601  -0.29
iter:   2 12:38:08  -321.112288  -0.53  -1.36
iter:   3 12:38:15  -320.956104  -1.02  -1.38
iter:   4 12:38:22  -320.847085  -0.98  -1.61
Writing to output.gpw (mode='')

iter:   5 12:38:30  -320.832071  -1.76  -1.95
iter:   6 12:38:38  -320.856023c -1.51  -2.05
iter:   7 12:38:45  -320.832874c -1.41  -1.87
iter:   8 12:38:52  -320.824390c -2.26  -2.15
iter:   9 12:39:00  -320.809018c -2.12  -2.21
Writing to output.gpw (mode='')

iter:  10 12:39:08  -320.808092c -2.38  -2.41
iter:  11 12:39:15  -320.808423c -2.71  -2.63
iter:  12 12:39:22  -320.807853c -3.14  -2.74
iter:  13 12:39:30  -320.807684c -3.23  -2.83
iter:  14 12:39:37  -320.807647c -3.35  -3.09
Writing to output.gpw (mode='')

iter:  15 12:39:51  -320.807814c -3.57  -3.10
iter:  16 12:40:00  -320.807746c -3.69  -3.22
iter:  17 12:40:07  -320.807783c -4.13  -3.30
iter:  18 12:40:22  -320.807798c -4.05  -3.35
iter:  19 12:40:32  -320.807756c -4.14  -3.53
Writing to output.gpw (mode='')

iter:  20 12:40:39  -320.807730c -4.55  -3.67
iter:  21 12:40:47  -320.807741c -4.69  -3.82
iter:  22 12:40:54  -320.807758c -4.77  -3.94
iter:  23 12:41:04  -320.807743c -4.83  -3.96
iter:  24 12:41:12  -320.807751c -4.87  -4.00c
Writing to output.gpw (mode='')

iter:  25 12:41:19  -320.807751c -5.05  -4.07c
iter:  26 12:41:26  -320.807746c -5.24  -4.22c
iter:  27 12:41:34  -320.807747c -5.52  -4.33c
iter:  28 12:41:41  -320.807757c -5.44  -4.32c
iter:  29 12:41:48  -320.807751c -5.70  -4.43c
Writing to output.gpw (mode='')

iter:  30 12:41:56  -320.807749c -5.78  -4.73c
iter:  31 12:42:03  -320.807750c -5.83  -4.71c
iter:  32 12:42:11  -320.807750c -5.73  -4.81c
iter:  33 12:42:18  -320.807751c -6.06  -4.89c
iter:  34 12:42:25  -320.807750c -6.12  -4.90c
Writing to output.gpw (mode='')

iter:  35 12:42:33  -320.807750c -6.31  -5.22c
iter:  36 12:42:40  -320.807751c -6.18  -5.26c
iter:  37 12:42:47  -320.807750c -6.09  -5.28c
iter:  38 12:42:55  -320.807750c -6.34  -5.30c
iter:  39 12:43:02  -320.807750c -6.45  -5.38c
Writing to output.gpw (mode='')

iter:  40 12:43:09  -320.807750c -6.63  -5.41c
iter:  41 12:43:17  -320.807749c -6.75  -5.52c
iter:  42 12:43:24  -320.807750c -6.92  -5.61c
iter:  43 12:43:32  -320.807750c -6.96  -5.64c
iter:  44 12:43:39  -320.807749c -6.95  -5.72c
Writing to output.gpw (mode='')

iter:  45 12:43:46  -320.807750c -7.07  -5.84c
iter:  46 12:43:53  -320.807749c -7.09  -5.90c
iter:  47 12:44:01  -320.807749c -7.28  -5.94c
iter:  48 12:44:08  -320.807750c -7.25  -5.90c
iter:  49 12:44:16  -320.807749c -7.49c -5.70c

Converged after 49 iterations.

Dipole moment: (0.962711, -3.313130, 0.061399) |e|*Ang

Energy contributions relative to reference atoms: (reference = -16475.706344)

Kinetic:       +194.499880
Potential:     -176.955899
External:        +0.000000
XC:            -339.395014
Entropy (-ST):   -0.157116
Local:           +1.121842
--------------------------
Free energy:   -320.886307
Extrapolated:  -320.807749

Dipole-layer corrected work functions: 3.381452, 3.263422 eV

Showing only first 2 kpts
 Kpt  Band  Eigenvalues  Occupancy
  0    34     -3.57275    1.98670
  0    35     -3.45863    1.87685
  0    36     -3.22889    0.26686
  0    37     -3.07778    0.01488

  1    34     -3.38992    1.58818
  1    35     -3.33062    1.08166
  1    36     -3.23493    0.29605
  1    37     -3.22817    0.26354


Fermi level: -3.32244

Gap: 0.022 eV
Transition (v -> c):
  (s=0, k=1, n=35, [0.12, -0.12, 0.00]) -> (s=0, k=4, n=36, [0.38, -0.38, 0.00])
Writing to output.gpw (mode='')


Forces in eV/Ang:
  0 Li    0.02218   -0.00164   -0.27873
  1 Li   -0.00194    0.00104   -0.26998
  2 Li   -0.01971   -0.00299   -0.27730
  3 Li   -0.00185    0.01765   -0.27684
  4 Li   -0.00042   -0.00859   -0.26482
  5 Li    0.00113    0.01870   -0.27467
  6 Li   -0.00649   -0.01279   -0.26746
  7 Li   -0.00008    0.00481   -0.27851
  8 Li    0.00701   -0.01503   -0.26536
  9 Li    0.00174   -0.00351    0.29562
 10 Li    0.00870    0.00107    0.26329
 11 Li   -0.01262   -0.00300    0.26538
 12 Li   -0.00104   -0.00336    0.33635
 13 Li    0.01690   -0.00061    0.25671
 14 Li   -0.01483   -0.00007    0.26587
 15 Li   -0.00186    0.00154    0.24347
 16 Li   -0.00321    0.00104    0.25916
 17 Li    0.00587    0.00881    0.25081
 18 Li    0.03876   -0.00866   -0.10882
 19 Li   -0.00076    0.00746    0.07833
 20 Li   -0.03652   -0.01494   -0.11602
 21 Li    0.00871   -0.00835   -0.00169
 22 Li    0.00289    0.00848    0.04321
 23 Li   -0.01088   -0.00282    0.00279
 24 Li   -0.01646    0.01807    0.06377
 25 Li    0.00207   -0.01985    0.00980
 26 Li    0.01504    0.01926    0.06033
 27 Li   -0.00406    0.05174    0.27057
 28 Li    0.08351   -0.05566   -0.04960
 29 Li   -0.06925   -0.05532   -0.03561
 30 Li    0.00572    2.10164   -4.61050
 31 Li    0.07555    0.04035   -0.03852
 32 Li   -0.07370    0.04326   -0.03822
 33 Li   -0.00105    0.03926   -0.03832
 34 Li   -0.00823    0.00630   -0.01539
 35 Li    0.00896    0.00044   -0.02324
 36 O     1.33805   -4.79664   11.08062
 37 O    -0.04068    0.02767    0.05676
 38 C    -0.63799    0.82703    1.13311
 39 C     0.13089   -0.31790    0.00710
 40 H    -0.01390   -0.20828    0.23483
 41 H    -0.09607   -0.08197   -0.04341
 42 H     0.01275   -0.02269   -0.10403
 43 H    -0.03424    0.03083   -0.01203
 44 H     0.41475   -0.30928    1.69735
 45 H     0.02004   -0.04654    0.07087
 46 N    -1.34912   -1.15400   -5.56883
 47 N     0.22345    3.88345   -3.99068

System changes: positions 

Initializing position-dependent things.

Density initialized from wave functions
       .-----------------------.  
      /|                       |  
     / |                       |  
    /  |                       |  
   /   |                       |  
  /    |                       |  
 *     |                       |  
 |     |                       |  
 |     |                       |  
 |     |                       |  
 |     |                   H   |  
 | C  H|                 O     |  
 |     |                 H     |  
 |     |       Li      Hi CH   |  
 |     |                       |  
 |O H  |     Li      Li      Li|  
 | N   |                  N    |  
 | Li  |  LLi     LLi     Li   |  
 |     |                       |  
 |     |Li      Li      LLi    |  
 |   Li|     Li      Li        |  
 |    Li  Li  Li  Li  Li  Li   |  
 | Li  |   Li      Li          |  
 |     |Li      Li      Li     |  
 Li    | Li      Li            |  
 |    Li      Li      Li       |  
 |     |                       |  
 |     |                       |  
 |     |                       |  
 |     |                       |  
 |     |                       |  
 |     |                       |  
 |     .-----------------------.  
 |    /                       /   
 |   /                       /    
 |  /                       /     
 | /                       /      
 |/                       /       
 *-----------------------*        

Positions:
   0 Li     1.617037    1.617037   10.000000    ( 0.0000,  0.0000,  0.0000)
   1 Li     4.851111    1.617037   10.000000    ( 0.0000,  0.0000,  0.0000)
   2 Li     8.085185    1.617037   10.000000    ( 0.0000,  0.0000,  0.0000)
   3 Li     1.617037    4.851111   10.000000    ( 0.0000,  0.0000,  0.0000)
   4 Li     4.851111    4.851111   10.000000    ( 0.0000,  0.0000,  0.0000)
   5 Li     8.085185    4.851111   10.000000    ( 0.0000,  0.0000,  0.0000)
   6 Li     1.617037    8.085185   10.000000    ( 0.0000,  0.0000,  0.0000)
   7 Li     4.851111    8.085185   10.000000    ( 0.0000,  0.0000,  0.0000)
   8 Li     8.085185    8.085185   10.000000    ( 0.0000,  0.0000,  0.0000)
   9 Li     0.000000    0.000000   11.617037    ( 0.0000,  0.0000,  0.0000)
  10 Li     3.234074    0.000000   11.617037    ( 0.0000,  0.0000,  0.0000)
  11 Li     6.468148    0.000000   11.617037    ( 0.0000,  0.0000,  0.0000)
  12 Li     0.000000    3.234074   11.617037    ( 0.0000,  0.0000,  0.0000)
  13 Li     3.234074    3.234074   11.617037    ( 0.0000,  0.0000,  0.0000)
  14 Li     6.468148    3.234074   11.617037    ( 0.0000,  0.0000,  0.0000)
  15 Li     0.000000    6.468148   11.617037    ( 0.0000,  0.0000,  0.0000)
  16 Li     3.234074    6.468148   11.617037    ( 0.0000,  0.0000,  0.0000)
  17 Li     6.468148    6.468148   11.617037    ( 0.0000,  0.0000,  0.0000)
  18 Li     1.617292    1.616982   13.469016    ( 0.0000,  0.0000,  0.0000)
  19 Li     4.851106    1.617087   13.470243    ( 0.0000,  0.0000,  0.0000)
  20 Li     8.084944    1.616940   13.468968    ( 0.0000,  0.0000,  0.0000)
  21 Li     1.617095    4.851056   13.469719    ( 0.0000,  0.0000,  0.0000)
  22 Li     4.851130    4.851167   13.470013    ( 0.0000,  0.0000,  0.0000)
  23 Li     8.085113    4.851092   13.469749    ( 0.0000,  0.0000,  0.0000)
  24 Li     1.616930    8.085303   13.470146    ( 0.0000,  0.0000,  0.0000)
  25 Li     4.851124    8.085053   13.469794    ( 0.0000,  0.0000,  0.0000)
  26 Li     8.085282    8.085310   13.470124    ( 0.0000,  0.0000,  0.0000)
  27 Li    -0.000026    0.000335   15.447707    ( 0.0000,  0.0000,  0.0000)
  28 Li     3.234621   -0.000364   15.445614    ( 0.0000,  0.0000,  0.0000)
  29 Li     6.467694   -0.000363   15.445705    ( 0.0000,  0.0000,  0.0000)
  30 Li     0.000038    3.247856   15.415726    ( 0.0000,  0.0000,  0.0000)
  31 Li     3.234573    3.234341   15.445685    ( 0.0000,  0.0000,  0.0000)
  32 Li     6.467661    3.234360   15.445686    ( 0.0000,  0.0000,  0.0000)
  33 Li    -0.000007    6.468406   15.445688    ( 0.0000,  0.0000,  0.0000)
  34 Li     3.234022    6.468187   15.445837    ( 0.0000,  0.0000,  0.0000)
  35 Li     6.468205    6.468148   15.445786    ( 0.0000,  0.0000,  0.0000)
  36 O      0.008764    1.585433   18.518869    ( 0.0000,  0.0000,  0.0000)
  37 O     -0.232956    1.661214   21.344511    ( 0.0000,  0.0000,  0.0000)
  38 C     -0.416584    2.793717   19.181935    ( 0.0000,  0.0000,  0.0000)
  39 C      0.157644    2.799828   20.583716    ( 0.0000,  0.0000,  0.0000)
  40 H     -0.119639    3.701274   18.647921    ( 0.0000,  0.0000,  0.0000)
  41 H     -1.502565    2.740411   19.206961    ( 0.0000,  0.0000,  0.0000)
  42 H     -0.219628    3.676060   21.119719    ( 0.0000,  0.0000,  0.0000)
  43 H      1.255608    2.877644   20.533879    ( 0.0000,  0.0000,  0.0000)
  44 H      0.950085    1.689520   18.287661    ( 0.0000,  0.0000,  0.0000)
  45 H     -0.136119    0.893603   20.765136    ( 0.0000,  0.0000,  0.0000)
  46 N     -0.008865    1.608898   16.909337    ( 0.0000,  0.0000,  0.0000)
  47 N      0.001464    2.739749   16.919563    ( 0.0000,  0.0000,  0.0000)

Unit cell:
           periodic     x           y           z      points  spacing
  1. axis:    yes    9.702222    0.000000    0.000000    60     0.1617
  2. axis:    yes    0.000000    9.702222    0.000000    60     0.1617
  3. axis:    no     0.000000    0.000000   26.351111   164     0.1607

  Lengths:   9.702222   9.702222  26.351111
  Angles:   90.000000  90.000000  90.000000

Effective grid spacing dv^(1/3) = 0.1614

     iter     time        total  log10-change:
                         energy  eigst   dens
iter:   1 12:44:25  -321.574549  -0.84
iter:   2 12:44:32  -321.550763  -1.16  -1.85
iter:   3 12:44:39  -321.539154c -1.66  -1.90
iter:   4 12:44:52  -321.525404c -1.74  -2.15
Writing to output.gpw (mode='')

iter:   5 12:44:59  -321.540889c -1.91  -2.35
iter:   6 12:45:07  -321.536540c -2.26  -2.18
iter:   7 12:45:14  -321.519299c -1.85  -2.20
iter:   8 12:45:22  -321.519765c -2.37  -2.49
iter:   9 12:45:29  -321.519040c -2.33  -2.61
Writing to output.gpw (mode='')

iter:  10 12:45:36  -321.518820c -2.39  -2.54
iter:  11 12:45:44  -321.518725c -2.79  -2.80
iter:  12 12:45:51  -321.518494c -3.12  -2.97
iter:  13 12:45:58  -321.518242c -3.20  -2.98
iter:  14 12:46:06  -321.518309c -3.58  -3.23
Writing to output.gpw (mode='')

iter:  15 12:46:13  -321.518270c -3.78  -3.25
iter:  16 12:46:20  -321.518250c -3.95  -3.25
iter:  17 12:46:28  -321.518232c -4.22  -3.46
iter:  18 12:46:35  -321.518214c -4.14  -3.47
iter:  19 12:46:42  -321.518237c -4.50  -3.54
Writing to output.gpw (mode='')

iter:  20 12:46:50  -321.518208c -4.67  -3.51
iter:  21 12:46:57  -321.518235c -4.31  -3.81
iter:  22 12:47:04  -321.518224c -4.84  -3.90
iter:  23 12:47:12  -321.518222c -4.86  -3.99
iter:  24 12:47:19  -321.518225c -5.40  -4.09c
Writing to output.gpw (mode='')

iter:  25 12:47:26  -321.518226c -5.54  -4.24c
iter:  26 12:47:34  -321.518226c -5.38  -4.29c
iter:  27 12:47:41  -321.518228c -5.90  -4.40c
iter:  28 12:47:48  -321.518232c -5.86  -4.54c
iter:  29 12:47:56  -321.518231c -6.14  -4.55c
Writing to output.gpw (mode='')

iter:  30 12:48:03  -321.518230c -6.06  -4.67c
iter:  31 12:48:10  -321.518232c -6.38  -4.68c
iter:  32 12:48:17  -321.518232c -6.29  -4.72c
iter:  33 12:48:25  -321.518235c -6.43  -4.82c
iter:  34 12:48:32  -321.518233c -6.46  -4.89c
Writing to output.gpw (mode='')

iter:  35 12:48:39  -321.518233c -6.66  -4.95c
iter:  36 12:48:47  -321.518233c -6.84  -4.93c
iter:  37 12:48:54  -321.518231c -6.82  -4.98c
iter:  38 12:49:01  -321.518232c -6.94  -5.27c
iter:  39 12:49:09  -321.518233c -6.97  -5.23c
Writing to output.gpw (mode='')

iter:  40 12:49:16  -321.518234c -7.29  -5.26c
iter:  41 12:49:23  -321.518233c -7.27  -5.43c
iter:  42 12:49:31  -321.518233c -7.50c -5.64c

Converged after 42 iterations.

Dipole moment: (0.865855, -3.263330, 0.032094) |e|*Ang

Energy contributions relative to reference atoms: (reference = -16475.706344)

Kinetic:       +192.538328
Potential:     -176.013463
External:        +0.000000
XC:            -339.088104
Entropy (-ST):   -0.156212
Local:           +1.123111
--------------------------
Free energy:   -321.596339
Extrapolated:  -321.518233

Dipole-layer corrected work functions: 3.382487, 3.320792 eV

Showing only first 2 kpts
 Kpt  Band  Eigenvalues  Occupancy
  0    34     -3.60301    1.98697
  0    35     -3.49018    1.88215
  0    36     -3.25573    0.25612
  0    37     -3.10638    0.01471

  1    34     -3.41943    1.59017
  1    35     -3.35918    1.07529
  1    36     -3.26484    0.29966
  1    37     -3.25776    0.26535


Fermi level: -3.35164

Gap: 0.020 eV
Transition (v -> c):
  (s=0, k=1, n=35, [0.12, -0.12, 0.00]) -> (s=0, k=4, n=36, [0.38, -0.38, 0.00])
Writing to output.gpw (mode='')


Forces in eV/Ang:
  0 Li    0.02228   -0.00177   -0.27892
  1 Li   -0.00178    0.00098   -0.26969
  2 Li   -0.01998   -0.00296   -0.27756
  3 Li   -0.00194    0.01798   -0.27700
  4 Li   -0.00039   -0.00878   -0.26451
  5 Li    0.00128    0.01880   -0.27509
  6 Li   -0.00654   -0.01291   -0.26724
  7 Li   -0.00018    0.00494   -0.27911
  8 Li    0.00707   -0.01506   -0.26498
  9 Li    0.00161   -0.00400    0.29498
 10 Li    0.00957    0.00087    0.26262
 11 Li   -0.01329   -0.00278    0.26480
 12 Li   -0.00091   -0.00354    0.33937
 13 Li    0.01676   -0.00056    0.25651
 14 Li   -0.01495    0.00014    0.26542
 15 Li   -0.00170    0.00180    0.24291
 16 Li   -0.00316    0.00133    0.25857
 17 Li    0.00560    0.00856    0.25047
 18 Li    0.04041   -0.01122   -0.11023
 19 Li   -0.00082    0.00768    0.07800
 20 Li   -0.03813   -0.01719   -0.11691
 21 Li    0.01158   -0.00577   -0.00405
 22 Li    0.00238    0.00828    0.04357
 23 Li   -0.01327   -0.00020    0.00036
 24 Li   -0.01652    0.01879    0.06393
 25 Li    0.00250   -0.02002    0.00939
 26 Li    0.01481    0.01984    0.05992
 27 Li   -0.00565    0.04126    0.25910
 28 Li    0.08175   -0.05564   -0.04948
 29 Li   -0.06813   -0.05446   -0.03530
 30 Li    0.00527    1.99367   -4.35070
 31 Li    0.08081    0.04136   -0.04352
 32 Li   -0.07633    0.04340   -0.04038
 33 Li   -0.00104    0.04011   -0.03873
 34 Li   -0.00920    0.00512   -0.01534
 35 Li    0.00990   -0.00071   -0.02276
 36 O     1.27799   -3.84088    9.55098
 37 O    -0.04267    0.03355    0.04412
 38 C    -0.41103    0.43394    1.10375
 39 C     0.05597   -0.11789    0.16234
 40 H     0.01955   -0.21165    0.19106
 41 H    -0.14390   -0.07242   -0.02168
 42 H     0.03505   -0.02425   -0.05255
 43 H    -0.03179    0.02263   -0.02562
 44 H     0.19076   -0.33215    1.61492
 45 H     0.02332   -0.03212    0.05966
 46 N    -1.13009   -1.45317   -5.19275
 47 N     0.16082    3.59410   -3.12978

System changes: positions 

Initializing position-dependent things.

Density initialized from wave functions
       .-----------------------.  
      /|                       |  
     / |                       |  
    /  |                       |  
   /   |                       |  
  /    |                       |  
 *     |                       |  
 |     |                       |  
 |     |                       |  
 |     |                       |  
 |     |                   H   |  
 | C  H|                 O     |  
 |     |                 H     |  
 |     |       Li      Hi CH   |  
 |O    |                       |  
 |  H  |     Li      Li      Li|  
 | N   |                       |  
 | Li  |  LLi     LLi     Ni   |  
 |     |                       |  
 |     |Li      Li      LLi    |  
 |   Li|     Li      Li        |  
 |    Li  Li  Li  Li  Li  Li   |  
 | Li  |   Li      Li          |  
 |     |Li      Li      Li     |  
 Li    | Li      Li            |  
 |    Li      Li      Li       |  
 |     |                       |  
 |     |                       |  
 |     |                       |  
 |     |                       |  
 |     |                       |  
 |     |                       |  
 |     .-----------------------.  
 |    /                       /   
 |   /                       /    
 |  /                       /     
 | /                       /      
 |/                       /       
 *-----------------------*        

Positions:
   0 Li     1.617037    1.617037   10.000000    ( 0.0000,  0.0000,  0.0000)
   1 Li     4.851111    1.617037   10.000000    ( 0.0000,  0.0000,  0.0000)
   2 Li     8.085185    1.617037   10.000000    ( 0.0000,  0.0000,  0.0000)
   3 Li     1.617037    4.851111   10.000000    ( 0.0000,  0.0000,  0.0000)
   4 Li     4.851111    4.851111   10.000000    ( 0.0000,  0.0000,  0.0000)
   5 Li     8.085185    4.851111   10.000000    ( 0.0000,  0.0000,  0.0000)
   6 Li     1.617037    8.085185   10.000000    ( 0.0000,  0.0000,  0.0000)
   7 Li     4.851111    8.085185   10.000000    ( 0.0000,  0.0000,  0.0000)
   8 Li     8.085185    8.085185   10.000000    ( 0.0000,  0.0000,  0.0000)
   9 Li     0.000000    0.000000   11.617037    ( 0.0000,  0.0000,  0.0000)
  10 Li     3.234074    0.000000   11.617037    ( 0.0000,  0.0000,  0.0000)
  11 Li     6.468148    0.000000   11.617037    ( 0.0000,  0.0000,  0.0000)
  12 Li     0.000000    3.234074   11.617037    ( 0.0000,  0.0000,  0.0000)
  13 Li     3.234074    3.234074   11.617037    ( 0.0000,  0.0000,  0.0000)
  14 Li     6.468148    3.234074   11.617037    ( 0.0000,  0.0000,  0.0000)
  15 Li     0.000000    6.468148   11.617037    ( 0.0000,  0.0000,  0.0000)
  16 Li     3.234074    6.468148   11.617037    ( 0.0000,  0.0000,  0.0000)
  17 Li     6.468148    6.468148   11.617037    ( 0.0000,  0.0000,  0.0000)
  18 Li     1.617556    1.616882   13.468291    ( 0.0000,  0.0000,  0.0000)
  19 Li     4.851098    1.617140   13.470734    ( 0.0000,  0.0000,  0.0000)
  20 Li     8.084697    1.616807   13.468212    ( 0.0000,  0.0000,  0.0000)
  21 Li     1.617206    4.851056   13.469644    ( 0.0000,  0.0000,  0.0000)
  22 Li     4.851138    4.851207   13.470293    ( 0.0000,  0.0000,  0.0000)
  23 Li     8.084997    4.851129   13.469699    ( 0.0000,  0.0000,  0.0000)
  24 Li     1.616825    8.085422   13.470541    ( 0.0000,  0.0000,  0.0000)
  25 Li     4.851146    8.084930   13.469851    ( 0.0000,  0.0000,  0.0000)
  26 Li     8.085372    8.085433   13.470484    ( 0.0000,  0.0000,  0.0000)
  27 Li    -0.000086    0.000601   15.449364    ( 0.0000,  0.0000,  0.0000)
  28 Li     3.235112   -0.000725   15.445307    ( 0.0000,  0.0000,  0.0000)
  29 Li     6.467289   -0.000695   15.445505    ( 0.0000,  0.0000,  0.0000)
  30 Li     0.000059    3.259139   15.390742    ( 0.0000,  0.0000,  0.0000)
  31 Li     3.235092    3.234616   15.445388    ( 0.0000,  0.0000,  0.0000)
  32 Li     6.467205    3.234629   15.445456    ( 0.0000,  0.0000,  0.0000)
  33 Li    -0.000012    6.468658   15.445446    ( 0.0000,  0.0000,  0.0000)
  34 Li     3.233965    6.468210   15.445737    ( 0.0000,  0.0000,  0.0000)
  35 Li     6.468265    6.468136   15.445645    ( 0.0000,  0.0000,  0.0000)
  36 O      0.016367    1.574499   18.556587    ( 0.0000,  0.0000,  0.0000)
  37 O     -0.233228    1.661408   21.344640    ( 0.0000,  0.0000,  0.0000)
  38 C     -0.416421    2.791592   19.188341    ( 0.0000,  0.0000,  0.0000)
  39 C      0.156980    2.801628   20.586582    ( 0.0000,  0.0000,  0.0000)
  40 H     -0.119099    3.699918   18.648514    ( 0.0000,  0.0000,  0.0000)
  41 H     -1.504122    2.740109   19.207116    ( 0.0000,  0.0000,  0.0000)
  42 H     -0.219094    3.675786   21.119938    ( 0.0000,  0.0000,  0.0000)
  43 H      1.255490    2.877673   20.533547    ( 0.0000,  0.0000,  0.0000)
  44 H      0.948035    1.687360   18.296432    ( 0.0000,  0.0000,  0.0000)
  45 H     -0.135949    0.893590   20.765397    ( 0.0000,  0.0000,  0.0000)
  46 N     -0.013326    1.611340   16.883021    ( 0.0000,  0.0000,  0.0000)
  47 N      0.001902    2.741735   16.913670    ( 0.0000,  0.0000,  0.0000)

Unit cell:
           periodic     x           y           z      points  spacing
  1. axis:    yes    9.702222    0.000000    0.000000    60     0.1617
  2. axis:    yes    0.000000    9.702222    0.000000    60     0.1617
  3. axis:    no     0.000000    0.000000   26.351111   164     0.1607

  Lengths:   9.702222   9.702222  26.351111
  Angles:   90.000000  90.000000  90.000000

Effective grid spacing dv^(1/3) = 0.1614

     iter     time        total  log10-change:
                         energy  eigst   dens
iter:   1 12:49:40  -322.206509  -0.83
iter:   2 12:49:53  -322.208456  -1.32  -2.09
iter:   3 12:50:00  -322.207965c -1.70  -2.16
iter:   4 12:50:08  -322.218597c -1.61  -2.39
Writing to output.gpw (mode='')

iter:   5 12:50:15  -322.200549c -1.88  -2.24
iter:   6 12:50:22  -322.200771c -2.33  -2.49
iter:   7 12:50:30  -322.199656c -2.28  -2.59
iter:   8 12:50:37  -322.199337c -2.66  -2.67
iter:   9 12:50:45  -322.199505c -2.78  -2.61
Writing to output.gpw (mode='')

iter:  10 12:50:52  -322.199314c -2.97  -2.75
iter:  11 12:51:00  -322.199825c -2.84  -2.83
iter:  12 12:51:07  -322.199437c -3.28  -3.00
iter:  13 12:51:15  -322.199433c -3.55  -3.15
iter:  14 12:51:22  -322.199384c -3.47  -3.13
Writing to output.gpw (mode='')

iter:  15 12:51:30  -322.199384c -3.78  -3.17
iter:  16 12:51:37  -322.199312c -3.97  -3.41
iter:  17 12:51:45  -322.199322c -3.84  -3.55
iter:  18 12:51:52  -322.199318c -4.56  -3.64
iter:  19 12:51:59  -322.199341c -4.37  -3.72
Writing to output.gpw (mode='')

iter:  20 12:52:07  -322.199331c -4.64  -3.76
iter:  21 12:52:14  -322.199337c -4.59  -3.86
iter:  22 12:52:22  -322.199339c -4.86  -3.86
iter:  23 12:52:29  -322.199343c -5.26  -4.02c
iter:  24 12:52:37  -322.199344c -5.06  -4.23c
Writing to output.gpw (mode='')

iter:  25 12:52:44  -322.199351c -5.53  -4.23c
iter:  26 12:52:51  -322.199351c -5.45  -4.43c
iter:  27 12:52:59  -322.199349c -5.94  -4.50c
iter:  28 12:53:06  -322.199346c -5.89  -4.65c
iter:  29 12:53:13  -322.199348c -5.70  -4.80c
Writing to output.gpw (mode='')

iter:  30 12:53:21  -322.199348c -6.28  -4.77c
iter:  31 12:53:28  -322.199348c -6.33  -4.74c
iter:  32 12:53:36  -322.199348c -6.11  -4.79c
iter:  33 12:53:43  -322.199348c -6.32  -4.75c
iter:  34 12:53:51  -322.199348c -6.45  -4.85c
Writing to output.gpw (mode='')

iter:  35 12:53:58  -322.199348c -6.68  -4.87c
iter:  36 12:54:05  -322.199347c -6.77  -4.86c
iter:  37 12:54:13  -322.199348c -6.83  -4.90c
iter:  38 12:54:20  -322.199349c -6.65  -5.01c
iter:  39 12:54:28  -322.199349c -7.13  -5.06c
Writing to output.gpw (mode='')

iter:  40 12:54:35  -322.199351c -7.11  -5.11c
iter:  41 12:54:51  -322.199350c -7.30  -5.06c
iter:  42 12:54:59  -322.199350c -7.32  -5.30c
iter:  43 12:55:06  -322.199349c -7.42c -5.43c

Converged after 43 iterations.

Dipole moment: (0.650755, -3.189754, -0.011322) |e|*Ang

Energy contributions relative to reference atoms: (reference = -16475.706344)

Kinetic:       +189.939003
Potential:     -174.462951
External:        +0.000000
XC:            -338.721225
Entropy (-ST):   -0.155518
Local:           +1.123583
--------------------------
Free energy:   -322.277108
Extrapolated:  -322.199349

Dipole-layer corrected work functions: 3.384533, 3.406297 eV

Showing only first 2 kpts
 Kpt  Band  Eigenvalues  Occupancy
  0    34     -3.64782    1.98724
  0    35     -3.53644    1.88755
  0    36     -3.30005    0.25857
  0    37     -3.14875    0.01430

  1    34     -3.46489    1.60103
  1    35     -3.40106    1.05639
  1    36     -3.30869    0.30001
  1    37     -3.29910    0.25431


Fermi level: -3.39541

Gap: 0.017 eV
Transition (v -> c):
  (s=0, k=1, n=35, [0.12, -0.12, 0.00]) -> (s=0, k=4, n=36, [0.38, -0.38, 0.00])
Writing to output.gpw (mode='')


Forces in eV/Ang:
  0 Li    0.02231   -0.00198   -0.27946
  1 Li   -0.00158    0.00090   -0.26934
  2 Li   -0.02022   -0.00301   -0.27822
  3 Li   -0.00202    0.01850   -0.27762
  4 Li   -0.00038   -0.00891   -0.26415
  5 Li    0.00141    0.01898   -0.27598
  6 Li   -0.00657   -0.01314   -0.26691
  7 Li   -0.00031    0.00513   -0.28010
  8 Li    0.00714   -0.01514   -0.26448
  9 Li    0.00151   -0.00483    0.29433
 10 Li    0.01082    0.00055    0.26196
 11 Li   -0.01442   -0.00259    0.26415
 12 Li   -0.00081   -0.00346    0.34368
 13 Li    0.01632   -0.00051    0.25674
 14 Li   -0.01472    0.00031    0.26548
 15 Li   -0.00149    0.00218    0.24241
 16 Li   -0.00287    0.00167    0.25769
 17 Li    0.00506    0.00847    0.25000
 18 Li    0.04171   -0.01478   -0.11221
 19 Li   -0.00094    0.00802    0.07764
 20 Li   -0.03930   -0.02062   -0.11791
 21 Li    0.01614   -0.00075   -0.01002
 22 Li    0.00181    0.00742    0.04424
 23 Li   -0.01731    0.00499   -0.00577
 24 Li   -0.01644    0.01915    0.06359
 25 Li    0.00302   -0.01988    0.00907
 26 Li    0.01442    0.02007    0.05881
 27 Li   -0.00769    0.03382    0.25127
 28 Li    0.07916   -0.05589   -0.04904
 29 Li   -0.06565   -0.05333   -0.03393
 30 Li    0.00434    1.78990   -3.85910
 31 Li    0.08396    0.04226   -0.04658
 32 Li   -0.07639    0.04296   -0.03982
 33 Li   -0.00100    0.04073   -0.03845
 34 Li   -0.00973    0.00410   -0.01559
 35 Li    0.01035   -0.00172   -0.02245
 36 O     1.07121   -3.17383    8.12092
 37 O    -0.04995    0.04865    0.08385
 38 C    -0.31901    0.31576    1.00892
 39 C     0.06504   -0.07716    0.24218
 40 H     0.02557   -0.29369    0.21862
 41 H    -0.10421   -0.07769    0.00453
 42 H     0.01519    0.05131    0.04599
 43 H    -0.04867    0.02679   -0.02006
 44 H     0.13809   -0.31766    1.48078
 45 H     0.03208   -0.00263    0.03796
 46 N    -1.01405   -1.22598   -4.68818
 47 N     0.10540    2.93640   -2.67191

System changes: positions 

Initializing position-dependent things.

Density initialized from wave functions
       .-----------------------.  
      /|                       |  
     / |                       |  
    /  |                       |  
   /   |                       |  
  /    |                       |  
 *     |                       |  
 |     |                       |  
 |     |                       |  
 |     |                       |  
 |     |                   H   |  
 | C  H|                 O     |  
 |     |                 H     |  
 |     |       Li      Hi CH   |  
 |O    |                       |  
 |  H  |     Li      Li      Li|  
 | N   |                       |  
 | Li  |  LLi     LLi     Ni   |  
 |     |                       |  
 |     |Li      Li      LLi    |  
 |   Li|     Li      Li        |  
 |    Li  Li  Li  Li  Li  Li   |  
 | Li  |   Li      Li          |  
 |     |Li      Li      Li     |  
 Li    | Li      Li            |  
 |    Li      Li      Li       |  
 |     |                       |  
 |     |                       |  
 |     |                       |  
 |     |                       |  
 |     |                       |  
 |     |                       |  
 |     .-----------------------.  
 |    /                       /   
 |   /                       /    
 |  /                       /     
 | /                       /      
 |/                       /       
 *-----------------------*        

Positions:
   0 Li     1.617037    1.617037   10.000000    ( 0.0000,  0.0000,  0.0000)
   1 Li     4.851111    1.617037   10.000000    ( 0.0000,  0.0000,  0.0000)
   2 Li     8.085185    1.617037   10.000000    ( 0.0000,  0.0000,  0.0000)
   3 Li     1.617037    4.851111   10.000000    ( 0.0000,  0.0000,  0.0000)
   4 Li     4.851111    4.851111   10.000000    ( 0.0000,  0.0000,  0.0000)
   5 Li     8.085185    4.851111   10.000000    ( 0.0000,  0.0000,  0.0000)
   6 Li     1.617037    8.085185   10.000000    ( 0.0000,  0.0000,  0.0000)
   7 Li     4.851111    8.085185   10.000000    ( 0.0000,  0.0000,  0.0000)
   8 Li     8.085185    8.085185   10.000000    ( 0.0000,  0.0000,  0.0000)
   9 Li     0.000000    0.000000   11.617037    ( 0.0000,  0.0000,  0.0000)
  10 Li     3.234074    0.000000   11.617037    ( 0.0000,  0.0000,  0.0000)
  11 Li     6.468148    0.000000   11.617037    ( 0.0000,  0.0000,  0.0000)
  12 Li     0.000000    3.234074   11.617037    ( 0.0000,  0.0000,  0.0000)
  13 Li     3.234074    3.234074   11.617037    ( 0.0000,  0.0000,  0.0000)
  14 Li     6.468148    3.234074   11.617037    ( 0.0000,  0.0000,  0.0000)
  15 Li     0.000000    6.468148   11.617037    ( 0.0000,  0.0000,  0.0000)
  16 Li     3.234074    6.468148   11.617037    ( 0.0000,  0.0000,  0.0000)
  17 Li     6.468148    6.468148   11.617037    ( 0.0000,  0.0000,  0.0000)
  18 Li     1.617945    1.616694   13.467253    ( 0.0000,  0.0000,  0.0000)
  19 Li     4.851087    1.617218   13.471418    ( 0.0000,  0.0000,  0.0000)
  20 Li     8.084333    1.616572   13.467142    ( 0.0000,  0.0000,  0.0000)
  21 Li     1.617423    4.851127   13.469459    ( 0.0000,  0.0000,  0.0000)
  22 Li     4.851142    4.851254   13.470695    ( 0.0000,  0.0000,  0.0000)
  23 Li     8.084779    4.851252   13.469547    ( 0.0000,  0.0000,  0.0000)
  24 Li     1.616680    8.085595   13.471092    ( 0.0000,  0.0000,  0.0000)
  25 Li     4.851183    8.084758   13.469928    ( 0.0000,  0.0000,  0.0000)
  26 Li     8.085493    8.085610   13.470978    ( 0.0000,  0.0000,  0.0000)
  27 Li    -0.000193    0.000842   15.451539    ( 0.0000,  0.0000,  0.0000)
  28 Li     3.235766   -0.001230   15.444882    ( 0.0000,  0.0000,  0.0000)
  29 Li     6.466753   -0.001147   15.445238    ( 0.0000,  0.0000,  0.0000)
  30 Li     0.000078    3.272047   15.363034    ( 0.0000,  0.0000,  0.0000)
  31 Li     3.235871    3.235011   15.444927    ( 0.0000,  0.0000,  0.0000)
  32 Li     6.466552    3.235001   15.445131    ( 0.0000,  0.0000,  0.0000)
  33 Li    -0.000019    6.469022   15.445111    ( 0.0000,  0.0000,  0.0000)
  34 Li     3.233875    6.468229   15.445594    ( 0.0000,  0.0000,  0.0000)
  35 Li     6.468358    6.468104   15.445452    ( 0.0000,  0.0000,  0.0000)
  36 O      0.023708    1.564905   18.594719    ( 0.0000,  0.0000,  0.0000)
  37 O     -0.233733    1.661945   21.345555    ( 0.0000,  0.0000,  0.0000)
  38 C     -0.415774    2.788625   19.195955    ( 0.0000,  0.0000,  0.0000)
  39 C      0.156626    2.803785   20.591194    ( 0.0000,  0.0000,  0.0000)
  40 H     -0.118412    3.696634   18.650067    ( 0.0000,  0.0000,  0.0000)
  41 H     -1.505362    2.739530   19.207656    ( 0.0000,  0.0000,  0.0000)
  42 H     -0.218813    3.676735   21.121689    ( 0.0000,  0.0000,  0.0000)
  43 H      1.255003    2.877831   20.533247    ( 0.0000,  0.0000,  0.0000)
  44 H      0.945633    1.684596   18.307061    ( 0.0000,  0.0000,  0.0000)
  45 H     -0.135572    0.893992   20.765442    ( 0.0000,  0.0000,  0.0000)
  46 N     -0.018720    1.613299   16.851932    ( 0.0000,  0.0000,  0.0000)
  47 N      0.001809    2.742514   16.907317    ( 0.0000,  0.0000,  0.0000)

Unit cell:
           periodic     x           y           z      points  spacing
  1. axis:    yes    9.702222    0.000000    0.000000    60     0.1617
  2. axis:    yes    0.000000    9.702222    0.000000    60     0.1617
  3. axis:    no     0.000000    0.000000   26.351111   164     0.1607

  Lengths:   9.702222   9.702222  26.351111
  Angles:   90.000000  90.000000  90.000000

Effective grid spacing dv^(1/3) = 0.1614

     iter     time        total  log10-change:
                         energy  eigst   dens
iter:   1 12:55:15  -322.829828  -0.82
iter:   2 12:55:22  -322.831901  -1.32  -2.10
iter:   3 12:55:30  -322.831772c -1.71  -2.17
iter:   4 12:55:37  -322.837195c -1.84  -2.37
Writing to output.gpw (mode='')

iter:   5 12:55:45  -322.825369c -1.85  -2.29
iter:   6 12:55:52  -322.825664c -2.34  -2.44
iter:   7 12:56:00  -322.824756c -2.28  -2.60
iter:   8 12:56:07  -322.824574c -2.71  -2.69
iter:   9 12:56:14  -322.824587c -2.76  -2.65
Writing to output.gpw (mode='')

iter:  10 12:56:22  -322.824669c -3.01  -2.79
iter:  11 12:56:29  -322.825109c -3.01  -2.81
iter:  12 12:56:37  -322.824830c -3.30  -3.01
iter:  13 12:56:44  -322.824793c -3.60  -3.09
iter:  14 12:56:51  -322.824741c -3.45  -3.14
Writing to output.gpw (mode='')

iter:  15 12:57:00  -322.824784c -3.80  -3.21
iter:  16 12:57:08  -322.824730c -4.05  -3.37
iter:  17 12:57:15  -322.824718c -3.87  -3.52
iter:  18 12:57:22  -322.824720c -4.48  -3.63
iter:  19 12:57:30  -322.824749c -4.30  -3.71
Writing to output.gpw (mode='')

iter:  20 12:57:37  -322.824741c -4.64  -3.72
iter:  21 12:57:45  -322.824743c -4.57  -3.77
iter:  22 12:57:52  -322.824755c -4.69  -3.82
iter:  23 12:58:00  -322.824761c -5.10  -3.90
iter:  24 12:58:07  -322.824757c -4.84  -4.10c
Writing to output.gpw (mode='')

iter:  25 12:58:14  -322.824763c -5.22  -4.02c
iter:  26 12:58:22  -322.824760c -5.03  -4.18c
iter:  27 12:58:29  -322.824761c -5.48  -4.36c
iter:  28 12:58:36  -322.824760c -5.63  -4.35c
iter:  29 12:58:43  -322.824764c -5.55  -4.48c
Writing to output.gpw (mode='')

iter:  30 12:58:51  -322.824763c -5.89  -4.52c
iter:  31 12:58:58  -322.824763c -5.69  -4.57c
iter:  32 12:59:05  -322.824763c -6.12  -4.68c
iter:  33 12:59:13  -322.824765c -6.24  -4.69c
iter:  34 12:59:20  -322.824765c -6.24  -4.77c
Writing to output.gpw (mode='')

iter:  35 12:59:27  -322.824764c -6.36  -4.96c
iter:  36 12:59:35  -322.824765c -6.31  -4.98c
iter:  37 12:59:48  -322.824765c -6.82  -5.09c
iter:  38 12:59:56  -322.824765c -6.49  -5.14c
iter:  39 13:00:03  -322.824765c -6.64  -5.34c
Writing to output.gpw (mode='')

iter:  40 13:00:11  -322.824765c -6.81  -5.41c
iter:  41 13:00:18  -322.824766c -6.76  -5.52c
iter:  42 13:00:25  -322.824766c -6.89  -5.48c
iter:  43 13:00:33  -322.824766c -7.29  -5.57c
iter:  44 13:00:40  -322.824766c -7.32  -5.78c
Writing to output.gpw (mode='')

iter:  45 13:00:47  -322.824766c -7.24  -5.80c
iter:  46 13:00:55  -322.824766c -7.65c -5.87c

Converged after 46 iterations.

Dipole moment: (0.635724, -3.111052, -0.058757) |e|*Ang

Energy contributions relative to reference atoms: (reference = -16475.706344)

Kinetic:       +187.527762
Potential:     -172.993002
External:        +0.000000
XC:            -338.405857
Entropy (-ST):   -0.154732
Local:           +1.123697
--------------------------
Free energy:   -322.902132
Extrapolated:  -322.824766

Dipole-layer corrected work functions: 3.386632, 3.499583 eV

Showing only first 2 kpts
 Kpt  Band  Eigenvalues  Occupancy
  0    34     -3.69663    1.98752
  0    35     -3.58728    1.89405
  0    36     -3.34772    0.25849
  0    37     -3.19496    0.01389

  1    34     -3.51423    1.61144
  1    35     -3.44681    1.03701
  1    36     -3.35757    0.30614
  1    37     -3.34303    0.23807


Fermi level: -3.44311

Gap: 0.013 eV
Transition (v -> c):
  (s=0, k=1, n=35, [0.12, -0.12, 0.00]) -> (s=0, k=4, n=36, [0.38, -0.38, 0.00])
Writing to output.gpw (mode='')


Forces in eV/Ang:
  0 Li    0.02229   -0.00218   -0.28006
  1 Li   -0.00140    0.00079   -0.26892
  2 Li   -0.02036   -0.00311   -0.27892
  3 Li   -0.00217    0.01906   -0.27847
  4 Li   -0.00039   -0.00900   -0.26384
  5 Li    0.00162    0.01925   -0.27703
  6 Li   -0.00665   -0.01343   -0.26653
  7 Li   -0.00043    0.00534   -0.28120
  8 Li    0.00719   -0.01531   -0.26390
  9 Li    0.00145   -0.00574    0.29370
 10 Li    0.01232    0.00015    0.26132
 11 Li   -0.01584   -0.00258    0.26343
 12 Li   -0.00077   -0.00333    0.34828
 13 Li    0.01586   -0.00047    0.25712
 14 Li   -0.01445    0.00049    0.26583
 15 Li   -0.00129    0.00265    0.24186
 16 Li   -0.00241    0.00206    0.25676
 17 Li    0.00441    0.00858    0.24938
 18 Li    0.04274   -0.01868   -0.11333
 19 Li   -0.00099    0.00826    0.07676
 20 Li   -0.04022   -0.02452   -0.11811
 21 Li    0.02161    0.00544   -0.01734
 22 Li    0.00133    0.00660    0.04465
 23 Li   -0.02226    0.01141   -0.01325
 24 Li   -0.01626    0.01952    0.06297
 25 Li    0.00356   -0.01965    0.00870
 26 Li    0.01394    0.02027    0.05733
 27 Li   -0.01040    0.02405    0.24008
 28 Li    0.07629   -0.05581   -0.04820
 29 Li   -0.06290   -0.05205   -0.03241
 30 Li    0.00402    1.58185   -3.35982
 31 Li    0.08653    0.04281   -0.04873
 32 Li   -0.07602    0.04232   -0.03879
 33 Li   -0.00100    0.04124   -0.03765
 34 Li   -0.01036    0.00307   -0.01572
 35 Li    0.01090   -0.00277   -0.02203
 36 O     0.95928   -2.68316    6.73168
 37 O    -0.05280    0.03752    0.12367
 38 C    -0.26807    0.26564    0.92570
 39 C     0.04408   -0.02887    0.30522
 40 H     0.03744   -0.34762    0.23964
 41 H    -0.06184   -0.08104    0.03631
 42 H     0.00364    0.10830    0.13405
 43 H    -0.04718    0.03308   -0.00451
 44 H     0.07536   -0.30208    1.33855
 45 H     0.03843    0.04877    0.03450
 46 N    -0.87819   -1.02670   -4.20121
 47 N     0.06832    2.39701   -2.27531

System changes: positions 

Initializing position-dependent things.

Density initialized from wave functions
       .-----------------------.  
      /|                       |  
     / |                       |  
    /  |                       |  
   /   |                       |  
  /    |                       |  
 *     |                       |  
 |     |                       |  
 |     |                       |  
 |     |                       |  
 |     |                   H   |  
 | C  H|                 O     |  
 |     |                 H     |  
 |     |       Li      Hi CH   |  
 |O    |                       |  
 |  H  |     Li      Li      Li|  
 | N   |                       |  
 | Li  |  LLi     LLi     Ni   |  
 |     |                       |  
 |     |Li      Li      LLi    |  
 |   Li|     Li      Li        |  
 |    Li  Li  Li  Li  Li  Li   |  
 | Li  |   Li      Li          |  
 |     |Li      Li      Li     |  
 Li    | Li      Li            |  
 |    Li      Li      Li       |  
 |     |                       |  
 |     |                       |  
 |     |                       |  
 |     |                       |  
 |     |                       |  
 |     |                       |  
 |     .-----------------------.  
 |    /                       /   
 |   /                       /    
 |  /                       /     
 | /                       /      
 |/                       /       
 *-----------------------*        

Positions:
   0 Li     1.617037    1.617037   10.000000    ( 0.0000,  0.0000,  0.0000)
   1 Li     4.851111    1.617037   10.000000    ( 0.0000,  0.0000,  0.0000)
   2 Li     8.085185    1.617037   10.000000    ( 0.0000,  0.0000,  0.0000)
   3 Li     1.617037    4.851111   10.000000    ( 0.0000,  0.0000,  0.0000)
   4 Li     4.851111    4.851111   10.000000    ( 0.0000,  0.0000,  0.0000)
   5 Li     8.085185    4.851111   10.000000    ( 0.0000,  0.0000,  0.0000)
   6 Li     1.617037    8.085185   10.000000    ( 0.0000,  0.0000,  0.0000)
   7 Li     4.851111    8.085185   10.000000    ( 0.0000,  0.0000,  0.0000)
   8 Li     8.085185    8.085185   10.000000    ( 0.0000,  0.0000,  0.0000)
   9 Li     0.000000    0.000000   11.617037    ( 0.0000,  0.0000,  0.0000)
  10 Li     3.234074    0.000000   11.617037    ( 0.0000,  0.0000,  0.0000)
  11 Li     6.468148    0.000000   11.617037    ( 0.0000,  0.0000,  0.0000)
  12 Li     0.000000    3.234074   11.617037    ( 0.0000,  0.0000,  0.0000)
  13 Li     3.234074    3.234074   11.617037    ( 0.0000,  0.0000,  0.0000)
  14 Li     6.468148    3.234074   11.617037    ( 0.0000,  0.0000,  0.0000)
  15 Li     0.000000    6.468148   11.617037    ( 0.0000,  0.0000,  0.0000)
  16 Li     3.234074    6.468148   11.617037    ( 0.0000,  0.0000,  0.0000)
  17 Li     6.468148    6.468148   11.617037    ( 0.0000,  0.0000,  0.0000)
  18 Li     1.618476    1.616394   13.465862    ( 0.0000,  0.0000,  0.0000)
  19 Li     4.851071    1.617323   13.472318    ( 0.0000,  0.0000,  0.0000)
  20 Li     8.083834    1.616207   13.465718    ( 0.0000,  0.0000,  0.0000)
  21 Li     1.617785    4.851303   13.469115    ( 0.0000,  0.0000,  0.0000)
  22 Li     4.851143    4.851308   13.471236    ( 0.0000,  0.0000,  0.0000)
  23 Li     8.084422    4.851503   13.469248    ( 0.0000,  0.0000,  0.0000)
  24 Li     1.616489    8.085832   13.471822    ( 0.0000,  0.0000,  0.0000)
  25 Li     4.851238    8.084531   13.470024    ( 0.0000,  0.0000,  0.0000)
  26 Li     8.085648    8.085851   13.471621    ( 0.0000,  0.0000,  0.0000)
  27 Li    -0.000372    0.001009   15.454265    ( 0.0000,  0.0000,  0.0000)
  28 Li     3.236606   -0.001901   15.444326    ( 0.0000,  0.0000,  0.0000)
  29 Li     6.466070   -0.001735   15.444896    ( 0.0000,  0.0000,  0.0000)
  30 Li     0.000105    3.286620   15.332634    ( 0.0000,  0.0000,  0.0000)
  31 Li     3.236947    3.235542   15.444289    ( 0.0000,  0.0000,  0.0000)
  32 Li     6.465678    3.235490   15.444704    ( 0.0000,  0.0000,  0.0000)
  33 Li    -0.000029    6.469517   15.444675    ( 0.0000,  0.0000,  0.0000)
  34 Li     3.233745    6.468242   15.445402    ( 0.0000,  0.0000,  0.0000)
  35 Li     6.468493    6.468049   15.445199    ( 0.0000,  0.0000,  0.0000)
  36 O      0.032244    1.554653   18.632428    ( 0.0000,  0.0000,  0.0000)
  37 O     -0.234438    1.662440   21.347417    ( 0.0000,  0.0000,  0.0000)
  38 C     -0.415136    2.785639   19.205109    ( 0.0000,  0.0000,  0.0000)
  39 C      0.156093    2.806591   20.597664    ( 0.0000,  0.0000,  0.0000)
  40 H     -0.117437    3.691522   18.652636    ( 0.0000,  0.0000,  0.0000)
  41 H     -1.506177    2.738663   19.208770    ( 0.0000,  0.0000,  0.0000)
  42 H     -0.218688    3.678842   21.125134    ( 0.0000,  0.0000,  0.0000)
  43 H      1.254394    2.878178   20.533156    ( 0.0000,  0.0000,  0.0000)
  44 H      0.942509    1.681153   18.319597    ( 0.0000,  0.0000,  0.0000)
  45 H     -0.134987    0.895285   20.765533    ( 0.0000,  0.0000,  0.0000)
  46 N     -0.024720    1.614967   16.815475    ( 0.0000,  0.0000,  0.0000)
  47 N      0.001364    2.742606   16.900098    ( 0.0000,  0.0000,  0.0000)

Unit cell:
           periodic     x           y           z      points  spacing
  1. axis:    yes    9.702222    0.000000    0.000000    60     0.1617
  2. axis:    yes    0.000000    9.702222    0.000000    60     0.1617
  3. axis:    no     0.000000    0.000000   26.351111   164     0.1607

  Lengths:   9.702222   9.702222  26.351111
  Angles:   90.000000  90.000000  90.000000

Effective grid spacing dv^(1/3) = 0.1614

     iter     time        total  log10-change:
                         energy  eigst   dens
iter:   1 13:01:03  -323.395866  -0.80
iter:   2 13:01:11  -323.399406  -1.34  -2.14
iter:   3 13:01:18  -323.399996c -1.73  -2.21
iter:   4 13:01:26  -323.402726c -1.95  -2.36
Writing to output.gpw (mode='')

iter:   5 13:01:33  -323.395250c -1.79  -2.33
iter:   6 13:01:40  -323.395283c -2.41  -2.36
iter:   7 13:01:48  -323.394553c -2.33  -2.58
iter:   8 13:01:55  -323.394508c -2.57  -2.69
iter:   9 13:02:02  -323.394430c -2.81  -2.63
Writing to output.gpw (mode='')

iter:  10 13:02:10  -323.394561c -2.90  -2.72
iter:  11 13:02:17  -323.394802c -3.27  -2.81
iter:  12 13:02:25  -323.394722c -3.40  -3.02
iter:  13 13:02:32  -323.394688c -3.63  -3.08
iter:  14 13:02:39  -323.394536c -3.65  -3.16
Writing to output.gpw (mode='')

iter:  15 13:02:47  -323.394622c -4.12  -3.42
iter:  16 13:02:54  -323.394630c -4.15  -3.48
iter:  17 13:03:01  -323.394611c -4.10  -3.53
iter:  18 13:03:09  -323.394610c -4.21  -3.61
iter:  19 13:03:16  -323.394626c -4.80  -3.81
Writing to output.gpw (mode='')

iter:  20 13:03:23  -323.394626c -4.74  -3.85
iter:  21 13:03:31  -323.394649c -4.71  -3.96
iter:  22 13:03:38  -323.394646c -4.84  -4.18c
iter:  23 13:03:45  -323.394648c -4.88  -4.06c
iter:  24 13:03:53  -323.394655c -4.80  -4.16c
Writing to output.gpw (mode='')

iter:  25 13:04:00  -323.394660c -5.06  -4.23c
iter:  26 13:04:07  -323.394657c -5.43  -4.25c
iter:  27 13:04:15  -323.394667c -5.49  -4.26c
iter:  28 13:04:22  -323.394666c -5.56  -4.43c
iter:  29 13:04:30  -323.394662c -5.23  -4.51c
Writing to output.gpw (mode='')

iter:  30 13:04:37  -323.394663c -5.51  -4.47c
iter:  31 13:04:48  -323.394666c -5.71  -4.76c
iter:  32 13:04:57  -323.394666c -5.80  -4.97c
iter:  33 13:05:05  -323.394668c -5.89  -5.03c
iter:  34 13:05:12  -323.394668c -5.76  -4.84c
Writing to output.gpw (mode='')

iter:  35 13:05:20  -323.394668c -5.97  -5.17c
iter:  36 13:05:27  -323.394668c -5.91  -5.23c
iter:  37 13:05:34  -323.394668c -6.20  -5.23c
iter:  38 13:05:42  -323.394668c -6.52  -5.05c
iter:  39 13:05:49  -323.394669c -6.27  -5.18c
Writing to output.gpw (mode='')

iter:  40 13:05:57  -323.394669c -6.49  -5.16c
iter:  41 13:06:04  -323.394669c -6.57  -5.17c
iter:  42 13:06:11  -323.394669c -6.68  -5.16c
iter:  43 13:06:19  -323.394670c -6.83  -5.09c
iter:  44 13:06:26  -323.394668c -6.69  -5.12c
Writing to output.gpw (mode='')

iter:  45 13:06:33  -323.394671c -7.01  -4.95c
iter:  46 13:06:41  -323.394671c -7.07  -5.10c
iter:  47 13:06:48  -323.394671c -6.79  -5.12c
iter:  48 13:06:55  -323.394671c -7.09  -5.17c
iter:  49 13:07:03  -323.394671c -7.24  -5.17c
Writing to output.gpw (mode='')

iter:  50 13:07:10  -323.394672c -7.09  -5.24c
iter:  51 13:07:17  -323.394672c -7.21  -5.27c
iter:  52 13:07:25  -323.394672c -7.24  -5.37c
iter:  53 13:07:32  -323.394671c -7.29  -5.49c
iter:  54 13:07:39  -323.394671c -7.30  -5.53c
Writing to output.gpw (mode='')

iter:  55 13:07:47  -323.394671c -7.79c -5.69c

Converged after 55 iterations.

Dipole moment: (0.656751, -3.027290, -0.108069) |e|*Ang

Energy contributions relative to reference atoms: (reference = -16475.706344)

Kinetic:       +185.248118
Potential:     -171.560531
External:        +0.000000
XC:            -338.128695
Entropy (-ST):   -0.153837
Local:           +1.123355
--------------------------
Free energy:   -323.471590
Extrapolated:  -323.394671

Dipole-layer corrected work functions: 3.388620, 3.596365 eV

Showing only first 2 kpts
 Kpt  Band  Eigenvalues  Occupancy
  0    34     -3.74719    1.98781
  0    35     -3.64049    1.90146
  0    36     -3.39638    0.25520
  0    37     -3.24279    0.01346

  1    34     -3.56517    1.62109
  1    35     -3.49441    1.01922
  1    36     -3.40887    0.31618
  1    37     -3.38764    0.21878


Fermi level: -3.49249

Gap: 0.008 eV
Transition (v -> c):
  (s=0, k=1, n=35, [0.12, -0.12, 0.00]) -> (s=0, k=4, n=36, [0.38, -0.38, 0.00])

Forces in eV/Ang:
  0 Li    0.02218   -0.00233   -0.28074
  1 Li   -0.00122    0.00066   -0.26842
  2 Li   -0.02041   -0.00323   -0.27969
  3 Li   -0.00242    0.01964   -0.27949
  4 Li   -0.00042   -0.00908   -0.26356
  5 Li    0.00195    0.01960   -0.27818
  6 Li   -0.00681   -0.01383   -0.26605
  7 Li   -0.00054    0.00562   -0.28244
  8 Li    0.00727   -0.01556   -0.26325
  9 Li    0.00142   -0.00675    0.29313
 10 Li    0.01411   -0.00036    0.26070
 11 Li   -0.01755   -0.00274    0.26266
 12 Li   -0.00078   -0.00306    0.35309
 13 Li    0.01540   -0.00044    0.25773
 14 Li   -0.01421    0.00067    0.26649
 15 Li   -0.00108    0.00317    0.24126
 16 Li   -0.00176    0.00256    0.25574
 17 Li    0.00362    0.00885    0.24858
 18 Li    0.04335   -0.02288   -0.11358
 19 Li   -0.00098    0.00845    0.07539
 20 Li   -0.04077   -0.02878   -0.11734
 21 Li    0.02812    0.01297   -0.02620
 22 Li    0.00096    0.00576    0.04481
 23 Li   -0.02830    0.01922   -0.02239
 24 Li   -0.01599    0.01986    0.06202
 25 Li    0.00406   -0.01933    0.00835
 26 Li    0.01344    0.02031    0.05551
 27 Li   -0.01376    0.01237    0.22509
 28 Li    0.07338   -0.05558   -0.04711
 29 Li   -0.06016   -0.05068   -0.03081
 30 Li    0.00329    1.37806   -2.88040
 31 Li    0.08833    0.04315   -0.04992
 32 Li   -0.07509    0.04145   -0.03732
 33 Li   -0.00100    0.04159   -0.03631
 34 Li   -0.01109    0.00204   -0.01573
 35 Li    0.01148   -0.00370   -0.02155
 36 O     0.74217   -2.24623    5.43835
 37 O    -0.05546    0.03840    0.18064
 38 C    -0.22376    0.21278    0.82732
 39 C     0.02919   -0.00177    0.33980
 40 H     0.05460   -0.37632    0.25389
 41 H    -0.03012   -0.08744    0.06800
 42 H    -0.00596    0.15655    0.21800
 43 H    -0.04961    0.04220    0.02140
 44 H     0.08606   -0.27963    1.16646
 45 H     0.04612    0.09367    0.02851
 46 N    -0.71046   -0.82530   -3.58525
 47 N     0.04696    1.90405   -1.93922

System changes: positions 

Initializing position-dependent things.

Density initialized from wave functions
       .-----------------------.  
      /|                       |  
     / |                       |  
    /  |                       |  
   /   |                       |  
  /    |                       |  
 *     |                       |  
 |     |                       |  
 |     |                       |  
 |     |                       |  
 |     |                   H   |  
 | C  H|                 O     |  
 |     |                 H     |  
 |     |       Li      Hi CH   |  
 |O    |                       |  
 |  H  |     Li      Li      Li|  
 | N   |                       |  
 | Li  |  LLi     LLi     Ni   |  
 |     |                       |  
 |     |Li      Li      LLi    |  
 |   Li|     Li      Li        |  
 |    Li  Li  Li  Li  Li  Li   |  
 | Li  |   Li      Li          |  
 |     |Li      Li      Li     |  
 Li    | Li      Li            |  
 |    Li      Li      Li       |  
 |     |                       |  
 |     |                       |  
 |     |                       |  
 |     |                       |  
 |     |                       |  
 |     |                       |  
 |     .-----------------------.  
 |    /                       /   
 |   /                       /    
 |  /                       /     
 | /                       /      
 |/                       /       
 *-----------------------*        

Positions:
   0 Li     1.617037    1.617037   10.000000    ( 0.0000,  0.0000,  0.0000)
   1 Li     4.851111    1.617037   10.000000    ( 0.0000,  0.0000,  0.0000)
   2 Li     8.085185    1.617037   10.000000    ( 0.0000,  0.0000,  0.0000)
   3 Li     1.617037    4.851111   10.000000    ( 0.0000,  0.0000,  0.0000)
   4 Li     4.851111    4.851111   10.000000    ( 0.0000,  0.0000,  0.0000)
   5 Li     8.085185    4.851111   10.000000    ( 0.0000,  0.0000,  0.0000)
   6 Li     1.617037    8.085185   10.000000    ( 0.0000,  0.0000,  0.0000)
   7 Li     4.851111    8.085185   10.000000    ( 0.0000,  0.0000,  0.0000)
   8 Li     8.085185    8.085185   10.000000    ( 0.0000,  0.0000,  0.0000)
   9 Li     0.000000    0.000000   11.617037    ( 0.0000,  0.0000,  0.0000)
  10 Li     3.234074    0.000000   11.617037    ( 0.0000,  0.0000,  0.0000)
  11 Li     6.468148    0.000000   11.617037    ( 0.0000,  0.0000,  0.0000)
  12 Li     0.000000    3.234074   11.617037    ( 0.0000,  0.0000,  0.0000)
  13 Li     3.234074    3.234074   11.617037    ( 0.0000,  0.0000,  0.0000)
  14 Li     6.468148    3.234074   11.617037    ( 0.0000,  0.0000,  0.0000)
  15 Li     0.000000    6.468148   11.617037    ( 0.0000,  0.0000,  0.0000)
[...]
iter:  21 20:48:11  -326.958681c -6.94  -4.95c
iter:  22 20:48:18  -326.958681c -7.66c -5.08c

Converged after 22 iterations.

Dipole moment: (20.309154, -4.242547, -0.342438) |e|*Ang

Energy contributions relative to reference atoms: (reference = -16475.706344)

Kinetic:       +163.119419
Potential:     -157.191245
External:        +0.000000
XC:            -333.939197
Entropy (-ST):   -0.145719
Local:           +1.125201
--------------------------
Free energy:   -327.031540
Extrapolated:  -326.958681

Dipole-layer corrected work functions: 3.403022, 4.061306 eV

Showing only first 2 kpts
 Kpt  Band  Eigenvalues  Occupancy
  0    34     -3.98706    1.98786
  0    35     -3.92969    1.96224
  0    36     -3.59729    0.12625
  0    37     -3.51072    0.02358

  1    34     -3.78611    1.49257
  1    35     -3.71944    0.87344
  1    36     -3.68324    0.54640
  1    37     -3.60682    0.15077


Fermi level: -3.73216

No gap
Writing to output.gpw (mode='')


Forces in eV/Ang:
  0 Li    0.02304   -0.00578   -0.27179
  1 Li   -0.01042   -0.00399   -0.27125
  2 Li   -0.01623   -0.00712   -0.26891
  3 Li   -0.00083    0.01584   -0.27998
  4 Li   -0.00231   -0.00277   -0.27418
  5 Li    0.00344    0.02180   -0.27872
  6 Li   -0.00123   -0.01286   -0.27062
  7 Li   -0.00294    0.00061   -0.29057
  8 Li    0.00602   -0.02021   -0.26429
  9 Li    0.00777   -0.02007    0.26163
 10 Li    0.02266   -0.00863    0.25557
 11 Li   -0.01837   -0.02398    0.25922
 12 Li    0.00636    0.01414    0.33127
 13 Li    0.02347    0.01054    0.26769
 14 Li   -0.01118    0.02158    0.28623
 15 Li    0.00277    0.03928    0.21629
 16 Li   -0.03448    0.01892    0.25384
 17 Li    0.03434    0.02838    0.24967
 18 Li   -0.00381   -0.00468    0.00190
 19 Li   -0.00131    0.00237    0.00258
 20 Li   -0.00499   -0.00660   -0.00384
 21 Li   -0.00151   -0.01119    0.00642
 22 Li   -0.00210   -0.00561   -0.00175
 23 Li   -0.00475   -0.01004    0.00634
 24 Li    0.00059   -0.00286    0.00008
 25 Li   -0.00171   -0.00181    0.00858
 26 Li   -0.00292   -0.00151    0.00235
 27 Li    0.00149    0.01411    0.00788
 28 Li    0.00245    0.01123   -0.00016
 29 Li   -0.00391    0.00876    0.00370
 30 Li    0.00354    0.00738   -0.01550
 31 Li   -0.00803   -0.00370   -0.00077
 32 Li    0.00338   -0.00494   -0.00183
 33 Li   -0.00103   -0.01111    0.00183
 34 Li   -0.00500   -0.00029   -0.00238
 35 Li    0.00806    0.00255    0.00009
 36 O    -0.00650    0.00559   -0.01446
 37 O     0.00097    0.01056   -0.00100
 38 C     0.01129   -0.02164   -0.00237
 39 C    -0.00658    0.00780   -0.01041
 40 H     0.00731   -0.00750   -0.00995
 41 H    -0.00090    0.01822    0.02082
 42 H     0.00181    0.01588    0.03767
 43 H     0.00489    0.00397    0.02869
 44 H    -0.00150    0.01155    0.00618
 45 H     0.00472   -0.02144   -0.00743
 46 N    -0.02649    0.04265    0.00580
 47 N     0.00968    0.00207    0.02564

System changes: positions 

Initializing position-dependent things.

Density initialized from wave functions
       .-----------------------.  
      /|                       |  
     / |                       |  
    /  |                       |  
   /   |                       |  
  /    |                       |  
 *     |                       |  
 |     |                       |  
 |     |                       |  
 |H    |                  O    |  
 | C  H|                       |  
 |     |              H  C     |  
 |     |                  H    |  
 |O H  |       Li      Li      |  
 |     |                       |  
 |     |     Li      Li   N  Li|  
 |     |                       |  
 | Li  |  LLi     LLi    NLi   |  
 |     |                       |  
 Li    |Li      Li      Li     |  
 |   Li|     Li      Li        |  
 |    Li  Li  Li  Li  Li  Li   |  
 | Li  |   Li      Li          |  
 |     |Li      Li      Li     |  
 Li    | Li      Li            |  
 |    Li      Li      Li       |  
 |     |                       |  
 |     |                       |  
 |     |                       |  
 |     |                       |  
 |     |                       |  
 |     |                       |  
 |     .-----------------------.  
 |    /                       /   
 |   /                       /    
 |  /                       /     
 | /                       /      
 |/                       /       
 *-----------------------*        

Positions:
   0 Li     1.617037    1.617037   10.000000    ( 0.0000,  0.0000,  0.0000)
   1 Li     4.851111    1.617037   10.000000    ( 0.0000,  0.0000,  0.0000)
   2 Li     8.085185    1.617037   10.000000    ( 0.0000,  0.0000,  0.0000)
   3 Li     1.617037    4.851111   10.000000    ( 0.0000,  0.0000,  0.0000)
   4 Li     4.851111    4.851111   10.000000    ( 0.0000,  0.0000,  0.0000)
   5 Li     8.085185    4.851111   10.000000    ( 0.0000,  0.0000,  0.0000)
   6 Li     1.617037    8.085185   10.000000    ( 0.0000,  0.0000,  0.0000)
   7 Li     4.851111    8.085185   10.000000    ( 0.0000,  0.0000,  0.0000)
   8 Li     8.085185    8.085185   10.000000    ( 0.0000,  0.0000,  0.0000)
   9 Li     0.000000    0.000000   11.617037    ( 0.0000,  0.0000,  0.0000)
  10 Li     3.234074    0.000000   11.617037    ( 0.0000,  0.0000,  0.0000)
  11 Li     6.468148    0.000000   11.617037    ( 0.0000,  0.0000,  0.0000)
  12 Li     0.000000    3.234074   11.617037    ( 0.0000,  0.0000,  0.0000)
  13 Li     3.234074    3.234074   11.617037    ( 0.0000,  0.0000,  0.0000)
  14 Li     6.468148    3.234074   11.617037    ( 0.0000,  0.0000,  0.0000)
  15 Li     0.000000    6.468148   11.617037    ( 0.0000,  0.0000,  0.0000)
  16 Li     3.234074    6.468148   11.617037    ( 0.0000,  0.0000,  0.0000)
  17 Li     6.468148    6.468148   11.617037    ( 0.0000,  0.0000,  0.0000)
  18 Li     1.620446    1.613797   13.447220    ( 0.0000,  0.0000,  0.0000)
  19 Li     4.866906    1.605210   13.465257    ( 0.0000,  0.0000,  0.0000)
  20 Li     8.094591    1.609934   13.420832    ( 0.0000,  0.0000,  0.0000)
  21 Li     1.612670    4.884084   13.469047    ( 0.0000,  0.0000,  0.0000)
  22 Li     4.853775    4.884579   13.457384    ( 0.0000,  0.0000,  0.0000)
  23 Li     8.102130    4.888403   13.460357    ( 0.0000,  0.0000,  0.0000)
  24 Li     1.587306    8.117160   13.514717    ( 0.0000,  0.0000,  0.0000)
  25 Li     4.847171    8.060019   13.447647    ( 0.0000,  0.0000,  0.0000)
  26 Li     8.114823    8.118404   13.507944    ( 0.0000,  0.0000,  0.0000)
  27 Li     0.014452    0.080444   15.571343    ( 0.0000,  0.0000,  0.0000)
  28 Li     3.275027   -0.023568   15.389766    ( 0.0000,  0.0000,  0.0000)
  29 Li     6.416598   -0.055239   15.388092    ( 0.0000,  0.0000,  0.0000)
  30 Li     0.037034    3.302806   15.385852    ( 0.0000,  0.0000,  0.0000)
  31 Li     3.300679    3.245934   15.348980    ( 0.0000,  0.0000,  0.0000)
  32 Li     6.409519    3.282089   15.358442    ( 0.0000,  0.0000,  0.0000)
  33 Li    -0.003651    6.515427   15.467275    ( 0.0000,  0.0000,  0.0000)
  34 Li     3.237595    6.466545   15.434272    ( 0.0000,  0.0000,  0.0000)
  35 Li     6.466307    6.466562   15.422148    ( 0.0000,  0.0000,  0.0000)
  36 O      0.107466    0.855402   20.457818    ( 0.0000,  0.0000,  0.0000)
  37 O     -0.222725    1.923981   23.181875    ( 0.0000,  0.0000,  0.0000)
  38 C     -0.445831    2.152926   20.749664    ( 0.0000,  0.0000,  0.0000)
  39 C      0.100614    2.721641   22.047455    ( 0.0000,  0.0000,  0.0000)
  40 H     -0.257990    2.856084   19.931263    ( 0.0000,  0.0000,  0.0000)
  41 H     -1.523277    1.991880   20.828401    ( 0.0000,  0.0000,  0.0000)
  42 H     -0.338617    3.705929   22.226057    ( 0.0000,  0.0000,  0.0000)
  43 H      1.191348    2.853560   21.957897    ( 0.0000,  0.0000,  0.0000)
  44 H      1.034356    0.972550   20.213208    ( 0.0000,  0.0000,  0.0000)
  45 H      0.013130    1.012686   22.967358    ( 0.0000,  0.0000,  0.0000)
  46 N     -0.240304    1.606519   16.830435    ( 0.0000,  0.0000,  0.0000)
  47 N     -0.404783    2.581383   17.394598    ( 0.0000,  0.0000,  0.0000)

Unit cell:
           periodic     x           y           z      points  spacing
  1. axis:    yes    9.702222    0.000000    0.000000    60     0.1617
  2. axis:    yes    0.000000    9.702222    0.000000    60     0.1617
  3. axis:    no     0.000000    0.000000   26.351111   164     0.1607

  Lengths:   9.702222   9.702222  26.351111
  Angles:   90.000000  90.000000  90.000000

Effective grid spacing dv^(1/3) = 0.1614

     iter     time        total  log10-change:
                         energy  eigst   dens
iter:   1 20:48:27  -326.967077  -2.19
iter:   2 20:48:35  -326.963941  -2.53  -2.15
iter:   3 20:48:42  -326.959695c -3.72  -2.29
iter:   4 20:48:49  -326.959341c -3.98  -2.73
Writing to output.gpw (mode='')

iter:   5 20:48:57  -326.959154c -3.14  -2.96
iter:   6 20:49:04  -326.959077c -3.81  -3.20
iter:   7 20:49:11  -326.959111c -3.59  -3.39
iter:   8 20:49:18  -326.959091c -4.77  -3.29
iter:   9 20:49:26  -326.959084c -4.76  -3.55
Writing to output.gpw (mode='')

iter:  10 20:49:33  -326.959094c -4.82  -3.63
iter:  11 20:49:40  -326.959082c -4.98  -3.76
iter:  12 20:49:54  -326.959086c -5.26  -3.87
iter:  13 20:50:01  -326.959087c -5.47  -3.95
iter:  14 20:50:08  -326.959084c -5.78  -4.16c
Writing to output.gpw (mode='')

iter:  15 20:50:16  -326.959085c -6.38  -4.28c
iter:  16 20:50:23  -326.959087c -6.26  -4.42c
iter:  17 20:50:30  -326.959086c -6.59  -4.60c
iter:  18 20:50:37  -326.959085c -6.82  -4.79c
iter:  19 20:50:45  -326.959085c -7.08  -4.88c
Writing to output.gpw (mode='')

iter:  20 20:50:52  -326.959085c -7.18  -4.94c
iter:  21 20:50:59  -326.959085c -7.39  -5.00c
iter:  22 20:51:07  -326.959085c -7.49c -5.06c

Converged after 22 iterations.

Dipole moment: (20.334844, -4.214954, -0.341594) |e|*Ang

Energy contributions relative to reference atoms: (reference = -16475.706344)

Kinetic:       +163.023191
Potential:     -157.123970
External:        +0.000000
XC:            -333.910762
Entropy (-ST):   -0.145780
Local:           +1.125346
--------------------------
Free energy:   -327.031975
Extrapolated:  -326.959085

Dipole-layer corrected work functions: 3.402908, 4.059569 eV

Showing only first 2 kpts
 Kpt  Band  Eigenvalues  Occupancy
  0    34     -3.98567    1.98774
  0    35     -3.92865    1.96215
  0    36     -3.59625    0.12596
  0    37     -3.50997    0.02366

  1    34     -3.78523    1.49295
  1    35     -3.71888    0.87706
  1    36     -3.68258    0.54849
  1    37     -3.60632    0.15195


Fermi level: -3.73124

No gap
Writing to output.gpw (mode='')


Forces in eV/Ang:
  0 Li    0.02313   -0.00579   -0.27180
  1 Li   -0.01037   -0.00397   -0.27118
  2 Li   -0.01628   -0.00711   -0.26892
  3 Li   -0.00072    0.01589   -0.27999
  4 Li   -0.00228   -0.00265   -0.27419
  5 Li    0.00339    0.02185   -0.27869
  6 Li   -0.00116   -0.01282   -0.27057
  7 Li   -0.00292    0.00059   -0.29047
  8 Li    0.00596   -0.02014   -0.26428
  9 Li    0.00764   -0.02015    0.26292
 10 Li    0.02333   -0.00880    0.25584
 11 Li   -0.01973   -0.02434    0.25955
 12 Li    0.00624    0.01408    0.33306
 13 Li    0.02366    0.01041    0.26838
 14 Li   -0.01226    0.02157    0.28671
 15 Li    0.00261    0.03844    0.21795
 16 Li   -0.03439    0.01853    0.25411
 17 Li    0.03378    0.02801    0.25003
 18 Li   -0.00459   -0.00427    0.00133
 19 Li   -0.00112    0.00262    0.00113
 20 Li   -0.00350   -0.00611   -0.00334
 21 Li   -0.00254   -0.01098    0.00482
 22 Li   -0.00182   -0.00547   -0.00179
 23 Li   -0.00344   -0.00978    0.00485
 24 Li    0.00015   -0.00262    0.00029
 25 Li   -0.00139   -0.00143    0.00777
 26 Li   -0.00217   -0.00150    0.00206
 27 Li   -0.00092    0.01825    0.01143
 28 Li    0.00217    0.01180   -0.00046
 29 Li   -0.00316    0.00969    0.00364
 30 Li    0.00376    0.00929   -0.01603
 31 Li   -0.00742   -0.00438   -0.00066
 32 Li    0.00305   -0.00566   -0.00205
 33 Li   -0.00090   -0.01130    0.00268
 34 Li   -0.00513   -0.00062   -0.00310
 35 Li    0.00782    0.00216   -0.00055
 36 O    -0.00111    0.01682   -0.02467
 37 O    -0.00549    0.00333    0.02926
 38 C     0.01042    0.00561    0.00878
 39 C    -0.01288    0.00916    0.00067
 40 H     0.00757   -0.01438   -0.00572
 41 H     0.01788    0.01628    0.01901
 42 H     0.00133    0.01789    0.01874
 43 H    -0.01216   -0.00260    0.01176
 44 H    -0.00539    0.00759    0.00834
 45 H     0.00893   -0.03333   -0.01546
 46 N    -0.01856    0.04580    0.00659
 47 N    -0.00003   -0.00245    0.00648

Timing:                                      incl.     excl.
-------------------------------------------------------------------
Density initialized from wave functions:     4.326     4.323   0.0% |
 Symmetrize density:                         0.003     0.003   0.0% |
Forces:                                     47.609    47.609   0.2% |
Hamiltonian:                               662.537     0.016   0.0% |
 Atomic:                                     0.027     0.027   0.0% |
  XC Correction:                             0.000     0.000   0.0% |
 Calculate atomic Hamiltonians:              0.045     0.045   0.0% |
 Communicate:                                9.496     9.496   0.0% |
 Hartree integrate/restrict:                 2.298     2.298   0.0% |
 Initialize Hamiltonian:                     0.000     0.000   0.0% |
 Poisson:                                   32.617    12.627   0.0% |
  Communicate from 1D:                       3.225     3.225   0.0% |
  Communicate from 2D:                       3.137     3.137   0.0% |
  Communicate to 1D:                         1.970     1.970   0.0% |
  Communicate to 2D:                         3.462     3.462   0.0% |
  FFT 1D:                                    4.074     4.074   0.0% |
  FFT 2D:                                    4.123     4.123   0.0% |
 XC 3D grid:                               617.505    95.858   0.3% |
  VdW-DF integral:                         521.647     4.388   0.0% |
   Convolution:                             47.491    47.491   0.2% |
   FFT:                                     20.750    20.750   0.1% |
   gather:                                 182.892   182.892   0.6% |
   hmm1:                                    17.168    17.168   0.1% |
   hmm2:                                    22.512    22.512   0.1% |
   iFFT:                                    21.276    21.276   0.1% |
   potential:                              201.681     5.174   0.0% |
    collect:                                31.568    31.568   0.1% |
    p1:                                     92.154    92.154   0.3% |
    p2:                                     34.190    34.190   0.1% |
    sum:                                    38.595    38.595   0.1% |
   splines:                                  3.489     3.489   0.0% |
 vbar:                                       0.531     0.531   0.0% |
LCAO initialization:                         1.117     0.183   0.0% |
 LCAO eigensolver:                           0.206     0.000   0.0% |
  Calculate projections:                     0.000     0.000   0.0% |
  DenseAtomicCorrection:                     0.000     0.000   0.0% |
  Distribute overlap matrix:                 0.185     0.185   0.0% |
  Orbital Layouts:                           0.019     0.019   0.0% |
  Potential matrix:                          0.001     0.001   0.0% |
  Sum over cells:                            0.001     0.001   0.0% |
 LCAO to grid:                               0.621     0.621   0.0% |
 Set positions (LCAO WFS):                   0.108     0.065   0.0% |
  Basic WFS set positions:                   0.001     0.001   0.0% |
  Basis functions set positions:             0.000     0.000   0.0% |
  P tci:                                     0.000     0.000   0.0% |
  ST tci:                                    0.012     0.012   0.0% |
  mktci:                                     0.029     0.029   0.0% |
Redistribute:                                0.076     0.076   0.0% |
SCF-cycle:                               29657.059   517.617   1.7% ||
 Davidson:                                7900.270  2355.285   7.7% |--|
  Apply hamiltonian:                       492.727   492.727   1.6% ||
  Subspace diag:                          1479.404     0.515   0.0% |
   calc_h_matrix:                          734.323   229.325   0.8% |
    Apply hamiltonian:                     504.998   504.998   1.7% ||
   diagonalize:                             76.919    76.919   0.3% |
   rotate_psi:                             667.648   667.648   2.2% ||
  calc. matrices:                         2481.327  1296.808   4.3% |-|
   Apply hamiltonian:                     1184.520  1184.520   3.9% |-|
  diagonalize:                              23.803    23.803   0.1% |
  rotate_psi:                             1067.723  1067.723   3.5% ||
 Density:                                  142.941     0.104   0.0% |
  Atomic density matrices:                  17.486    17.486   0.1% |
  Mix:                                      59.235    59.235   0.2% |
  Multipole moments:                         6.021     6.021   0.0% |
  Pseudo density:                           60.095    60.008   0.2% |
   Symmetrize density:                       0.087     0.087   0.0% |
 Hamiltonian:                            21073.651     0.517   0.0% |
  Atomic:                                    0.979     0.970   0.0% |
   XC Correction:                            0.009     0.009   0.0% |
  Calculate atomic Hamiltonians:             1.451     1.451   0.0% |
  Communicate:                             295.892   295.892   1.0% |
  Hartree integrate/restrict:               74.909    74.909   0.2% |
  Poisson:                                1003.883   369.506   1.2% |
   Communicate from 1D:                     97.934    97.934   0.3% |
   Communicate from 2D:                    101.706   101.706   0.3% |
   Communicate to 1D:                       56.257    56.257   0.2% |
   Communicate to 2D:                      112.279   112.279   0.4% |
   FFT 1D:                                 131.111   131.111   0.4% |
   FFT 2D:                                 135.091   135.091   0.4% |
  XC 3D grid:                            19678.975  3006.776   9.9% |---|
   VdW-DF integral:                      16672.199   140.199   0.5% |
    Convolution:                          1515.500  1515.500   5.0% |-|
    FFT:                                   660.455   660.455   2.2% ||
    gather:                               5857.069  5857.069  19.2% |-------|
    hmm1:                                  540.647   540.647   1.8% ||
    hmm2:                                  716.896   716.896   2.4% ||
    iFFT:                                  679.561   679.561   2.2% ||
    potential:                            6561.839   166.830   0.5% |
     collect:                             1011.539  1011.539   3.3% ||
     p1:                                  2936.028  2936.028   9.6% |---|
     p2:                                  1083.454  1083.454   3.6% ||
     sum:                                 1363.987  1363.987   4.5% |-|
    splines:                                 0.034     0.034   0.0% |
  vbar:                                     17.044    17.044   0.1% |
 Orthonormalize:                            22.580     0.017   0.0% |
  calc_s_matrix:                             3.265     3.265   0.0% |
  inverse-cholesky:                          6.730     6.730   0.0% |
  projections:                               0.003     0.003   0.0% |
  rotate_psi_s:                             12.565    12.565   0.0% |
Set symmetry:                                0.002     0.002   0.0% |
Other:                                     123.213   123.213   0.4% |
-------------------------------------------------------------------
Total:                                             30495.939 100.0%

Memory usage: 1.13 GiB
Date: Fri Mar 10 20:51:07 2023
