
  ___ ___ ___ _ _ _  
 |   |   |_  | | | | 
 | | | | | . | | | | 
 |__ |  _|___|_____|  22.8.0
 |___|_|             

User:   vazumah@c22.hercules
Date:   Sat Mar  4 04:58:28 2023
Arch:   x86_64
Pid:    4424
CWD:    /home/vazumah/Python_projects/LiNRR/Li_adsorb_studies/proton_donors/N2_with_proton_donor/Li_BCC_100/adsorbates/HF/bridge/8.085_1.617/N2_y
Python: 3.10.8
gpaw:   /home/vazumah/.conda/envs/GPAW/lib/python3.10/site-packages/gpaw
_gpaw:  /home/vazumah/.conda/envs/GPAW/lib/python3.10/site-packages/
        _gpaw.cpython-310-x86_64-linux-gnu.so
ase:    /home/vazumah/.conda/envs/GPAW/lib/python3.10/site-packages/ase (version 3.22.1)
numpy:  /home/vazumah/.conda/envs/GPAW/lib/python3.10/site-packages/numpy (version 1.24.1)
scipy:  /home/vazumah/.conda/envs/GPAW/lib/python3.10/site-packages/scipy (version 1.10.0)
libxc:  5.2.3
units:  Angstrom and eV
cores: 24
OpenMP: True
OMP_NUM_THREADS: 1

Reading from output.gpw
Reading input parameters:
  h: 0.16
  kpts: {size: [4, 4, 1]}
  occupations: {name: fermi-dirac,
                width: 0.05}
  poissonsolver: {dipolelayer: xy}
  xc: BEEF-vdW

Initialize ...

species:
  Li:
    name: Lithium
    id: 830b4218f175192f93f959cfc0aad614
    Z: 3.0
    valence: 1
    core: 2
    charge: 0.0
    file: /home/vazumah/.conda/envs/GPAW/share/gpaw/Li.PBE.gz
    compensation charges: {type: gauss,
                           rc: 0.33,
                           lmax: 2}
    cutoffs: {filter: 1.91,
              core: 2.55}
    valence states:
      #              energy  rcut
      - 2s(1.00)    -2.874   1.058
      - 2p(0.00)    -1.090   1.058
      -  s          24.337   1.058
  
    # Using partial waves for Li as LCAO basis

  F:
    name: Fluorine
    id: 9cd46ba2a61e170ad72278be75b55cc0
    Z: 9.0
    valence: 7
    core: 2
    charge: 0.0
    file: /home/vazumah/.conda/envs/GPAW/share/gpaw/F.PBE.gz
    compensation charges: {type: gauss,
                           rc: 0.20,
                           lmax: 2}
    cutoffs: {filter: 1.14,
              core: 0.74}
    valence states:
      #              energy  rcut
      - 2s(2.00)   -29.898   0.635
      - 2p(5.00)   -11.110   0.635
      -  s          -2.687   0.635
      -  p          16.102   0.635
      -  d           0.000   0.635
  
    # Using partial waves for F as LCAO basis

  H:
    name: Hydrogen
    id: d65de229564ff8ea4db303e23b6d1ecf
    Z: 1.0
    valence: 1
    core: 0
    charge: 0.0
    file: /home/vazumah/.conda/envs/GPAW/share/gpaw/H.PBE.gz
    compensation charges: {type: gauss,
                           rc: 0.15,
                           lmax: 2}
    cutoffs: {filter: 0.85,
              core: 0.53}
    valence states:
      #              energy  rcut
      - 1s(1.00)    -6.494   0.476
      -  s          20.717   0.476
      -  p           0.000   0.476
  
    # Using partial waves for H as LCAO basis

  N:
    name: Nitrogen
    id: f7500608b86eaa90eef8b1d9a670dc53
    Z: 7.0
    valence: 5
    core: 2
    charge: 0.0
    file: /home/vazumah/.conda/envs/GPAW/share/gpaw/N.PBE.gz
    compensation charges: {type: gauss,
                           rc: 0.18,
                           lmax: 2}
    cutoffs: {filter: 1.11,
              core: 0.96}
    valence states:
      #              energy  rcut
      - 2s(2.00)   -18.583   0.603
      - 2p(3.00)    -7.089   0.529
      -  s           8.629   0.603
      -  p          20.123   0.529
      -  d           0.000   0.577
  
    # Using partial waves for N as LCAO basis

Reference energy: -12990.375485  # eV

Spin-paired calculation

Convergence criteria:
 Maximum [total energy] change in last 3 cyles: 0.0005 eV / electron
 Maximum integral of absolute [dens]ity change: 0.0001 electrons / valence electron
 Maximum integral of absolute [eigenst]ate change: 4e-08 eV^2 / valence electron
 Maximum number of scf [iter]ations: 333
 (Square brackets indicate name in SCF output, whereas a 'c' in
 the SCF output indicates the quantity has converged.)

Symmetries present (total): 1

  ( 1  0  0)
  ( 0  1  0)
  ( 0  0  1)

16 k-points: 4 x 4 x 1 Monkhorst-Pack grid
8 k-points in the irreducible part of the Brillouin zone
       k-points in crystal coordinates                weights
   0:     0.12500000   -0.37500000    0.00000000          2/16
   1:     0.12500000   -0.12500000    0.00000000          2/16
   2:     0.12500000    0.12500000    0.00000000          2/16
   3:     0.12500000    0.37500000    0.00000000          2/16
   4:     0.37500000   -0.37500000    0.00000000          2/16
   5:     0.37500000   -0.12500000    0.00000000          2/16
   6:     0.37500000    0.12500000    0.00000000          2/16
   7:     0.37500000    0.37500000    0.00000000          2/16

Wave functions: Uniform real-space grid
  Kinetic energy operator: 6*3+1=19 point O(h^6) finite-difference Laplacian
  ScaLapack parameters: grid=1x1, blocksize=None
  Wavefunction extrapolation:
    Improved wavefunction reuse through dual PAW basis 

Occupation numbers: Fermi-Dirac:
  width: 0.0500  # eV
 

Eigensolver
   Davidson(niter=2) 

Densities:
  Coarse grid: 60*60*168 grid
  Fine grid: 120*120*336 grid
  Total Charge: 0.000000 

Density mixing:
  Method: separate
  Backend: pulay
  Linear mixing parameter: 0.05
  old densities: 5
  Damping of long wavelength oscillations: 50 

Hamiltonian:
  XC and Coulomb potentials evaluated on a 120*120*336 grid
  Using the BEEF-vdW Exchange-Correlation functional
  Interpolation: tri-quintic (5. degree polynomial)
  Poisson solver: FastPoissonSolver using
    Stencil: 6*3+1=19 point O(h^6) finite-difference Laplacian
    FFT axes: [0, 1]
    FST axes: [2]

Dipole correction along z-axis 

XC parameters: BEEF-vdW with 2 nearest neighbor stencil

Memory estimate:
  Process memory now: 228.68 MiB
  Calculator: 394.09 MiB
    Density: 120.69 MiB
      Arrays: 39.61 MiB
      Localized functions: 65.98 MiB
      Mixer: 15.11 MiB
    Hamiltonian: 31.12 MiB
      Arrays: 25.90 MiB
      XC: 0.00 MiB
      Poisson: 0.00 MiB
      vbar: 5.22 MiB
    Wavefunctions: 242.28 MiB
      Arrays psit_nG: 111.79 MiB
      Eigensolver: 127.10 MiB
      Projections: 0.04 MiB
      Projectors: 3.35 MiB

Total number of cores used: 24
Parallelization over k-points: 8
Domain decomposition: 1 x 1 x 3

Number of atoms: 40
Number of atomic orbitals: 157
Number of bands in calculation: 37
Number of valence electrons: 54
Bands to converge: occupied

... initialized

Initializing position-dependent things.

Creating initial wave functions:
  37 bands from LCAO basis set

       .-----------------------.  
      /|                       |  
     / |                       |  
    /  |                       |  
   /   |                       |  
  /    |                       |  
 *     |                       |  
 |     |                       |  
 |     |                       |  
 |     |                       |  
 |     |                       |  
 |     |                       |  
 |     |                       |  
 |     |                       |  
 |     Li              Li      |  
 |     |              F H      |  
 |   Li|     Li      LiN       |  
 |     |  Li      Li  N   Li   |  
 |     |   Li      Li      Li  |  
 |     |Li      Li      Li     |  
 |     | Li                    |  
 |   LLi     LLi     LLi       |  
 |     |  Li      Li      Li   |  
 | Li  |   Li      Li          |  
 |     |Li      Li      Li     |  
 Li    | Li      Li            |  
 |    Li      Li      Li       |  
 |     |                       |  
 |     |                       |  
 |     |                       |  
 |     |                       |  
 |     |                       |  
 |     |                       |  
 |     .-----------------------.  
 |    /                       /   
 |   /                       /    
 |  /                       /     
 | /                       /      
 |/                       /       
 *-----------------------*        

Positions:
   0 Li     1.617037    1.617037   10.000000    ( 0.0000,  0.0000,  0.0000)
   1 Li     4.851111    1.617037   10.000000    ( 0.0000,  0.0000,  0.0000)
   2 Li     8.085185    1.617037   10.000000    ( 0.0000,  0.0000,  0.0000)
   3 Li     1.617037    4.851111   10.000000    ( 0.0000,  0.0000,  0.0000)
   4 Li     4.851111    4.851111   10.000000    ( 0.0000,  0.0000,  0.0000)
   5 Li     8.085185    4.851111   10.000000    ( 0.0000,  0.0000,  0.0000)
   6 Li     1.617037    8.085185   10.000000    ( 0.0000,  0.0000,  0.0000)
   7 Li     4.851111    8.085185   10.000000    ( 0.0000,  0.0000,  0.0000)
   8 Li     8.085185    8.085185   10.000000    ( 0.0000,  0.0000,  0.0000)
   9 Li     0.000000    0.000000   11.617037    ( 0.0000,  0.0000,  0.0000)
  10 Li     3.234074    0.000000   11.617037    ( 0.0000,  0.0000,  0.0000)
  11 Li     6.468148    0.000000   11.617037    ( 0.0000,  0.0000,  0.0000)
  12 Li     0.000000    3.234074   11.617037    ( 0.0000,  0.0000,  0.0000)
  13 Li     3.234074    3.234074   11.617037    ( 0.0000,  0.0000,  0.0000)
  14 Li     6.468148    3.234074   11.617037    ( 0.0000,  0.0000,  0.0000)
  15 Li     0.000000    6.468148   11.617037    ( 0.0000,  0.0000,  0.0000)
  16 Li     3.234074    6.468148   11.617037    ( 0.0000,  0.0000,  0.0000)
  17 Li     6.468148    6.468148   11.617037    ( 0.0000,  0.0000,  0.0000)
  18 Li     1.616983    1.617068   13.469967    ( 0.0000,  0.0000,  0.0000)
  19 Li     4.851167    1.617070   13.469874    ( 0.0000,  0.0000,  0.0000)
  20 Li     8.085177    1.616969   13.468824    ( 0.0000,  0.0000,  0.0000)
  21 Li     1.616932    4.851028   13.469939    ( 0.0000,  0.0000,  0.0000)
  22 Li     4.851223    4.851012   13.469968    ( 0.0000,  0.0000,  0.0000)
  23 Li     8.085175    4.851317   13.469351    ( 0.0000,  0.0000,  0.0000)
  24 Li     1.617015    8.085236   13.469893    ( 0.0000,  0.0000,  0.0000)
  25 Li     4.851135    8.085249   13.469920    ( 0.0000,  0.0000,  0.0000)
  26 Li     8.085180    8.085122   13.469948    ( 0.0000,  0.0000,  0.0000)
  27 Li     0.000162   -0.000287   15.445902    ( 0.0000,  0.0000,  0.0000)
  28 Li     3.233971    0.000117   15.445926    ( 0.0000,  0.0000,  0.0000)
  29 Li     6.468065   -0.000283   15.446011    ( 0.0000,  0.0000,  0.0000)
  30 Li    -0.000898    3.234167   15.446836    ( 0.0000,  0.0000,  0.0000)
  31 Li     3.233987    3.234017   15.445878    ( 0.0000,  0.0000,  0.0000)
  32 Li     6.469085    3.234123   15.446909    ( 0.0000,  0.0000,  0.0000)
  33 Li     0.000130    6.468366   15.445798    ( 0.0000,  0.0000,  0.0000)
  34 Li     3.234091    6.468086   15.445888    ( 0.0000,  0.0000,  0.0000)
  35 Li     6.468003    6.468344   15.445772    ( 0.0000,  0.0000,  0.0000)
  36 F      8.085553    1.589948   18.521016    ( 0.0000,  0.0000,  0.0000)
  37 H      9.018720    1.616980   18.453337    ( 0.0000,  0.0000,  0.0000)
  38 N      8.079078    1.621258   17.144422    ( 0.0000,  0.0000,  0.0000)
  39 N      8.085053    2.736211   17.163585    ( 0.0000,  0.0000,  0.0000)

Unit cell:
           periodic     x           y           z      points  spacing
  1. axis:    yes    9.702222    0.000000    0.000000    60     0.1617
  2. axis:    yes    0.000000    9.702222    0.000000    60     0.1617
  3. axis:    no     0.000000    0.000000   26.601111   168     0.1583

  Lengths:   9.702222   9.702222  26.601111
  Angles:   90.000000  90.000000  90.000000

Effective grid spacing dv^(1/3) = 0.1606

     iter     time        total  log10-change:
                         energy  eigst   dens
iter:   1 04:59:36  -244.832551  +1.08
iter:   2 05:00:17  -245.285621  +0.42  -1.49
iter:   3 05:00:57  -245.333110  +0.04  -1.56
iter:   4 05:01:38  -245.387955  -0.18  -1.83
Writing to output.gpw (mode='')

iter:   5 05:02:26  -245.419194  -0.57  -1.89
iter:   6 05:03:07  -245.491380  -0.81  -1.97
iter:   7 05:03:48  -245.457121  -0.70  -1.86
iter:   8 05:04:29  -245.459454  -0.79  -2.12
iter:   9 05:05:11  -245.511907  -1.32  -2.13
Writing to output.gpw (mode='')

iter:  10 05:05:55  -245.489534  -1.32  -1.92
iter:  11 05:06:36  -245.468908  -1.03  -2.09
iter:  12 05:07:18  -245.472006c -1.32  -2.22
iter:  13 05:07:59  -245.474849c -1.59  -2.37
iter:  14 05:08:40  -245.482154c -1.38  -2.38
Writing to output.gpw (mode='')

iter:  15 05:09:24  -245.483274c -1.55  -2.15
iter:  16 05:10:05  -245.484582c -1.61  -2.11
iter:  17 05:10:46  -245.486826c -1.65  -2.10
iter:  18 05:11:27  -245.481942c -1.99  -2.07
iter:  19 05:12:09  -245.482571c -2.25  -2.51
Writing to output.gpw (mode='')

iter:  20 05:12:52  -245.482952c -2.17  -2.59
iter:  21 05:13:33  -245.484083c -2.34  -2.62
iter:  22 05:14:15  -245.484370c -2.42  -2.90
iter:  23 05:14:56  -245.485222c -2.40  -2.92
iter:  24 05:15:37  -245.485329c -2.64  -2.99
Writing to output.gpw (mode='')

iter:  25 05:16:20  -245.485558c -2.81  -3.06
iter:  26 05:17:01  -245.486181c -2.77  -3.09
iter:  27 05:17:42  -245.486087c -3.06  -3.15
iter:  28 05:18:23  -245.486113c -3.21  -3.26
iter:  29 05:19:04  -245.486410c -3.06  -3.26
Writing to output.gpw (mode='')

iter:  30 05:19:47  -245.486444c -3.09  -3.33
iter:  31 05:20:28  -245.486688c -3.25  -3.42
iter:  32 05:21:09  -245.486750c -3.48  -3.65
iter:  33 05:21:50  -245.486716c -3.43  -3.74
iter:  34 05:22:31  -245.486792c -3.58  -3.78
Writing to output.gpw (mode='')

iter:  35 05:23:13  -245.486858c -3.51  -3.86
iter:  36 05:23:55  -245.486866c -3.64  -3.85
iter:  37 05:24:36  -245.486922c -3.85  -3.75
iter:  38 05:25:17  -245.486930c -3.94  -3.81
iter:  39 05:25:58  -245.486924c -3.59  -3.75
Writing to output.gpw (mode='')

iter:  40 05:26:41  -245.486954c -3.91  -3.70
iter:  41 05:27:21  -245.486997c -3.95  -3.71
iter:  42 05:28:02  -245.487048c -4.07  -3.75
iter:  43 05:28:43  -245.487138c -3.92  -3.84
iter:  44 05:29:24  -245.487048c -4.29  -3.84
Writing to output.gpw (mode='')

iter:  45 05:30:07  -245.487127c -3.93  -3.66
iter:  46 05:30:48  -245.487104c -4.10  -3.84
iter:  47 05:31:29  -245.487150c -4.14  -3.71
iter:  48 05:32:10  -245.487245c -4.15  -3.82
iter:  49 05:32:51  -245.487275c -4.37  -4.05c
Writing to output.gpw (mode='')

iter:  50 05:33:34  -245.487322c -4.52  -4.11c
iter:  51 05:34:16  -245.487291c -4.65  -4.29c
iter:  52 05:34:57  -245.487293c -4.64  -4.53c
iter:  53 05:35:38  -245.487280c -4.62  -4.47c
iter:  54 05:36:19  -245.487288c -4.80  -4.33c
Writing to output.gpw (mode='')

iter:  55 05:37:03  -245.487292c -4.83  -4.35c
iter:  56 05:37:44  -245.487279c -4.64  -4.34c
iter:  57 05:38:25  -245.487288c -4.86  -4.18c
iter:  58 05:39:06  -245.487304c -4.93  -4.23c
iter:  59 05:39:47  -245.487312c -5.06  -4.39c
Writing to output.gpw (mode='')

iter:  60 05:40:30  -245.487327c -5.05  -4.51c
iter:  61 05:41:11  -245.487331c -5.19  -4.78c
iter:  62 05:41:52  -245.487334c -5.17  -4.84c
iter:  63 05:42:33  -245.487334c -5.01  -4.88c
iter:  64 05:43:14  -245.487339c -5.34  -5.00c
Writing to output.gpw (mode='')

iter:  65 05:43:57  -245.487335c -5.32  -5.07c
iter:  66 05:44:38  -245.487338c -5.42  -5.01c
iter:  67 05:45:19  -245.487337c -5.43  -5.03c
iter:  68 05:46:00  -245.487337c -5.31  -4.96c
iter:  69 05:46:41  -245.487338c -5.30  -4.91c
Writing to output.gpw (mode='')

iter:  70 05:47:24  -245.487337c -5.58  -4.89c
iter:  71 05:48:05  -245.487336c -5.65  -4.85c
iter:  72 05:48:46  -245.487336c -5.72  -4.78c
iter:  73 05:49:27  -245.487339c -5.75  -4.76c
iter:  74 05:50:08  -245.487339c -5.62  -4.83c
Writing to output.gpw (mode='')

iter:  75 05:50:52  -245.487338c -5.57  -4.81c
iter:  76 05:51:33  -245.487340c -5.84  -4.76c
iter:  77 05:52:13  -245.487337c -5.92  -4.76c
iter:  78 05:52:54  -245.487339c -5.90  -4.69c
iter:  79 05:53:36  -245.487347c -5.99  -4.72c
Writing to output.gpw (mode='')

iter:  80 05:54:18  -245.487348c -6.02  -4.91c
iter:  81 05:55:00  -245.487352c -6.00  -4.91c
iter:  82 05:55:40  -245.487350c -5.94  -4.98c
iter:  83 05:56:21  -245.487353c -6.06  -5.01c
iter:  84 05:57:02  -245.487351c -6.15  -5.13c
Writing to output.gpw (mode='')

iter:  85 05:57:45  -245.487353c -6.17  -5.16c
iter:  86 05:58:26  -245.487353c -6.31  -5.33c
iter:  87 05:59:07  -245.487354c -6.33  -5.37c
iter:  88 05:59:47  -245.487353c -6.28  -5.52c
iter:  89 06:00:28  -245.487353c -6.40  -5.75c
Writing to output.gpw (mode='')

iter:  90 06:01:14  -245.487353c -6.47  -5.74c
iter:  91 06:01:55  -245.487354c -6.53  -5.75c
iter:  92 06:02:35  -245.487354c -6.45  -5.79c
iter:  93 06:03:16  -245.487354c -6.57  -5.87c
iter:  94 06:03:57  -245.487354c -6.61  -5.92c
Writing to output.gpw (mode='')

iter:  95 06:04:40  -245.487355c -6.50  -6.03c
iter:  96 06:05:20  -245.487354c -6.73  -6.01c
iter:  97 06:06:01  -245.487354c -6.64  -6.27c
iter:  98 06:06:42  -245.487354c -6.76  -6.22c
iter:  99 06:07:23  -245.487354c -6.73  -6.18c
Writing to output.gpw (mode='')

iter: 100 06:08:07  -245.487354c -6.85  -6.17c
iter: 101 06:08:48  -245.487354c -6.79  -6.03c
iter: 102 06:09:29  -245.487354c -6.72  -6.04c
iter: 103 06:10:10  -245.487354c -6.85  -6.01c
iter: 104 06:10:51  -245.487354c -6.94  -5.95c
Writing to output.gpw (mode='')

iter: 105 06:11:33  -245.487354c -7.02  -5.96c
iter: 106 06:12:14  -245.487354c -6.96  -5.93c
iter: 107 06:12:55  -245.487354c -7.15  -5.90c
iter: 108 06:13:36  -245.487354c -7.16  -5.88c
iter: 109 06:14:17  -245.487355c -7.16  -5.69c
Writing to output.gpw (mode='')

iter: 110 06:15:01  -245.487355c -7.24  -5.95c
iter: 111 06:15:42  -245.487355c -7.15  -5.96c
iter: 112 06:16:23  -245.487355c -7.16  -6.02c
iter: 113 06:17:04  -245.487355c -7.26  -6.00c
iter: 114 06:17:45  -245.487355c -7.41c -6.38c

Converged after 114 iterations.

Dipole moment: (-0.802992, -3.512619, 0.237925) |e|*Ang

Energy contributions relative to reference atoms: (reference = -12990.375485)

Kinetic:       +143.207411
Potential:     -122.095541
External:        +0.000000
XC:            -266.897954
Entropy (-ST):   -0.168719
Local:           +0.383088
--------------------------
Free energy:   -245.571714
Extrapolated:  -245.487355

Dipole-layer corrected work functions: 3.378959, 2.921585 eV

Showing only first 2 kpts
 Kpt  Band  Eigenvalues  Occupancy
  0    25     -3.40073    1.98673
  0    26     -3.31088    1.92258
  0    27     -3.05583    0.26275
  0    28     -2.91294    0.01721

  1    25     -3.18282    1.31444
  1    26     -3.15278    1.02510
  1    27     -3.11556    0.66619
  1    28     -3.06579    0.31164


Fermi level: -3.15027

Gap: 0.023 eV
Transition (v -> c):
  (s=0, k=1, n=26, [0.12, -0.12, 0.00]) -> (s=0, k=7, n=27, [0.38, 0.38, 0.00])
Writing to output.gpw (mode='')


Forces in eV/Ang:
  0 Li    0.01861    0.00420   -0.27198
  1 Li   -0.02022    0.00319   -0.27090
  2 Li    0.00200   -0.00872   -0.28057
  3 Li    0.01042   -0.00535   -0.27477
  4 Li   -0.00615    0.00049   -0.27559
  5 Li   -0.00350    0.02282   -0.27626
  6 Li   -0.00189    0.00085   -0.27292
  7 Li    0.00609   -0.00473   -0.27352
  8 Li   -0.00417   -0.01341   -0.26826
  9 Li   -0.00329   -0.00895    0.29013
 10 Li   -0.00280    0.01653    0.25000
 11 Li    0.00649   -0.01084    0.28732
 12 Li   -0.00485    0.00015    0.31422
 13 Li   -0.00328   -0.00997    0.23751
 14 Li    0.00832    0.00294    0.31232
 15 Li   -0.00173    0.00708    0.24793
 16 Li    0.00186   -0.00386    0.28055
 17 Li   -0.00040    0.00781    0.23620
 18 Li   -0.01861    0.00737    0.06160
 19 Li    0.01867    0.00784    0.04245
 20 Li   -0.00241   -0.01883   -0.21304
 21 Li   -0.02576   -0.01790    0.05092
 22 Li    0.02664   -0.02320    0.05884
 23 Li   -0.00184    0.04488   -0.07530
 24 Li   -0.00352    0.01023    0.03635
 25 Li    0.00330    0.01492    0.04381
 26 Li   -0.00077   -0.01054    0.05396
 27 Li    0.05840   -0.08571   -0.03735
 28 Li   -0.02344    0.03234    0.00330
 29 Li   -0.03944   -0.08922   -0.02058
 30 Li   -0.13412    0.04637    0.11982
 31 Li   -0.02073   -0.01782   -0.00733
 32 Li    0.14593    0.03920    0.13149
 33 Li    0.02431    0.04826   -0.03468
 34 Li    0.00373   -0.01483   -0.01120
 35 Li   -0.02759    0.04416   -0.04022
 36 F    -0.21362   -6.74997   18.84059
 37 H     1.72136   -0.14737    1.80195
 38 N    -1.36202   -3.03777  -12.78520
 39 N    -0.08322    9.90539   -8.02259

System changes: positions 

Initializing position-dependent things.

Density initialized from wave functions
       .-----------------------.  
      /|                       |  
     / |                       |  
    /  |                       |  
   /   |                       |  
  /    |                       |  
 *     |                       |  
 |     |                       |  
 |     |                       |  
 |     |                       |  
 |     |                       |  
 |     |                       |  
 |     |                       |  
 |     |                       |  
 |     Li              Li      |  
 |     |              F H      |  
 |   Li|     Li      LiN       |  
 |     |  Li      Li  N   Li   |  
 |     |   Li      Li      Li  |  
 |     |Li      Li      Li     |  
 |     | Li                    |  
 |   LLi     LLi     LLi       |  
 |     |  Li      Li      Li   |  
 | Li  |   Li      Li          |  
 |     |Li      Li      Li     |  
 Li    | Li      Li            |  
 |    Li      Li      Li       |  
 |     |                       |  
 |     |                       |  
 |     |                       |  
 |     |                       |  
 |     |                       |  
 |     |                       |  
 |     .-----------------------.  
 |    /                       /   
 |   /                       /    
 |  /                       /     
 | /                       /      
 |/                       /       
 *-----------------------*        

Positions:
   0 Li     1.617037    1.617037   10.000000    ( 0.0000,  0.0000,  0.0000)
   1 Li     4.851111    1.617037   10.000000    ( 0.0000,  0.0000,  0.0000)
   2 Li     8.085185    1.617037   10.000000    ( 0.0000,  0.0000,  0.0000)
   3 Li     1.617037    4.851111   10.000000    ( 0.0000,  0.0000,  0.0000)
   4 Li     4.851111    4.851111   10.000000    ( 0.0000,  0.0000,  0.0000)
   5 Li     8.085185    4.851111   10.000000    ( 0.0000,  0.0000,  0.0000)
   6 Li     1.617037    8.085185   10.000000    ( 0.0000,  0.0000,  0.0000)
   7 Li     4.851111    8.085185   10.000000    ( 0.0000,  0.0000,  0.0000)
   8 Li     8.085185    8.085185   10.000000    ( 0.0000,  0.0000,  0.0000)
   9 Li     0.000000    0.000000   11.617037    ( 0.0000,  0.0000,  0.0000)
  10 Li     3.234074    0.000000   11.617037    ( 0.0000,  0.0000,  0.0000)
  11 Li     6.468148    0.000000   11.617037    ( 0.0000,  0.0000,  0.0000)
  12 Li     0.000000    3.234074   11.617037    ( 0.0000,  0.0000,  0.0000)
  13 Li     3.234074    3.234074   11.617037    ( 0.0000,  0.0000,  0.0000)
  14 Li     6.468148    3.234074   11.617037    ( 0.0000,  0.0000,  0.0000)
  15 Li     0.000000    6.468148   11.617037    ( 0.0000,  0.0000,  0.0000)
  16 Li     3.234074    6.468148   11.617037    ( 0.0000,  0.0000,  0.0000)
  17 Li     6.468148    6.468148   11.617037    ( 0.0000,  0.0000,  0.0000)
  18 Li     1.616889    1.617116   13.470293    ( 0.0000,  0.0000,  0.0000)
  19 Li     4.851256    1.617095   13.470071    ( 0.0000,  0.0000,  0.0000)
  20 Li     8.085169    1.616871   13.467812    ( 0.0000,  0.0000,  0.0000)
  21 Li     1.616789    4.850917   13.470229    ( 0.0000,  0.0000,  0.0000)
  22 Li     4.851369    4.850909   13.470230    ( 0.0000,  0.0000,  0.0000)
  23 Li     8.085172    4.851502   13.469097    ( 0.0000,  0.0000,  0.0000)
  24 Li     1.617010    8.085285   13.470047    ( 0.0000,  0.0000,  0.0000)
  25 Li     4.851140    8.085309   13.470112    ( 0.0000,  0.0000,  0.0000)
  26 Li     8.085173    8.085078   13.470146    ( 0.0000,  0.0000,  0.0000)
  27 Li     0.000390   -0.000709   15.445681    ( 0.0000,  0.0000,  0.0000)
  28 Li     3.233864    0.000268   15.445912    ( 0.0000,  0.0000,  0.0000)
  29 Li     6.467899   -0.000649   15.446008    ( 0.0000,  0.0000,  0.0000)
  30 Li    -0.000954    3.234361   15.446917    ( 0.0000,  0.0000,  0.0000)
  31 Li     3.233901    3.233950   15.445787    ( 0.0000,  0.0000,  0.0000)
  32 Li     6.469113    3.234254   15.447152    ( 0.0000,  0.0000,  0.0000)
  33 Li     0.000219    6.468508   15.445633    ( 0.0000,  0.0000,  0.0000)
  34 Li     3.234085    6.468011   15.445843    ( 0.0000,  0.0000,  0.0000)
  35 Li     6.467919    6.468472   15.445590    ( 0.0000,  0.0000,  0.0000)
  36 F      8.093838    1.583172   18.559558    ( 0.0000,  0.0000,  0.0000)
  37 H      9.012724    1.616043   18.455807    ( 0.0000,  0.0000,  0.0000)
  38 N      8.078071    1.627689   17.110674    ( 0.0000,  0.0000,  0.0000)
  39 N      8.084616    2.737784   17.156171    ( 0.0000,  0.0000,  0.0000)

Unit cell:
           periodic     x           y           z      points  spacing
  1. axis:    yes    9.702222    0.000000    0.000000    60     0.1617
  2. axis:    yes    0.000000    9.702222    0.000000    60     0.1617
  3. axis:    no     0.000000    0.000000   26.601111   168     0.1583

  Lengths:   9.702222   9.702222  26.601111
  Angles:   90.000000  90.000000  90.000000

Effective grid spacing dv^(1/3) = 0.1606

     iter     time        total  log10-change:
                         energy  eigst   dens
iter:   1 06:18:42  -246.724606  -0.39
iter:   2 06:19:23  -246.709504  -0.73  -1.70
iter:   3 06:20:04  -246.707315c -1.14  -1.81
iter:   4 06:20:45  -246.787552  -0.81  -2.12
Writing to output.gpw (mode='')

iter:   5 06:21:32  -246.694685  -1.35  -1.83
iter:   6 06:22:13  -246.695315  -1.87  -2.06
iter:   7 06:22:54  -246.684285c -1.75  -2.06
iter:   8 06:23:35  -246.682336c -1.96  -2.16
iter:   9 06:24:16  -246.683685c -2.19  -2.09
Writing to output.gpw (mode='')

iter:  10 06:24:58  -246.675944c -2.04  -2.21
iter:  11 06:25:39  -246.673147c -2.04  -2.48
iter:  12 06:26:20  -246.675898c -2.53  -2.47
iter:  13 06:27:02  -246.673879c -3.00  -2.66
iter:  14 06:27:43  -246.673799c -2.94  -2.98
Writing to output.gpw (mode='')

iter:  15 06:28:26  -246.674444c -3.15  -3.06
iter:  16 06:29:07  -246.674319c -3.48  -3.19
iter:  17 06:29:48  -246.674281c -3.61  -3.19
iter:  18 06:30:29  -246.674358c -3.59  -3.17
iter:  19 06:31:10  -246.674290c -3.90  -3.10
Writing to output.gpw (mode='')

iter:  20 06:31:52  -246.674329c -3.90  -3.29
iter:  21 06:32:33  -246.674436c -3.89  -3.44
iter:  22 06:33:14  -246.674256c -4.23  -3.54
iter:  23 06:33:55  -246.674335c -4.45  -3.56
iter:  24 06:34:36  -246.674323c -4.61  -3.65
Writing to output.gpw (mode='')

iter:  25 06:35:19  -246.674347c -4.49  -3.77
iter:  26 06:36:00  -246.674360c -4.55  -3.99
iter:  27 06:36:40  -246.674356c -4.72  -4.17c
iter:  28 06:37:21  -246.674352c -4.71  -4.22c
iter:  29 06:38:02  -246.674364c -5.05  -4.21c
Writing to output.gpw (mode='')

iter:  30 06:38:45  -246.674359c -5.04  -4.22c
iter:  31 06:39:26  -246.674357c -5.32  -4.50c
iter:  32 06:40:07  -246.674357c -5.08  -4.56c
iter:  33 06:40:48  -246.674360c -5.40  -4.49c
iter:  34 06:41:29  -246.674357c -5.55  -4.56c
Writing to output.gpw (mode='')

iter:  35 06:42:15  -246.674365c -5.50  -4.58c
iter:  36 06:42:56  -246.674364c -5.47  -4.63c
iter:  37 06:43:37  -246.674364c -5.51  -4.71c
iter:  38 06:44:18  -246.674365c -5.58  -4.72c
iter:  39 06:44:59  -246.674365c -5.67  -4.79c
Writing to output.gpw (mode='')

iter:  40 06:45:41  -246.674365c -5.92  -4.82c
iter:  41 06:46:22  -246.674365c -5.90  -4.83c
iter:  42 06:47:03  -246.674364c -6.04  -4.84c
iter:  43 06:47:44  -246.674365c -6.14  -4.93c
iter:  44 06:48:25  -246.674365c -6.36  -5.10c
Writing to output.gpw (mode='')

iter:  45 06:49:08  -246.674365c -6.46  -5.02c
iter:  46 06:49:49  -246.674366c -6.40  -5.03c
iter:  47 06:50:30  -246.674365c -6.48  -5.04c
iter:  48 06:51:10  -246.674366c -6.49  -5.10c
iter:  49 06:51:51  -246.674366c -6.56  -5.12c
Writing to output.gpw (mode='')

iter:  50 06:52:34  -246.674365c -6.67  -5.15c
iter:  51 06:53:15  -246.674365c -6.56  -5.36c
iter:  52 06:53:56  -246.674365c -6.78  -5.54c
iter:  53 06:54:37  -246.674365c -6.78  -5.57c
iter:  54 06:55:18  -246.674365c -6.82  -5.71c
Writing to output.gpw (mode='')

iter:  55 06:56:01  -246.674365c -7.01  -5.77c
iter:  56 06:56:42  -246.674365c -7.01  -5.85c
iter:  57 06:57:23  -246.674365c -7.24  -6.15c
iter:  58 06:58:04  -246.674365c -7.21  -6.15c
iter:  59 06:58:45  -246.674365c -7.28  -6.11c
Writing to output.gpw (mode='')

iter:  60 06:59:27  -246.674365c -7.32  -6.01c
iter:  61 07:00:08  -246.674365c -7.28  -6.05c
iter:  62 07:00:49  -246.674365c -7.33  -5.98c
iter:  63 07:01:30  -246.674365c -7.37  -5.90c
iter:  64 07:02:11  -246.674365c -7.43c -5.86c

Converged after 64 iterations.

Dipole moment: (-0.936158, -3.419004, 0.217430) |e|*Ang

Energy contributions relative to reference atoms: (reference = -12990.375485)

Kinetic:       +140.993291
Potential:     -121.283892
External:        +0.000000
XC:            -266.685931
Entropy (-ST):   -0.167957
Local:           +0.386145
--------------------------
Free energy:   -246.758343
Extrapolated:  -246.674365

Dipole-layer corrected work functions: 3.382077, 2.964102 eV

Showing only first 2 kpts
 Kpt  Band  Eigenvalues  Occupancy
  0    25     -3.42415    1.98689
  0    26     -3.33520    1.92478
  0    27     -3.07736    0.25692
  0    28     -2.92922    0.01512

  1    25     -3.20428    1.30218
  1    26     -3.17720    1.04109
  1    27     -3.13559    0.64164
  1    28     -3.08943    0.31601


Fermi level: -3.17309

Gap: 0.021 eV
Transition (v -> c):
  (s=0, k=1, n=26, [0.12, -0.12, 0.00]) -> (s=0, k=7, n=27, [0.38, 0.38, 0.00])
Writing to output.gpw (mode='')


Forces in eV/Ang:
  0 Li    0.02002    0.00440   -0.27161
  1 Li   -0.02166    0.00345   -0.27098
  2 Li    0.00201   -0.00923   -0.27997
  3 Li    0.01011   -0.00509   -0.27470
  4 Li   -0.00680   -0.00012   -0.27555
  5 Li   -0.00262    0.02374   -0.27506
  6 Li   -0.00225    0.00107   -0.27406
  7 Li    0.00552   -0.00362   -0.27397
  8 Li   -0.00327   -0.01443   -0.26853
  9 Li   -0.00274   -0.00914    0.28779
 10 Li   -0.00233    0.01699    0.24885
 11 Li    0.00564   -0.01113    0.28650
 12 Li   -0.00543   -0.00005    0.31413
 13 Li   -0.00263   -0.01011    0.23605
 14 Li    0.00808    0.00271    0.31285
 15 Li   -0.00190    0.00855    0.24610
 16 Li    0.00128   -0.00524    0.27994
 17 Li    0.00038    0.00936    0.23599
 18 Li   -0.01947    0.00767    0.06438
 19 Li    0.01928    0.00719    0.04419
 20 Li   -0.00229   -0.01844   -0.21165
 21 Li   -0.02690   -0.01922    0.05409
 22 Li    0.02750   -0.02304    0.05875
 23 Li   -0.00143    0.04190   -0.06555
 24 Li   -0.00276    0.01014    0.03653
 25 Li    0.00251    0.01413    0.04311
 26 Li   -0.00083   -0.00974    0.05073
 27 Li    0.05579   -0.08919   -0.04487
 28 Li   -0.02210    0.03250    0.00031
 29 Li   -0.03980   -0.08816   -0.01802
 30 Li   -0.08649    0.04967    0.07964
 31 Li   -0.01922   -0.01703   -0.01139
 32 Li    0.09667    0.03959    0.10020
 33 Li    0.02161    0.04137   -0.03531
 34 Li    0.00228   -0.01490   -0.01127
 35 Li   -0.02346    0.03788   -0.04004
 36 F    -0.35310   -5.80038   16.78989
 37 H     1.67635   -0.16545    1.52570
 38 N    -1.19926   -2.64306  -11.57040
 39 N    -0.14451    8.62155   -6.82261

System changes: positions 

Initializing position-dependent things.

Density initialized from wave functions
       .-----------------------.  
      /|                       |  
     / |                       |  
    /  |                       |  
   /   |                       |  
  /    |                       |  
 *     |                       |  
 |     |                       |  
 |     |                       |  
 |     |                       |  
 |     |                       |  
 |     |                       |  
 |     |                       |  
 |     |                       |  
 |     Li              Li      |  
 |     |              F H      |  
 |   Li|     Li      LiN       |  
 |     |  Li      Li  N   Li   |  
 |     |   Li      Li      Li  |  
 |     |Li      Li      Li     |  
 |     | Li                    |  
 |   LLi     LLi     LLi       |  
 |     |  Li      Li      Li   |  
 | Li  |   Li      Li          |  
 |     |Li      Li      Li     |  
 Li    | Li      Li            |  
 |    Li      Li      Li       |  
 |     |                       |  
 |     |                       |  
 |     |                       |  
 |     |                       |  
 |     |                       |  
 |     |                       |  
 |     .-----------------------.  
 |    /                       /   
 |   /                       /    
 |  /                       /     
 | /                       /      
 |/                       /       
 *-----------------------*        

Positions:
   0 Li     1.617037    1.617037   10.000000    ( 0.0000,  0.0000,  0.0000)
   1 Li     4.851111    1.617037   10.000000    ( 0.0000,  0.0000,  0.0000)
   2 Li     8.085185    1.617037   10.000000    ( 0.0000,  0.0000,  0.0000)
   3 Li     1.617037    4.851111   10.000000    ( 0.0000,  0.0000,  0.0000)
   4 Li     4.851111    4.851111   10.000000    ( 0.0000,  0.0000,  0.0000)
   5 Li     8.085185    4.851111   10.000000    ( 0.0000,  0.0000,  0.0000)
   6 Li     1.617037    8.085185   10.000000    ( 0.0000,  0.0000,  0.0000)
   7 Li     4.851111    8.085185   10.000000    ( 0.0000,  0.0000,  0.0000)
   8 Li     8.085185    8.085185   10.000000    ( 0.0000,  0.0000,  0.0000)
   9 Li     0.000000    0.000000   11.617037    ( 0.0000,  0.0000,  0.0000)
  10 Li     3.234074    0.000000   11.617037    ( 0.0000,  0.0000,  0.0000)
  11 Li     6.468148    0.000000   11.617037    ( 0.0000,  0.0000,  0.0000)
  12 Li     0.000000    3.234074   11.617037    ( 0.0000,  0.0000,  0.0000)
  13 Li     3.234074    3.234074   11.617037    ( 0.0000,  0.0000,  0.0000)
  14 Li     6.468148    3.234074   11.617037    ( 0.0000,  0.0000,  0.0000)
  15 Li     0.000000    6.468148   11.617037    ( 0.0000,  0.0000,  0.0000)
  16 Li     3.234074    6.468148   11.617037    ( 0.0000,  0.0000,  0.0000)
  17 Li     6.468148    6.468148   11.617037    ( 0.0000,  0.0000,  0.0000)
  18 Li     1.616751    1.617180   13.470761    ( 0.0000,  0.0000,  0.0000)
  19 Li     4.851385    1.617123   13.470365    ( 0.0000,  0.0000,  0.0000)
  20 Li     8.085158    1.616749   13.466477    ( 0.0000,  0.0000,  0.0000)
  21 Li     1.616587    4.850758   13.470649    ( 0.0000,  0.0000,  0.0000)
  22 Li     4.851570    4.850771   13.470586    ( 0.0000,  0.0000,  0.0000)
  23 Li     8.085172    4.851715   13.468868    ( 0.0000,  0.0000,  0.0000)
  24 Li     1.617010    8.085350   13.470263    ( 0.0000,  0.0000,  0.0000)
  25 Li     4.851138    8.085382   13.470364    ( 0.0000,  0.0000,  0.0000)
  26 Li     8.085165    8.085029   13.470384    ( 0.0000,  0.0000,  0.0000)
  27 Li     0.000677   -0.001324   15.445282    ( 0.0000,  0.0000,  0.0000)
  28 Li     3.233740    0.000474   15.445858    ( 0.0000,  0.0000,  0.0000)
  29 Li     6.467660   -0.001147   15.446004    ( 0.0000,  0.0000,  0.0000)
  30 Li    -0.000507    3.234685   15.446582    ( 0.0000,  0.0000,  0.0000)
  31 Li     3.233805    3.233866   15.445624    ( 0.0000,  0.0000,  0.0000)
  32 Li     6.468636    3.234460   15.447130    ( 0.0000,  0.0000,  0.0000)
  33 Li     0.000306    6.468624   15.445402    ( 0.0000,  0.0000,  0.0000)
  34 Li     3.234064    6.467910   15.445778    ( 0.0000,  0.0000,  0.0000)
  35 Li     6.467853    6.468578   15.445345    ( 0.0000,  0.0000,  0.0000)
  36 F      8.099257    1.579140   18.598983    ( 0.0000,  0.0000,  0.0000)
  37 H      9.009381    1.614585   18.457166    ( 0.0000,  0.0000,  0.0000)
  38 N      8.077169    1.634144   17.073891    ( 0.0000,  0.0000,  0.0000)
  39 N      8.083092    2.737704   17.153099    ( 0.0000,  0.0000,  0.0000)

Unit cell:
           periodic     x           y           z      points  spacing
  1. axis:    yes    9.702222    0.000000    0.000000    60     0.1617
  2. axis:    yes    0.000000    9.702222    0.000000    60     0.1617
  3. axis:    no     0.000000    0.000000   26.601111   168     0.1583

  Lengths:   9.702222   9.702222  26.601111
  Angles:   90.000000  90.000000  90.000000

Effective grid spacing dv^(1/3) = 0.1606

     iter     time        total  log10-change:
                         energy  eigst   dens
iter:   1 07:03:07  -247.773620  -0.43
iter:   2 07:03:48  -247.753543  -0.81  -1.72
iter:   3 07:04:29  -247.749494c -1.23  -1.83
iter:   4 07:05:10  -247.811807  -0.91  -2.12
Writing to output.gpw (mode='')

iter:   5 07:05:53  -247.739088  -1.45  -1.90
iter:   6 07:06:34  -247.739603  -1.87  -2.18
iter:   7 07:07:15  -247.717617c -1.54  -2.10
iter:   8 07:07:56  -247.719053c -1.93  -2.37
iter:   9 07:08:37  -247.718660c -2.22  -2.46
Writing to output.gpw (mode='')

iter:  10 07:09:21  -247.719255c -2.49  -2.46
iter:  11 07:10:02  -247.718724c -2.49  -2.67
iter:  12 07:10:44  -247.718857c -2.64  -2.79
iter:  13 07:11:25  -247.718708c -3.17  -2.87
iter:  14 07:12:05  -247.718903c -2.99  -2.96
Writing to output.gpw (mode='')

iter:  15 07:12:48  -247.718879c -3.10  -3.04
iter:  16 07:13:29  -247.718904c -3.62  -3.12
iter:  17 07:14:10  -247.718856c -3.62  -3.25
iter:  18 07:14:51  -247.718955c -3.64  -3.32
iter:  19 07:15:33  -247.718882c -3.92  -3.36
Writing to output.gpw (mode='')

iter:  20 07:16:15  -247.718911c -3.91  -3.37
iter:  21 07:16:57  -247.718961c -4.04  -3.50
iter:  22 07:17:38  -247.718987c -4.26  -3.67
iter:  23 07:18:19  -247.719020c -4.27  -3.68
iter:  24 07:19:00  -247.718962c -4.40  -3.79
Writing to output.gpw (mode='')

iter:  25 07:19:43  -247.719006c -4.55  -3.81
iter:  26 07:20:24  -247.718982c -4.84  -3.91
iter:  27 07:21:04  -247.719000c -4.58  -3.99
iter:  28 07:21:45  -247.719005c -4.96  -4.12c
iter:  29 07:22:26  -247.719007c -4.91  -4.21c
Writing to output.gpw (mode='')

iter:  30 07:23:09  -247.719010c -4.94  -4.29c
iter:  31 07:23:50  -247.719016c -5.08  -4.20c
iter:  32 07:24:31  -247.719012c -5.09  -4.32c
iter:  33 07:25:12  -247.719011c -5.27  -4.34c
iter:  34 07:25:52  -247.719015c -5.28  -4.57c
Writing to output.gpw (mode='')

iter:  35 07:26:35  -247.719015c -5.33  -4.67c
iter:  36 07:27:16  -247.719016c -5.58  -4.68c
iter:  37 07:27:57  -247.719015c -5.61  -4.76c
iter:  38 07:28:38  -247.719020c -5.54  -4.99c
iter:  39 07:29:19  -247.719020c -5.94  -4.91c
Writing to output.gpw (mode='')

iter:  40 07:30:02  -247.719019c -5.88  -4.91c
iter:  41 07:30:43  -247.719017c -5.87  -4.81c
iter:  42 07:31:24  -247.719016c -6.05  -4.88c
iter:  43 07:32:05  -247.719018c -6.00  -4.83c
iter:  44 07:32:46  -247.719018c -6.07  -4.79c
Writing to output.gpw (mode='')

iter:  45 07:33:32  -247.719018c -6.21  -4.90c
iter:  46 07:34:13  -247.719018c -6.25  -4.80c
iter:  47 07:34:54  -247.719018c -6.30  -4.83c
iter:  48 07:35:35  -247.719022c -6.47  -4.77c
iter:  49 07:36:16  -247.719022c -6.56  -4.88c
Writing to output.gpw (mode='')

iter:  50 07:36:59  -247.719024c -6.44  -4.86c
iter:  51 07:37:39  -247.719024c -6.64  -4.85c
iter:  52 07:38:20  -247.719022c -6.77  -4.85c
iter:  53 07:39:01  -247.719025c -6.74  -4.93c
iter:  54 07:39:42  -247.719024c -6.89  -4.93c
Writing to output.gpw (mode='')

iter:  55 07:40:27  -247.719023c -6.80  -5.05c
iter:  56 07:41:08  -247.719023c -6.85  -5.05c
iter:  57 07:41:49  -247.719023c -7.08  -5.35c
iter:  58 07:42:30  -247.719024c -7.19  -5.50c
iter:  59 07:43:11  -247.719024c -7.02  -5.62c
Writing to output.gpw (mode='')

iter:  60 07:43:54  -247.719024c -7.07  -5.67c
iter:  61 07:44:35  -247.719024c -7.15  -5.79c
iter:  62 07:45:16  -247.719024c -7.44c -5.93c

Converged after 62 iterations.

Dipole moment: (-1.066575, -3.302906, 0.178634) |e|*Ang

Energy contributions relative to reference atoms: (reference = -12990.375485)

Kinetic:       +138.741752
Potential:     -120.295637
External:        +0.000000
XC:            -266.469814
Entropy (-ST):   -0.166795
Local:           +0.388071
--------------------------
Free energy:   -247.802422
Extrapolated:  -247.719024

Dipole-layer corrected work functions: 3.385387, 3.041991 eV

Showing only first 2 kpts
 Kpt  Band  Eigenvalues  Occupancy
  0    25     -3.46506    1.98697
  0    26     -3.37802    1.92793
  0    27     -3.11367    0.23832
  0    28     -2.96830    0.01467

  1    25     -3.24494    1.30270
  1    26     -3.21831    1.04618
  1    27     -3.17675    0.64655
  1    28     -3.12834    0.30709


Fermi level: -3.21369

Gap: 0.017 eV
Transition (v -> c):
  (s=0, k=1, n=26, [0.12, -0.12, 0.00]) -> (s=0, k=7, n=27, [0.38, 0.38, 0.00])
Writing to output.gpw (mode='')


Forces in eV/Ang:
  0 Li    0.02117    0.00447   -0.27130
  1 Li   -0.02276    0.00351   -0.27087
  2 Li    0.00195   -0.00938   -0.27931
  3 Li    0.00959   -0.00452   -0.27474
  4 Li   -0.00680   -0.00015   -0.27552
  5 Li   -0.00205    0.02455   -0.27419
  6 Li   -0.00232    0.00133   -0.27502
  7 Li    0.00502   -0.00279   -0.27469
  8 Li   -0.00273   -0.01589   -0.26870
  9 Li   -0.00220   -0.00918    0.28587
 10 Li   -0.00192    0.01720    0.24827
 11 Li    0.00487   -0.01118    0.28536
 12 Li   -0.00581   -0.00003    0.31387
 13 Li   -0.00230   -0.01048    0.23556
 14 Li    0.00796    0.00273    0.31271
 15 Li   -0.00195    0.00985    0.24443
 16 Li    0.00084   -0.00652    0.27855
 17 Li    0.00082    0.01079    0.23558
 18 Li   -0.02018    0.00743    0.06590
 19 Li    0.01990    0.00658    0.04551
 20 Li   -0.00241   -0.01736   -0.20647
 21 Li   -0.02709   -0.01976    0.05550
 22 Li    0.02744   -0.02292    0.05853
 23 Li   -0.00125    0.03841   -0.05433
 24 Li   -0.00228    0.00962    0.03681
 25 Li    0.00192    0.01317    0.04240
 26 Li   -0.00084   -0.00878    0.04706
 27 Li    0.05202   -0.08917   -0.04849
 28 Li   -0.02087    0.03255   -0.00187
 29 Li   -0.03850   -0.08544   -0.01495
 30 Li   -0.04227    0.05278    0.04373
 31 Li   -0.01802   -0.01653   -0.01419
 32 Li    0.05264    0.03971    0.07055
 33 Li    0.01804    0.03390   -0.03564
 34 Li    0.00141   -0.01439   -0.01174
 35 Li   -0.01893    0.03054   -0.03949
 36 F    -0.27067   -4.98934   14.74572
 37 H     1.47049   -0.19058    1.31520
 38 N    -0.99513   -2.60600  -10.28088
 39 N    -0.18646    7.76805   -5.76360

System changes: positions 

Initializing position-dependent things.

Density initialized from wave functions
       .-----------------------.  
      /|                       |  
     / |                       |  
    /  |                       |  
   /   |                       |  
  /    |                       |  
 *     |                       |  
 |     |                       |  
 |     |                       |  
 |     |                       |  
 |     |                       |  
 |     |                       |  
 |     |                       |  
 |     |                       |  
 |     Li              Li      |  
 |     |              F H      |  
 |   Li|     Li      LiN       |  
 |     |  Li      Li  N   Li   |  
 | Li  |   Li      Li          |  
 |     |Li      Li      Li     |  
 |     | Li                    |  
 |   LLi     LLi     LLi       |  
 |     |  Li      Li      Li   |  
 | Li  |   Li      Li          |  
 |     |Li      Li      Li     |  
 Li    | Li      Li            |  
 |    Li      Li      Li       |  
 |     |                       |  
 |     |                       |  
 |     |                       |  
 |     |                       |  
 |     |                       |  
 |     |                       |  
 |     .-----------------------.  
 |    /                       /   
 |   /                       /    
 |  /                       /     
 | /                       /      
 |/                       /       
 *-----------------------*        

Positions:
   0 Li     1.617037    1.617037   10.000000    ( 0.0000,  0.0000,  0.0000)
   1 Li     4.851111    1.617037   10.000000    ( 0.0000,  0.0000,  0.0000)
   2 Li     8.085185    1.617037   10.000000    ( 0.0000,  0.0000,  0.0000)
   3 Li     1.617037    4.851111   10.000000    ( 0.0000,  0.0000,  0.0000)
   4 Li     4.851111    4.851111   10.000000    ( 0.0000,  0.0000,  0.0000)
   5 Li     8.085185    4.851111   10.000000    ( 0.0000,  0.0000,  0.0000)
   6 Li     1.617037    8.085185   10.000000    ( 0.0000,  0.0000,  0.0000)
   7 Li     4.851111    8.085185   10.000000    ( 0.0000,  0.0000,  0.0000)
   8 Li     8.085185    8.085185   10.000000    ( 0.0000,  0.0000,  0.0000)
   9 Li     0.000000    0.000000   11.617037    ( 0.0000,  0.0000,  0.0000)
  10 Li     3.234074    0.000000   11.617037    ( 0.0000,  0.0000,  0.0000)
  11 Li     6.468148    0.000000   11.617037    ( 0.0000,  0.0000,  0.0000)
  12 Li     0.000000    3.234074   11.617037    ( 0.0000,  0.0000,  0.0000)
  13 Li     3.234074    3.234074   11.617037    ( 0.0000,  0.0000,  0.0000)
  14 Li     6.468148    3.234074   11.617037    ( 0.0000,  0.0000,  0.0000)
  15 Li     0.000000    6.468148   11.617037    ( 0.0000,  0.0000,  0.0000)
  16 Li     3.234074    6.468148   11.617037    ( 0.0000,  0.0000,  0.0000)
  17 Li     6.468148    6.468148   11.617037    ( 0.0000,  0.0000,  0.0000)
  18 Li     1.616568    1.617255   13.471376    ( 0.0000,  0.0000,  0.0000)
  19 Li     4.851559    1.617155   13.470761    ( 0.0000,  0.0000,  0.0000)
  20 Li     8.085142    1.616610   13.464813    ( 0.0000,  0.0000,  0.0000)
  21 Li     1.616331    4.850553   13.471195    ( 0.0000,  0.0000,  0.0000)
  22 Li     4.851824    4.850589   13.471052    ( 0.0000,  0.0000,  0.0000)
  23 Li     8.085172    4.851955   13.468683    ( 0.0000,  0.0000,  0.0000)
  24 Li     1.617012    8.085426   13.470557    ( 0.0000,  0.0000,  0.0000)
  25 Li     4.851133    8.085467   13.470689    ( 0.0000,  0.0000,  0.0000)
  26 Li     8.085155    8.084974   13.470662    ( 0.0000,  0.0000,  0.0000)
  27 Li     0.001002   -0.002104   15.444753    ( 0.0000,  0.0000,  0.0000)
  28 Li     3.233591    0.000742   15.445768    ( 0.0000,  0.0000,  0.0000)
  29 Li     6.467376   -0.001763   15.446031    ( 0.0000,  0.0000,  0.0000)
  30 Li     0.000431    3.235143   15.445882    ( 0.0000,  0.0000,  0.0000)
  31 Li     3.233690    3.233758   15.445391    ( 0.0000,  0.0000,  0.0000)
  32 Li     6.467690    3.234731   15.446885    ( 0.0000,  0.0000,  0.0000)
  33 Li     0.000382    6.468704   15.445097    ( 0.0000,  0.0000,  0.0000)
  34 Li     3.234033    6.467789   15.445684    ( 0.0000,  0.0000,  0.0000)
  35 Li     6.467810    6.468642   15.445031    ( 0.0000,  0.0000,  0.0000)
  36 F      8.105376    1.576662   18.638434    ( 0.0000,  0.0000,  0.0000)
  37 H      9.005952    1.612474   18.458176    ( 0.0000,  0.0000,  0.0000)
  38 N      8.077118    1.637848   17.035208    ( 0.0000,  0.0000,  0.0000)
  39 N      8.080668    2.738980   17.153505    ( 0.0000,  0.0000,  0.0000)

Unit cell:
           periodic     x           y           z      points  spacing
  1. axis:    yes    9.702222    0.000000    0.000000    60     0.1617
  2. axis:    yes    0.000000    9.702222    0.000000    60     0.1617
  3. axis:    no     0.000000    0.000000   26.601111   168     0.1583

  Lengths:   9.702222   9.702222  26.601111
  Angles:   90.000000  90.000000  90.000000

Effective grid spacing dv^(1/3) = 0.1606

     iter     time        total  log10-change:
                         energy  eigst   dens
iter:   1 07:46:12  -248.647438  -0.53
iter:   2 07:46:53  -248.649303  -1.06  -1.92
iter:   3 07:47:34  -248.650189c -1.41  -2.04
iter:   4 07:48:15  -248.674860c -1.10  -2.31
Writing to output.gpw (mode='')

iter:   5 07:48:58  -248.636957  -1.62  -2.13
iter:   6 07:49:38  -248.636037  -1.97  -2.41
iter:   7 07:50:19  -248.637959c -2.09  -2.41
iter:   8 07:51:00  -248.637038c -2.28  -2.46
iter:   9 07:51:41  -248.635917c -2.46  -2.58
Writing to output.gpw (mode='')

iter:  10 07:52:24  -248.636311c -2.86  -2.85
iter:  11 07:53:05  -248.636608c -3.08  -2.95
iter:  12 07:53:46  -248.636069c -2.95  -2.91
iter:  13 07:54:27  -248.636410c -3.26  -2.95
iter:  14 07:55:07  -248.636458c -3.49  -3.07
Writing to output.gpw (mode='')

iter:  15 07:55:51  -248.636320c -3.43  -3.27
iter:  16 07:56:32  -248.636385c -3.63  -3.35
iter:  17 07:57:13  -248.636417c -3.67  -3.45
iter:  18 07:57:54  -248.636461c -3.71  -3.49
iter:  19 07:58:35  -248.636468c -4.14  -3.53
Writing to output.gpw (mode='')

iter:  20 07:59:18  -248.636508c -4.23  -3.76
iter:  21 07:59:59  -248.636507c -4.31  -3.88
iter:  22 08:00:40  -248.636519c -4.19  -3.89
iter:  23 08:01:21  -248.636535c -4.39  -4.04c
iter:  24 08:02:02  -248.636535c -4.68  -4.26c
Writing to output.gpw (mode='')

iter:  25 08:02:44  -248.636539c -4.58  -4.27c
iter:  26 08:03:25  -248.636543c -4.59  -4.29c
iter:  27 08:04:06  -248.636549c -4.61  -4.33c
iter:  28 08:04:47  -248.636550c -4.81  -4.42c
iter:  29 08:05:28  -248.636555c -4.97  -4.31c
Writing to output.gpw (mode='')

iter:  30 08:06:11  -248.636558c -4.72  -4.42c
iter:  31 08:06:52  -248.636555c -4.95  -4.42c
iter:  32 08:07:33  -248.636560c -5.05  -4.31c
iter:  33 08:08:14  -248.636566c -5.03  -4.34c
iter:  34 08:08:55  -248.636569c -5.14  -4.34c
Writing to output.gpw (mode='')

iter:  35 08:09:40  -248.636574c -5.14  -4.27c
iter:  36 08:10:21  -248.636581c -5.12  -4.38c
iter:  37 08:11:02  -248.636578c -5.20  -4.25c
iter:  38 08:11:44  -248.636576c -5.32  -4.26c
iter:  39 08:12:25  -248.636574c -5.43  -4.17c
Writing to output.gpw (mode='')

iter:  40 08:13:07  -248.636574c -5.50  -4.22c
iter:  41 08:13:48  -248.636577c -5.54  -4.24c
iter:  42 08:14:30  -248.636596c -5.67  -4.22c
iter:  43 08:15:10  -248.636588c -5.70  -4.29c
iter:  44 08:15:52  -248.636588c -5.69  -4.37c
Writing to output.gpw (mode='')

iter:  45 08:16:35  -248.636588c -6.12  -4.56c
iter:  46 08:17:16  -248.636590c -5.93  -4.61c
iter:  47 08:17:57  -248.636587c -6.14  -4.63c
iter:  48 08:18:38  -248.636588c -5.91  -4.76c
iter:  49 08:19:19  -248.636589c -6.29  -4.75c
Writing to output.gpw (mode='')

iter:  50 08:20:02  -248.636591c -6.25  -4.89c
iter:  51 08:20:43  -248.636591c -6.27  -5.16c
iter:  52 08:21:24  -248.636591c -6.49  -5.07c
iter:  53 08:22:06  -248.636591c -6.22  -5.12c
iter:  54 08:22:47  -248.636592c -6.34  -5.20c
Writing to output.gpw (mode='')

iter:  55 08:23:29  -248.636592c -6.63  -5.32c
iter:  56 08:24:11  -248.636593c -6.58  -5.38c
iter:  57 08:24:52  -248.636593c -6.60  -5.51c
iter:  58 08:25:33  -248.636593c -6.69  -5.63c
iter:  59 08:26:14  -248.636593c -6.73  -5.68c
Writing to output.gpw (mode='')

iter:  60 08:26:57  -248.636593c -6.86  -5.70c
iter:  61 08:27:38  -248.636593c -7.03  -5.60c
iter:  62 08:28:19  -248.636593c -6.97  -5.77c
iter:  63 08:29:00  -248.636593c -7.12  -5.73c
iter:  64 08:29:42  -248.636593c -6.94  -5.85c
Writing to output.gpw (mode='')

iter:  65 08:30:25  -248.636593c -7.18  -5.86c
iter:  66 08:31:06  -248.636593c -7.12  -5.80c
iter:  67 08:31:47  -248.636593c -7.22  -5.74c
iter:  68 08:32:28  -248.636593c -7.22  -5.74c
iter:  69 08:33:09  -248.636593c -7.42c -5.71c

Converged after 69 iterations.

Dipole moment: (-1.216985, -3.177637, 0.130964) |e|*Ang

Energy contributions relative to reference atoms: (reference = -12990.375485)

Kinetic:       +135.738555
Potential:     -118.531916
External:        +0.000000
XC:            -266.151874
Entropy (-ST):   -0.166243
Local:           +0.391764
--------------------------
Free energy:   -248.719715
Extrapolated:  -248.636593

Dipole-layer corrected work functions: 3.389010, 3.137252 eV

Showing only first 2 kpts
 Kpt  Band  Eigenvalues  Occupancy
  0    25     -3.51404    1.98685
  0    26     -3.42946    1.93066
  0    27     -3.16011    0.22601
  0    28     -3.01846    0.01488

  1    25     -3.29590    1.31641
  1    26     -3.26692    1.03789
  1    27     -3.22784    0.66102
  1    28     -3.17349    0.28545


Fermi level: -3.26313

Gap: 0.012 eV
Transition (v -> c):
  (s=0, k=1, n=26, [0.12, -0.12, 0.00]) -> (s=0, k=7, n=27, [0.38, 0.38, 0.00])
Writing to output.gpw (mode='')


Forces in eV/Ang:
  0 Li    0.02218    0.00446   -0.27122
  1 Li   -0.02372    0.00345   -0.27090
  2 Li    0.00186   -0.00919   -0.27878
  3 Li    0.00908   -0.00371   -0.27498
  4 Li   -0.00664    0.00020   -0.27563
  5 Li   -0.00157    0.02503   -0.27359
  6 Li   -0.00201    0.00165   -0.27597
  7 Li    0.00431   -0.00201   -0.27561
  8 Li   -0.00232   -0.01739   -0.26866
  9 Li   -0.00176   -0.00899    0.28465
 10 Li   -0.00146    0.01719    0.24777
 11 Li    0.00417   -0.01105    0.28455
 12 Li   -0.00604    0.00012    0.31394
 13 Li   -0.00211   -0.01096    0.23533
 14 Li    0.00785    0.00296    0.31278
 15 Li   -0.00194    0.01095    0.24303
 16 Li    0.00034   -0.00787    0.27697
 17 Li    0.00118    0.01206    0.23532
 18 Li   -0.01991    0.00681    0.06552
 19 Li    0.01969    0.00592    0.04529
 20 Li   -0.00264   -0.01587   -0.19833
 21 Li   -0.02655   -0.02015    0.05550
 22 Li    0.02664   -0.02294    0.05756
 23 Li   -0.00114    0.03561   -0.04460
 24 Li   -0.00241    0.00910    0.03737
 25 Li    0.00187    0.01212    0.04181
 26 Li   -0.00086   -0.00834    0.04252
 27 Li    0.04330   -0.08313   -0.04512
 28 Li   -0.01971    0.03170   -0.00431
 29 Li   -0.03239   -0.07743   -0.00649
 30 Li   -0.01525    0.05043    0.02486
 31 Li   -0.01692   -0.01557   -0.01726
 32 Li    0.02724    0.03363    0.05817
 33 Li    0.01470    0.02636   -0.03539
 34 Li    0.00082   -0.01323   -0.01237
 35 Li   -0.01483    0.02294   -0.03836
 36 F    -0.27798   -4.17414   12.70201
 37 H     1.33069   -0.20217    1.12373
 38 N    -0.82802   -2.23427   -8.93431
 39 N    -0.22168    6.63752   -4.85858

System changes: positions 

Initializing position-dependent things.

Density initialized from wave functions
       .-----------------------.  
      /|                       |  
     / |                       |  
    /  |                       |  
   /   |                       |  
  /    |                       |  
 *     |                       |  
 |     |                       |  
 |     |                       |  
 |     |                       |  
 |     |                       |  
 |     |                       |  
 |     |                       |  
 |     |                       |  
 |     Li              Li      |  
 |     |              F H      |  
 |   Li|     Li      LiN       |  
 |     |  Li      Li  N   Li   |  
 | Li  |   Li      Li          |  
 |     |Li      Li      Li     |  
 |     | Li                    |  
 |   LLi     LLi     LLi       |  
 |     |  Li      Li      Li   |  
 | Li  |   Li      Li          |  
 |     |Li      Li      Li     |  
 Li    | Li      Li            |  
 |    Li      Li      Li       |  
 |     |                       |  
 |     |                       |  
 |     |                       |  
 |     |                       |  
 |     |                       |  
 |     |                       |  
 |     .-----------------------.  
 |    /                       /   
 |   /                       /    
 |  /                       /     
 | /                       /      
 |/                       /       
 *-----------------------*        

Positions:
   0 Li     1.617037    1.617037   10.000000    ( 0.0000,  0.0000,  0.0000)
   1 Li     4.851111    1.617037   10.000000    ( 0.0000,  0.0000,  0.0000)
   2 Li     8.085185    1.617037   10.000000    ( 0.0000,  0.0000,  0.0000)
   3 Li     1.617037    4.851111   10.000000    ( 0.0000,  0.0000,  0.0000)
   4 Li     4.851111    4.851111   10.000000    ( 0.0000,  0.0000,  0.0000)
   5 Li     8.085185    4.851111   10.000000    ( 0.0000,  0.0000,  0.0000)
   6 Li     1.617037    8.085185   10.000000    ( 0.0000,  0.0000,  0.0000)
   7 Li     4.851111    8.085185   10.000000    ( 0.0000,  0.0000,  0.0000)
   8 Li     8.085185    8.085185   10.000000    ( 0.0000,  0.0000,  0.0000)
   9 Li     0.000000    0.000000   11.617037    ( 0.0000,  0.0000,  0.0000)
  10 Li     3.234074    0.000000   11.617037    ( 0.0000,  0.0000,  0.0000)
  11 Li     6.468148    0.000000   11.617037    ( 0.0000,  0.0000,  0.0000)
  12 Li     0.000000    3.234074   11.617037    ( 0.0000,  0.0000,  0.0000)
  13 Li     3.234074    3.234074   11.617037    ( 0.0000,  0.0000,  0.0000)
  14 Li     6.468148    3.234074   11.617037    ( 0.0000,  0.0000,  0.0000)
  15 Li     0.000000    6.468148   11.617037    ( 0.0000,  0.0000,  0.0000)
  16 Li     3.234074    6.468148   11.617037    ( 0.0000,  0.0000,  0.0000)
  17 Li     6.468148    6.468148   11.617037    ( 0.0000,  0.0000,  0.0000)
  18 Li     1.616345    1.617336   13.472125    ( 0.0000,  0.0000,  0.0000)
  19 Li     4.851772    1.617191   13.471252    ( 0.0000,  0.0000,  0.0000)
  20 Li     8.085117    1.616457   13.462833    ( 0.0000,  0.0000,  0.0000)
  21 Li     1.616025    4.850299   13.471860    ( 0.0000,  0.0000,  0.0000)
  22 Li     4.852124    4.850358   13.471630    ( 0.0000,  0.0000,  0.0000)
  23 Li     8.085171    4.852235   13.468534    ( 0.0000,  0.0000,  0.0000)
  24 Li     1.617006    8.085515   13.470939    ( 0.0000,  0.0000,  0.0000)
  25 Li     4.851132    8.085563   13.471097    ( 0.0000,  0.0000,  0.0000)
  26 Li     8.085143    8.084907   13.470970    ( 0.0000,  0.0000,  0.0000)
  27 Li     0.001298   -0.002977   15.444177    ( 0.0000,  0.0000,  0.0000)
  28 Li     3.233416    0.001067   15.445635    ( 0.0000,  0.0000,  0.0000)
  29 Li     6.467107   -0.002434   15.446163    ( 0.0000,  0.0000,  0.0000)
  30 Li     0.001694    3.235676   15.444989    ( 0.0000,  0.0000,  0.0000)
  31 Li     3.233553    3.233629   15.445079    ( 0.0000,  0.0000,  0.0000)
  32 Li     6.466470    3.234989   15.446606    ( 0.0000,  0.0000,  0.0000)
  33 Li     0.000443    6.468738   15.444720    ( 0.0000,  0.0000,  0.0000)
  34 Li     3.233997    6.467656   15.445554    ( 0.0000,  0.0000,  0.0000)
  35 Li     6.467791    6.468651   15.444650    ( 0.0000,  0.0000,  0.0000)
  36 F      8.110640    1.575950   18.678009    ( 0.0000,  0.0000,  0.0000)
  37 H      9.003716    1.609771   18.459100    ( 0.0000,  0.0000,  0.0000)
  38 N      8.077488    1.641498   16.995377    ( 0.0000,  0.0000,  0.0000)
  39 N      8.077282    2.739817   17.155288    ( 0.0000,  0.0000,  0.0000)

Unit cell:
           periodic     x           y           z      points  spacing
  1. axis:    yes    9.702222    0.000000    0.000000    60     0.1617
  2. axis:    yes    0.000000    9.702222    0.000000    60     0.1617
  3. axis:    no     0.000000    0.000000   26.601111   168     0.1583

  Lengths:   9.702222   9.702222  26.601111
  Angles:   90.000000  90.000000  90.000000

Effective grid spacing dv^(1/3) = 0.1606

     iter     time        total  log10-change:
                         energy  eigst   dens
iter:   1 08:34:06  -249.423690  -0.62
iter:   2 08:34:47  -249.427828  -1.19  -2.06
iter:   3 08:35:28  -249.430233c -1.56  -2.21
iter:   4 08:36:09  -249.440149c -1.44  -2.35
Writing to output.gpw (mode='')

iter:   5 08:36:52  -249.423429c -1.81  -2.22
iter:   6 08:37:33  -249.421700c -1.96  -2.51
iter:   7 08:38:14  -249.421159c -2.21  -2.56
iter:   8 08:38:55  -249.421579c -2.52  -2.55
iter:   9 08:39:36  -249.422640c -2.67  -2.63
Writing to output.gpw (mode='')

iter:  10 08:40:19  -249.422413c -3.10  -2.87
iter:  11 08:41:00  -249.422690c -3.02  -2.97
iter:  12 08:41:41  -249.422724c -3.14  -3.05
iter:  13 08:42:22  -249.422584c -3.65  -3.04
iter:  14 08:43:03  -249.422469c -3.47  -3.17
Writing to output.gpw (mode='')

iter:  15 08:43:48  -249.422632c -3.52  -3.41
iter:  16 08:44:29  -249.422541c -3.76  -3.49
iter:  17 08:45:11  -249.422640c -3.98  -3.52
iter:  18 08:45:52  -249.422603c -3.82  -3.70
iter:  19 08:46:33  -249.422643c -4.37  -3.68
Writing to output.gpw (mode='')

iter:  20 08:47:16  -249.422654c -4.23  -3.83
iter:  21 08:47:57  -249.422656c -4.09  -3.76
iter:  22 08:48:38  -249.422673c -4.29  -3.72
iter:  23 08:49:19  -249.422684c -4.46  -3.76
iter:  24 08:50:00  -249.422686c -4.40  -3.77
Writing to output.gpw (mode='')

iter:  25 08:50:45  -249.422697c -4.63  -3.79
iter:  26 08:51:26  -249.422684c -4.62  -3.70
iter:  27 08:52:07  -249.422672c -4.59  -3.70
iter:  28 08:52:48  -249.422668c -4.60  -3.71
iter:  29 08:53:29  -249.422716c -4.96  -3.72
Writing to output.gpw (mode='')

iter:  30 08:54:12  -249.422748c -5.00  -3.75
iter:  31 08:54:53  -249.422752c -5.04  -3.69
iter:  32 08:55:34  -249.422751c -5.05  -3.72
iter:  33 08:56:16  -249.422769c -5.20  -3.75
iter:  34 08:56:57  -249.422764c -5.14  -3.86
Writing to output.gpw (mode='')

iter:  35 08:57:41  -249.422761c -5.22  -3.99
iter:  36 08:58:23  -249.422756c -5.54  -3.97
iter:  37 08:59:04  -249.422773c -5.47  -3.99
iter:  38 08:59:45  -249.422761c -5.82  -4.10c
iter:  39 09:00:26  -249.422751c -5.74  -4.23c
Writing to output.gpw (mode='')

iter:  40 09:01:09  -249.422754c -5.74  -4.52c
iter:  41 09:01:50  -249.422759c -5.87  -4.64c
iter:  42 09:02:31  -249.422757c -6.14  -4.74c
iter:  43 09:03:12  -249.422759c -6.10  -4.85c
iter:  44 09:03:53  -249.422759c -6.30  -4.95c
Writing to output.gpw (mode='')

iter:  45 09:04:38  -249.422760c -6.21  -5.04c
iter:  46 09:05:19  -249.422760c -6.38  -5.08c
iter:  47 09:06:00  -249.422760c -6.43  -5.02c
iter:  48 09:06:41  -249.422760c -6.54  -5.04c
iter:  49 09:07:22  -249.422759c -6.50  -5.01c
Writing to output.gpw (mode='')

iter:  50 09:08:05  -249.422759c -6.45  -5.03c
iter:  51 09:08:46  -249.422760c -6.57  -5.01c
iter:  52 09:09:27  -249.422759c -6.73  -4.90c
iter:  53 09:10:08  -249.422759c -6.82  -4.94c
iter:  54 09:10:48  -249.422760c -6.73  -4.94c
Writing to output.gpw (mode='')

iter:  55 09:11:36  -249.422761c -6.61  -4.89c
iter:  56 09:12:17  -249.422763c -6.89  -4.83c
iter:  57 09:12:58  -249.422762c -7.03  -4.81c
iter:  58 09:13:39  -249.422759c -7.05  -4.85c
iter:  59 09:14:20  -249.422761c -6.89  -4.77c
Writing to output.gpw (mode='')

iter:  60 09:15:03  -249.422764c -7.17  -4.88c
iter:  61 09:15:44  -249.422764c -7.20  -4.91c
iter:  62 09:16:25  -249.422765c -6.98  -5.00c
iter:  63 09:17:06  -249.422763c -7.23  -5.12c
iter:  64 09:17:48  -249.422763c -7.27  -5.17c
Writing to output.gpw (mode='')

iter:  65 09:18:31  -249.422763c -7.39  -5.18c
iter:  66 09:19:12  -249.422764c -7.37  -5.29c
iter:  67 09:19:53  -249.422764c -7.72c -5.39c

Converged after 67 iterations.

Dipole moment: (-1.358023, -3.059566, 0.081796) |e|*Ang

Energy contributions relative to reference atoms: (reference = -12990.375485)

Kinetic:       +132.541919
Potential:     -116.484873
External:        +0.000000
XC:            -265.793105
Entropy (-ST):   -0.165492
Local:           +0.396040
--------------------------
Free energy:   -249.505510
Extrapolated:  -249.422764

Dipole-layer corrected work functions: 3.392191, 3.234951 eV

Showing only first 2 kpts
 Kpt  Band  Eigenvalues  Occupancy
  0    25     -3.56334    1.98655
  0    26     -3.48225    1.93373
  0    27     -3.20631    0.20955
  0    28     -3.07180    0.01576

  1    25     -3.34848    1.33553
  1    26     -3.31602    1.02447
  1    27     -3.28085    0.68397
  1    28     -3.21838    0.25937


Fermi level: -3.31357

Gap: 0.006 eV
Transition (v -> c):
  (s=0, k=1, n=26, [0.12, -0.12, 0.00]) -> (s=0, k=7, n=27, [0.38, 0.38, 0.00])
Writing to output.gpw (mode='')


Forces in eV/Ang:
  0 Li    0.02303    0.00437   -0.27129
  1 Li   -0.02453    0.00331   -0.27095
  2 Li    0.00179   -0.00874   -0.27826
  3 Li    0.00857   -0.00280   -0.27530
  4 Li   -0.00629    0.00083   -0.27583
  5 Li   -0.00119    0.02534   -0.27316
  6 Li   -0.00144    0.00202   -0.27687
  7 Li    0.00354   -0.00134   -0.27662
  8 Li   -0.00206   -0.01892   -0.26839
  9 Li   -0.00133   -0.00874    0.28407
 10 Li   -0.00099    0.01713    0.24746
 11 Li    0.00349   -0.01095    0.28399
 12 Li   -0.00612    0.00040    0.31428
 13 Li   -0.00204   -0.01161    0.23537
 14 Li    0.00775    0.00341    0.31296
 15 Li   -0.00185    0.01181    0.24183
 16 Li   -0.00018   -0.00922    0.27559
 17 Li    0.00140    0.01309    0.23504
 18 Li   -0.01931    0.00602    0.06420
 19 Li    0.01930    0.00524    0.04433
 20 Li   -0.00302   -0.01457   -0.18873
 21 Li   -0.02551   -0.02033    0.05446
 22 Li    0.02531   -0.02311    0.05606
 23 Li   -0.00105    0.03337   -0.03604
 24 Li   -0.00301    0.00851    0.03782
 25 Li    0.00224    0.01112    0.04137
 26 Li   -0.00091   -0.00831    0.03752
 27 Li    0.03242   -0.07351   -0.03875
 28 Li   -0.01888    0.03065   -0.00612
 29 Li   -0.02399   -0.06694    0.00267
 30 Li    0.00065    0.04578    0.01390
 31 Li   -0.01614   -0.01469   -0.01974
 32 Li    0.01386    0.02545    0.05306
 33 Li    0.01126    0.01931   -0.03455
 34 Li    0.00049   -0.01172   -0.01289
 35 Li   -0.01084    0.01574   -0.03672
 36 F    -0.09968   -3.48884   10.78819
 37 H     1.06429   -0.21834    0.98884
 38 N    -0.65429   -1.90260   -7.66473
 39 N    -0.25689    5.62650   -4.08184

System changes: positions 

Initializing position-dependent things.

Density initialized from wave functions
       .-----------------------.  
      /|                       |  
     / |                       |  
    /  |                       |  
   /   |                       |  
  /    |                       |  
 *     |                       |  
 |     |                       |  
 |     |                       |  
 |     |                       |  
 |     |                       |  
 |     |                       |  
 |     |                       |  
 |     |                       |  
 |     Li              Li      |  
 |     |              F H      |  
 |   Li|     Li      LiN       |  
 |     |  Li      Li  N   Li   |  
 | Li  |   Li      Li          |  
 |     |Li      Li      Li     |  
 |     | Li                    |  
 |   LLi     LLi     LLi       |  
 |     |  Li      Li      Li   |  
 | Li  |   Li      Li          |  
 |     |Li      Li      Li     |  
 Li    | Li      Li            |  
 |    Li      Li      Li       |  
 |     |                       |  
 |     |                       |  
 |     |                       |  
 |     |                       |  
 |     |                       |  
 |     |                       |  
 |     .-----------------------.  
 |    /                       /   
 |   /                       /    
 |  /                       /     
 | /                       /      
 |/                       /       
 *-----------------------*        

Positions:
   0 Li     1.617037    1.617037   10.000000    ( 0.0000,  0.0000,  0.0000)
   1 Li     4.851111    1.617037   10.000000    ( 0.0000,  0.0000,  0.0000)
   2 Li     8.085185    1.617037   10.000000    ( 0.0000,  0.0000,  0.0000)
   3 Li     1.617037    4.851111   10.000000    ( 0.0000,  0.0000,  0.0000)
   4 Li     4.851111    4.851111   10.000000    ( 0.0000,  0.0000,  0.0000)
   5 Li     8.085185    4.851111   10.000000    ( 0.0000,  0.0000,  0.0000)
   6 Li     1.617037    8.085185   10.000000    ( 0.0000,  0.0000,  0.0000)
   7 Li     4.851111    8.085185   10.000000    ( 0.0000,  0.0000,  0.0000)
   8 Li     8.085185    8.085185   10.000000    ( 0.0000,  0.0000,  0.0000)
   9 Li     0.000000    0.000000   11.617037    ( 0.0000,  0.0000,  0.0000)
  10 Li     3.234074    0.000000   11.617037    ( 0.0000,  0.0000,  0.0000)
  11 Li     6.468148    0.000000   11.617037    ( 0.0000,  0.0000,  0.0000)
  12 Li     0.000000    3.234074   11.617037    ( 0.0000,  0.0000,  0.0000)
  13 Li     3.234074    3.234074   11.617037    ( 0.0000,  0.0000,  0.0000)
  14 Li     6.468148    3.234074   11.617037    ( 0.0000,  0.0000,  0.0000)
  15 Li     0.000000    6.468148   11.617037    ( 0.0000,  0.0000,  0.0000)
  16 Li     3.234074    6.468148   11.617037    ( 0.0000,  0.0000,  0.0000)
  17 Li     6.468148    6.468148   11.617037    ( 0.0000,  0.0000,  0.0000)
  18 Li     1.616091    1.617417   13.472988    ( 0.0000,  0.0000,  0.0000)
  19 Li     4.852020    1.617229   13.471821    ( 0.0000,  0.0000,  0.0000)
  20 Li     8.085080    1.616293   13.460592    ( 0.0000,  0.0000,  0.0000)
  21 Li     1.615682    4.850002   13.472621    ( 0.0000,  0.0000,  0.0000)
  22 Li     4.852457    4.850075   13.472304    ( 0.0000,  0.0000,  0.0000)
  23 Li     8.085169    4.852556   13.468420    ( 0.0000,  0.0000,  0.0000)
  24 Li     1.616985    8.085614   13.471408    ( 0.0000,  0.0000,  0.0000)
  25 Li     4.851142    8.085670   13.471587    ( 0.0000,  0.0000,  0.0000)
  26 Li     8.085128    8.084822   13.471290    ( 0.0000,  0.0000,  0.0000)
  27 Li     0.001514   -0.003867   15.443615    ( 0.0000,  0.0000,  0.0000)
  28 Li     3.233213    0.001441   15.445466    ( 0.0000,  0.0000,  0.0000)
  29 Li     6.466905   -0.003101   15.446423    ( 0.0000,  0.0000,  0.0000)
  30 Li     0.003132    3.236239   15.444013    ( 0.0000,  0.0000,  0.0000)
  31 Li     3.233392    3.233481   15.444696    ( 0.0000,  0.0000,  0.0000)
  32 Li     6.465145    3.235187   15.446401    ( 0.0000,  0.0000,  0.0000)
  33 Li     0.000483    6.468721   15.444283    ( 0.0000,  0.0000,  0.0000)
  34 Li     3.233959    6.467519   15.445389    ( 0.0000,  0.0000,  0.0000)
  35 Li     6.467801    6.468600   15.444215    ( 0.0000,  0.0000,  0.0000)
  36 F      8.117831    1.576024   18.716506    ( 0.0000,  0.0000,  0.0000)
  37 H      9.000624    1.606407   18.460585    ( 0.0000,  0.0000,  0.0000)
  38 N      8.078599    1.644902   16.955538    ( 0.0000,  0.0000,  0.0000)
  39 N      8.072892    2.740637   17.157550    ( 0.0000,  0.0000,  0.0000)

Unit cell:
           periodic     x           y           z      points  spacing
  1. axis:    yes    9.702222    0.000000    0.000000    60     0.1617
  2. axis:    yes    0.000000    9.702222    0.000000    60     0.1617
  3. axis:    no     0.000000    0.000000   26.601111   168     0.1583

  Lengths:   9.702222   9.702222  26.601111
  Angles:   90.000000  90.000000  90.000000

Effective grid spacing dv^(1/3) = 0.1606

     iter     time        total  log10-change:
                         energy  eigst   dens
iter:   1 09:20:50  -250.071828  -0.73
iter:   2 09:21:32  -250.076081  -1.34  -2.14
iter:   3 09:22:13  -250.078890c -1.68  -2.34
iter:   4 09:22:54  -250.081248c -1.88  -2.34
Writing to output.gpw (mode='')

iter:   5 09:23:38  -250.076333c -1.97  -2.33
iter:   6 09:24:19  -250.076012c -2.19  -2.57
iter:   7 09:25:00  -250.076053c -2.32  -2.70
iter:   8 09:25:41  -250.075813c -2.93  -2.74
iter:   9 09:26:22  -250.075956c -2.74  -2.87
Writing to output.gpw (mode='')

iter:  10 09:27:05  -250.075741c -3.33  -3.00
iter:  11 09:27:46  -250.076343c -3.04  -3.04
iter:  12 09:28:27  -250.076117c -3.40  -2.86
iter:  13 09:29:08  -250.076084c -3.10  -3.02
iter:  14 09:29:50  -250.076054c -3.64  -3.31
Writing to output.gpw (mode='')

iter:  15 09:30:33  -250.076063c -3.82  -3.47
iter:  16 09:31:14  -250.076073c -4.00  -3.51
iter:  17 09:31:55  -250.076125c -4.00  -3.60
iter:  18 09:32:36  -250.076113c -4.07  -3.68
iter:  19 09:33:17  -250.076141c -4.01  -3.79
Writing to output.gpw (mode='')

iter:  20 09:34:00  -250.076150c -4.43  -3.81
iter:  21 09:34:41  -250.076132c -4.67  -3.76
iter:  22 09:35:22  -250.076136c -4.77  -3.85
iter:  23 09:36:03  -250.076134c -4.80  -3.80
iter:  24 09:36:44  -250.076133c -5.04  -3.82
Writing to output.gpw (mode='')

iter:  25 09:37:28  -250.076136c -4.93  -3.80
iter:  26 09:38:10  -250.076146c -5.12  -3.93
iter:  27 09:38:51  -250.076151c -5.13  -4.00
iter:  28 09:39:32  -250.076161c -5.12  -4.02c
iter:  29 09:40:13  -250.076160c -5.27  -4.11c
Writing to output.gpw (mode='')

iter:  30 09:40:56  -250.076177c -5.51  -4.15c
iter:  31 09:41:37  -250.076163c -5.47  -4.19c
iter:  32 09:42:18  -250.076170c -5.60  -4.31c
iter:  33 09:42:59  -250.076170c -5.91  -4.27c
iter:  34 09:43:40  -250.076170c -5.79  -4.33c
Writing to output.gpw (mode='')

iter:  35 09:44:23  -250.076169c -5.58  -4.37c
iter:  36 09:45:04  -250.076172c -6.12  -4.48c
iter:  37 09:45:45  -250.076174c -6.03  -4.47c
iter:  38 09:46:26  -250.076179c -6.19  -4.46c
iter:  39 09:47:07  -250.076174c -6.62  -4.63c
Writing to output.gpw (mode='')

iter:  40 09:47:50  -250.076173c -6.38  -4.73c
iter:  41 09:48:30  -250.076171c -6.45  -4.88c
iter:  42 09:49:12  -250.076174c -6.44  -4.86c
iter:  43 09:49:53  -250.076173c -6.43  -4.91c
iter:  44 09:50:34  -250.076174c -6.45  -4.99c
Writing to output.gpw (mode='')

iter:  45 09:51:19  -250.076174c -6.79  -5.06c
iter:  46 09:52:00  -250.076174c -6.80  -5.10c
iter:  47 09:52:41  -250.076175c -6.92  -5.20c
iter:  48 09:53:22  -250.076174c -7.05  -5.20c
iter:  49 09:54:03  -250.076175c -7.08  -5.33c
Writing to output.gpw (mode='')

iter:  50 09:54:45  -250.076175c -6.78  -5.56c
iter:  51 09:55:26  -250.076175c -7.22  -5.66c
iter:  52 09:56:07  -250.076175c -7.17  -5.68c
iter:  53 09:56:48  -250.076175c -7.36  -5.72c
iter:  54 09:57:29  -250.076175c -7.34  -5.83c
Writing to output.gpw (mode='')

iter:  55 09:58:12  -250.076175c -7.46c -6.07c

Converged after 55 iterations.

Dipole moment: (-1.490959, -2.957835, 0.036476) |e|*Ang

Energy contributions relative to reference atoms: (reference = -12990.375485)

Kinetic:       +129.448001
Potential:     -114.391624
External:        +0.000000
XC:            -265.449814
Entropy (-ST):   -0.164763
Local:           +0.399643
--------------------------
Free energy:   -250.158557
Extrapolated:  -250.076175

Dipole-layer corrected work functions: 3.394840, 3.324721 eV

Showing only first 2 kpts
 Kpt  Band  Eigenvalues  Occupancy
  0    25     -3.60770    1.98605
  0    26     -3.53080    1.93667
  0    27     -3.24822    0.19395
  0    28     -3.12318    0.01747

  1    25     -3.39695    1.35551
  1    26     -3.36090    1.01121
  1    27     -3.32942    0.70540
  1    28     -3.25841    0.23270


Fermi level: -3.35978

Gap: 0.002 eV
Transition (v -> c):
  (s=0, k=1, n=26, [0.12, -0.12, 0.00]) -> (s=0, k=7, n=27, [0.38, 0.38, 0.00])

Forces in eV/Ang:
  0 Li    0.02372    0.00422   -0.27147
  1 Li   -0.02524    0.00311   -0.27104
  2 Li    0.00173   -0.00810   -0.27780
  3 Li    0.00821   -0.00192   -0.27566
  4 Li   -0.00601    0.00152   -0.27612
  5 Li   -0.00085    0.02552   -0.27283
  6 Li   -0.00069    0.00234   -0.27768
  7 Li    0.00269   -0.00077   -0.27759
  8 Li   -0.00185   -0.02021   -0.26794
  9 Li   -0.00094   -0.00851    0.28413
 10 Li   -0.00049    0.01706    0.24711
 11 Li    0.00283   -0.01095    0.28379
 12 Li   -0.00599    0.00074    0.31489
 13 Li   -0.00202   -0.01232    0.23546
 14 Li    0.00755    0.00397    0.31337
 15 Li   -0.00166    0.01235    0.24078
 16 Li   -0.00073   -0.01034    0.27469
 17 Li    0.00148    0.01375    0.23483
 18 Li   -0.01838    0.00518    0.06210
 19 Li    0.01868    0.00458    0.04271
 20 Li   -0.00343   -0.01355   -0.17879
 21 Li   -0.02424   -0.02043    0.05271
 22 Li    0.02371   -0.02336    0.05410
 23 Li   -0.00096    0.03182   -0.02966
 24 Li   -0.00403    0.00810    0.03815
 25 Li    0.00299    0.01038    0.04106
 26 Li   -0.00101   -0.00895    0.03233
 27 Li    0.01962   -0.06083   -0.03025
 28 Li   -0.01825    0.02929   -0.00763
 29 Li   -0.01391   -0.05453    0.01216
 30 Li    0.00567    0.03870    0.01112
 31 Li   -0.01549   -0.01372   -0.02185
 32 Li    0.01163    0.01571    0.05576
 33 Li    0.00816    0.01333   -0.03312
 34 Li    0.00029   -0.01017   -0.01313
 35 Li   -0.00726    0.00973   -0.03460
 36 F    -0.13660   -2.89822    9.09955
 37 H     0.93877   -0.22294    0.84807
 38 N    -0.51887   -1.48422   -6.49642
 39 N    -0.30163    4.65454   -3.45767

System changes: positions 

Initializing position-dependent things.

Density initialized from wave functions
       .-----------------------.  
      /|                       |  
     / |                       |  
    /  |                       |  
   /   |                       |  
  /    |                       |  
 *     |                       |  
 |     |                       |  
 |     |                       |  
 |     |                       |  
 |     |                       |  
 |     |                       |  
 |     |                       |  
 |     |                       |  
 |     Li              Li      |  
 |     |              F H      |  
 |   Li|     Li      LiN       |  
 |     |  Li      Li  N   Li   |  
 | Li  |   Li      Li          |  
 |     |Li      Li      Li     |  
 |     | Li                    |  
 |   LLi     LLi     LLi       |  
 |     |  Li      Li      Li   |  
 | Li  |   Li      Li          |  
 |     |Li      Li      Li     |  
 Li    | Li      Li            |  
 |    Li      Li      Li       |  
 |     |                       |  
 |     |                       |  
 |     |                       |  
 |     |                       |  
 |     |                       |  
 |     |                       |  
 |     .-----------------------.  
 |    /                       /   
 |   /                       /    
 |  /                       /     
 | /                       /      
 |/                       /       
 *-----------------------*        

Positions:
   0 Li     1.617037    1.617037   10.000000    ( 0.0000,  0.0000,  0.0000)
   1 Li     4.851111    1.617037   10.000000    ( 0.0000,  0.0000,  0.0000)
   2 Li     8.085185    1.617037   10.000000    ( 0.0000,  0.0000,  0.0000)
   3 Li     1.617037    4.851111   10.000000    ( 0.0000,  0.0000,  0.0000)
   4 Li     4.851111    4.851111   10.000000    ( 0.0000,  0.0000,  0.0000)
   5 Li     8.085185    4.851111   10.000000    ( 0.0000,  0.0000,  0.0000)
   6 Li     1.617037    8.085185   10.000000    ( 0.0000,  0.0000,  0.0000)
   7 Li     4.851111    8.085185   10.000000    ( 0.0000,  0.0000,  0.0000)
   8 Li     8.085185    8.085185   10.000000    ( 0.0000,  0.0000,  0.0000)
   9 Li     0.000000    0.000000   11.617037    ( 0.0000,  0.0000,  0.0000)
  10 Li     3.234074    0.000000   11.617037    ( 0.0000,  0.0000,  0.0000)
  11 Li     6.468148    0.000000   11.617037    ( 0.0000,  0.0000,  0.0000)
  12 Li     0.000000    3.234074   11.617037    ( 0.0000,  0.0000,  0.0000)
  13 Li     3.234074    3.234074   11.617037    ( 0.0000,  0.0000,  0.0000)
  14 Li     6.468148    3.234074   11.617037    ( 0.0000,  0.0000,  0.0000)
  15 Li     0.000000    6.468148   11.617037    ( 0.0000,  0.0000,  0.0000)
  16 Li     3.234074    6.468148   11.617037    ( 0.0000,  0.0000,  0.0000)
  17 Li     6.468148    6.468148   11.617037    ( 0.0000,  0.0000,  0.0000)
  18 Li     1.615806    1.617499   13.473967    ( 0.0000,  0.0000,  0.0000)
  19 Li     4.852304    1.617269   13.472469    ( 0.0000,  0.0000,  0.0000)
  20 Li     8.085029    1.616110   13.458071    ( 0.0000,  0.0000,  0.0000)
  21 Li     1.615301    4.849656   13.473479    ( 0.0000,  0.0000,  0.0000)
  22 Li     4.852823    4.849734   13.473079    ( 0.0000,  0.0000,  0.0000)
  23 Li     8.085165    4.852930   13.468322    ( 0.0000,  0.0000,  0.0000)
  24 Li     1.616940    8.085726   13.471970    ( 0.0000,  0.0000,  0.0000)
  25 Li     4.851169    8.085792   13.472169    ( 0.0000,  0.0000,  0.0000)
  26 Li     8.085110    8.084707   13.471616    ( 0.0000,  0.0000,  0.0000)
  27 Li     0.001601   -0.004722   15.443099    ( 0.0000,  0.0000,  0.0000)
  28 Li     3.232974    0.001865   15.445261    ( 0.0000,  0.0000,  0.0000)
  29 Li     6.466808   -0.003727   15.446836    ( 0.0000,  0.0000,  0.0000)
  30 Li     0.004639    3.236796   15.443030    ( 0.0000,  0.0000,  0.0000)
  31 Li     3.233204    3.233313   15.444235    ( 0.0000,  0.0000,  0.0000)
  32 Li     6.463832    3.235292   15.446364    ( 0.0000,  0.0000,  0.0000)
  33 Li     0.000499    6.468654   15.443788    ( 0.0000,  0.0000,  0.0000)
  34 Li     3.233919    6.467381   15.445190    ( 0.0000,  0.0000,  0.0000)
  35 Li     6.467843    6.468491   15.443728    ( 0.0000,  0.0000,  0.0000)
  36 F      8.123961    1.576736   18.754493    ( 0.0000,  0.0000,  0.0000)
  37 H      8.998348    1.602444   18.462292    ( 0.0000,  0.0000,  0.0000)
  38 N      8.080238    1.649458   16.915832    ( 0.0000,  0.0000,  0.0000)
  39 N      8.067168    2.740829   17.159418    ( 0.0000,  0.0000,  0.0000)

Unit cell:
           periodic     x           y           z      points  spacing
  1. axis:    yes    9.702222    0.000000    0.000000    60     0.1617
[...]
                         energy  eigst   dens
iter:   1 03:18:05  -254.920028  -2.49
iter:   2 03:18:47  -254.919912  -3.23  -2.92
iter:   3 03:19:28  -254.919963c -3.74  -3.05
iter:   4 03:20:09  -254.919944c -4.10  -3.16
Writing to output.gpw (mode='')

iter:   5 03:20:53  -254.919969c -4.10  -3.29
iter:   6 03:21:34  -254.920005c -3.98  -3.51
iter:   7 03:22:15  -254.919961c -4.69  -3.53
iter:   8 03:22:56  -254.919971c -4.77  -3.80
iter:   9 03:23:38  -254.919961c -5.32  -3.80
Writing to output.gpw (mode='')

iter:  10 03:24:21  -254.919945c -5.17  -3.91
iter:  11 03:25:02  -254.919960c -5.51  -4.03c
iter:  12 03:25:43  -254.919964c -5.62  -4.14c
iter:  13 03:26:24  -254.919959c -5.87  -4.16c
iter:  14 03:27:05  -254.919955c -5.90  -4.26c
Writing to output.gpw (mode='')

iter:  15 03:27:48  -254.919958c -6.42  -4.30c
iter:  16 03:28:30  -254.919959c -6.33  -4.49c
iter:  17 03:29:11  -254.919958c -6.83  -4.69c
iter:  18 03:29:52  -254.919957c -6.72  -4.72c
iter:  19 03:30:33  -254.919958c -6.81  -4.68c
Writing to output.gpw (mode='')

iter:  20 03:31:16  -254.919958c -7.32  -4.87c
iter:  21 03:31:57  -254.919958c -7.28  -4.94c
iter:  22 03:32:38  -254.919957c -7.32  -4.99c
iter:  23 03:33:20  -254.919957c -7.79c -5.08c

Converged after 23 iterations.

Dipole moment: (-0.429261, -3.411529, -0.297228) |e|*Ang

Energy contributions relative to reference atoms: (reference = -12990.375485)

Kinetic:       +107.350603
Potential:      -95.896925
External:        +0.000000
XC:            -266.733674
Entropy (-ST):   -0.160648
Local:           +0.440363
--------------------------
Free energy:   -255.000281
Extrapolated:  -254.919957

Dipole-layer corrected work functions: 3.415101, 3.986475 eV

Showing only first 2 kpts
 Kpt  Band  Eigenvalues  Occupancy
  0    25     -3.88560    1.95156
  0    26     -3.74055    1.37791
  0    27     -3.68118    0.80638
  0    28     -3.59368    0.21013

  1    25     -4.00315    1.99528
  1    26     -3.66414    0.64912
  1    27     -3.60056    0.23743
  1    28     -3.56845    0.13239


Fermi level: -3.70079

No gap
Writing to output.gpw (mode='')


Forces in eV/Ang:
  0 Li   -0.00471   -0.01297   -0.29291
  1 Li    0.00792    0.01043   -0.29451
  2 Li    0.00091    0.00044   -0.25055
  3 Li    0.02040    0.01164   -0.28410
  4 Li   -0.00547    0.00907   -0.28809
  5 Li   -0.00779   -0.00672   -0.29357
  6 Li    0.01182   -0.00993   -0.28807
  7 Li   -0.01053   -0.01872   -0.28604
  8 Li    0.01416    0.00575   -0.29334
  9 Li   -0.03980    0.04008    0.31811
 10 Li    0.00220    0.03086    0.30734
 11 Li    0.02886    0.03747    0.27494
 12 Li   -0.04647   -0.03284    0.26308
 13 Li   -0.02670   -0.02671    0.30300
 14 Li    0.03016   -0.03516    0.32848
 15 Li   -0.03323   -0.00957    0.29260
 16 Li   -0.04999    0.03264    0.26964
 17 Li    0.02588    0.00978    0.30616
 18 Li    0.00339   -0.00368   -0.00437
 19 Li   -0.01076    0.00351   -0.00608
 20 Li   -0.00549   -0.00644    0.01725
 21 Li   -0.00186    0.00358   -0.00226
 22 Li   -0.00198   -0.00178    0.00597
 23 Li   -0.00694    0.01338   -0.00820
 24 Li    0.00511   -0.00388   -0.00554
 25 Li   -0.00414    0.00960    0.00052
 26 Li   -0.00731   -0.00524   -0.00525
 27 Li   -0.01970    0.00360   -0.02909
 28 Li    0.00347   -0.00165    0.00441
 29 Li   -0.01888    0.00627    0.00312
 30 Li    0.00791   -0.00388   -0.01025
 31 Li   -0.00148   -0.00531    0.00046
 32 Li    0.00274    0.00871   -0.01116
 33 Li    0.00723   -0.00470    0.00446
 34 Li    0.00010    0.00427    0.00424
 35 Li   -0.00182    0.00691   -0.00182
 36 F     0.00959    0.00110    0.00794
 37 H     0.01159   -0.00646   -0.00203
 38 N     0.08149   -0.03376   -0.00390
 39 N     0.00229   -0.01750   -0.00759

System changes: positions 

Initializing position-dependent things.

Density initialized from wave functions
       .-----------------------.  
      /|                       |  
     / |                       |  
    /  |                       |  
   /   |                       |  
  /    |                       |  
 *     |                       |  
 |     |                       |  
 |     |                       |  
 |     |                       |  
 |     |                       |  
 |     |                       |  
 |     |                       |  
 |     |                       |  
 |     Li      Li              |  
 |     |               F       |  
 |   Li|     Li      Li        |  
 |     |  Li      Li   H  Li   |  
 |     |  Li      Li N    Li   |  
 |     |Li      LiLi   NLi     |  
 |     |                       |  
 |   LLi     LLi     LLi       |  
 |     |  Li      Li      Li   |  
 | Li  |   Li      Li          |  
 |     |Li      Li      Li     |  
 Li    | Li      Li            |  
 |    Li      Li      Li       |  
 |     |                       |  
 |     |                       |  
 |     |                       |  
 |     |                       |  
 |     |                       |  
 |     |                       |  
 |     .-----------------------.  
 |    /                       /   
 |   /                       /    
 |  /                       /     
 | /                       /      
 |/                       /       
 *-----------------------*        

Positions:
   0 Li     1.617037    1.617037   10.000000    ( 0.0000,  0.0000,  0.0000)
   1 Li     4.851111    1.617037   10.000000    ( 0.0000,  0.0000,  0.0000)
   2 Li     8.085185    1.617037   10.000000    ( 0.0000,  0.0000,  0.0000)
   3 Li     1.617037    4.851111   10.000000    ( 0.0000,  0.0000,  0.0000)
   4 Li     4.851111    4.851111   10.000000    ( 0.0000,  0.0000,  0.0000)
   5 Li     8.085185    4.851111   10.000000    ( 0.0000,  0.0000,  0.0000)
   6 Li     1.617037    8.085185   10.000000    ( 0.0000,  0.0000,  0.0000)
   7 Li     4.851111    8.085185   10.000000    ( 0.0000,  0.0000,  0.0000)
   8 Li     8.085185    8.085185   10.000000    ( 0.0000,  0.0000,  0.0000)
   9 Li     0.000000    0.000000   11.617037    ( 0.0000,  0.0000,  0.0000)
  10 Li     3.234074    0.000000   11.617037    ( 0.0000,  0.0000,  0.0000)
  11 Li     6.468148    0.000000   11.617037    ( 0.0000,  0.0000,  0.0000)
  12 Li     0.000000    3.234074   11.617037    ( 0.0000,  0.0000,  0.0000)
  13 Li     3.234074    3.234074   11.617037    ( 0.0000,  0.0000,  0.0000)
  14 Li     6.468148    3.234074   11.617037    ( 0.0000,  0.0000,  0.0000)
  15 Li     0.000000    6.468148   11.617037    ( 0.0000,  0.0000,  0.0000)
  16 Li     3.234074    6.468148   11.617037    ( 0.0000,  0.0000,  0.0000)
  17 Li     6.468148    6.468148   11.617037    ( 0.0000,  0.0000,  0.0000)
  18 Li     1.568149    1.590351   13.520838    ( 0.0000,  0.0000,  0.0000)
  19 Li     4.863372    1.670786   13.535057    ( 0.0000,  0.0000,  0.0000)
  20 Li     8.093885    1.608505   13.627987    ( 0.0000,  0.0000,  0.0000)
  21 Li     1.516062    4.802963   13.503830    ( 0.0000,  0.0000,  0.0000)
  22 Li     4.761251    4.916787   13.466489    ( 0.0000,  0.0000,  0.0000)
  23 Li     8.022578    4.822466   13.539275    ( 0.0000,  0.0000,  0.0000)
  24 Li     1.625069    8.071186   13.512744    ( 0.0000,  0.0000,  0.0000)
  25 Li     4.898236    8.152989   13.496392    ( 0.0000,  0.0000,  0.0000)
  26 Li     8.125789    8.112245   13.517079    ( 0.0000,  0.0000,  0.0000)
  27 Li     0.016806   -0.029844   15.551705    ( 0.0000,  0.0000,  0.0000)
  28 Li     3.305459   -0.060767   15.443175    ( 0.0000,  0.0000,  0.0000)
  29 Li     6.606387    0.292071   15.583881    ( 0.0000,  0.0000,  0.0000)
  30 Li    -0.423401    3.066257   15.687481    ( 0.0000,  0.0000,  0.0000)
  31 Li     2.981462    3.294295   15.461759    ( 0.0000,  0.0000,  0.0000)
  32 Li     6.194045    3.429919   15.496998    ( 0.0000,  0.0000,  0.0000)
  33 Li     0.055185    6.378973   15.461151    ( 0.0000,  0.0000,  0.0000)
  34 Li     3.250832    6.453146   15.443149    ( 0.0000,  0.0000,  0.0000)
  35 Li     6.419987    6.642127   15.445276    ( 0.0000,  0.0000,  0.0000)
  36 F      8.522797    1.502901   18.415850    ( 0.0000,  0.0000,  0.0000)
  37 H      8.507772    1.300574   17.482235    ( 0.0000,  0.0000,  0.0000)
  38 N      8.383929    1.244680   15.671026    ( 0.0000,  0.0000,  0.0000)
  39 N      7.468434    2.141061   15.529087    ( 0.0000,  0.0000,  0.0000)

Unit cell:
           periodic     x           y           z      points  spacing
  1. axis:    yes    9.702222    0.000000    0.000000    60     0.1617
  2. axis:    yes    0.000000    9.702222    0.000000    60     0.1617
  3. axis:    no     0.000000    0.000000   26.601111   168     0.1583

  Lengths:   9.702222   9.702222  26.601111
  Angles:   90.000000  90.000000  90.000000

Effective grid spacing dv^(1/3) = 0.1606

     iter     time        total  log10-change:
                         energy  eigst   dens
iter:   1 03:34:17  -254.923042  -2.06
iter:   2 03:34:59  -254.921132  -2.71  -2.36
iter:   3 03:35:40  -254.920934c -3.39  -2.59
iter:   4 03:36:21  -254.920736c -3.70  -2.82
Writing to output.gpw (mode='')

iter:   5 03:37:04  -254.920754c -3.65  -3.03
iter:   6 03:37:46  -254.920840c -3.37  -3.22
iter:   7 03:38:27  -254.920760c -4.27  -3.27
iter:   8 03:39:08  -254.920736c -4.22  -3.48
iter:   9 03:39:49  -254.920739c -4.55  -3.54
Writing to output.gpw (mode='')

iter:  10 03:40:32  -254.920707c -4.89  -3.58
iter:  11 03:41:13  -254.920725c -5.07  -3.68
iter:  12 03:41:54  -254.920738c -5.15  -3.89
iter:  13 03:42:36  -254.920745c -5.27  -3.97
iter:  14 03:43:17  -254.920746c -5.42  -4.12c
Writing to output.gpw (mode='')

iter:  15 03:44:00  -254.920740c -5.86  -4.13c
iter:  16 03:44:41  -254.920738c -6.07  -4.36c
iter:  17 03:45:22  -254.920735c -6.23  -4.39c
iter:  18 03:46:03  -254.920732c -6.22  -4.57c
iter:  19 03:46:44  -254.920735c -6.68  -4.68c
Writing to output.gpw (mode='')

iter:  20 03:47:31  -254.920735c -6.79  -4.79c
iter:  21 03:48:13  -254.920734c -6.91  -4.92c
iter:  22 03:48:54  -254.920734c -7.05  -5.00c
iter:  23 03:49:35  -254.920734c -7.12  -5.05c
iter:  24 03:50:16  -254.920735c -7.26  -5.15c
Writing to output.gpw (mode='')

iter:  25 03:51:00  -254.920735c -7.48c -5.29c

Converged after 25 iterations.

Dipole moment: (-0.462242, -3.379069, -0.297865) |e|*Ang

Energy contributions relative to reference atoms: (reference = -12990.375485)

Kinetic:       +107.365429
Potential:      -95.914604
External:        +0.000000
XC:            -266.731425
Entropy (-ST):   -0.160700
Local:           +0.440216
--------------------------
Free energy:   -255.001085
Extrapolated:  -254.920735

Dipole-layer corrected work functions: 3.415038, 3.987637 eV

Showing only first 2 kpts
 Kpt  Band  Eigenvalues  Occupancy
  0    25     -3.88656    1.95195
  0    26     -3.74101    1.37719
  0    27     -3.68204    0.80938
  0    28     -3.59468    0.21182

  1    25     -4.00400    1.99531
  1    26     -3.66470    0.64916
  1    27     -3.60092    0.23664
  1    28     -3.56881    0.13191


Fermi level: -3.70134

No gap

Forces in eV/Ang:
  0 Li   -0.00459   -0.01307   -0.29300
  1 Li    0.00794    0.01034   -0.29448
  2 Li    0.00090    0.00036   -0.25093
  3 Li    0.02052    0.01170   -0.28391
  4 Li   -0.00534    0.00880   -0.28833
  5 Li   -0.00778   -0.00668   -0.29347
  6 Li    0.01213   -0.01015   -0.28807
  7 Li   -0.01055   -0.01868   -0.28598
  8 Li    0.01408    0.00562   -0.29338
  9 Li   -0.04043    0.03979    0.31953
 10 Li    0.00198    0.03151    0.30509
 11 Li    0.02864    0.03830    0.27460
 12 Li   -0.04731   -0.03278    0.26429
 13 Li   -0.02718   -0.02564    0.30243
 14 Li    0.02975   -0.03520    0.32940
 15 Li   -0.03386   -0.00824    0.29180
 16 Li   -0.04842    0.03264    0.26942
 17 Li    0.02273    0.01078    0.30617
 18 Li    0.00339   -0.00118   -0.00592
 19 Li   -0.01206    0.00270   -0.00710
 20 Li   -0.00544   -0.00644    0.01917
 21 Li   -0.00088    0.00228    0.00042
 22 Li   -0.00123    0.00041    0.00310
 23 Li   -0.00352    0.01274   -0.00824
 24 Li    0.00549   -0.00707   -0.00552
 25 Li   -0.00318    0.00483    0.00069
 26 Li   -0.00663   -0.00507   -0.00683
 27 Li   -0.02205    0.00678   -0.01558
 28 Li    0.00355   -0.00159    0.00414
 29 Li    0.00385    0.01215    0.00437
 30 Li    0.01594   -0.00505   -0.00857
 31 Li   -0.00116   -0.00468    0.00072
 32 Li    0.00059    0.00825   -0.00823
 33 Li    0.00670   -0.00646    0.00244
 34 Li   -0.00109    0.00560    0.00263
 35 Li   -0.00258    0.00674   -0.00136
 36 F     0.00613    0.00996    0.04075
 37 H     0.01754   -0.01214   -0.04129
 38 N     0.01665   -0.02179   -0.02732
 39 N     0.01311   -0.04107   -0.00178

Timing:                                      incl.     excl.
-------------------------------------------------------------------
Density initialized from wave functions:   108.574   108.565   0.0% |
 Symmetrize density:                         0.009     0.009   0.0% |
Forces:                                    782.656   782.656   0.3% |
Hamiltonian:                              3781.771     0.044   0.0% |
 Atomic:                                    16.671     0.214   0.0% |
  XC Correction:                            16.457    16.457   0.0% |
 Calculate atomic Hamiltonians:             15.804    15.804   0.0% |
 Communicate:                               24.955    24.955   0.0% |
 Hartree integrate/restrict:                12.576    12.576   0.0% |
 Poisson:                                  407.705   191.061   0.1% |
  Communicate from 1D:                      26.287    26.287   0.0% |
  Communicate from 2D:                      39.769    39.769   0.0% |
  Communicate to 1D:                         9.682     9.682   0.0% |
  Communicate to 2D:                        39.498    39.498   0.0% |
  FFT 1D:                                   41.881    41.881   0.0% |
  FFT 2D:                                   59.526    59.526   0.0% |
 XC 3D grid:                              3298.687  1024.119   0.4% |
  VdW-DF integral:                        2274.568    29.569   0.0% |
   Convolution:                            450.291   450.291   0.2% |
   FFT:                                    137.191   137.191   0.1% |
   gather:                                 552.071   552.071   0.2% |
   hmm1:                                    99.801    99.801   0.0% |
   hmm2:                                   148.915   148.915   0.1% |
   iFFT:                                   141.192   141.192   0.1% |
   potential:                              707.177    24.754   0.0% |
    collect:                                54.827    54.827   0.0% |
    p1:                                    314.103   314.103   0.1% |
    p2:                                    217.189   217.189   0.1% |
    sum:                                    96.304    96.304   0.0% |
   splines:                                  8.359     8.359   0.0% |
 vbar:                                       5.330     5.330   0.0% |
LCAO initialization:                         7.129     0.311   0.0% |
 LCAO eigensolver:                           2.363     0.001   0.0% |
  Calculate projections:                     0.000     0.000   0.0% |
  DenseAtomicCorrection:                     0.000     0.000   0.0% |
  Distribute overlap matrix:                 2.238     2.238   0.0% |
  Orbital Layouts:                           0.034     0.034   0.0% |
  Potential matrix:                          0.088     0.088   0.0% |
  Sum over cells:                            0.002     0.002   0.0% |
 LCAO to grid:                               3.202     3.202   0.0% |
 Set positions (LCAO WFS):                   1.253     0.997   0.0% |
  Basic WFS set positions:                   0.003     0.003   0.0% |
  Basis functions set positions:             0.001     0.001   0.0% |
  P tci:                                     0.000     0.000   0.0% |
  ST tci:                                    0.157     0.157   0.0% |
  mktci:                                     0.095     0.095   0.0% |
Redistribute:                                0.143     0.143   0.0% |
SCF-cycle:                               248783.830  4660.403   1.8% ||
 Davidson:                               112832.524 40911.104  16.0% |-----|
  Apply hamiltonian:                      6815.174  6815.174   2.7% ||
  Subspace diag:                         18754.337     1.298   0.0% |
   calc_h_matrix:                        10701.184  3307.718   1.3% ||
    Apply hamiltonian:                    7393.467  7393.467   2.9% ||
   diagonalize:                            217.305   217.305   0.1% |
   rotate_psi:                            7834.550  7834.550   3.1% ||
  calc. matrices:                        33466.262 21796.622   8.5% |--|
   Apply hamiltonian:                    11669.639 11669.639   4.6% |-|
  diagonalize:                              57.388    57.388   0.0% |
  rotate_psi:                            12828.260 12828.260   5.0% |-|
 Density:                                 2045.749     0.463   0.0% |
  Atomic density matrices:                  52.714    52.714   0.0% |
  Mix:                                    1157.556  1157.556   0.5% |
  Multipole moments:                        10.695    10.695   0.0% |
  Pseudo density:                          824.322   823.997   0.3% |
   Symmetrize density:                       0.325     0.325   0.0% |
 Hamiltonian:                            129011.442     1.555   0.0% |
  Atomic:                                  572.963     7.696   0.0% |
   XC Correction:                          565.267   565.267   0.2% |
  Calculate atomic Hamiltonians:           553.569   553.569   0.2% |
  Communicate:                             915.783   915.783   0.4% |
  Hartree integrate/restrict:              444.359   444.359   0.2% |
  Poisson:                               13864.642  6501.209   2.5% ||
   Communicate from 1D:                    893.593   893.593   0.4% |
   Communicate from 2D:                   1355.762  1355.762   0.5% |
   Communicate to 1D:                      323.603   323.603   0.1% |
   Communicate to 2D:                     1360.499  1360.499   0.5% |
   FFT 1D:                                1412.159  1412.159   0.6% |
   FFT 2D:                                2017.818  2017.818   0.8% |
  XC 3D grid:                            112476.871 35002.708  13.7% |----|
   VdW-DF integral:                      77474.163  1009.875   0.4% |
    Convolution:                         15335.745 15335.745   6.0% |-|
    FFT:                                  4657.879  4657.879   1.8% ||
    gather:                              18955.834 18955.834   7.4% |--|
    hmm1:                                 3405.172  3405.172   1.3% ||
    hmm2:                                 5080.559  5080.559   2.0% ||
    iFFT:                                 4804.986  4804.986   1.9% ||
    potential:                           24224.017   824.024   0.3% |
     collect:                             1875.620  1875.620   0.7% |
     p1:                                 10700.188 10700.188   4.2% |-|
     p2:                                  7451.872  7451.872   2.9% ||
     sum:                                 3372.313  3372.313   1.3% ||
    splines:                                 0.097     0.097   0.0% |
  vbar:                                    181.701   181.701   0.1% |
 Orthonormalize:                           233.710     0.073   0.0% |
  calc_s_matrix:                            50.304    50.304   0.0% |
  inverse-cholesky:                          2.220     2.220   0.0% |
  projections:                              56.969    56.969   0.0% |
  rotate_psi_s:                            124.144   124.144   0.0% |
Set symmetry:                                0.004     0.004   0.0% |
Other:                                    1693.138  1693.138   0.7% |
-------------------------------------------------------------------
Total:                                             255157.245 100.0%

Memory usage: 1.62 GiB
Date: Tue Mar  7 03:51:05 2023
