
  ___ ___ ___ _ _ _  
 |   |   |_  | | | | 
 | | | | | . | | | | 
 |__ |  _|___|_____|  22.8.0
 |___|_|             

User:   vazumah@r392.ib.bridges2.psc.edu
Date:   Fri Mar 10 20:14:48 2023
Arch:   x86_64
Pid:    71148
CWD:    /jet/home/vazumah/Calcs/LiMEAS/proton_donors/propanediol13_x/bridge/8.085_1.617/N2_y
Python: 3.11.0
gpaw:   /jet/home/vazumah/.conda/envs/GPAW_mpich/lib/python3.11/site-packages/gpaw
_gpaw:  /jet/home/vazumah/.conda/envs/GPAW_mpich/lib/python3.11/site-packages/
        _gpaw.cpython-311-x86_64-linux-gnu.so
ase:    /jet/home/vazumah/.conda/envs/GPAW_mpich/lib/python3.11/site-packages/ase (version 3.22.1)
numpy:  /jet/home/vazumah/.conda/envs/GPAW_mpich/lib/python3.11/site-packages/numpy (version 1.24.2)
scipy:  /jet/home/vazumah/.conda/envs/GPAW_mpich/lib/python3.11/site-packages/scipy (version 1.10.1)
libxc:  5.2.3
units:  Angstrom and eV
cores: 128
OpenMP: True
OMP_NUM_THREADS: 1

Input parameters:
  h: 0.16
  kpts: {size: [4, 4, 1]}
  occupations: {name: fermi-dirac,
                width: 0.05}
  poissonsolver: {dipolelayer: xy}
  xc: BEEF-vdW

System changes: positions, numbers, cell, pbc, initial_charges, initial_magmoms 

Initialize ...

species:
  Li:
    name: Lithium
    id: 830b4218f175192f93f959cfc0aad614
    Z: 3.0
    valence: 1
    core: 2
    charge: 0.0
    file: /jet/home/vazumah/datasets/gpaw-setups-0.9.20000/Li.PBE.gz
    compensation charges: {type: gauss,
                           rc: 0.33,
                           lmax: 2}
    cutoffs: {filter: 1.91,
              core: 2.55}
    valence states:
      #              energy  rcut
      - 2s(1.00)    -2.874   1.058
      - 2p(0.00)    -1.090   1.058
      -  s          24.337   1.058
  
    # Using partial waves for Li as LCAO basis

  O:
    name: Oxygen
    id: 32ecd46bf208036f09c70b0ec9a88b78
    Z: 8.0
    valence: 6
    core: 2
    charge: 0.0
    file: /jet/home/vazumah/datasets/gpaw-setups-0.9.20000/O.PBE.gz
    compensation charges: {type: gauss,
                           rc: 0.21,
                           lmax: 2}
    cutoffs: {filter: 1.17,
              core: 0.83}
    valence states:
      #              energy  rcut
      - 2s(2.00)   -23.961   0.688
      - 2p(4.00)    -9.029   0.598
      -  s           3.251   0.688
      -  p          18.182   0.598
      -  d           0.000   0.619
  
    # Using partial waves for O as LCAO basis

  C:
    name: Carbon
    id: 4aa54d4b901d75f77cc0ea3eec22967b
    Z: 6.0
    valence: 4
    core: 2
    charge: 0.0
    file: /jet/home/vazumah/datasets/gpaw-setups-0.9.20000/C.PBE.gz
    compensation charges: {type: gauss,
                           rc: 0.20,
                           lmax: 2}
    cutoffs: {filter: 1.14,
              core: 1.14}
    valence states:
      #              energy  rcut
      - 2s(2.00)   -13.751   0.635
      - 2p(2.00)    -5.284   0.635
      -  s          13.461   0.635
      -  p          21.927   0.635
      -  d           0.000   0.635
  
    # Using partial waves for C as LCAO basis

  H:
    name: Hydrogen
    id: d65de229564ff8ea4db303e23b6d1ecf
    Z: 1.0
    valence: 1
    core: 0
    charge: 0.0
    file: /jet/home/vazumah/datasets/gpaw-setups-0.9.20000/H.PBE.gz
    compensation charges: {type: gauss,
                           rc: 0.15,
                           lmax: 2}
    cutoffs: {filter: 0.85,
              core: 0.53}
    valence states:
      #              energy  rcut
      - 1s(1.00)    -6.494   0.476
      -  s          20.717   0.476
      -  p           0.000   0.476
  
    # Using partial waves for H as LCAO basis

  N:
    name: Nitrogen
    id: f7500608b86eaa90eef8b1d9a670dc53
    Z: 7.0
    valence: 5
    core: 2
    charge: 0.0
    file: /jet/home/vazumah/datasets/gpaw-setups-0.9.20000/N.PBE.gz
    compensation charges: {type: gauss,
                           rc: 0.18,
                           lmax: 2}
    cutoffs: {filter: 1.11,
              core: 0.96}
    valence states:
      #              energy  rcut
      - 2s(2.00)   -18.583   0.603
      - 2p(3.00)    -7.089   0.529
      -  s           8.629   0.603
      -  p          20.123   0.529
      -  d           0.000   0.577
  
    # Using partial waves for N as LCAO basis

Reference energy: -17528.314784  # eV

Spin-paired calculation

Convergence criteria:
 Maximum [total energy] change in last 3 cyles: 0.0005 eV / electron
 Maximum integral of absolute [dens]ity change: 0.0001 electrons / valence electron
 Maximum integral of absolute [eigenst]ate change: 4e-08 eV^2 / valence electron
 Maximum number of scf [iter]ations: 333
 (Square brackets indicate name in SCF output, whereas a 'c' in
 the SCF output indicates the quantity has converged.)

Symmetries present (total): 1

  ( 1  0  0)
  ( 0  1  0)
  ( 0  0  1)

16 k-points: 4 x 4 x 1 Monkhorst-Pack grid
8 k-points in the irreducible part of the Brillouin zone
       k-points in crystal coordinates                weights
   0:     0.12500000   -0.37500000    0.00000000          2/16
   1:     0.12500000   -0.12500000    0.00000000          2/16
   2:     0.12500000    0.12500000    0.00000000          2/16
   3:     0.12500000    0.37500000    0.00000000          2/16
   4:     0.37500000   -0.37500000    0.00000000          2/16
   5:     0.37500000   -0.12500000    0.00000000          2/16
   6:     0.37500000    0.12500000    0.00000000          2/16
   7:     0.37500000    0.37500000    0.00000000          2/16

Wave functions: Uniform real-space grid
  Kinetic energy operator: 6*3+1=19 point O(h^6) finite-difference Laplacian
  ScaLapack parameters: grid=1x1, blocksize=None
  Wavefunction extrapolation:
    Improved wavefunction reuse through dual PAW basis 

Occupation numbers: Fermi-Dirac:
  width: 0.0500  # eV
 

Eigensolver
   Davidson(niter=2) 

Densities:
  Coarse grid: 60*60*176 grid
  Fine grid: 120*120*352 grid
  Total Charge: 0.000000 

Density mixing:
  Method: separate
  Backend: pulay
  Linear mixing parameter: 0.05
  old densities: 5
  Damping of long wavelength oscillations: 50 

Hamiltonian:
  XC and Coulomb potentials evaluated on a 120*120*352 grid
  Using the BEEF-vdW Exchange-Correlation functional
  Interpolation: tri-quintic (5. degree polynomial)
  Poisson solver: FastPoissonSolver using
    Stencil: 6*3+1=19 point O(h^6) finite-difference Laplacian
    FFT axes: [0, 1]
    FST axes: [2]

Dipole correction along z-axis 

XC parameters: BEEF-vdW with 2 nearest neighbor stencil

Memory estimate:
  Process memory now: 134.40 MiB
  Calculator: 93.74 MiB
    Density: 23.40 MiB
      Arrays: 7.76 MiB
      Localized functions: 12.69 MiB
      Mixer: 2.95 MiB
    Hamiltonian: 6.08 MiB
      Arrays: 5.07 MiB
      XC: 0.00 MiB
      Poisson: 0.00 MiB
      vbar: 1.00 MiB
    Wavefunctions: 64.26 MiB
      Arrays psit_nG: 30.12 MiB
      Eigensolver: 33.47 MiB
      Projections: 0.02 MiB
      Projectors: 0.67 MiB

Total number of cores used: 128
Parallelization over k-points: 8
Domain decomposition: 2 x 2 x 4

Number of atoms: 51
Number of atomic orbitals: 180
Number of bands in calculation: 51
Number of valence electrons: 78
Bands to converge: occupied

... initialized

Initializing position-dependent things.

Density initialized from atomic densities
Creating initial wave functions:
  51 bands from LCAO basis set

       .-----------------------.  
      /|                       |  
     / |                       |  
    /  |                       |  
   /   |                       |  
  /    |                       |  
 *     |                       |  
 |     |                       |  
 |     |                       |  
 |     |                       |  
 |     |                       |  
 |     |                       |  
 |     |                       |  
 |     |                       |  
 |     |                       |  
 |     |                       |  
 |  H  |                       |  
 |  C H|  O           O H      |  
 |  HLiC  H  Li     HLiNC      |  
 |    H|  Li      Li  N H Li   |  
 | Li  |   Li      Li          |  
 |     |Li      Li      Li     |  
 Li    | Li      Li            |  
 |   LLi     LLi     LLi       |  
 |     |  Li      Li      Li   |  
 | Li  |   Li      Li          |  
 |     |Li      Li      Li     |  
 Li    | Li      Li            |  
 |    Li      Li      Li       |  
 |     |                       |  
 |     |                       |  
 |     |                       |  
 |     |                       |  
 |     |                       |  
 |     |                       |  
 |     .-----------------------.  
 |    /                       /   
 |   /                       /    
 |  /                       /     
 | /                       /      
 |/                       /       
 *-----------------------*        

Positions:
   0 Li     1.617037    1.617037   10.000000    ( 0.0000,  0.0000,  0.0000)
   1 Li     4.851111    1.617037   10.000000    ( 0.0000,  0.0000,  0.0000)
   2 Li     8.085185    1.617037   10.000000    ( 0.0000,  0.0000,  0.0000)
   3 Li     1.617037    4.851111   10.000000    ( 0.0000,  0.0000,  0.0000)
   4 Li     4.851111    4.851111   10.000000    ( 0.0000,  0.0000,  0.0000)
   5 Li     8.085185    4.851111   10.000000    ( 0.0000,  0.0000,  0.0000)
   6 Li     1.617037    8.085185   10.000000    ( 0.0000,  0.0000,  0.0000)
   7 Li     4.851111    8.085185   10.000000    ( 0.0000,  0.0000,  0.0000)
   8 Li     8.085185    8.085185   10.000000    ( 0.0000,  0.0000,  0.0000)
   9 Li     0.000000    0.000000   11.617037    ( 0.0000,  0.0000,  0.0000)
  10 Li     3.234074    0.000000   11.617037    ( 0.0000,  0.0000,  0.0000)
  11 Li     6.468148    0.000000   11.617037    ( 0.0000,  0.0000,  0.0000)
  12 Li     0.000000    3.234074   11.617037    ( 0.0000,  0.0000,  0.0000)
  13 Li     3.234074    3.234074   11.617037    ( 0.0000,  0.0000,  0.0000)
  14 Li     6.468148    3.234074   11.617037    ( 0.0000,  0.0000,  0.0000)
  15 Li     0.000000    6.468148   11.617037    ( 0.0000,  0.0000,  0.0000)
  16 Li     3.234074    6.468148   11.617037    ( 0.0000,  0.0000,  0.0000)
  17 Li     6.468148    6.468148   11.617037    ( 0.0000,  0.0000,  0.0000)
  18 Li     1.617038    1.617038   13.469728    ( 0.0000,  0.0000,  0.0000)
  19 Li     4.851111    1.617038   13.469729    ( 0.0000,  0.0000,  0.0000)
  20 Li     8.085184    1.617038   13.469728    ( 0.0000,  0.0000,  0.0000)
  21 Li     1.617038    4.851111   13.469729    ( 0.0000,  0.0000,  0.0000)
  22 Li     4.851111    4.851111   13.469730    ( 0.0000,  0.0000,  0.0000)
  23 Li     8.085184    4.851111   13.469729    ( 0.0000,  0.0000,  0.0000)
  24 Li     1.617038    8.085184   13.469728    ( 0.0000,  0.0000,  0.0000)
  25 Li     4.851111    8.085184   13.469729    ( 0.0000,  0.0000,  0.0000)
  26 Li     8.085184    8.085184   13.469728    ( 0.0000,  0.0000,  0.0000)
  27 Li    -0.000000   -0.000000   15.445939    ( 0.0000,  0.0000,  0.0000)
  28 Li     3.234074    0.000000   15.445939    ( 0.0000,  0.0000,  0.0000)
  29 Li     6.468148    0.000000   15.445939    ( 0.0000,  0.0000,  0.0000)
  30 Li     0.000000    3.234074   15.445939    ( 0.0000,  0.0000,  0.0000)
  31 Li     3.234076    3.234076   15.445938    ( 0.0000,  0.0000,  0.0000)
  32 Li     6.468146    3.234076   15.445938    ( 0.0000,  0.0000,  0.0000)
  33 Li     0.000000    6.468148   15.445939    ( 0.0000,  0.0000,  0.0000)
  34 Li     3.234076    6.468146   15.445938    ( 0.0000,  0.0000,  0.0000)
  35 Li     6.468146    6.468146   15.445938    ( 0.0000,  0.0000,  0.0000)
  36 O      8.085185    1.617037   18.445939    ( 0.0000,  0.0000,  0.0000)
  37 O     12.947527    1.596708   18.439829    ( 0.0000,  0.0000,  0.0000)
  38 C     10.481100    1.615492   18.460386    ( 0.0000,  0.0000,  0.0000)
  39 C      9.230055    0.749217   18.448818    ( 0.0000,  0.0000,  0.0000)
  40 C     11.763716    0.785225   18.436457    ( 0.0000,  0.0000,  0.0000)
  41 H     10.459017    2.275999   17.585726    ( 0.0000,  0.0000,  0.0000)
  42 H     10.480959    2.252603   19.348391    ( 0.0000,  0.0000,  0.0000)
  43 H      9.225125    0.108959   17.555271    ( 0.0000,  0.0000,  0.0000)
  44 H      9.216513    0.100540   19.335503    ( 0.0000,  0.0000,  0.0000)
  45 H     11.764417    0.109659   17.569134    ( 0.0000,  0.0000,  0.0000)
  46 H     11.840565    0.169134   19.336560    ( 0.0000,  0.0000,  0.0000)
  47 H      7.289660    1.072680   18.441073    ( 0.0000,  0.0000,  0.0000)
  48 H     12.914944    2.171748   17.665312    ( 0.0000,  0.0000,  0.0000)
  49 N      8.085000    1.617000   16.945939    ( 0.0000,  0.0000,  0.0000)
  50 N      8.085000    2.713622   16.945939    ( 0.0000,  0.0000,  0.0000)

Unit cell:
           periodic     x           y           z      points  spacing
  1. axis:    yes    9.702222    0.000000    0.000000    60     0.1617
  2. axis:    yes    0.000000    9.702222    0.000000    60     0.1617
  3. axis:    no     0.000000    0.000000   28.351111   176     0.1611

  Lengths:   9.702222   9.702222  28.351111
  Angles:   90.000000  90.000000  90.000000

Effective grid spacing dv^(1/3) = 0.1615

     iter     time        total  log10-change:
                         energy  eigst   dens
iter:   1 20:15:04  -673.020634
iter:   2 20:15:12   -59.816694  +2.76  +0.03
iter:   3 20:15:20  -114.695603  +3.12  -0.21
iter:   4 20:15:28  -263.790683  +3.08  -0.33
Writing to output.gpw (mode='')

iter:   5 20:15:36  -311.790554  +2.65  -0.42
iter:   6 20:15:44  -356.319233  +2.33  -0.65
iter:   7 20:15:52  -370.361623  +1.92  -0.65
iter:   8 20:15:59  -369.089431  +1.51  -0.59
iter:   9 20:16:07  -358.219131  +1.18  -0.60
Writing to output.gpw (mode='')

iter:  10 20:16:15  -359.121145  +1.12  -0.70
iter:  11 20:16:23  -408.716419  +1.95  -0.62
iter:  12 20:16:31  -348.709372  +1.19  -0.55
iter:  13 20:16:39  -352.120412  +1.54  -0.79
iter:  14 20:16:47  -348.507904  +0.66  -0.75
Writing to output.gpw (mode='')

iter:  15 20:16:54  -350.380400  +0.91  -0.85
iter:  16 20:17:02  -348.405692  +0.48  -0.80
iter:  17 20:17:10  -347.136995  +0.48  -0.93
iter:  18 20:17:18  -346.339999  +0.57  -1.02
iter:  19 20:17:26  -347.287273  +0.22  -1.18
Writing to output.gpw (mode='')

iter:  20 20:17:34  -346.003766  +0.19  -1.03
iter:  21 20:17:42  -345.776701  +0.03  -1.32
iter:  22 20:17:50  -345.723689  -0.57  -1.49
iter:  23 20:17:58  -345.711717  -1.03  -1.66
iter:  24 20:18:05  -345.730354c -0.66  -1.73
Writing to output.gpw (mode='')

iter:  25 20:18:13  -345.713693c -1.24  -1.82
iter:  26 20:18:21  -345.709440c -1.38  -2.01
iter:  27 20:18:29  -345.711651c -1.39  -2.16
iter:  28 20:18:37  -345.716040c -1.64  -2.28
iter:  29 20:18:45  -345.719433c -1.55  -2.33
Writing to output.gpw (mode='')

iter:  30 20:18:53  -345.722595c -1.65  -2.48
iter:  31 20:19:00  -345.725309c -1.75  -2.52
iter:  32 20:19:08  -345.727550c -1.93  -2.57
iter:  33 20:19:16  -345.728919c -2.16  -2.57
iter:  34 20:19:24  -345.730416c -2.15  -2.54
Writing to output.gpw (mode='')

iter:  35 20:19:32  -345.731581c -2.12  -2.58
iter:  36 20:19:45  -345.732714c -2.19  -2.74
iter:  37 20:19:54  -345.733539c -2.24  -2.70
iter:  38 20:20:02  -345.735023c -2.07  -2.74
iter:  39 20:20:10  -345.735647c -2.54  -2.80
Writing to output.gpw (mode='')

iter:  40 20:20:18  -345.736098c -2.59  -2.81
iter:  41 20:20:25  -345.737077c -2.64  -2.78
iter:  42 20:20:33  -345.736684c -2.56  -2.76
iter:  43 20:20:41  -345.737036c -3.08  -2.83
iter:  44 20:20:49  -345.737396c -2.89  -2.81
Writing to output.gpw (mode='')

iter:  45 20:20:57  -345.737611c -2.90  -2.86
iter:  46 20:21:05  -345.737751c -3.05  -2.87
iter:  47 20:21:12  -345.738434c -2.65  -2.86
iter:  48 20:21:20  -345.738268c -3.09  -2.88
iter:  49 20:21:28  -345.738510c -3.09  -2.97
Writing to output.gpw (mode='')

iter:  50 20:21:36  -345.738388c -3.24  -3.06
iter:  51 20:21:44  -345.738796c -3.27  -3.07
iter:  52 20:21:52  -345.738712c -3.40  -3.26
iter:  53 20:22:00  -345.738780c -3.44  -3.39
iter:  54 20:22:08  -345.738833c -3.76  -3.40
Writing to output.gpw (mode='')

iter:  55 20:22:15  -345.738914c -3.59  -3.46
iter:  56 20:22:23  -345.738918c -3.76  -3.52
iter:  57 20:22:31  -345.738982c -3.92  -3.48
iter:  58 20:22:39  -345.739000c -3.84  -3.63
iter:  59 20:22:47  -345.739024c -3.94  -3.79
Writing to output.gpw (mode='')

iter:  60 20:22:54  -345.739038c -4.02  -3.80
iter:  61 20:23:02  -345.739042c -4.12  -3.79
iter:  62 20:23:10  -345.739050c -3.96  -3.81
iter:  63 20:23:18  -345.739053c -4.18  -3.80
iter:  64 20:23:26  -345.739077c -4.11  -3.77
Writing to output.gpw (mode='')

iter:  65 20:23:34  -345.739090c -4.33  -3.80
iter:  66 20:23:42  -345.739122c -4.49  -3.82
iter:  67 20:23:49  -345.739130c -4.51  -3.85
iter:  68 20:23:57  -345.739156c -4.63  -3.91
iter:  69 20:24:05  -345.739146c -4.75  -4.03c
Writing to output.gpw (mode='')

iter:  70 20:24:13  -345.739152c -4.79  -4.12c
iter:  71 20:24:21  -345.739170c -4.62  -4.19c
iter:  72 20:24:29  -345.739160c -4.66  -4.26c
iter:  73 20:24:36  -345.739163c -4.92  -4.36c
iter:  74 20:24:49  -345.739162c -4.80  -4.40c
Writing to output.gpw (mode='')

iter:  75 20:24:57  -345.739172c -4.83  -4.48c
iter:  76 20:25:05  -345.739174c -5.18  -4.65c
iter:  77 20:25:13  -345.739176c -4.96  -4.70c
iter:  78 20:25:21  -345.739177c -5.14  -4.84c
iter:  79 20:25:28  -345.739177c -5.13  -4.97c
Writing to output.gpw (mode='')

iter:  80 20:25:36  -345.739178c -5.28  -5.05c
iter:  81 20:25:44  -345.739181c -5.31  -5.06c
iter:  82 20:25:52  -345.739184c -5.40  -5.07c
iter:  83 20:26:00  -345.739183c -5.54  -5.16c
iter:  84 20:26:08  -345.739182c -5.64  -5.18c
Writing to output.gpw (mode='')

iter:  85 20:26:16  -345.739183c -5.41  -5.19c
iter:  86 20:26:23  -345.739183c -5.72  -5.29c
iter:  87 20:26:31  -345.739182c -5.89  -5.28c
iter:  88 20:26:39  -345.739183c -5.98  -5.14c
iter:  89 20:26:47  -345.739184c -6.02  -5.22c
Writing to output.gpw (mode='')

iter:  90 20:26:55  -345.739183c -6.06  -5.38c
iter:  91 20:27:03  -345.739185c -6.01  -5.31c
iter:  92 20:27:11  -345.739185c -6.01  -5.39c
iter:  93 20:27:18  -345.739184c -6.24  -5.41c
iter:  94 20:27:26  -345.739183c -6.12  -5.32c
Writing to output.gpw (mode='')

iter:  95 20:27:34  -345.739184c -6.23  -5.27c
iter:  96 20:27:42  -345.739185c -6.39  -5.23c
iter:  97 20:27:50  -345.739184c -6.37  -5.39c
iter:  98 20:28:00  -345.739186c -6.40  -5.33c
iter:  99 20:28:08  -345.739186c -6.41  -5.36c
Writing to output.gpw (mode='')

iter: 100 20:28:16  -345.739186c -6.54  -5.34c
iter: 101 20:28:24  -345.739184c -6.43  -5.35c
iter: 102 20:28:32  -345.739185c -6.66  -5.21c
iter: 103 20:28:40  -345.739186c -6.49  -5.40c
iter: 104 20:28:48  -345.739187c -6.72  -5.53c
Writing to output.gpw (mode='')

iter: 105 20:28:55  -345.739187c -6.65  -5.54c
iter: 106 20:29:03  -345.739188c -6.79  -5.56c
iter: 107 20:29:11  -345.739187c -6.90  -5.75c
iter: 108 20:29:19  -345.739187c -6.94  -5.82c
iter: 109 20:29:27  -345.739188c -6.92  -5.86c
Writing to output.gpw (mode='')

iter: 110 20:29:35  -345.739188c -6.97  -5.98c
iter: 111 20:29:46  -345.739187c -7.09  -6.05c
iter: 112 20:29:55  -345.739187c -7.21  -6.06c
iter: 113 20:30:03  -345.739187c -7.21  -6.04c
iter: 114 20:30:11  -345.739187c -7.38  -5.95c
Writing to output.gpw (mode='')

iter: 115 20:30:19  -345.739187c -7.27  -5.93c
iter: 116 20:30:26  -345.739187c -7.38  -5.90c
iter: 117 20:30:34  -345.739187c -7.42c -5.90c

Converged after 117 iterations.

Dipole moment: (5.099781, -17.616133, 0.292862) |e|*Ang

Energy contributions relative to reference atoms: (reference = -17528.314784)

Kinetic:       +214.568194
Potential:     -197.551608
External:        +0.000000
XC:            -363.821594
Entropy (-ST):   -0.157425
Local:           +1.144532
--------------------------
Free energy:   -345.817900
Extrapolated:  -345.739187

Dipole-layer corrected work functions: 3.381746, 2.818764 eV

Showing only first 2 kpts
 Kpt  Band  Eigenvalues  Occupancy
  0    37     -3.34341    1.98467
  0    38     -3.26177    1.92392
  0    39     -2.96750    0.13134
  0    40     -2.88254    0.02538

  1    37     -3.17434    1.62966
  1    38     -3.12144    1.20870
  1    39     -3.05380    0.56619
  1    40     -2.99726    0.22611


Fermi level: -3.10025

Gap: 0.014 eV
Transition (v -> c):
  (s=0, k=2, n=38, [0.12, 0.12, 0.00]) -> (s=0, k=7, n=39, [0.38, 0.38, 0.00])
Writing to output.gpw (mode='')


Forces in eV/Ang:
  0 Li    0.02397    0.00831   -0.27039
  1 Li   -0.02199    0.00800   -0.27764
  2 Li   -0.00165   -0.00853   -0.28297
  3 Li    0.01240   -0.00580   -0.28295
  4 Li   -0.01450   -0.00941   -0.27942
  5 Li    0.00389    0.01935   -0.27826
  6 Li   -0.00451   -0.00372   -0.26696
  7 Li    0.00188    0.00117   -0.27512
  8 Li    0.00250   -0.01152   -0.26753
  9 Li   -0.00659   -0.00737    0.29615
 10 Li    0.00375    0.01547    0.24659
 11 Li    0.00388   -0.00946    0.29316
 12 Li   -0.00735   -0.00103    0.31855
 13 Li    0.00270   -0.00526    0.21860
 14 Li    0.00321   -0.00725    0.31823
 15 Li   -0.00245    0.00932    0.24116
 16 Li   -0.00405   -0.00750    0.27760
 17 Li    0.00595    0.01570    0.25675
 18 Li   -0.01451    0.00775    0.07278
 19 Li    0.00643    0.00951    0.05338
 20 Li    0.00828   -0.01520   -0.22793
 21 Li   -0.03352   -0.02867    0.05741
 22 Li    0.03609   -0.02137    0.05606
 23 Li   -0.00428    0.04870   -0.09699
 24 Li   -0.00322    0.02275    0.06121
 25 Li   -0.00494    0.01239    0.03694
 26 Li    0.00673   -0.00499    0.06845
 27 Li    0.03130   -0.15100   -0.32459
 28 Li    0.06943    0.01944   -0.10021
 29 Li   -0.06094   -0.12412   -0.07112
 30 Li   -0.15394    0.10536   -0.04784
 31 Li    0.01840    0.11294   -0.29528
 32 Li    0.11037    0.07318    0.07359
 33 Li    0.03109    0.06952   -0.03244
 34 Li   -0.00894   -0.02567   -0.00079
 35 Li   -0.02142    0.07444   -0.01494
 36 O     0.09350   -5.56415   11.17573
 37 O    -0.23718   -0.38481    0.49405
 38 C    -0.06302    0.19007    0.21311
 39 C     2.25660   -1.54656    2.48210
 40 C     0.22928    0.10843    0.25288
 41 H     0.24206    0.00580    0.07899
 42 H     0.01088    0.04208   -0.02718
 43 H    -0.20085   -0.20553    0.48524
 44 H    -0.05797    0.05368   -0.14011
 45 H    -0.07974   -0.09319   -0.05733
 46 H    -0.02787   -0.04815   -0.05721
 47 H    -0.91788   -0.74429    1.38287
 48 H     0.06794    0.17712   -0.35415
 49 N    -1.23019   -3.66767   -7.46075
 50 N    -0.08351   11.46906   -7.69529

System changes: positions 

Initializing position-dependent things.

Density initialized from wave functions
       .-----------------------.  
      /|                       |  
     / |                       |  
    /  |                       |  
   /   |                       |  
  /    |                       |  
 *     |                       |  
 |     |                       |  
 |     |                       |  
 |     |                       |  
 |     |                       |  
 |     |                       |  
 |     |                       |  
 |     |                       |  
 |     |                       |  
 |     |                       |  
 |  H  Li              Li      |  
 |  C H|  O           O H      |  
 |  HLiC  H  Li     HLiNC      |  
 |    H|  Li      Li  N H Li   |  
 |     |   Li      Li      Li  |  
 |     |Li      Li      Li     |  
 |     | Li                    |  
 |   LLi     LLi     LLi       |  
 |     |  Li      Li      Li   |  
 | Li  |   Li      Li          |  
 |     |Li      Li      Li     |  
 Li    | Li      Li            |  
 |    Li      Li      Li       |  
 |     |                       |  
 |     |                       |  
 |     |                       |  
 |     |                       |  
 |     |                       |  
 |     |                       |  
 |     .-----------------------.  
 |    /                       /   
 |   /                       /    
 |  /                       /     
 | /                       /      
 |/                       /       
 *-----------------------*        

Positions:
   0 Li     1.617037    1.617037   10.000000    ( 0.0000,  0.0000,  0.0000)
   1 Li     4.851111    1.617037   10.000000    ( 0.0000,  0.0000,  0.0000)
   2 Li     8.085185    1.617037   10.000000    ( 0.0000,  0.0000,  0.0000)
   3 Li     1.617037    4.851111   10.000000    ( 0.0000,  0.0000,  0.0000)
   4 Li     4.851111    4.851111   10.000000    ( 0.0000,  0.0000,  0.0000)
   5 Li     8.085185    4.851111   10.000000    ( 0.0000,  0.0000,  0.0000)
   6 Li     1.617037    8.085185   10.000000    ( 0.0000,  0.0000,  0.0000)
   7 Li     4.851111    8.085185   10.000000    ( 0.0000,  0.0000,  0.0000)
   8 Li     8.085185    8.085185   10.000000    ( 0.0000,  0.0000,  0.0000)
   9 Li     0.000000    0.000000   11.617037    ( 0.0000,  0.0000,  0.0000)
  10 Li     3.234074    0.000000   11.617037    ( 0.0000,  0.0000,  0.0000)
  11 Li     6.468148    0.000000   11.617037    ( 0.0000,  0.0000,  0.0000)
  12 Li     0.000000    3.234074   11.617037    ( 0.0000,  0.0000,  0.0000)
  13 Li     3.234074    3.234074   11.617037    ( 0.0000,  0.0000,  0.0000)
  14 Li     6.468148    3.234074   11.617037    ( 0.0000,  0.0000,  0.0000)
  15 Li     0.000000    6.468148   11.617037    ( 0.0000,  0.0000,  0.0000)
  16 Li     3.234074    6.468148   11.617037    ( 0.0000,  0.0000,  0.0000)
  17 Li     6.468148    6.468148   11.617037    ( 0.0000,  0.0000,  0.0000)
  18 Li     1.616996    1.617061   13.469939    ( 0.0000,  0.0000,  0.0000)
  19 Li     4.851130    1.617066   13.469884    ( 0.0000,  0.0000,  0.0000)
  20 Li     8.085208    1.616994   13.469068    ( 0.0000,  0.0000,  0.0000)
  21 Li     1.616941    4.851028   13.469896    ( 0.0000,  0.0000,  0.0000)
  22 Li     4.851216    4.851049   13.469893    ( 0.0000,  0.0000,  0.0000)
  23 Li     8.085171    4.851252   13.469449    ( 0.0000,  0.0000,  0.0000)
  24 Li     1.617029    8.085250   13.469905    ( 0.0000,  0.0000,  0.0000)
  25 Li     4.851097    8.085219   13.469836    ( 0.0000,  0.0000,  0.0000)
  26 Li     8.085203    8.085169   13.469926    ( 0.0000,  0.0000,  0.0000)
  27 Li     0.000091   -0.000437   15.444999    ( 0.0000,  0.0000,  0.0000)
  28 Li     3.234275    0.000056   15.445649    ( 0.0000,  0.0000,  0.0000)
  29 Li     6.467972   -0.000359   15.445733    ( 0.0000,  0.0000,  0.0000)
  30 Li    -0.000446    3.234379   15.445800    ( 0.0000,  0.0000,  0.0000)
  31 Li     3.234130    3.234404   15.445083    ( 0.0000,  0.0000,  0.0000)
  32 Li     6.468465    3.234288   15.446151    ( 0.0000,  0.0000,  0.0000)
  33 Li     0.000090    6.468350   15.445845    ( 0.0000,  0.0000,  0.0000)
  34 Li     3.234051    6.468071   15.445936    ( 0.0000,  0.0000,  0.0000)
  35 Li     6.468084    6.468361   15.445895    ( 0.0000,  0.0000,  0.0000)
  36 O      8.085456    1.600923   18.478305    ( 0.0000,  0.0000,  0.0000)
  37 O     12.946840    1.595594   18.441260    ( 0.0000,  0.0000,  0.0000)
  38 C     10.480917    1.616043   18.461004    ( 0.0000,  0.0000,  0.0000)
  39 C      9.236590    0.744738   18.456006    ( 0.0000,  0.0000,  0.0000)
  40 C     11.764380    0.785539   18.437190    ( 0.0000,  0.0000,  0.0000)
  41 H     10.459718    2.276015   17.585955    ( 0.0000,  0.0000,  0.0000)
  42 H     10.480990    2.252725   19.348313    ( 0.0000,  0.0000,  0.0000)
  43 H      9.224543    0.108363   17.556676    ( 0.0000,  0.0000,  0.0000)
  44 H      9.216345    0.100695   19.335098    ( 0.0000,  0.0000,  0.0000)
  45 H     11.764186    0.109389   17.568968    ( 0.0000,  0.0000,  0.0000)
  46 H     11.840484    0.168995   19.336394    ( 0.0000,  0.0000,  0.0000)
  47 H      7.287002    1.070524   18.445078    ( 0.0000,  0.0000,  0.0000)
  48 H     12.915141    2.172261   17.664287    ( 0.0000,  0.0000,  0.0000)
  49 N      8.081437    1.606378   16.924332    ( 0.0000,  0.0000,  0.0000)
  50 N      8.084758    2.746837   16.923653    ( 0.0000,  0.0000,  0.0000)

Unit cell:
           periodic     x           y           z      points  spacing
  1. axis:    yes    9.702222    0.000000    0.000000    60     0.1617
  2. axis:    yes    0.000000    9.702222    0.000000    60     0.1617
  3. axis:    no     0.000000    0.000000   28.351111   176     0.1611

  Lengths:   9.702222   9.702222  28.351111
  Angles:   90.000000  90.000000  90.000000

Effective grid spacing dv^(1/3) = 0.1615

     iter     time        total  log10-change:
                         energy  eigst   dens
iter:   1 20:30:44  -347.898040  -0.41
iter:   2 20:30:52  -347.198972  -0.53  -1.36
iter:   3 20:31:00  -346.993777  -0.89  -1.36
iter:   4 20:31:08  -346.870906  -0.91  -1.52
Writing to output.gpw (mode='')

iter:   5 20:31:16  -346.802655  -1.60  -1.88
iter:   6 20:31:24  -347.100799  -0.93  -2.10
iter:   7 20:31:32  -346.817605  -1.27  -1.48
iter:   8 20:31:40  -346.830687  -1.73  -2.11
iter:   9 20:31:47  -346.813541c -2.11  -2.11
Writing to output.gpw (mode='')

iter:  10 20:31:55  -346.789432  -2.04  -2.23
iter:  11 20:32:03  -346.789928c -2.98  -2.52
iter:  12 20:32:11  -346.791924c -2.80  -2.65
iter:  13 20:32:19  -346.789141c -3.00  -2.72
iter:  14 20:32:27  -346.791936c -3.11  -2.97
Writing to output.gpw (mode='')

iter:  15 20:32:35  -346.789571c -3.45  -2.77
iter:  16 20:32:43  -346.789165c -3.65  -3.00
iter:  17 20:32:51  -346.789591c -3.43  -3.08
iter:  18 20:32:59  -346.788865c -3.51  -3.12
iter:  19 20:33:07  -346.789178c -3.91  -3.14
Writing to output.gpw (mode='')

iter:  20 20:33:15  -346.789352c -4.43  -3.35
iter:  21 20:33:23  -346.789249c -4.42  -3.43
iter:  22 20:33:31  -346.789449c -4.51  -3.49
iter:  23 20:33:39  -346.789281c -4.32  -3.58
iter:  24 20:33:47  -346.789336c -4.87  -3.77
Writing to output.gpw (mode='')

iter:  25 20:33:55  -346.789339c -4.64  -3.87
iter:  26 20:34:03  -346.789364c -5.02  -3.90
iter:  27 20:34:11  -346.789343c -5.22  -4.06c
iter:  28 20:34:18  -346.789337c -5.29  -4.19c
iter:  29 20:34:26  -346.789340c -5.56  -4.21c
Writing to output.gpw (mode='')

iter:  30 20:34:34  -346.789335c -5.66  -4.41c
iter:  31 20:34:47  -346.789337c -6.04  -4.58c
iter:  32 20:34:56  -346.789334c -6.09  -4.63c
iter:  33 20:35:04  -346.789337c -6.20  -4.71c
iter:  34 20:35:12  -346.789335c -6.29  -4.74c
Writing to output.gpw (mode='')

iter:  35 20:35:20  -346.789337c -6.48  -4.81c
iter:  36 20:35:28  -346.789332c -6.36  -5.00c
iter:  37 20:35:36  -346.789335c -6.41  -5.00c
iter:  38 20:35:44  -346.789336c -6.70  -5.12c
iter:  39 20:35:52  -346.789336c -6.65  -5.15c
Writing to output.gpw (mode='')

iter:  40 20:36:00  -346.789335c -6.83  -5.27c
iter:  41 20:36:07  -346.789336c -6.90  -5.37c
iter:  42 20:36:15  -346.789336c -6.90  -5.46c
iter:  43 20:36:23  -346.789336c -7.18  -5.49c
iter:  44 20:36:31  -346.789336c -7.18  -5.60c
Writing to output.gpw (mode='')

iter:  45 20:36:39  -346.789336c -7.20  -5.78c
iter:  46 20:36:47  -346.789337c -7.36  -5.83c
iter:  47 20:36:55  -346.789336c -7.57c -5.84c

Converged after 47 iterations.

Dipole moment: (5.063969, -17.519511, 0.244428) |e|*Ang

Energy contributions relative to reference atoms: (reference = -17528.314784)

Kinetic:       +205.280217
Potential:     -190.672404
External:        +0.000000
XC:            -362.464735
Entropy (-ST):   -0.165510
Local:           +1.150340
--------------------------
Free energy:   -346.872091
Extrapolated:  -346.789336

Dipole-layer corrected work functions: 3.386499, 2.916624 eV

Showing only first 2 kpts
 Kpt  Band  Eigenvalues  Occupancy
  0    37     -3.38967    1.98305
  0    38     -3.30521    1.91152
  0    39     -3.05110    0.23647
  0    40     -2.92684    0.02209

  1    37     -3.22250    1.61031
  1    38     -3.17529    1.23292
  1    39     -3.09949    0.52174
  1    40     -3.04218    0.20172


Fermi level: -3.15156

No gap
Writing to output.gpw (mode='')


Forces in eV/Ang:
  0 Li    0.02472    0.00842   -0.27158
  1 Li   -0.02241    0.00815   -0.27901
  2 Li   -0.00185   -0.00804   -0.28405
  3 Li    0.01409   -0.00519   -0.28399
  4 Li   -0.01568   -0.00871   -0.28034
  5 Li    0.00338    0.01819   -0.27890
  6 Li   -0.00284   -0.00379   -0.26766
  7 Li    0.00057    0.00085   -0.27575
  8 Li    0.00217   -0.01113   -0.26748
  9 Li   -0.00705   -0.00621    0.29942
 10 Li    0.00321    0.01431    0.24473
 11 Li    0.00470   -0.00827    0.29601
 12 Li   -0.00712   -0.00092    0.32153
 13 Li    0.00259   -0.00462    0.21803
 14 Li    0.00297   -0.00707    0.32078
 15 Li   -0.00284    0.00862    0.24166
 16 Li   -0.00390   -0.00766    0.27579
 17 Li    0.00622    0.01508    0.25650
 18 Li   -0.00905    0.00688    0.06289
 19 Li    0.00066    0.00896    0.04468
 20 Li    0.00827   -0.01324   -0.21876
 21 Li   -0.03295   -0.02877    0.05474
 22 Li    0.03591   -0.02252    0.05411
 23 Li   -0.00481    0.05134   -0.10508
 24 Li   -0.00458    0.02264    0.06061
 25 Li   -0.00333    0.01314    0.03859
 26 Li    0.00636   -0.00820    0.06360
 27 Li    0.00873   -0.12018   -0.27039
 28 Li    0.06705    0.01571   -0.09811
 29 Li   -0.03560   -0.09296   -0.03484
 30 Li   -0.18509    0.06787    0.02238
 31 Li    0.01759    0.11614   -0.29692
 32 Li    0.14025    0.03568    0.14061
 33 Li    0.03485    0.06610   -0.03330
 34 Li   -0.00792   -0.02436   -0.00257
 35 Li   -0.02628    0.07034   -0.01599
 36 O     0.28773   -4.28944    9.09380
 37 O    -0.17845   -0.27473    0.35701
 38 C     0.01751    0.13431    0.20762
 39 C     1.79071   -1.31329    2.03336
 40 C     0.16330    0.10494    0.23313
 41 H     0.18881   -0.00762    0.09010
 42 H     0.01590    0.05947   -0.00895
 43 H    -0.15274   -0.18434    0.55863
 44 H     0.07290   -0.15703    0.08530
 45 H    -0.07477   -0.08149   -0.04101
 46 H    -0.02351   -0.05874   -0.04385
 47 H    -0.89955   -0.80825    1.21415
 48 H     0.06746    0.09329   -0.22824
 49 N    -1.17202    1.04258   -6.78764
 50 N    -0.12150    5.44298   -6.17021

System changes: positions 

Initializing position-dependent things.

Density initialized from wave functions
       .-----------------------.  
      /|                       |  
     / |                       |  
    /  |                       |  
   /   |                       |  
  /    |                       |  
 *     |                       |  
 |     |                       |  
 |     |                       |  
 |     |                       |  
 |     |                       |  
 |     |                       |  
 |     |                       |  
 |     |                       |  
 |     |                       |  
 |     |                       |  
 |  H  Li              Li      |  
 |  C H|  O           O H      |  
 |  HLiC  H  Li     HLiNC      |  
 |    H|  Li      Li  N H Li   |  
 |     |   Li      Li      Li  |  
 |     |Li      Li      Li     |  
 |     | Li                    |  
 |   LLi     LLi     LLi       |  
 |     |  Li      Li      Li   |  
 | Li  |   Li      Li          |  
 |     |Li      Li      Li     |  
 Li    | Li      Li            |  
 |    Li      Li      Li       |  
 |     |                       |  
 |     |                       |  
 |     |                       |  
 |     |                       |  
 |     |                       |  
 |     |                       |  
 |     .-----------------------.  
 |    /                       /   
 |   /                       /    
 |  /                       /     
 | /                       /      
 |/                       /       
 *-----------------------*        

Positions:
   0 Li     1.617037    1.617037   10.000000    ( 0.0000,  0.0000,  0.0000)
   1 Li     4.851111    1.617037   10.000000    ( 0.0000,  0.0000,  0.0000)
   2 Li     8.085185    1.617037   10.000000    ( 0.0000,  0.0000,  0.0000)
   3 Li     1.617037    4.851111   10.000000    ( 0.0000,  0.0000,  0.0000)
   4 Li     4.851111    4.851111   10.000000    ( 0.0000,  0.0000,  0.0000)
   5 Li     8.085185    4.851111   10.000000    ( 0.0000,  0.0000,  0.0000)
   6 Li     1.617037    8.085185   10.000000    ( 0.0000,  0.0000,  0.0000)
   7 Li     4.851111    8.085185   10.000000    ( 0.0000,  0.0000,  0.0000)
   8 Li     8.085185    8.085185   10.000000    ( 0.0000,  0.0000,  0.0000)
   9 Li     0.000000    0.000000   11.617037    ( 0.0000,  0.0000,  0.0000)
  10 Li     3.234074    0.000000   11.617037    ( 0.0000,  0.0000,  0.0000)
  11 Li     6.468148    0.000000   11.617037    ( 0.0000,  0.0000,  0.0000)
  12 Li     0.000000    3.234074   11.617037    ( 0.0000,  0.0000,  0.0000)
  13 Li     3.234074    3.234074   11.617037    ( 0.0000,  0.0000,  0.0000)
  14 Li     6.468148    3.234074   11.617037    ( 0.0000,  0.0000,  0.0000)
  15 Li     0.000000    6.468148   11.617037    ( 0.0000,  0.0000,  0.0000)
  16 Li     3.234074    6.468148   11.617037    ( 0.0000,  0.0000,  0.0000)
  17 Li     6.468148    6.468148   11.617037    ( 0.0000,  0.0000,  0.0000)
  18 Li     1.616969    1.617090   13.470202    ( 0.0000,  0.0000,  0.0000)
  19 Li     4.851118    1.617106   13.470067    ( 0.0000,  0.0000,  0.0000)
  20 Li     8.085246    1.616938   13.468084    ( 0.0000,  0.0000,  0.0000)
  21 Li     1.616791    4.850895   13.470141    ( 0.0000,  0.0000,  0.0000)
  22 Li     4.851380    4.850942   13.470137    ( 0.0000,  0.0000,  0.0000)
  23 Li     8.085148    4.851495   13.468943    ( 0.0000,  0.0000,  0.0000)
  24 Li     1.617004    8.085354   13.470183    ( 0.0000,  0.0000,  0.0000)
  25 Li     4.851086    8.085282   13.470019    ( 0.0000,  0.0000,  0.0000)
  26 Li     8.085232    8.085123   13.470206    ( 0.0000,  0.0000,  0.0000)
  27 Li     0.000072   -0.000910   15.443896    ( 0.0000,  0.0000,  0.0000)
  28 Li     3.234577    0.000119   15.445202    ( 0.0000,  0.0000,  0.0000)
  29 Li     6.467874   -0.000706   15.445668    ( 0.0000,  0.0000,  0.0000)
  30 Li    -0.001380    3.234593   15.446088    ( 0.0000,  0.0000,  0.0000)
  31 Li     3.234209    3.234947   15.443711    ( 0.0000,  0.0000,  0.0000)
  32 Li     6.469190    3.234354   15.446975    ( 0.0000,  0.0000,  0.0000)
  33 Li     0.000260    6.468645   15.445689    ( 0.0000,  0.0000,  0.0000)
  34 Li     3.234017    6.467962   15.445919    ( 0.0000,  0.0000,  0.0000)
  35 Li     6.467950    6.468674   15.445818    ( 0.0000,  0.0000,  0.0000)
  36 O      8.087291    1.584507   18.514735    ( 0.0000,  0.0000,  0.0000)
  37 O     12.946172    1.594617   18.442545    ( 0.0000,  0.0000,  0.0000)
  38 C     10.481209    1.616515   18.461946    ( 0.0000,  0.0000,  0.0000)
  39 C      9.243617    0.739301   18.464196    ( 0.0000,  0.0000,  0.0000)
  40 C     11.764960    0.786013   18.438212    ( 0.0000,  0.0000,  0.0000)
  41 H     10.460448    2.275945   17.586399    ( 0.0000,  0.0000,  0.0000)
  42 H     10.481076    2.253045   19.348319    ( 0.0000,  0.0000,  0.0000)
  43 H      9.223966    0.107570   17.559442    ( 0.0000,  0.0000,  0.0000)
  44 H      9.217024    0.099419   19.336082    ( 0.0000,  0.0000,  0.0000)
  45 H     11.763855    0.109045   17.568822    ( 0.0000,  0.0000,  0.0000)
  46 H     11.840387    0.168696   19.336227    ( 0.0000,  0.0000,  0.0000)
  47 H      7.282906    1.066633   18.450228    ( 0.0000,  0.0000,  0.0000)
  48 H     12.915451    2.172470   17.663565    ( 0.0000,  0.0000,  0.0000)
  49 N      8.076191    1.623540   16.894830    ( 0.0000,  0.0000,  0.0000)
  50 N      8.084099    2.756100   16.899230    ( 0.0000,  0.0000,  0.0000)

Unit cell:
           periodic     x           y           z      points  spacing
  1. axis:    yes    9.702222    0.000000    0.000000    60     0.1617
  2. axis:    yes    0.000000    9.702222    0.000000    60     0.1617
  3. axis:    no     0.000000    0.000000   28.351111   176     0.1611

  Lengths:   9.702222   9.702222  28.351111
  Angles:   90.000000  90.000000  90.000000

Effective grid spacing dv^(1/3) = 0.1615

     iter     time        total  log10-change:
                         energy  eigst   dens
iter:   1 20:37:05  -347.761240  -0.78
iter:   2 20:37:13  -347.671118  -0.97  -1.66
iter:   3 20:37:20  -347.642322  -1.53  -1.75
iter:   4 20:37:28  -347.640954c -1.19  -2.05
Writing to output.gpw (mode='')

iter:   5 20:37:36  -347.640764c -1.48  -1.89
iter:   6 20:37:44  -347.721971  -1.17  -2.16
iter:   7 20:37:52  -347.637873  -2.15  -1.91
iter:   8 20:38:00  -347.613055  -1.39  -2.12
iter:   9 20:38:07  -347.623436c -2.15  -2.17
Writing to output.gpw (mode='')

iter:  10 20:38:15  -347.639156c -2.09  -2.26
iter:  11 20:38:23  -347.614084c -1.83  -2.15
iter:  12 20:38:31  -347.612056c -2.34  -2.19
iter:  13 20:38:39  -347.609203c -3.34  -2.62
iter:  14 20:38:47  -347.607523c -3.14  -2.78
Writing to output.gpw (mode='')

iter:  15 20:38:54  -347.607879c -2.91  -2.89
iter:  16 20:39:02  -347.608112c -3.28  -3.07
iter:  17 20:39:10  -347.607750c -3.66  -3.08
iter:  18 20:39:18  -347.608156c -3.79  -3.23
iter:  19 20:39:26  -347.608123c -4.39  -3.43
Writing to output.gpw (mode='')

iter:  20 20:39:33  -347.608153c -4.10  -3.56
iter:  21 20:39:47  -347.608106c -4.53  -3.72
iter:  22 20:39:55  -347.608166c -4.50  -3.82
iter:  23 20:40:03  -347.608181c -4.96  -3.88
iter:  24 20:40:11  -347.608190c -4.81  -3.97
Writing to output.gpw (mode='')

iter:  25 20:40:19  -347.608198c -4.92  -4.07c
iter:  26 20:40:27  -347.608190c -5.14  -4.12c
iter:  27 20:40:35  -347.608197c -5.01  -4.32c
iter:  28 20:40:42  -347.608199c -4.98  -4.36c
iter:  29 20:40:50  -347.608222c -5.29  -4.38c
Writing to output.gpw (mode='')

iter:  30 20:40:58  -347.608223c -5.53  -4.40c
iter:  31 20:41:06  -347.608202c -5.41  -4.34c
iter:  32 20:41:14  -347.608203c -5.83  -4.52c
iter:  33 20:41:21  -347.608213c -5.69  -4.80c
iter:  34 20:41:29  -347.608215c -5.91  -4.98c
Writing to output.gpw (mode='')

iter:  35 20:41:37  -347.608215c -5.92  -4.98c
iter:  36 20:41:45  -347.608214c -5.99  -4.91c
iter:  37 20:41:53  -347.608214c -6.14  -4.94c
iter:  38 20:42:01  -347.608213c -6.00  -4.92c
iter:  39 20:42:09  -347.608212c -6.15  -4.92c
Writing to output.gpw (mode='')

iter:  40 20:42:23  -347.608214c -6.34  -4.89c
iter:  41 20:42:33  -347.608218c -6.40  -4.90c
iter:  42 20:42:40  -347.608219c -6.57  -4.87c
iter:  43 20:42:48  -347.608213c -6.66  -4.83c
iter:  44 20:42:56  -347.608216c -6.72  -4.83c
Writing to output.gpw (mode='')

iter:  45 20:43:04  -347.608222c -6.76  -4.90c
iter:  46 20:43:12  -347.608222c -7.00  -4.98c
iter:  47 20:43:20  -347.608223c -6.79  -5.05c
iter:  48 20:43:28  -347.608222c -7.08  -5.04c
iter:  49 20:43:35  -347.608223c -6.94  -5.19c
Writing to output.gpw (mode='')

iter:  50 20:43:43  -347.608223c -7.19  -5.34c
iter:  51 20:43:54  -347.608224c -7.16  -5.39c
iter:  52 20:44:02  -347.608224c -7.31  -5.55c
iter:  53 20:44:10  -347.608224c -7.59c -5.64c

Converged after 53 iterations.

Dipole moment: (5.193458, -17.462044, 0.211136) |e|*Ang

Energy contributions relative to reference atoms: (reference = -17528.314784)

Kinetic:       +203.581516
Potential:     -189.904772
External:        +0.000000
XC:            -362.357060
Entropy (-ST):   -0.165335
Local:           +1.154760
--------------------------
Free energy:   -347.690891
Extrapolated:  -347.608224

Dipole-layer corrected work functions: 3.388524, 2.982648 eV

Showing only first 2 kpts
 Kpt  Band  Eigenvalues  Occupancy
  0    37     -3.42466    1.98337
  0    38     -3.34047    1.91359
  0    39     -3.08308    0.22806
  0    40     -2.95692    0.02044

  1    37     -3.25398    1.59404
  1    38     -3.21243    1.26214
  1    39     -3.13640    0.54434
  1    40     -3.07287    0.18996


Fermi level: -3.18559

No gap
Writing to output.gpw (mode='')


Forces in eV/Ang:
  0 Li    0.02540    0.00857   -0.27136
  1 Li   -0.02293    0.00805   -0.27877
  2 Li   -0.00187   -0.00853   -0.28399
  3 Li    0.01368   -0.00471   -0.28378
  4 Li   -0.01531   -0.00795   -0.28025
  5 Li    0.00321    0.01938   -0.27908
  6 Li   -0.00278   -0.00365   -0.26836
  7 Li    0.00078    0.00093   -0.27611
  8 Li    0.00177   -0.01245   -0.26762
  9 Li   -0.00670   -0.00667    0.29882
 10 Li    0.00273    0.01451    0.24502
 11 Li    0.00457   -0.00803    0.29475
 12 Li   -0.00759   -0.00064    0.32288
 13 Li    0.00192   -0.00505    0.21824
 14 Li    0.00401   -0.00720    0.32275
 15 Li   -0.00282    0.00985    0.24027
 16 Li   -0.00331   -0.00883    0.27446
 17 Li    0.00592    0.01617    0.25412
 18 Li   -0.01118    0.00690    0.06215
 19 Li    0.00255    0.00955    0.04650
 20 Li    0.00819   -0.01670   -0.22265
 21 Li   -0.03394   -0.02889    0.05588
 22 Li    0.03729   -0.02339    0.05511
 23 Li   -0.00510    0.05106   -0.10095
 24 Li   -0.00380    0.02172    0.05884
 25 Li   -0.00326    0.01215    0.03881
 26 Li    0.00585   -0.00728    0.06174
 27 Li    0.01228   -0.12097   -0.25389
 28 Li    0.06655    0.01666   -0.09334
 29 Li   -0.03817   -0.09446   -0.04116
 30 Li   -0.12900    0.07558   -0.00609
 31 Li    0.01754    0.11517   -0.29377
 32 Li    0.08124    0.03996    0.10580
 33 Li    0.03235    0.06046   -0.03538
 34 Li   -0.00721   -0.02394   -0.00302
 35 Li   -0.02483    0.06501   -0.01867
 36 O     0.31596   -3.29356    7.86775
 37 O    -0.12617   -0.18604    0.25754
 38 C     0.07060    0.06684    0.22617
 39 C     1.22040   -0.98033    1.57501
 40 C     0.13055    0.10040    0.18877
 41 H     0.16474   -0.02044    0.08804
 42 H     0.01853    0.07739    0.01358
 43 H    -0.12341   -0.15836    0.54885
 44 H     0.21783   -0.38401    0.25850
 45 H    -0.07263   -0.06138   -0.01655
 46 H    -0.02450   -0.06571   -0.02800
 47 H    -0.70414   -0.77147    1.02476
 48 H     0.06897    0.02773   -0.13481
 49 N    -1.06134    0.58636   -6.28599
 50 N    -0.11597    4.86864   -5.04187

System changes: positions 

Initializing position-dependent things.

Density initialized from wave functions
       .-----------------------.  
      /|                       |  
     / |                       |  
    /  |                       |  
   /   |                       |  
  /    |                       |  
 *     |                       |  
 |     |                       |  
 |     |                       |  
 |     |                       |  
 |     |                       |  
 |     |                       |  
 |     |                       |  
 |     |                       |  
 |     |                       |  
 |     |                       |  
 |  H  Li              Li      |  
 |  C H|  O           O H      |  
 |  HLiC  H  Li     HLiNC      |  
 |    H|  Li      Li  N H Li   |  
 |     |   Li      Li      Li  |  
 |     |Li      Li      Li     |  
 |     | Li                    |  
 |   LLi     LLi     LLi       |  
 |     |  Li      Li      Li   |  
 | Li  |   Li      Li          |  
 |     |Li      Li      Li     |  
 Li    | Li      Li            |  
 |    Li      Li      Li       |  
 |     |                       |  
 |     |                       |  
 |     |                       |  
 |     |                       |  
 |     |                       |  
 |     |                       |  
 |     .-----------------------.  
 |    /                       /   
 |   /                       /    
 |  /                       /     
 | /                       /      
 |/                       /       
 *-----------------------*        

Positions:
   0 Li     1.617037    1.617037   10.000000    ( 0.0000,  0.0000,  0.0000)
   1 Li     4.851111    1.617037   10.000000    ( 0.0000,  0.0000,  0.0000)
   2 Li     8.085185    1.617037   10.000000    ( 0.0000,  0.0000,  0.0000)
   3 Li     1.617037    4.851111   10.000000    ( 0.0000,  0.0000,  0.0000)
   4 Li     4.851111    4.851111   10.000000    ( 0.0000,  0.0000,  0.0000)
   5 Li     8.085185    4.851111   10.000000    ( 0.0000,  0.0000,  0.0000)
   6 Li     1.617037    8.085185   10.000000    ( 0.0000,  0.0000,  0.0000)
   7 Li     4.851111    8.085185   10.000000    ( 0.0000,  0.0000,  0.0000)
   8 Li     8.085185    8.085185   10.000000    ( 0.0000,  0.0000,  0.0000)
   9 Li     0.000000    0.000000   11.617037    ( 0.0000,  0.0000,  0.0000)
  10 Li     3.234074    0.000000   11.617037    ( 0.0000,  0.0000,  0.0000)
  11 Li     6.468148    0.000000   11.617037    ( 0.0000,  0.0000,  0.0000)
  12 Li     0.000000    3.234074   11.617037    ( 0.0000,  0.0000,  0.0000)
  13 Li     3.234074    3.234074   11.617037    ( 0.0000,  0.0000,  0.0000)
  14 Li     6.468148    3.234074   11.617037    ( 0.0000,  0.0000,  0.0000)
  15 Li     0.000000    6.468148   11.617037    ( 0.0000,  0.0000,  0.0000)
  16 Li     3.234074    6.468148   11.617037    ( 0.0000,  0.0000,  0.0000)
  17 Li     6.468148    6.468148   11.617037    ( 0.0000,  0.0000,  0.0000)
  18 Li     1.616891    1.617135   13.470592    ( 0.0000,  0.0000,  0.0000)
  19 Li     4.851133    1.617174   13.470375    ( 0.0000,  0.0000,  0.0000)
  20 Li     8.085301    1.616801   13.466556    ( 0.0000,  0.0000,  0.0000)
  21 Li     1.616552    4.850696   13.470525    ( 0.0000,  0.0000,  0.0000)
  22 Li     4.851647    4.850772   13.470516    ( 0.0000,  0.0000,  0.0000)
  23 Li     8.085109    4.851850   13.468263    ( 0.0000,  0.0000,  0.0000)
  24 Li     1.616980    8.085494   13.470569    ( 0.0000,  0.0000,  0.0000)
  25 Li     4.851069    8.085359   13.470291    ( 0.0000,  0.0000,  0.0000)
  26 Li     8.085266    8.085072   13.470599    ( 0.0000,  0.0000,  0.0000)
  27 Li     0.000118   -0.001653   15.442455    ( 0.0000,  0.0000,  0.0000)
  28 Li     3.235022    0.000230   15.444609    ( 0.0000,  0.0000,  0.0000)
  29 Li     6.467667   -0.001272   15.445441    ( 0.0000,  0.0000,  0.0000)
  30 Li    -0.001892    3.235063   15.446019    ( 0.0000,  0.0000,  0.0000)
  31 Li     3.234326    3.235737   15.441722    ( 0.0000,  0.0000,  0.0000)
  32 Li     6.469347    3.234552   15.447610    ( 0.0000,  0.0000,  0.0000)
  33 Li     0.000472    6.469002   15.445427    ( 0.0000,  0.0000,  0.0000)
  34 Li     3.233976    6.467806   15.445890    ( 0.0000,  0.0000,  0.0000)
  35 Li     6.467777    6.469063   15.445665    ( 0.0000,  0.0000,  0.0000)
  36 O      8.090262    1.573969   18.552281    ( 0.0000,  0.0000,  0.0000)
  37 O     12.945914    1.594402   18.443080    ( 0.0000,  0.0000,  0.0000)
  38 C     10.482369    1.616250   18.463630    ( 0.0000,  0.0000,  0.0000)
  39 C      9.245879    0.736033   18.469860    ( 0.0000,  0.0000,  0.0000)
  40 C     11.765387    0.786653   18.439079    ( 0.0000,  0.0000,  0.0000)
  41 H     10.461219    2.275660   17.587017    ( 0.0000,  0.0000,  0.0000)
  42 H     10.481240    2.253774   19.348652    ( 0.0000,  0.0000,  0.0000)
  43 H      9.223506    0.106764   17.563335    ( 0.0000,  0.0000,  0.0000)
  44 H      9.220100    0.094293   19.339949    ( 0.0000,  0.0000,  0.0000)
  45 H     11.763391    0.108825   17.568959    ( 0.0000,  0.0000,  0.0000)
  46 H     11.840225    0.168158   19.336206    ( 0.0000,  0.0000,  0.0000)
  47 H      7.279755    1.061468   18.455177    ( 0.0000,  0.0000,  0.0000)
  48 H     12.915934    2.171870   17.663787    ( 0.0000,  0.0000,  0.0000)
  49 N      8.070014    1.637749   16.857952    ( 0.0000,  0.0000,  0.0000)
  50 N      8.083238    2.766811   16.878565    ( 0.0000,  0.0000,  0.0000)

Unit cell:
           periodic     x           y           z      points  spacing
  1. axis:    yes    9.702222    0.000000    0.000000    60     0.1617
  2. axis:    yes    0.000000    9.702222    0.000000    60     0.1617
  3. axis:    no     0.000000    0.000000   28.351111   176     0.1611

  Lengths:   9.702222   9.702222  28.351111
  Angles:   90.000000  90.000000  90.000000

Effective grid spacing dv^(1/3) = 0.1615

     iter     time        total  log10-change:
                         energy  eigst   dens
iter:   1 20:44:19  -348.384311  -0.81
iter:   2 20:44:27  -348.354891  -1.13  -1.84
iter:   3 20:44:35  -348.345679c -1.61  -1.91
iter:   4 20:44:46  -348.334636c -1.70  -2.16
Writing to output.gpw (mode='')

iter:   5 20:44:56  -348.358085c -1.72  -2.29
iter:   6 20:45:04  -348.369693c -1.81  -2.13
iter:   7 20:45:12  -348.324794  -1.94  -2.02
iter:   8 20:45:20  -348.324498  -1.74  -2.49
iter:   9 20:45:28  -348.332182c -2.23  -2.23
Writing to output.gpw (mode='')

iter:  10 20:45:36  -348.328734c -2.60  -2.36
iter:  11 20:45:44  -348.321351c -2.30  -2.48
iter:  12 20:45:51  -348.321186c -2.74  -2.69
iter:  13 20:45:59  -348.322498c -3.19  -2.80
iter:  14 20:46:07  -348.321839c -3.53  -3.03
Writing to output.gpw (mode='')

iter:  15 20:46:15  -348.322191c -3.66  -3.25
iter:  16 20:46:23  -348.321771c -3.74  -3.23
iter:  17 20:46:31  -348.322101c -3.90  -3.40
iter:  18 20:46:39  -348.321928c -3.93  -3.46
iter:  19 20:46:47  -348.321973c -4.30  -3.61
Writing to output.gpw (mode='')

iter:  20 20:46:55  -348.322040c -4.25  -3.72
iter:  21 20:47:03  -348.321987c -4.17  -3.89
iter:  22 20:47:11  -348.322033c -4.32  -3.98
iter:  23 20:47:19  -348.322030c -4.78  -4.04c
iter:  24 20:47:27  -348.322056c -4.55  -4.03c
Writing to output.gpw (mode='')

iter:  25 20:47:35  -348.322026c -4.69  -3.95
iter:  26 20:47:43  -348.322057c -4.87  -4.00
iter:  27 20:47:51  -348.322075c -4.96  -3.95
iter:  28 20:47:59  -348.322069c -4.95  -3.96
iter:  29 20:48:07  -348.322086c -5.03  -3.98
Writing to output.gpw (mode='')

iter:  30 20:48:15  -348.322088c -5.11  -4.00
iter:  31 20:48:23  -348.322095c -5.42  -3.97
iter:  32 20:48:31  -348.322091c -5.39  -3.99
iter:  33 20:48:39  -348.322111c -5.60  -4.21c
iter:  34 20:48:47  -348.322100c -5.70  -4.22c
Writing to output.gpw (mode='')

iter:  35 20:48:55  -348.322103c -5.61  -4.38c
iter:  36 20:49:03  -348.322104c -5.50  -4.44c
iter:  37 20:49:11  -348.322112c -5.71  -4.59c
iter:  38 20:49:19  -348.322109c -5.86  -4.65c
iter:  39 20:49:27  -348.322111c -6.00  -4.80c
Writing to output.gpw (mode='')

iter:  40 20:49:35  -348.322117c -5.97  -4.85c
iter:  41 20:49:46  -348.322114c -6.11  -4.78c
iter:  42 20:49:57  -348.322114c -6.05  -4.99c
iter:  43 20:50:04  -348.322113c -6.20  -5.12c
iter:  44 20:50:12  -348.322112c -6.42  -5.19c
Writing to output.gpw (mode='')

iter:  45 20:50:20  -348.322114c -6.71  -5.03c
iter:  46 20:50:28  -348.322114c -6.50  -5.22c
iter:  47 20:50:36  -348.322115c -6.53  -5.33c
iter:  48 20:50:44  -348.322115c -6.71  -5.35c
iter:  49 20:50:52  -348.322118c -6.85  -5.36c
Writing to output.gpw (mode='')

iter:  50 20:51:00  -348.322115c -6.91  -5.36c
iter:  51 20:51:08  -348.322117c -7.01  -5.42c
iter:  52 20:51:16  -348.322117c -6.96  -5.55c
iter:  53 20:51:24  -348.322118c -7.03  -5.57c
iter:  54 20:51:32  -348.322117c -7.15  -5.62c
Writing to output.gpw (mode='')

iter:  55 20:51:40  -348.322117c -7.02  -5.85c
iter:  56 20:51:48  -348.322117c -7.42c -5.89c

Converged after 56 iterations.

Dipole moment: (5.215758, -17.341494, 0.164410) |e|*Ang

Energy contributions relative to reference atoms: (reference = -17528.314784)

Kinetic:       +201.151737
Potential:     -188.465705
External:        +0.000000
XC:            -362.083024
Entropy (-ST):   -0.166084
Local:           +1.157916
--------------------------
Free energy:   -348.405159
Extrapolated:  -348.322117

Dipole-layer corrected work functions: 3.391549, 3.075498 eV

Showing only first 2 kpts
 Kpt  Band  Eigenvalues  Occupancy
  0    37     -3.47173    1.98308
  0    38     -3.38892    1.91443
  0    39     -3.13252    0.23422
  0    40     -3.00109    0.01897

  1    37     -3.30059    1.58542
  1    38     -3.26096    1.26770
  1    39     -3.18677    0.56380
  1    40     -3.11650    0.17566


Fermi level: -3.23352

No gap
Writing to output.gpw (mode='')


Forces in eV/Ang:
  0 Li    0.02601    0.00871   -0.27148
  1 Li   -0.02338    0.00809   -0.27871
  2 Li   -0.00192   -0.00871   -0.28392
  3 Li    0.01338   -0.00403   -0.28375
  4 Li   -0.01502   -0.00701   -0.28040
  5 Li    0.00296    0.02004   -0.27945
  6 Li   -0.00241   -0.00342   -0.26928
  7 Li    0.00065    0.00109   -0.27670
  8 Li    0.00142   -0.01379   -0.26772
  9 Li   -0.00650   -0.00680    0.29837
 10 Li    0.00229    0.01447    0.24550
 11 Li    0.00450   -0.00765    0.29362
 12 Li   -0.00808   -0.00021    0.32395
 13 Li    0.00142   -0.00558    0.21865
 14 Li    0.00492   -0.00718    0.32428
 15 Li   -0.00265    0.01121    0.23917
 16 Li   -0.00286   -0.01024    0.27252
 17 Li    0.00561    0.01731    0.25217
 18 Li   -0.01232    0.00669    0.05937
 19 Li    0.00372    0.00964    0.04678
 20 Li    0.00789   -0.01823   -0.21900
 21 Li   -0.03419   -0.02875    0.05602
 22 Li    0.03780   -0.02402    0.05523
 23 Li   -0.00521    0.05017   -0.09580
 24 Li   -0.00309    0.02030    0.05675
 25 Li   -0.00295    0.01109    0.03892
 26 Li    0.00527   -0.00678    0.05838
 27 Li    0.01205   -0.11624   -0.23050
 28 Li    0.06554    0.01683   -0.08749
 29 Li   -0.03518   -0.08914   -0.04003
 30 Li   -0.08275    0.07550   -0.02094
 31 Li    0.01754    0.11444   -0.29008
 32 Li    0.03348    0.03857    0.08385
 33 Li    0.03005    0.05409   -0.03690
 34 Li   -0.00636   -0.02313   -0.00385
 35 Li   -0.02378    0.05857   -0.02094
 36 O     0.08879   -2.66852    6.69394
 37 O    -0.07880   -0.16888    0.23461
 38 C     0.05102    0.02500    0.19808
 39 C     0.90433   -0.80419    1.43529
 40 C     0.10950    0.08134    0.17004
 41 H     0.14788   -0.03668    0.10134
 42 H     0.02056    0.08191    0.02925
 43 H    -0.12781   -0.14221    0.49399
 44 H     0.33041   -0.46185    0.24284
 45 H    -0.06829   -0.04628   -0.00019
 46 H    -0.01930   -0.06244   -0.02498
 47 H    -0.35356   -0.57191    0.87303
 48 H     0.06449    0.02300   -0.11775
 49 N    -0.94094    0.32734   -5.65659
 50 N    -0.10528    4.23803   -4.03995

System changes: positions 

Initializing position-dependent things.

Density initialized from wave functions
       .-----------------------.  
      /|                       |  
     / |                       |  
    /  |                       |  
   /   |                       |  
  /    |                       |  
 *     |                       |  
 |     |                       |  
 |     |                       |  
 |     |                       |  
 |     |                       |  
 |     |                       |  
 |     |                       |  
 |     |                       |  
 |     |                       |  
 |     |                       |  
 |  H  Li              Li      |  
 |  C H|  O           O H      |  
 |  HLiC  H  Li     HLiNC      |  
 |    H|  Li      Li  N H Li   |  
 |     |   Li      Li      Li  |  
 |     |Li      Li      Li     |  
 |     | Li                    |  
 |   LLi     LLi     LLi       |  
 |     |  Li      Li      Li   |  
 | Li  |   Li      Li          |  
 |     |Li      Li      Li     |  
 Li    | Li      Li            |  
 |    Li      Li      Li       |  
 |     |                       |  
 |     |                       |  
 |     |                       |  
 |     |                       |  
 |     |                       |  
 |     |                       |  
 |     .-----------------------.  
 |    /                       /   
 |   /                       /    
 |  /                       /     
 | /                       /      
 |/                       /       
 *-----------------------*        

Positions:
   0 Li     1.617037    1.617037   10.000000    ( 0.0000,  0.0000,  0.0000)
   1 Li     4.851111    1.617037   10.000000    ( 0.0000,  0.0000,  0.0000)
   2 Li     8.085185    1.617037   10.000000    ( 0.0000,  0.0000,  0.0000)
   3 Li     1.617037    4.851111   10.000000    ( 0.0000,  0.0000,  0.0000)
   4 Li     4.851111    4.851111   10.000000    ( 0.0000,  0.0000,  0.0000)
   5 Li     8.085185    4.851111   10.000000    ( 0.0000,  0.0000,  0.0000)
   6 Li     1.617037    8.085185   10.000000    ( 0.0000,  0.0000,  0.0000)
   7 Li     4.851111    8.085185   10.000000    ( 0.0000,  0.0000,  0.0000)
   8 Li     8.085185    8.085185   10.000000    ( 0.0000,  0.0000,  0.0000)
   9 Li     0.000000    0.000000   11.617037    ( 0.0000,  0.0000,  0.0000)
  10 Li     3.234074    0.000000   11.617037    ( 0.0000,  0.0000,  0.0000)
  11 Li     6.468148    0.000000   11.617037    ( 0.0000,  0.0000,  0.0000)
  12 Li     0.000000    3.234074   11.617037    ( 0.0000,  0.0000,  0.0000)
  13 Li     3.234074    3.234074   11.617037    ( 0.0000,  0.0000,  0.0000)
  14 Li     6.468148    3.234074   11.617037    ( 0.0000,  0.0000,  0.0000)
  15 Li     0.000000    6.468148   11.617037    ( 0.0000,  0.0000,  0.0000)
  16 Li     3.234074    6.468148   11.617037    ( 0.0000,  0.0000,  0.0000)
  17 Li     6.468148    6.468148   11.617037    ( 0.0000,  0.0000,  0.0000)
  18 Li     1.616782    1.617187   13.471036    ( 0.0000,  0.0000,  0.0000)
  19 Li     4.851168    1.617258   13.470753    ( 0.0000,  0.0000,  0.0000)
  20 Li     8.085365    1.616622   13.464755    ( 0.0000,  0.0000,  0.0000)
  21 Li     1.616261    4.850457   13.470992    ( 0.0000,  0.0000,  0.0000)
  22 Li     4.851973    4.850559   13.470978    ( 0.0000,  0.0000,  0.0000)
  23 Li     8.085061    4.852268   13.467502    ( 0.0000,  0.0000,  0.0000)
  24 Li     1.616961    8.085648   13.471015    ( 0.0000,  0.0000,  0.0000)
  25 Li     4.851051    8.085440   13.470622    ( 0.0000,  0.0000,  0.0000)
  26 Li     8.085302    8.085015   13.471038    ( 0.0000,  0.0000,  0.0000)
  27 Li     0.000177   -0.002508   15.440950    ( 0.0000,  0.0000,  0.0000)
  28 Li     3.235551    0.000367   15.443956    ( 0.0000,  0.0000,  0.0000)
  29 Li     6.467447   -0.001902   15.445175    ( 0.0000,  0.0000,  0.0000)
  30 Li    -0.002000    3.235636   15.445759    ( 0.0000,  0.0000,  0.0000)
  31 Li     3.234469    3.236687   15.439348    ( 0.0000,  0.0000,  0.0000)
  32 Li     6.469012    3.234787   15.448125    ( 0.0000,  0.0000,  0.0000)
  33 Li     0.000702    6.469364   15.445094    ( 0.0000,  0.0000,  0.0000)
  34 Li     3.233936    6.467625   15.445844    ( 0.0000,  0.0000,  0.0000)
  35 Li     6.467582    6.469462   15.445456    ( 0.0000,  0.0000,  0.0000)
  36 O      8.090354    1.566102   18.586377    ( 0.0000,  0.0000,  0.0000)
  37 O     12.946077    1.594027   18.443815    ( 0.0000,  0.0000,  0.0000)
  38 C     10.483269    1.615578   18.465217    ( 0.0000,  0.0000,  0.0000)
  39 C      9.246207    0.733381   18.476508    ( 0.0000,  0.0000,  0.0000)
  40 C     11.765755    0.787171   18.440017    ( 0.0000,  0.0000,  0.0000)
  41 H     10.462028    2.275128   17.587960    ( 0.0000,  0.0000,  0.0000)
  42 H     10.481456    2.254656   19.349199    ( 0.0000,  0.0000,  0.0000)
  43 H      9.222755    0.105919   17.567250    ( 0.0000,  0.0000,  0.0000)
  44 H      9.224912    0.087808   19.343709    ( 0.0000,  0.0000,  0.0000)
  45 H     11.762878    0.108705   17.569273    ( 0.0000,  0.0000,  0.0000)
  46 H     11.840102    0.167580   19.336164    ( 0.0000,  0.0000,  0.0000)
  47 H      7.280364    1.058006   18.459723    ( 0.0000,  0.0000,  0.0000)
  48 H     12.916452    2.171342   17.663915    ( 0.0000,  0.0000,  0.0000)
  49 N      8.063853    1.649215   16.820129    ( 0.0000,  0.0000,  0.0000)
  50 N      8.082357    2.777013   16.863229    ( 0.0000,  0.0000,  0.0000)

Unit cell:
           periodic     x           y           z      points  spacing
  1. axis:    yes    9.702222    0.000000    0.000000    60     0.1617
  2. axis:    yes    0.000000    9.702222    0.000000    60     0.1617
  3. axis:    no     0.000000    0.000000   28.351111   176     0.1611

  Lengths:   9.702222   9.702222  28.351111
  Angles:   90.000000  90.000000  90.000000

Effective grid spacing dv^(1/3) = 0.1615

     iter     time        total  log10-change:
                         energy  eigst   dens
iter:   1 20:51:58  -348.914037  -0.93
iter:   2 20:52:06  -348.902418  -1.32  -1.96
iter:   3 20:52:14  -348.897309c -1.80  -2.01
iter:   4 20:52:22  -348.899485c -2.01  -2.33
Writing to output.gpw (mode='')

iter:   5 20:52:30  -348.887478c -1.89  -2.32
iter:   6 20:52:38  -348.887185c -2.53  -2.28
iter:   7 20:52:45  -348.886188c -2.45  -2.39
iter:   8 20:52:53  -348.884951c -2.49  -2.66
iter:   9 20:53:01  -348.885222c -2.78  -2.64
Writing to output.gpw (mode='')

iter:  10 20:53:09  -348.885332c -2.94  -2.83
iter:  11 20:53:17  -348.886638c -2.91  -2.80
iter:  12 20:53:25  -348.885613c -3.38  -2.79
iter:  13 20:53:33  -348.885394c -3.56  -3.00
iter:  14 20:53:40  -348.885339c -3.87  -3.10
Writing to output.gpw (mode='')

iter:  15 20:53:48  -348.885430c -3.70  -3.16
iter:  16 20:53:56  -348.885290c -4.08  -3.38
iter:  17 20:54:04  -348.885317c -4.33  -3.51
iter:  18 20:54:12  -348.885331c -4.46  -3.59
iter:  19 20:54:20  -348.885430c -4.42  -3.62
Writing to output.gpw (mode='')

iter:  20 20:54:28  -348.885355c -4.70  -3.76
iter:  21 20:54:36  -348.885382c -4.61  -3.81
iter:  22 20:54:48  -348.885346c -4.64  -3.84
iter:  23 20:54:56  -348.885425c -4.74  -3.91
iter:  24 20:55:04  -348.885383c -4.98  -4.04c
Writing to output.gpw (mode='')

iter:  25 20:55:12  -348.885368c -5.02  -4.20c
iter:  26 20:55:20  -348.885411c -5.18  -4.26c
iter:  27 20:55:28  -348.885402c -5.49  -4.30c
iter:  28 20:55:36  -348.885403c -5.40  -4.53c
iter:  29 20:55:44  -348.885402c -5.35  -4.55c
Writing to output.gpw (mode='')

iter:  30 20:55:52  -348.885405c -5.73  -4.56c
iter:  31 20:55:59  -348.885402c -5.76  -4.60c
iter:  32 20:56:07  -348.885411c -5.85  -4.54c
iter:  33 20:56:15  -348.885401c -5.87  -4.70c
iter:  34 20:56:23  -348.885406c -6.13  -4.78c
Writing to output.gpw (mode='')

iter:  35 20:56:31  -348.885406c -6.28  -5.03c
iter:  36 20:56:39  -348.885407c -6.15  -5.08c
iter:  37 20:56:47  -348.885409c -6.09  -5.19c
iter:  38 20:56:55  -348.885408c -6.59  -5.24c
iter:  39 20:57:02  -348.885409c -6.46  -5.33c
Writing to output.gpw (mode='')

iter:  40 20:57:10  -348.885409c -6.55  -5.35c
iter:  41 20:57:18  -348.885410c -6.57  -5.38c
iter:  42 20:57:26  -348.885409c -6.96  -5.44c
iter:  43 20:57:34  -348.885409c -6.69  -5.54c
iter:  44 20:57:42  -348.885410c -6.88  -5.66c
Writing to output.gpw (mode='')

iter:  45 20:57:50  -348.885410c -6.96  -5.73c
iter:  46 20:57:58  -348.885410c -6.89  -5.83c
iter:  47 20:58:05  -348.885410c -7.10  -5.95c
iter:  48 20:58:13  -348.885411c -7.11  -5.92c
iter:  49 20:58:21  -348.885411c -7.41c -5.95c

Converged after 49 iterations.

Dipole moment: (5.189145, -17.202218, 0.118220) |e|*Ang

Energy contributions relative to reference atoms: (reference = -17528.314784)

Kinetic:       +198.831529
Potential:     -186.977299
External:        +0.000000
XC:            -361.817936
Entropy (-ST):   -0.166985
Local:           +1.161787
--------------------------
Free energy:   -348.968903
Extrapolated:  -348.885411

Dipole-layer corrected work functions: 3.394579, 3.167320 eV

Showing only first 2 kpts
 Kpt  Band  Eigenvalues  Occupancy
  0    37     -3.51717    1.98240
  0    38     -3.43678    1.91514
  0    39     -3.18204    0.24304
  0    40     -3.04643    0.01820

  1    37     -3.34754    1.58230
  1    38     -3.30705    1.25525
  1    39     -3.23652    0.58283
  1    40     -3.15995    0.16331


Fermi level: -3.28095

No gap
Writing to output.gpw (mode='')


Forces in eV/Ang:
  0 Li    0.02648    0.00882   -0.27182
  1 Li   -0.02378    0.00820   -0.27872
  2 Li   -0.00194   -0.00866   -0.28374
  3 Li    0.01310   -0.00327   -0.28376
  4 Li   -0.01476   -0.00597   -0.28073
  5 Li    0.00266    0.02035   -0.27987
  6 Li   -0.00190   -0.00309   -0.27029
  7 Li    0.00032    0.00130   -0.27727
  8 Li    0.00112   -0.01509   -0.26767
  9 Li   -0.00632   -0.00677    0.29796
 10 Li    0.00181    0.01428    0.24612
 11 Li    0.00447   -0.00722    0.29270
 12 Li   -0.00844    0.00029    0.32466
 13 Li    0.00106   -0.00625    0.21917
 14 Li    0.00559   -0.00705    0.32541
 15 Li   -0.00250    0.01264    0.23837
 16 Li   -0.00240   -0.01172    0.27064
 17 Li    0.00531    0.01838    0.25050
 18 Li   -0.01277    0.00637    0.05585
 19 Li    0.00448    0.00930    0.04619
 20 Li    0.00742   -0.01847   -0.21024
 21 Li   -0.03390   -0.02838    0.05535
 22 Li    0.03769   -0.02436    0.05438
 23 Li   -0.00515    0.04922   -0.09041
 24 Li   -0.00254    0.01853    0.05448
 25 Li   -0.00231    0.01015    0.03922
 26 Li    0.00464   -0.00668    0.05441
 27 Li    0.00919   -0.10828   -0.20744
 28 Li    0.06428    0.01684   -0.08158
 29 Li   -0.02813   -0.07955   -0.03564
 30 Li   -0.05060    0.06980   -0.02642
 31 Li    0.01754    0.11359   -0.28605
 32 Li    0.00007    0.03402    0.07130
 33 Li    0.02780    0.04794   -0.03778
 34 Li   -0.00551   -0.02198   -0.00465
 35 Li   -0.02283    0.05225   -0.02272
 36 O     0.06414   -2.13604    5.64697
 37 O    -0.04707   -0.14296    0.19714
 38 C     0.01372    0.00453    0.19839
 39 C     0.68662   -0.65220    1.27531
 40 C     0.09045    0.06018    0.15407
 41 H     0.12729   -0.05019    0.10765
 42 H     0.02493    0.07721    0.03097
 43 H    -0.14614   -0.10611    0.47250
 44 H     0.40021   -0.50585    0.22918
 45 H    -0.06291   -0.03495    0.01177
 46 H    -0.01359   -0.06172   -0.01899
 47 H    -0.23267   -0.48469    0.74567
 48 H     0.06193    0.00964   -0.08792
 49 N    -0.89027    0.16291   -5.01246
 50 N    -0.09237    3.63792   -3.34765

System changes: positions 

Initializing position-dependent things.

Density initialized from wave functions
       .-----------------------.  
      /|                       |  
     / |                       |  
    /  |                       |  
   /   |                       |  
  /    |                       |  
 *     |                       |  
 |     |                       |  
 |     |                       |  
 |     |                       |  
 |     |                       |  
 |     |                       |  
 |     |                       |  
 |     |                       |  
 |     |                       |  
 |     |                       |  
 |  H  Li              Li      |  
 |  C H|  O           O H      |  
 |  HLiC  H  Li     HLiNC      |  
 |    H|  Li      Li  N H Li   |  
 |     |   Li      Li      Li  |  
 |     |Li      Li      Li     |  
 |     | Li                    |  
 |   LLi     LLi     LLi       |  
 |     |  Li      Li      Li   |  
 | Li  |   Li      Li          |  
 |     |Li      Li      Li     |  
 Li    | Li      Li            |  
 |    Li      Li      Li       |  
 |     |                       |  
 |     |                       |  
 |     |                       |  
 |     |                       |  
 |     |                       |  
 |     |                       |  
 |     .-----------------------.  
 |    /                       /   
 |   /                       /    
 |  /                       /     
 | /                       /      
 |/                       /       
 *-----------------------*        

Positions:
   0 Li     1.617037    1.617037   10.000000    ( 0.0000,  0.0000,  0.0000)
   1 Li     4.851111    1.617037   10.000000    ( 0.0000,  0.0000,  0.0000)
   2 Li     8.085185    1.617037   10.000000    ( 0.0000,  0.0000,  0.0000)
   3 Li     1.617037    4.851111   10.000000    ( 0.0000,  0.0000,  0.0000)
   4 Li     4.851111    4.851111   10.000000    ( 0.0000,  0.0000,  0.0000)
   5 Li     8.085185    4.851111   10.000000    ( 0.0000,  0.0000,  0.0000)
   6 Li     1.617037    8.085185   10.000000    ( 0.0000,  0.0000,  0.0000)
   7 Li     4.851111    8.085185   10.000000    ( 0.0000,  0.0000,  0.0000)
   8 Li     8.085185    8.085185   10.000000    ( 0.0000,  0.0000,  0.0000)
   9 Li     0.000000    0.000000   11.617037    ( 0.0000,  0.0000,  0.0000)
  10 Li     3.234074    0.000000   11.617037    ( 0.0000,  0.0000,  0.0000)
  11 Li     6.468148    0.000000   11.617037    ( 0.0000,  0.0000,  0.0000)
  12 Li     0.000000    3.234074   11.617037    ( 0.0000,  0.0000,  0.0000)
  13 Li     3.234074    3.234074   11.617037    ( 0.0000,  0.0000,  0.0000)
  14 Li     6.468148    3.234074   11.617037    ( 0.0000,  0.0000,  0.0000)
  15 Li     0.000000    6.468148   11.617037    ( 0.0000,  0.0000,  0.0000)
  16 Li     3.234074    6.468148   11.617037    ( 0.0000,  0.0000,  0.0000)
  17 Li     6.468148    6.468148   11.617037    ( 0.0000,  0.0000,  0.0000)
  18 Li     1.616649    1.617245   13.471526    ( 0.0000,  0.0000,  0.0000)
  19 Li     4.851219    1.617351   13.471198    ( 0.0000,  0.0000,  0.0000)
  20 Li     8.085434    1.616413   13.462730    ( 0.0000,  0.0000,  0.0000)
  21 Li     1.615919    4.850176   13.471540    ( 0.0000,  0.0000,  0.0000)
  22 Li     4.852359    4.850302   13.471516    ( 0.0000,  0.0000,  0.0000)
  23 Li     8.085007    4.852754   13.466661    ( 0.0000,  0.0000,  0.0000)
  24 Li     1.616943    8.085810   13.471521    ( 0.0000,  0.0000,  0.0000)
  25 Li     4.851038    8.085527   13.471020    ( 0.0000,  0.0000,  0.0000)
  26 Li     8.085338    8.084949   13.471515    ( 0.0000,  0.0000,  0.0000)
  27 Li     0.000211   -0.003439   15.439382    ( 0.0000,  0.0000,  0.0000)
  28 Li     3.236169    0.000531   15.443241    ( 0.0000,  0.0000,  0.0000)
  29 Li     6.467275   -0.002538   15.444912    ( 0.0000,  0.0000,  0.0000)
  30 Li    -0.001829    3.236244   15.445407    ( 0.0000,  0.0000,  0.0000)
  31 Li     3.234641    3.237812   15.436555    ( 0.0000,  0.0000,  0.0000)
  32 Li     6.468302    3.235016   15.448624    ( 0.0000,  0.0000,  0.0000)
  33 Li     0.000950    6.469731   15.444690    ( 0.0000,  0.0000,  0.0000)
  34 Li     3.233898    6.467423   15.445782    ( 0.0000,  0.0000,  0.0000)
  35 Li     6.467361    6.469871   15.445189    ( 0.0000,  0.0000,  0.0000)
  36 O      8.090325    1.560540   18.617570    ( 0.0000,  0.0000,  0.0000)
  37 O     12.946510    1.593669   18.444482    ( 0.0000,  0.0000,  0.0000)
  38 C     10.483638    1.614729   18.467138    ( 0.0000,  0.0000,  0.0000)
  39 C      9.245467    0.731291   18.483617    ( 0.0000,  0.0000,  0.0000)
  40 C     11.766062    0.787516   18.441044    ( 0.0000,  0.0000,  0.0000)
  41 H     10.462803    2.274354   17.589156    ( 0.0000,  0.0000,  0.0000)
  42 H     10.481768    2.255579   19.349787    ( 0.0000,  0.0000,  0.0000)
  43 H      9.221485    0.105357   17.571685    ( 0.0000,  0.0000,  0.0000)
  44 H      9.231110    0.080175   19.347488    ( 0.0000,  0.0000,  0.0000)
  45 H     11.762330    0.108652   17.569734    ( 0.0000,  0.0000,  0.0000)
  46 H     11.840031    0.166916   19.336155    ( 0.0000,  0.0000,  0.0000)
  47 H      7.281823    1.054777   18.464045    ( 0.0000,  0.0000,  0.0000)
  48 H     12.917038    2.170718   17.664197    ( 0.0000,  0.0000,  0.0000)
  49 N      8.056736    1.658733   16.781936    ( 0.0000,  0.0000,  0.0000)
  50 N      8.081494    2.786633   16.849989    ( 0.0000,  0.0000,  0.0000)

Unit cell:
           periodic     x           y           z      points  spacing
  1. axis:    yes    9.702222    0.000000    0.000000    60     0.1617
  2. axis:    yes    0.000000    9.702222    0.000000    60     0.1617
  3. axis:    no     0.000000    0.000000   28.351111   176     0.1611

  Lengths:   9.702222   9.702222  28.351111
  Angles:   90.000000  90.000000  90.000000

Effective grid spacing dv^(1/3) = 0.1615

     iter     time        total  log10-change:
                         energy  eigst   dens
iter:   1 20:58:31  -349.356724  -1.02
iter:   2 20:58:39  -349.354485  -1.51  -2.14
iter:   3 20:58:47  -349.353783c -1.95  -2.19
iter:   4 20:58:55  -349.353840c -2.11  -2.48
Writing to output.gpw (mode='')

iter:   5 20:59:03  -349.351336c -2.16  -2.49
iter:   6 20:59:11  -349.350964c -2.21  -2.44
iter:   7 20:59:19  -349.347734c -2.44  -2.50
iter:   8 20:59:27  -349.346939c -2.88  -2.80
iter:   9 20:59:34  -349.347343c -2.90  -2.89
Writing to output.gpw (mode='')

iter:  10 20:59:47  -349.347268c -3.25  -3.11
iter:  11 20:59:57  -349.347021c -3.66  -3.17
iter:  12 21:00:05  -349.347375c -3.58  -3.24
iter:  13 21:00:13  -349.347467c -3.75  -3.23
iter:  14 21:00:21  -349.347126c -3.96  -3.27
Writing to output.gpw (mode='')

iter:  15 21:00:29  -349.347136c -4.06  -3.63
iter:  16 21:00:37  -349.347218c -4.31  -3.68
iter:  17 21:00:45  -349.347196c -4.36  -3.79
iter:  18 21:00:53  -349.347221c -4.48  -3.89
iter:  19 21:01:01  -349.347245c -4.46  -3.98
Writing to output.gpw (mode='')

iter:  20 21:01:09  -349.347227c -4.63  -4.04c
iter:  21 21:01:17  -349.347269c -4.74  -4.12c
iter:  22 21:01:25  -349.347262c -4.80  -4.08c
iter:  23 21:01:33  -349.347257c -5.23  -4.17c
iter:  24 21:01:41  -349.347272c -5.09  -4.30c
Writing to output.gpw (mode='')

iter:  25 21:01:49  -349.347275c -5.58  -4.41c
iter:  26 21:01:57  -349.347277c -5.53  -4.45c
iter:  27 21:02:05  -349.347281c -5.44  -4.61c
iter:  28 21:02:13  -349.347266c -5.53  -4.53c
iter:  29 21:02:21  -349.347275c -5.67  -4.59c
Writing to output.gpw (mode='')

iter:  30 21:02:29  -349.347275c -5.60  -4.63c
iter:  31 21:02:37  -349.347277c -5.66  -4.66c
iter:  32 21:02:45  -349.347287c -5.86  -4.64c
iter:  33 21:02:53  -349.347288c -6.19  -4.93c
iter:  34 21:03:00  -349.347287c -6.17  -4.97c
Writing to output.gpw (mode='')

iter:  35 21:03:09  -349.347290c -6.23  -5.11c
iter:  36 21:03:17  -349.347291c -6.20  -5.06c
iter:  37 21:03:24  -349.347291c -6.51  -5.16c
iter:  38 21:03:32  -349.347288c -6.35  -5.13c
iter:  39 21:03:40  -349.347289c -6.48  -5.13c
Writing to output.gpw (mode='')

iter:  40 21:03:48  -349.347290c -6.51  -5.25c
iter:  41 21:03:56  -349.347292c -6.53  -5.23c
iter:  42 21:04:04  -349.347293c -6.57  -5.22c
iter:  43 21:04:12  -349.347294c -6.74  -5.27c
iter:  44 21:04:20  -349.347294c -6.74  -5.26c
Writing to output.gpw (mode='')

iter:  45 21:04:28  -349.347294c -6.88  -5.26c
iter:  46 21:04:36  -349.347291c -6.93  -5.22c
iter:  47 21:04:51  -349.347292c -7.08  -5.22c
iter:  48 21:04:59  -349.347294c -7.03  -5.23c
iter:  49 21:05:07  -349.347294c -7.15  -5.22c
Writing to output.gpw (mode='')

iter:  50 21:05:15  -349.347295c -7.17  -5.15c
iter:  51 21:05:22  -349.347295c -7.19  -5.23c
iter:  52 21:05:30  -349.347293c -7.39  -5.19c
iter:  53 21:05:38  -349.347292c -7.14  -5.14c
iter:  54 21:05:46  -349.347296c -7.41c -5.19c

Converged after 54 iterations.

Dipole moment: (5.134262, -17.048416, 0.074549) |e|*Ang

Energy contributions relative to reference atoms: (reference = -17528.314784)

Kinetic:       +196.519476
Potential:     -185.408358
External:        +0.000000
XC:            -361.538681
Entropy (-ST):   -0.167973
Local:           +1.164254
--------------------------
Free energy:   -349.431283
Extrapolated:  -349.347296

Dipole-layer corrected work functions: 3.397485, 3.254177 eV

Showing only first 2 kpts
 Kpt  Band  Eigenvalues  Occupancy
  0    37     -3.55927    1.98141
  0    38     -3.48190    1.91553
  0    39     -3.22937    0.25369
  0    40     -3.09090    0.01805

  1    37     -3.39207    1.57995
  1    38     -3.34955    1.23286
  1    39     -3.28381    0.60288
  1    40     -3.20129    0.15300


Fermi level: -3.32583

No gap
Writing to output.gpw (mode='')


Forces in eV/Ang:
  0 Li    0.02683    0.00890   -0.27239
  1 Li   -0.02408    0.00834   -0.27885
  2 Li   -0.00191   -0.00841   -0.28350
  3 Li    0.01283   -0.00248   -0.28387
  4 Li   -0.01456   -0.00490   -0.28124
  5 Li    0.00232    0.02038   -0.28033
  6 Li   -0.00130   -0.00269   -0.27142
  7 Li   -0.00015    0.00154   -0.27784
  8 Li    0.00085   -0.01628   -0.26756
  9 Li   -0.00615   -0.00665    0.29768
 10 Li    0.00121    0.01399    0.24686
 11 Li    0.00449   -0.00673    0.29216
 12 Li   -0.00866    0.00087    0.32512
 13 Li    0.00076   -0.00702    0.21983
 14 Li    0.00607   -0.00687    0.32637
 15 Li   -0.00230    0.01404    0.23785
 16 Li   -0.00189   -0.01320    0.26906
 17 Li    0.00495    0.01930    0.24906
 18 Li   -0.01274    0.00596    0.05181
 19 Li    0.00490    0.00867    0.04486
 20 Li    0.00679   -0.01799   -0.19826
 21 Li   -0.03324   -0.02790    0.05403
 22 Li    0.03719   -0.02449    0.05275
 23 Li   -0.00502    0.04848   -0.08524
 24 Li   -0.00215    0.01659    0.05216
 25 Li   -0.00129    0.00940    0.03955
 26 Li    0.00400   -0.00707    0.04981
 27 Li    0.00444   -0.09810   -0.18521
 28 Li    0.06304    0.01669   -0.07578
 29 Li   -0.01746   -0.06604   -0.02826
 30 Li   -0.03001    0.06029   -0.02539
 31 Li    0.01750    0.11250   -0.28164
 32 Li   -0.02199    0.02722    0.06518
 33 Li    0.02557    0.04216   -0.03816
 34 Li   -0.00470   -0.02061   -0.00534
[...]
--------------------------
Free energy:   -353.314043
Extrapolated:  -353.227796

Dipole-layer corrected work functions: 3.406604, 3.038663 eV

Showing only first 2 kpts
 Kpt  Band  Eigenvalues  Occupancy
  0    37     -3.43548    1.97206
  0    38     -3.28425    1.54845
  0    39     -3.18638    0.65252
  0    40     -3.06541    0.08262

  1    37     -3.43454    1.97154
  1    38     -3.27042    1.44453
  1    39     -3.11616    0.21253
  1    40     -3.09443    0.14298


Fermi level: -3.22263

No gap
Writing to output.gpw (mode='')


Forces in eV/Ang:
  0 Li   -0.01736    0.00246   -0.28218
  1 Li    0.02843    0.00166   -0.28018
  2 Li    0.00055   -0.00046   -0.28148
  3 Li    0.01078    0.01048   -0.29463
  4 Li   -0.00671    0.00525   -0.29890
  5 Li    0.00411   -0.01606   -0.27589
  6 Li    0.00761   -0.01428   -0.28824
  7 Li   -0.00213   -0.00679   -0.28378
  8 Li    0.00331    0.01566   -0.29587
  9 Li    0.00317   -0.02122    0.27429
 10 Li   -0.00170   -0.00413    0.27830
 11 Li   -0.05236   -0.02760    0.24660
 12 Li    0.01918    0.03418    0.23884
 13 Li    0.00481    0.02187    0.31530
 14 Li   -0.07317    0.02709    0.22254
 15 Li    0.01878    0.01354    0.30366
 16 Li   -0.00051    0.00176    0.42270
 17 Li   -0.05622    0.01699    0.30130
 18 Li    0.01444   -0.01395   -0.01013
 19 Li   -0.00641   -0.00073   -0.00904
 20 Li    0.00222   -0.00414    0.02126
 21 Li   -0.00355   -0.00300   -0.00622
 22 Li    0.00736    0.00371   -0.00229
 23 Li   -0.00278   -0.01575    0.00073
 24 Li   -0.00628   -0.01238   -0.00124
 25 Li    0.00262   -0.00156   -0.00806
 26 Li   -0.00028    0.00089   -0.00182
 27 Li   -0.00979    0.00398   -0.00826
 28 Li   -0.00294   -0.00319    0.02924
 29 Li    0.01098    0.00272    0.01256
 30 Li   -0.01707   -0.01366   -0.00159
 31 Li    0.00266    0.00948    0.00510
 32 Li    0.00918   -0.01270    0.00295
 33 Li    0.00386   -0.00544   -0.00569
 34 Li    0.00076   -0.00062    0.00202
 35 Li    0.00153   -0.00182   -0.00902
 36 O     0.01054   -0.02175   -0.00684
 37 O    -0.00020    0.04972   -0.02202
 38 C     0.01147   -0.00078   -0.00311
 39 C    -0.00639    0.00115    0.01020
 40 C    -0.00060   -0.00958    0.00784
 41 H     0.02730   -0.01472   -0.01697
 42 H     0.00589    0.00519    0.00094
 43 H    -0.01116   -0.00357   -0.00391
 44 H    -0.00219    0.01800   -0.00929
 45 H    -0.01061    0.00098    0.00974
 46 H     0.00633    0.00742    0.02095
 47 H    -0.01922    0.00398    0.01029
 48 H     0.02059    0.01510    0.01793
 49 N     0.00874   -0.00762   -0.03150
 50 N    -0.00890   -0.04229   -0.00622

System changes: positions 

Initializing position-dependent things.

Density initialized from wave functions
       .-----------------------.  
      /|                       |  
     / |                       |  
    /  |                       |  
   /   |                       |  
  /    |                       |  
 *     |                       |  
 |     |                       |  
 |     |                       |  
 |     |                       |  
 |     |                       H  
 |     |                       |  
 |     |   CH                  |  
 |     | H                     |  
 |     |              H O      |  
 |    H|                       |  
 |     |                 C     |  
 |  C  |               H       |  
 |     |  H  Li      Li      Li|  
 |     |O Li      Li      Li   |  
 |     |   Li      Li N   Li   |  
 |     |LLi     Li    N Li     |  
 |     |          Li    Li     |  
 |   LLi     LLi     Li        |  
 |     |  Li      Li  Li  Li   |  
 | Li  |   Li      Li          |  
 |     |Li      Li      Li     |  
 Li    | Li      Li            |  
 |    Li      Li      Li       |  
 |     |                       |  
 |     |                       |  
 |     |                       |  
 |     |                       |  
 |     |                       |  
 |     |                       |  
 |     .-----------------------.  
 |    /                       /   
 |   /                       /    
 |  /                       /     
 | /                       /      
 |/                       /       
 *-----------------------*        

Positions:
   0 Li     1.617037    1.617037   10.000000    ( 0.0000,  0.0000,  0.0000)
   1 Li     4.851111    1.617037   10.000000    ( 0.0000,  0.0000,  0.0000)
   2 Li     8.085185    1.617037   10.000000    ( 0.0000,  0.0000,  0.0000)
   3 Li     1.617037    4.851111   10.000000    ( 0.0000,  0.0000,  0.0000)
   4 Li     4.851111    4.851111   10.000000    ( 0.0000,  0.0000,  0.0000)
   5 Li     8.085185    4.851111   10.000000    ( 0.0000,  0.0000,  0.0000)
   6 Li     1.617037    8.085185   10.000000    ( 0.0000,  0.0000,  0.0000)
   7 Li     4.851111    8.085185   10.000000    ( 0.0000,  0.0000,  0.0000)
   8 Li     8.085185    8.085185   10.000000    ( 0.0000,  0.0000,  0.0000)
   9 Li     0.000000    0.000000   11.617037    ( 0.0000,  0.0000,  0.0000)
  10 Li     3.234074    0.000000   11.617037    ( 0.0000,  0.0000,  0.0000)
  11 Li     6.468148    0.000000   11.617037    ( 0.0000,  0.0000,  0.0000)
  12 Li     0.000000    3.234074   11.617037    ( 0.0000,  0.0000,  0.0000)
  13 Li     3.234074    3.234074   11.617037    ( 0.0000,  0.0000,  0.0000)
  14 Li     6.468148    3.234074   11.617037    ( 0.0000,  0.0000,  0.0000)
  15 Li     0.000000    6.468148   11.617037    ( 0.0000,  0.0000,  0.0000)
  16 Li     3.234074    6.468148   11.617037    ( 0.0000,  0.0000,  0.0000)
  17 Li     6.468148    6.468148   11.617037    ( 0.0000,  0.0000,  0.0000)
  18 Li     1.598046    1.627713   13.503565    ( 0.0000,  0.0000,  0.0000)
  19 Li     4.823048    1.603169   13.556692    ( 0.0000,  0.0000,  0.0000)
  20 Li     8.049277    1.648786   13.265127    ( 0.0000,  0.0000,  0.0000)
  21 Li     1.538569    4.807874   13.581107    ( 0.0000,  0.0000,  0.0000)
  22 Li     4.902533    4.803279   13.583340    ( 0.0000,  0.0000,  0.0000)
  23 Li     8.056898    4.851290   13.506848    ( 0.0000,  0.0000,  0.0000)
  24 Li     1.582334    8.179220   13.603044    ( 0.0000,  0.0000,  0.0000)
  25 Li     4.849753    8.183860   13.638657    ( 0.0000,  0.0000,  0.0000)
  26 Li     8.045798    8.074911   13.496040    ( 0.0000,  0.0000,  0.0000)
  27 Li    -0.363562    0.180531   15.440192    ( 0.0000,  0.0000,  0.0000)
  28 Li     3.180420    0.011129   15.849445    ( 0.0000,  0.0000,  0.0000)
  29 Li     6.616913    0.222391   15.619244    ( 0.0000,  0.0000,  0.0000)
  30 Li    -0.290638    3.086445   15.572765    ( 0.0000,  0.0000,  0.0000)
  31 Li     3.220281    3.293526   15.491880    ( 0.0000,  0.0000,  0.0000)
  32 Li     6.584808    3.065171   15.650101    ( 0.0000,  0.0000,  0.0000)
  33 Li    -0.020298    6.503779   15.500100    ( 0.0000,  0.0000,  0.0000)
  34 Li     3.219812    6.420756   15.461899    ( 0.0000,  0.0000,  0.0000)
  35 Li     6.452814    6.510887   15.554701    ( 0.0000,  0.0000,  0.0000)
  36 O      8.863416    1.737730   20.623251    ( 0.0000,  0.0000,  0.0000)
  37 O     12.522411    0.350152   17.718132    ( 0.0000,  0.0000,  0.0000)
  38 C     10.682450    1.089494   19.211597    ( 0.0000,  0.0000,  0.0000)
  39 C      9.393021    0.628329   19.880277    ( 0.0000,  0.0000,  0.0000)
  40 C     11.407787   -0.075907   18.551262    ( 0.0000,  0.0000,  0.0000)
  41 H     10.435953    1.848734   18.464043    ( 0.0000,  0.0000,  0.0000)
  42 H     11.326008    1.558734   19.964254    ( 0.0000,  0.0000,  0.0000)
  43 H      8.680851    0.303090   19.113097    ( 0.0000,  0.0000,  0.0000)
  44 H      9.590502   -0.219167   20.553522    ( 0.0000,  0.0000,  0.0000)
  45 H     10.749388   -0.614791   17.864812    ( 0.0000,  0.0000,  0.0000)
  46 H     11.773716   -0.793998   19.292499    ( 0.0000,  0.0000,  0.0000)
  47 H      7.947231    1.538371   20.843174    ( 0.0000,  0.0000,  0.0000)
  48 H     13.183280    0.800149   18.262836    ( 0.0000,  0.0000,  0.0000)
  49 N      8.010573    1.667202   15.066668    ( 0.0000,  0.0000,  0.0000)
  50 N      7.988555    1.644013   16.343138    ( 0.0000,  0.0000,  0.0000)

Unit cell:
           periodic     x           y           z      points  spacing
  1. axis:    yes    9.702222    0.000000    0.000000    60     0.1617
  2. axis:    yes    0.000000    9.702222    0.000000    60     0.1617
  3. axis:    no     0.000000    0.000000   28.351111   176     0.1611

  Lengths:   9.702222   9.702222  28.351111
  Angles:   90.000000  90.000000  90.000000

Effective grid spacing dv^(1/3) = 0.1615

     iter     time        total  log10-change:
                         energy  eigst   dens
iter:   1 11:10:40  -353.230613  -2.96
iter:   2 11:10:48  -353.228305  -3.13  -2.55
iter:   3 11:10:56  -353.228169c -4.18  -2.57
iter:   4 11:11:04  -353.228211c -4.39  -3.17
Writing to output.gpw (mode='')

iter:   5 11:11:12  -353.228169c -4.05  -3.36
iter:   6 11:11:20  -353.228130c -4.30  -3.60
iter:   7 11:11:28  -353.228179c -4.67  -3.63
iter:   8 11:11:36  -353.228164c -5.21  -3.90
iter:   9 11:11:44  -353.228164c -5.35  -3.98
Writing to output.gpw (mode='')

iter:  10 11:11:52  -353.228168c -5.77  -4.13c
iter:  11 11:12:00  -353.228167c -5.92  -4.19c
iter:  12 11:12:09  -353.228167c -6.27  -4.37c
iter:  13 11:12:22  -353.228163c -6.21  -4.40c
iter:  14 11:12:32  -353.228170c -6.24  -4.54c
Writing to output.gpw (mode='')

iter:  15 11:12:39  -353.228168c -6.76  -4.59c
iter:  16 11:12:47  -353.228168c -6.85  -4.63c
iter:  17 11:12:55  -353.228166c -6.96  -4.80c
iter:  18 11:13:03  -353.228168c -7.29  -4.98c
iter:  19 11:13:11  -353.228168c -7.32  -5.04c
Writing to output.gpw (mode='')

iter:  20 11:13:19  -353.228168c -7.52c -5.16c

Converged after 20 iterations.

Dipole moment: (14.771053, -14.783904, 0.192259) |e|*Ang

Energy contributions relative to reference atoms: (reference = -17528.314784)

Kinetic:       +173.906356
Potential:     -167.742112
External:        +0.000000
XC:            -360.510715
Entropy (-ST):   -0.172397
Local:           +1.204502
--------------------------
Free energy:   -353.314366
Extrapolated:  -353.228168

Dipole-layer corrected work functions: 3.406732, 3.037145 eV

Showing only first 2 kpts
 Kpt  Band  Eigenvalues  Occupancy
  0    37     -3.43479    1.97207
  0    38     -3.28368    1.54933
  0    39     -3.18555    0.65137
  0    40     -3.06480    0.08276

  1    37     -3.43382    1.97153
  1    38     -3.27013    1.44776
  1    39     -3.11540    0.21227
  1    40     -3.09355    0.14247


Fermi level: -3.22194

No gap

Forces in eV/Ang:
  0 Li   -0.01737    0.00247   -0.28214
  1 Li    0.02834    0.00163   -0.28009
  2 Li    0.00054   -0.00048   -0.28144
  3 Li    0.01082    0.01059   -0.29473
  4 Li   -0.00667    0.00535   -0.29894
  5 Li    0.00424   -0.01602   -0.27588
  6 Li    0.00768   -0.01432   -0.28809
  7 Li   -0.00212   -0.00682   -0.28378
  8 Li    0.00342    0.01559   -0.29597
  9 Li    0.00290   -0.02096    0.27412
 10 Li   -0.00136   -0.00426    0.27734
 11 Li   -0.05220   -0.02725    0.24657
 12 Li    0.01938    0.03419    0.23879
 13 Li    0.00511    0.02210    0.31507
 14 Li   -0.07343    0.02719    0.22185
 15 Li    0.01832    0.01318    0.30418
 16 Li   -0.00060    0.00130    0.42270
 17 Li   -0.05634    0.01677    0.30157
 18 Li    0.01309   -0.01322   -0.00854
 19 Li   -0.00707   -0.00184   -0.00920
 20 Li    0.00468   -0.00617    0.01875
 21 Li   -0.00368   -0.00281   -0.00657
 22 Li    0.00692    0.00437   -0.00322
 23 Li   -0.00180   -0.01376   -0.00030
 24 Li   -0.00573   -0.01233   -0.00123
 25 Li    0.00295   -0.00084   -0.00661
 26 Li   -0.00082    0.00028   -0.00215
 27 Li   -0.00388   -0.00141   -0.00627
 28 Li   -0.00058   -0.00496    0.02053
 29 Li    0.00542   -0.00311    0.01269
 30 Li   -0.01893   -0.01778   -0.00126
 31 Li    0.00275    0.00991    0.00548
 32 Li    0.00726   -0.01096    0.00433
 33 Li    0.00341   -0.00579   -0.00563
 34 Li    0.00053   -0.00054    0.00216
 35 Li    0.00190   -0.00233   -0.00873
 36 O     0.01961   -0.01496   -0.00520
 37 O     0.00899    0.04772    0.00483
 38 C     0.00405    0.00078   -0.00519
 39 C    -0.00928    0.00516    0.00689
 40 C     0.00911   -0.00366    0.01331
 41 H     0.02765   -0.01162   -0.02073
 42 H     0.00561    0.00084   -0.00044
 43 H    -0.00494   -0.00729   -0.00142
 44 H    -0.00402    0.00975   -0.00685
 45 H    -0.00620    0.00565    0.00568
 46 H     0.00948    0.00801    0.01780
 47 H    -0.02491    0.00425    0.01189
 48 H     0.00128    0.00203    0.00314
 49 N     0.00030    0.00488   -0.02665
 50 N    -0.01232   -0.04256   -0.01136

Timing:                                      incl.     excl.
-------------------------------------------------------------------
Density initialized from wave functions:    14.484    14.478   0.0% |
 Symmetrize density:                         0.006     0.006   0.0% |
Forces:                                    104.810   104.810   0.2% |
Hamiltonian:                              1237.494     0.027   0.0% |
 Atomic:                                     0.045     0.045   0.0% |
  XC Correction:                             0.001     0.001   0.0% |
 Calculate atomic Hamiltonians:              0.132     0.132   0.0% |
 Communicate:                               20.638    20.638   0.0% |
 Hartree integrate/restrict:                 4.736     4.736   0.0% |
 Initialize Hamiltonian:                     0.000     0.000   0.0% |
 Poisson:                                   59.645    22.024   0.0% |
  Communicate from 1D:                       5.953     5.953   0.0% |
  Communicate from 2D:                       5.504     5.504   0.0% |
  Communicate to 1D:                         3.399     3.399   0.0% |
  Communicate to 2D:                         6.407     6.407   0.0% |
  FFT 1D:                                    8.008     8.008   0.0% |
  FFT 2D:                                    8.351     8.351   0.0% |
 XC 3D grid:                              1151.223   177.464   0.3% |
  VdW-DF integral:                         973.759     7.746   0.0% |
   Convolution:                             84.541    84.541   0.2% |
   FFT:                                     36.944    36.944   0.1% |
   gather:                                 334.881   334.881   0.6% |
   hmm1:                                    32.328    32.328   0.1% |
   hmm2:                                    42.767    42.767   0.1% |
   iFFT:                                    37.995    37.995   0.1% |
   potential:                              392.946    10.187   0.0% |
    collect:                                60.164    60.164   0.1% |
    p1:                                    174.759   174.759   0.3% |
    p2:                                     65.971    65.971   0.1% |
    sum:                                    81.864    81.864   0.2% |
   splines:                                  3.611     3.611   0.0% |
 vbar:                                       1.047     1.047   0.0% |
LCAO initialization:                         1.304     0.182   0.0% |
 LCAO eigensolver:                           0.212     0.001   0.0% |
  Calculate projections:                     0.000     0.000   0.0% |
  DenseAtomicCorrection:                     0.000     0.000   0.0% |
  Distribute overlap matrix:                 0.189     0.189   0.0% |
  Orbital Layouts:                           0.019     0.019   0.0% |
  Potential matrix:                          0.002     0.002   0.0% |
  Sum over cells:                            0.001     0.001   0.0% |
 LCAO to grid:                               0.739     0.739   0.0% |
 Set positions (LCAO WFS):                   0.171     0.117   0.0% |
  Basic WFS set positions:                   0.001     0.001   0.0% |
  Basis functions set positions:             0.000     0.000   0.0% |
  P tci:                                     0.000     0.000   0.0% |
  ST tci:                                    0.019     0.019   0.0% |
  mktci:                                     0.033     0.033   0.0% |
Redistribute:                                0.123     0.123   0.0% |
SCF-cycle:                               52311.233   798.740   1.5% ||
 Davidson:                               15332.467  4520.577   8.4% |--|
  Apply hamiltonian:                       984.379   984.379   1.8% ||
  Subspace diag:                          2861.706     0.785   0.0% |
   calc_h_matrix:                         1511.133   517.228   1.0% |
    Apply hamiltonian:                     993.906   993.906   1.8% ||
   diagonalize:                             78.709    78.709   0.1% |
   rotate_psi:                            1271.079  1271.079   2.4% ||
  calc. matrices:                         4880.505  2515.238   4.7% |-|
   Apply hamiltonian:                     2365.267  2365.267   4.4% |-|
  diagonalize:                              45.417    45.417   0.1% |
  rotate_psi:                             2039.884  2039.884   3.8% |-|
 Density:                                  262.467     0.178   0.0% |
  Atomic density matrices:                  27.834    27.834   0.1% |
  Mix:                                     110.317   110.317   0.2% |
  Multipole moments:                        14.540    14.540   0.0% |
  Pseudo density:                          109.597   109.435   0.2% |
   Symmetrize density:                       0.162     0.162   0.0% |
 Hamiltonian:                            35875.285     0.802   0.0% |
  Atomic:                                    1.504     1.487   0.0% |
   XC Correction:                            0.017     0.017   0.0% |
  Calculate atomic Hamiltonians:             2.213     2.213   0.0% |
  Communicate:                             503.106   503.106   0.9% |
  Hartree integrate/restrict:              139.267   139.267   0.3% |
  Poisson:                                1773.045   658.238   1.2% |
   Communicate from 1D:                    175.486   175.486   0.3% |
   Communicate from 2D:                    164.703   164.703   0.3% |
   Communicate to 1D:                      100.649   100.649   0.2% |
   Communicate to 2D:                      193.822   193.822   0.4% |
   FFT 1D:                                 237.253   237.253   0.4% |
   FFT 2D:                                 242.894   242.894   0.5% |
  XC 3D grid:                            33423.630  5250.967   9.7% |---|
   VdW-DF integral:                      28172.663   228.670   0.4% |
    Convolution:                          2492.088  2492.088   4.6% |-|
    FFT:                                  1089.149  1089.149   2.0% ||
    gather:                               9587.467  9587.467  17.8% |------|
    hmm1:                                  953.349   953.349   1.8% ||
    hmm2:                                 1261.425  1261.425   2.3% ||
    iFFT:                                 1120.838  1120.838   2.1% ||
    potential:                           11439.624   301.046   0.6% |
     collect:                             1779.899  1779.899   3.3% ||
     p1:                                  5152.216  5152.216   9.6% |---|
     p2:                                  1951.827  1951.827   3.6% ||
     sum:                                 2254.636  2254.636   4.2% |-|
    splines:                                 0.053     0.053   0.0% |
  vbar:                                     31.718    31.718   0.1% |
 Orthonormalize:                            42.275     0.029   0.0% |
  calc_s_matrix:                             6.909     6.909   0.0% |
  inverse-cholesky:                          9.981     9.981   0.0% |
  projections:                               0.005     0.005   0.0% |
  rotate_psi_s:                             25.351    25.351   0.0% |
Set symmetry:                                0.002     0.002   0.0% |
Other:                                     242.647   242.647   0.5% |
-------------------------------------------------------------------
Total:                                             53912.097 100.0%

Memory usage: 1.20 GiB
Date: Sat Mar 11 11:13:20 2023
