
  ___ ___ ___ _ _ _  
 |   |   |_  | | | | 
 | | | | | . | | | | 
 |__ |  _|___|_____|  22.8.0
 |___|_|             

User:   vazumah@c20.hercules
Date:   Mon Mar  6 05:13:05 2023
Arch:   x86_64
Pid:    21769
CWD:    /home/vazumah/Python_projects/LiNRR/Li_adsorb_studies/proton_donors/N2_with_proton_donor/Li_BCC_100/adsorbates/methanol_z/bridge/0.0_1.617/N2_z
Python: 3.10.8
gpaw:   /home/vazumah/.conda/envs/GPAW/lib/python3.10/site-packages/gpaw
_gpaw:  /home/vazumah/.conda/envs/GPAW/lib/python3.10/site-packages/
        _gpaw.cpython-310-x86_64-linux-gnu.so
ase:    /home/vazumah/.conda/envs/GPAW/lib/python3.10/site-packages/ase (version 3.22.1)
numpy:  /home/vazumah/.conda/envs/GPAW/lib/python3.10/site-packages/numpy (version 1.24.1)
scipy:  /home/vazumah/.conda/envs/GPAW/lib/python3.10/site-packages/scipy (version 1.10.0)
libxc:  5.2.3
units:  Angstrom and eV
cores: 24
OpenMP: True
OMP_NUM_THREADS: 1

Input parameters:
  h: 0.16
  kpts: {size: [4, 4, 1]}
  occupations: {name: fermi-dirac,
                width: 0.05}
  poissonsolver: {dipolelayer: xy}
  xc: BEEF-vdW

System changes: positions, numbers, cell, pbc, initial_charges, initial_magmoms 

Initialize ...

species:
  Li:
    name: Lithium
    id: 830b4218f175192f93f959cfc0aad614
    Z: 3.0
    valence: 1
    core: 2
    charge: 0.0
    file: /home/vazumah/.conda/envs/GPAW/share/gpaw/Li.PBE.gz
    compensation charges: {type: gauss,
                           rc: 0.33,
                           lmax: 2}
    cutoffs: {filter: 1.91,
              core: 2.55}
    valence states:
      #              energy  rcut
      - 2s(1.00)    -2.874   1.058
      - 2p(0.00)    -1.090   1.058
      -  s          24.337   1.058
  
    # Using partial waves for Li as LCAO basis

  O:
    name: Oxygen
    id: 32ecd46bf208036f09c70b0ec9a88b78
    Z: 8.0
    valence: 6
    core: 2
    charge: 0.0
    file: /home/vazumah/.conda/envs/GPAW/share/gpaw/O.PBE.gz
    compensation charges: {type: gauss,
                           rc: 0.21,
                           lmax: 2}
    cutoffs: {filter: 1.17,
              core: 0.83}
    valence states:
      #              energy  rcut
      - 2s(2.00)   -23.961   0.688
      - 2p(4.00)    -9.029   0.598
      -  s           3.251   0.688
      -  p          18.182   0.598
      -  d           0.000   0.619
  
    # Using partial waves for O as LCAO basis

  C:
    name: Carbon
    id: 4aa54d4b901d75f77cc0ea3eec22967b
    Z: 6.0
    valence: 4
    core: 2
    charge: 0.0
    file: /home/vazumah/.conda/envs/GPAW/share/gpaw/C.PBE.gz
    compensation charges: {type: gauss,
                           rc: 0.20,
                           lmax: 2}
    cutoffs: {filter: 1.14,
              core: 1.14}
    valence states:
      #              energy  rcut
      - 2s(2.00)   -13.751   0.635
      - 2p(2.00)    -5.284   0.635
      -  s          13.461   0.635
      -  p          21.927   0.635
      -  d           0.000   0.635
  
    # Using partial waves for C as LCAO basis

  H:
    name: Hydrogen
    id: d65de229564ff8ea4db303e23b6d1ecf
    Z: 1.0
    valence: 1
    core: 0
    charge: 0.0
    file: /home/vazumah/.conda/envs/GPAW/share/gpaw/H.PBE.gz
    compensation charges: {type: gauss,
                           rc: 0.15,
                           lmax: 2}
    cutoffs: {filter: 0.85,
              core: 0.53}
    valence states:
      #              energy  rcut
      - 1s(1.00)    -6.494   0.476
      -  s          20.717   0.476
      -  p           0.000   0.476
  
    # Using partial waves for H as LCAO basis

  N:
    name: Nitrogen
    id: f7500608b86eaa90eef8b1d9a670dc53
    Z: 7.0
    valence: 5
    core: 2
    charge: 0.0
    file: /home/vazumah/.conda/envs/GPAW/share/gpaw/N.PBE.gz
    compensation charges: {type: gauss,
                           rc: 0.18,
                           lmax: 2}
    cutoffs: {filter: 1.11,
              core: 0.96}
    valence states:
      #              energy  rcut
      - 2s(2.00)   -18.583   0.603
      - 2p(3.00)    -7.089   0.529
      -  s           8.629   0.603
      -  p          20.123   0.529
      -  d           0.000   0.577
  
    # Using partial waves for N as LCAO basis

Reference energy: -13382.245603  # eV

Spin-paired calculation

Convergence criteria:
 Maximum [total energy] change in last 3 cyles: 0.0005 eV / electron
 Maximum integral of absolute [dens]ity change: 0.0001 electrons / valence electron
 Maximum integral of absolute [eigenst]ate change: 4e-08 eV^2 / valence electron
 Maximum number of scf [iter]ations: 333
 (Square brackets indicate name in SCF output, whereas a 'c' in
 the SCF output indicates the quantity has converged.)

Symmetries present (total): 1

  ( 1  0  0)
  ( 0  1  0)
  ( 0  0  1)

16 k-points: 4 x 4 x 1 Monkhorst-Pack grid
8 k-points in the irreducible part of the Brillouin zone
       k-points in crystal coordinates                weights
   0:     0.12500000   -0.37500000    0.00000000          2/16
   1:     0.12500000   -0.12500000    0.00000000          2/16
   2:     0.12500000    0.12500000    0.00000000          2/16
   3:     0.12500000    0.37500000    0.00000000          2/16
   4:     0.37500000   -0.37500000    0.00000000          2/16
   5:     0.37500000   -0.12500000    0.00000000          2/16
   6:     0.37500000    0.12500000    0.00000000          2/16
   7:     0.37500000    0.37500000    0.00000000          2/16

Wave functions: Uniform real-space grid
  Kinetic energy operator: 6*3+1=19 point O(h^6) finite-difference Laplacian
  ScaLapack parameters: grid=1x1, blocksize=None
  Wavefunction extrapolation:
    Improved wavefunction reuse through dual PAW basis 

Occupation numbers: Fermi-Dirac:
  width: 0.0500  # eV
 

Eigensolver
   Davidson(niter=2) 

Densities:
  Coarse grid: 60*60*168 grid
  Fine grid: 120*120*336 grid
  Total Charge: 0.000000 

Density mixing:
  Method: separate
  Backend: pulay
  Linear mixing parameter: 0.05
  old densities: 5
  Damping of long wavelength oscillations: 50 

Hamiltonian:
  XC and Coulomb potentials evaluated on a 120*120*336 grid
  Using the BEEF-vdW Exchange-Correlation functional
  Interpolation: tri-quintic (5. degree polynomial)
  Poisson solver: FastPoissonSolver using
    Stencil: 6*3+1=19 point O(h^6) finite-difference Laplacian
    FFT axes: [0, 1]
    FST axes: [2]

Dipole correction along z-axis 

XC parameters: BEEF-vdW with 2 nearest neighbor stencil

Memory estimate:
  Process memory now: 229.65 MiB
  Calculator: 413.38 MiB
    Density: 121.66 MiB
      Arrays: 39.61 MiB
      Localized functions: 66.95 MiB
      Mixer: 15.11 MiB
    Hamiltonian: 31.19 MiB
      Arrays: 25.90 MiB
      XC: 0.00 MiB
      Poisson: 0.00 MiB
      vbar: 5.29 MiB
    Wavefunctions: 260.53 MiB
      Arrays psit_nG: 120.85 MiB
      Eigensolver: 136.20 MiB
      Projections: 0.05 MiB
      Projectors: 3.43 MiB

Total number of cores used: 24
Parallelization over k-points: 8
Domain decomposition: 1 x 1 x 3

Number of atoms: 44
Number of atomic orbitals: 164
Number of bands in calculation: 40
Number of valence electrons: 60
Bands to converge: occupied

... initialized

Initializing position-dependent things.

Density initialized from atomic densities
Creating initial wave functions:
  40 bands from LCAO basis set

       .-----------------------.  
      /|                       |  
     / |                       |  
    /  |                       |  
   /   |                       |  
  /    |                       |  
 *     |                       |  
 |     |                       |  
 |     |                       |  
 |     |                       |  
 |     |                       |  
 | H   |               H       |  
 | H   |                  C    |  
 |     |                       |  
 |O    |                       |  
 |N    |                 H     |  
 |   Li|     Li      Li        |  
 |N    |  Li      Li      Li   |  
 | Li  |   Li      Li          |  
 |     |Li      Li      Li     |  
 Li    | Li      Li            |  
 |   LLi     LLi     LLi       |  
 |     |  Li      Li      Li   |  
 | Li  |   Li      Li          |  
 |     |Li      Li      Li     |  
 Li    | Li      Li            |  
 |    Li      Li      Li       |  
 |     |                       |  
 |     |                       |  
 |     |                       |  
 |     |                       |  
 |     |                       |  
 |     |                       |  
 |     .-----------------------.  
 |    /                       /   
 |   /                       /    
 |  /                       /     
 | /                       /      
 |/                       /       
 *-----------------------*        

Positions:
   0 Li     1.617037    1.617037   10.000000    ( 0.0000,  0.0000,  0.0000)
   1 Li     4.851111    1.617037   10.000000    ( 0.0000,  0.0000,  0.0000)
   2 Li     8.085185    1.617037   10.000000    ( 0.0000,  0.0000,  0.0000)
   3 Li     1.617037    4.851111   10.000000    ( 0.0000,  0.0000,  0.0000)
   4 Li     4.851111    4.851111   10.000000    ( 0.0000,  0.0000,  0.0000)
   5 Li     8.085185    4.851111   10.000000    ( 0.0000,  0.0000,  0.0000)
   6 Li     1.617037    8.085185   10.000000    ( 0.0000,  0.0000,  0.0000)
   7 Li     4.851111    8.085185   10.000000    ( 0.0000,  0.0000,  0.0000)
   8 Li     8.085185    8.085185   10.000000    ( 0.0000,  0.0000,  0.0000)
   9 Li     0.000000    0.000000   11.617037    ( 0.0000,  0.0000,  0.0000)
  10 Li     3.234074    0.000000   11.617037    ( 0.0000,  0.0000,  0.0000)
  11 Li     6.468148    0.000000   11.617037    ( 0.0000,  0.0000,  0.0000)
  12 Li     0.000000    3.234074   11.617037    ( 0.0000,  0.0000,  0.0000)
  13 Li     3.234074    3.234074   11.617037    ( 0.0000,  0.0000,  0.0000)
  14 Li     6.468148    3.234074   11.617037    ( 0.0000,  0.0000,  0.0000)
  15 Li     0.000000    6.468148   11.617037    ( 0.0000,  0.0000,  0.0000)
  16 Li     3.234074    6.468148   11.617037    ( 0.0000,  0.0000,  0.0000)
  17 Li     6.468148    6.468148   11.617037    ( 0.0000,  0.0000,  0.0000)
  18 Li     1.617038    1.617038   13.469728    ( 0.0000,  0.0000,  0.0000)
  19 Li     4.851111    1.617038   13.469729    ( 0.0000,  0.0000,  0.0000)
  20 Li     8.085184    1.617038   13.469728    ( 0.0000,  0.0000,  0.0000)
  21 Li     1.617038    4.851111   13.469729    ( 0.0000,  0.0000,  0.0000)
  22 Li     4.851111    4.851111   13.469730    ( 0.0000,  0.0000,  0.0000)
  23 Li     8.085184    4.851111   13.469729    ( 0.0000,  0.0000,  0.0000)
  24 Li     1.617038    8.085184   13.469728    ( 0.0000,  0.0000,  0.0000)
  25 Li     4.851111    8.085184   13.469729    ( 0.0000,  0.0000,  0.0000)
  26 Li     8.085184    8.085184   13.469728    ( 0.0000,  0.0000,  0.0000)
  27 Li    -0.000000   -0.000000   15.445939    ( 0.0000,  0.0000,  0.0000)
  28 Li     3.234074    0.000000   15.445939    ( 0.0000,  0.0000,  0.0000)
  29 Li     6.468148    0.000000   15.445939    ( 0.0000,  0.0000,  0.0000)
  30 Li     0.000000    3.234074   15.445939    ( 0.0000,  0.0000,  0.0000)
  31 Li     3.234076    3.234076   15.445938    ( 0.0000,  0.0000,  0.0000)
  32 Li     6.468146    3.234076   15.445938    ( 0.0000,  0.0000,  0.0000)
  33 Li     0.000000    6.468148   15.445939    ( 0.0000,  0.0000,  0.0000)
  34 Li     3.234076    6.468146   15.445938    ( 0.0000,  0.0000,  0.0000)
  35 Li     6.468146    6.468146   15.445938    ( 0.0000,  0.0000,  0.0000)
  36 O      0.000000    1.617037   19.645939    ( 0.0000,  0.0000,  0.0000)
  37 C     -0.005499    1.601963   21.075902    ( 0.0000,  0.0000,  0.0000)
  38 H      0.681650    0.852010   21.480173    ( 0.0000,  0.0000,  0.0000)
  39 H     -1.007288    1.423554   21.479414    ( 0.0000,  0.0000,  0.0000)
  40 H      0.327429    2.587678   21.395346    ( 0.0000,  0.0000,  0.0000)
  41 H     -0.291005    0.753908   19.334284    ( 0.0000,  0.0000,  0.0000)
  42 N      0.000000    1.617000   17.195939    ( 0.0000,  0.0000,  0.0000)
  43 N      0.000000    1.617000   18.292561    ( 0.0000,  0.0000,  0.0000)

Unit cell:
           periodic     x           y           z      points  spacing
  1. axis:    yes    9.702222    0.000000    0.000000    60     0.1617
  2. axis:    yes    0.000000    9.702222    0.000000    60     0.1617
  3. axis:    no     0.000000    0.000000   26.601111   168     0.1583

  Lengths:   9.702222   9.702222  26.601111
  Angles:   90.000000  90.000000  90.000000

Effective grid spacing dv^(1/3) = 0.1606

     iter     time        total  log10-change:
                         energy  eigst   dens
iter:   1 05:14:16  -495.005587
iter:   2 05:14:59  -128.127264  +2.40  -0.04
iter:   3 05:15:42   -18.893726  +3.27  -0.19
iter:   4 05:16:25  -106.410478  +3.05  -0.18
Writing to output.gpw (mode='')

iter:   5 05:17:10  -124.993820  +2.82  -0.20
iter:   6 05:17:53  -195.571811  +2.74  -0.52
iter:   7 05:18:36  -242.397669  +2.43  -0.59
iter:   8 05:19:20  -282.249141  +2.30  -0.58
iter:   9 05:20:03  -394.725144  +2.84  -0.51
Writing to output.gpw (mode='')

iter:  10 05:20:48  -343.273670  +2.24  -0.32
iter:  11 05:21:32  -270.694007  +2.02  -0.40
iter:  12 05:22:15  -278.424698  +1.45  -0.81
iter:  13 05:22:58  -278.336670  +1.32  -0.83
iter:  14 05:23:41  -283.292656  +1.06  -0.82
Writing to output.gpw (mode='')

iter:  15 05:24:25  -280.075499  +1.18  -0.79
iter:  16 05:25:08  -282.803676  +1.11  -0.74
iter:  17 05:25:52  -280.624104  +0.37  -0.69
iter:  18 05:26:35  -280.324338  +0.35  -0.73
iter:  19 05:27:18  -285.809312  +0.84  -0.71
Writing to output.gpw (mode='')

iter:  20 05:28:02  -278.416955  +1.12  -0.66
iter:  21 05:28:45  -276.997333  +0.79  -0.81
iter:  22 05:29:28  -278.916062  +0.74  -0.90
iter:  23 05:30:12  -273.834256  +0.95  -0.86
iter:  24 05:30:55  -273.804454  +0.41  -0.97
Writing to output.gpw (mode='')

iter:  25 05:31:39  -273.336560  +0.45  -1.01
iter:  26 05:32:22  -273.622493  +0.55  -1.23
iter:  27 05:33:05  -273.060202  +0.18  -1.13
iter:  28 05:33:48  -273.079553  -0.24  -1.41
iter:  29 05:34:31  -273.027742  -0.62  -1.44
Writing to output.gpw (mode='')

iter:  30 05:35:15  -273.049491  -0.04  -1.58
iter:  31 05:35:58  -273.055085c -0.73  -1.73
iter:  32 05:36:42  -273.054653c -1.03  -1.77
iter:  33 05:37:25  -273.050606c -1.13  -1.83
iter:  34 05:38:08  -273.062799c -1.16  -2.00
Writing to output.gpw (mode='')

iter:  35 05:38:52  -273.069061c -1.35  -2.24
iter:  36 05:39:36  -273.072428c -1.42  -2.27
iter:  37 05:40:19  -273.076884c -1.34  -2.34
iter:  38 05:41:02  -273.081076c -1.53  -2.43
iter:  39 05:41:45  -273.083232c -1.84  -2.42
Writing to output.gpw (mode='')

iter:  40 05:42:29  -273.085764c -1.75  -2.56
iter:  41 05:43:12  -273.090426c -1.72  -2.72
iter:  42 05:43:56  -273.092181c -1.83  -2.67
iter:  43 05:44:39  -273.093888c -2.01  -2.84
iter:  44 05:45:22  -273.095438c -2.02  -2.84
Writing to output.gpw (mode='')

iter:  45 05:46:07  -273.096842c -2.10  -2.74
iter:  46 05:46:50  -273.098169c -2.07  -2.79
iter:  47 05:47:33  -273.099273c -2.15  -2.88
iter:  48 05:48:17  -273.100324c -2.18  -2.90
iter:  49 05:49:00  -273.101120c -2.31  -2.91
Writing to output.gpw (mode='')

iter:  50 05:49:44  -273.102086c -2.28  -2.90
iter:  51 05:50:27  -273.102674c -2.56  -2.84
iter:  52 05:51:11  -273.103245c -2.43  -2.84
iter:  53 05:51:54  -273.103709c -2.70  -2.85
iter:  54 05:52:37  -273.104116c -2.67  -2.83
Writing to output.gpw (mode='')

iter:  55 05:53:21  -273.104476c -2.74  -2.88
iter:  56 05:54:04  -273.104737c -2.79  -2.95
iter:  57 05:54:48  -273.105006c -2.79  -3.02
iter:  58 05:55:31  -273.105228c -2.93  -3.14
iter:  59 05:56:14  -273.105418c -3.01  -3.27
Writing to output.gpw (mode='')

iter:  60 05:56:57  -273.105587c -3.13  -3.28
iter:  61 05:57:40  -273.105735c -3.10  -3.33
iter:  62 05:58:23  -273.105899c -3.18  -3.39
iter:  63 05:59:06  -273.106003c -3.41  -3.49
iter:  64 05:59:49  -273.106082c -3.49  -3.54
Writing to output.gpw (mode='')

iter:  65 06:00:34  -273.106157c -3.52  -3.64
iter:  66 06:01:17  -273.106232c -3.39  -3.71
iter:  67 06:02:00  -273.106294c -3.61  -3.79
iter:  68 06:02:43  -273.106358c -3.58  -3.83
iter:  69 06:03:26  -273.106410c -3.53  -3.87
Writing to output.gpw (mode='')

iter:  70 06:04:10  -273.106456c -3.54  -3.99
iter:  71 06:04:53  -273.106497c -3.64  -4.07c
iter:  72 06:05:36  -273.106530c -3.85  -4.13c
iter:  73 06:06:19  -273.106559c -3.88  -4.17c
iter:  74 06:07:02  -273.106583c -3.90  -4.20c
Writing to output.gpw (mode='')

iter:  75 06:07:46  -273.106605c -3.96  -4.17c
iter:  76 06:08:29  -273.106624c -3.92  -4.13c
iter:  77 06:09:12  -273.106642c -4.04  -4.05c
iter:  78 06:09:55  -273.106655c -4.27  -4.10c
iter:  79 06:10:38  -273.106669c -4.16  -4.07c
Writing to output.gpw (mode='')

iter:  80 06:11:22  -273.106681c -4.18  -4.07c
iter:  81 06:12:05  -273.106691c -4.26  -4.08c
iter:  82 06:12:48  -273.106700c -4.36  -4.06c
iter:  83 06:13:31  -273.106708c -4.38  -4.02c
iter:  84 06:14:14  -273.106714c -4.45  -4.07c
Writing to output.gpw (mode='')

iter:  85 06:14:58  -273.106720c -4.38  -4.07c
iter:  86 06:15:41  -273.106725c -4.65  -4.04c
iter:  87 06:16:24  -273.106732c -4.50  -4.00c
iter:  88 06:17:07  -273.106735c -4.75  -4.07c
iter:  89 06:17:50  -273.106737c -4.69  -3.92
Writing to output.gpw (mode='')

iter:  90 06:18:34  -273.106740c -4.68  -4.06c
iter:  91 06:19:17  -273.106742c -4.81  -4.27c
iter:  92 06:20:00  -273.106744c -4.96  -4.28c
iter:  93 06:20:43  -273.106745c -4.91  -4.25c
iter:  94 06:21:26  -273.106747c -4.86  -4.25c
Writing to output.gpw (mode='')

iter:  95 06:22:10  -273.106748c -5.13  -4.28c
iter:  96 06:22:53  -273.106750c -5.12  -4.18c
iter:  97 06:23:36  -273.106751c -5.21  -4.30c
iter:  98 06:24:19  -273.106752c -5.09  -4.31c
iter:  99 06:25:02  -273.106751c -5.24  -4.40c
Writing to output.gpw (mode='')

iter: 100 06:25:46  -273.106752c -5.41  -4.35c
iter: 101 06:26:29  -273.106753c -5.37  -4.54c
iter: 102 06:27:12  -273.106754c -5.27  -4.68c
iter: 103 06:27:56  -273.106754c -5.55  -4.82c
iter: 104 06:28:39  -273.106755c -5.16  -4.85c
Writing to output.gpw (mode='')

iter: 105 06:29:23  -273.106755c -5.45  -5.01c
iter: 106 06:30:07  -273.106755c -5.31  -5.04c
iter: 107 06:30:49  -273.106755c -5.59  -5.06c
iter: 108 06:31:33  -273.106755c -5.48  -5.13c
iter: 109 06:32:16  -273.106755c -5.51  -5.21c
Writing to output.gpw (mode='')

iter: 110 06:33:00  -273.106755c -5.66  -5.28c
iter: 111 06:33:43  -273.106756c -5.65  -5.48c
iter: 112 06:34:26  -273.106756c -5.70  -5.56c
iter: 113 06:35:09  -273.106756c -5.75  -5.56c
iter: 114 06:35:53  -273.106756c -5.89  -5.53c
Writing to output.gpw (mode='')

iter: 115 06:36:37  -273.106756c -5.93  -5.39c
iter: 116 06:37:20  -273.106756c -5.88  -5.44c
iter: 117 06:38:04  -273.106756c -5.89  -5.45c
iter: 118 06:38:47  -273.106756c -5.94  -5.43c
iter: 119 06:39:30  -273.106756c -6.05  -5.40c
Writing to output.gpw (mode='')

iter: 120 06:40:14  -273.106755c -6.28  -5.34c
iter: 121 06:40:58  -273.106755c -6.33  -5.31c
iter: 122 06:41:41  -273.106755c -6.22  -5.26c
iter: 123 06:42:24  -273.106755c -6.16  -5.31c
iter: 124 06:43:08  -273.106755c -6.33  -5.35c
Writing to output.gpw (mode='')

iter: 125 06:43:52  -273.106755c -6.34  -5.29c
iter: 126 06:44:35  -273.106755c -6.51  -5.43c
iter: 127 06:45:18  -273.106755c -6.53  -5.42c
iter: 128 06:46:01  -273.106755c -6.58  -5.37c
iter: 129 06:46:45  -273.106755c -6.48  -5.31c
Writing to output.gpw (mode='')

iter: 130 06:47:29  -273.106755c -6.50  -5.44c
iter: 131 06:48:12  -273.106755c -6.59  -5.50c
iter: 132 06:48:56  -273.106755c -6.61  -5.48c
iter: 133 06:49:39  -273.106755c -6.65  -5.54c
iter: 134 06:50:22  -273.106755c -6.60  -5.57c
Writing to output.gpw (mode='')

iter: 135 06:51:06  -273.106755c -6.81  -5.84c
iter: 136 06:51:50  -273.106755c -6.92  -5.94c
iter: 137 06:52:33  -273.106755c -6.70  -6.04c
iter: 138 06:53:16  -273.106755c -6.69  -6.08c
iter: 139 06:54:00  -273.106755c -7.09  -6.17c
Writing to output.gpw (mode='')

iter: 140 06:54:43  -273.106755c -7.04  -6.22c
iter: 141 06:55:27  -273.106755c -6.92  -6.24c
iter: 142 06:56:10  -273.106755c -7.08  -6.36c
iter: 143 06:56:53  -273.106755c -7.13  -6.47c
iter: 144 06:57:37  -273.106755c -6.99  -6.54c
Writing to output.gpw (mode='')

iter: 145 06:58:21  -273.106755c -7.01  -6.57c
iter: 146 06:59:05  -273.106755c -7.15  -6.53c
iter: 147 06:59:48  -273.106755c -7.24  -6.42c
iter: 148 07:00:31  -273.106755c -7.38  -6.30c
iter: 149 07:01:14  -273.106755c -7.36  -6.27c
Writing to output.gpw (mode='')

iter: 150 07:01:59  -273.106755c -7.37  -6.23c
iter: 151 07:02:42  -273.106755c -7.47c -6.22c

Converged after 151 iterations.

Dipole moment: (-16.921608, -4.512852, 0.273635) |e|*Ang

Energy contributions relative to reference atoms: (reference = -13382.245603)

Kinetic:       +177.608879
Potential:     -156.601159
External:        +0.000000
XC:            -294.667906
Entropy (-ST):   -0.144543
Local:           +0.625703
--------------------------
Free energy:   -273.179027
Extrapolated:  -273.106755

Dipole-layer corrected work functions: 3.382641, 2.856620 eV

Showing only first 2 kpts
 Kpt  Band  Eigenvalues  Occupancy
  0    28     -3.36556    1.98549
  0    29     -3.25123    1.86578
  0    30     -2.96073    0.08000
  0    31     -2.86445    0.01208

  1    28     -3.17663    1.51539
  1    29     -3.11651    0.96883
  1    30     -3.09737    0.78099
  1    31     -3.01411    0.21617


Fermi level: -3.11963

No gap
Writing to output.gpw (mode='')


Forces in eV/Ang:
  0 Li    0.01395   -0.00017   -0.27342
  1 Li    0.00101    0.00117   -0.26235
  2 Li   -0.01461   -0.00102   -0.27362
  3 Li    0.00324    0.01024   -0.27096
  4 Li   -0.00057   -0.00064   -0.27969
  5 Li   -0.00279    0.00934   -0.27051
  6 Li    0.00164   -0.01043   -0.26996
  7 Li   -0.00016   -0.00009   -0.28141
  8 Li   -0.00165   -0.00889   -0.27031
  9 Li    0.00044    0.01446    0.30737
 10 Li    0.02060   -0.00624    0.25596
 11 Li   -0.02130   -0.00602    0.25371
 12 Li   -0.00002   -0.01616    0.31252
 13 Li    0.02086    0.00674    0.25372
 14 Li   -0.02117    0.00522    0.25339
 15 Li   -0.00017    0.00272    0.23864
 16 Li   -0.02678   -0.00027    0.26521
 17 Li    0.02699    0.00138    0.26760
 18 Li    0.05602    0.00005   -0.07810
 19 Li   -0.00117    0.00069    0.05907
 20 Li   -0.05655   -0.00120   -0.07321
 21 Li   -0.01902   -0.01771    0.05191
 22 Li   -0.00010    0.01052    0.03190
 23 Li    0.01918   -0.01921    0.05207
 24 Li   -0.01693    0.02025    0.05699
 25 Li   -0.00111   -0.01178    0.02667
 26 Li    0.01820    0.02209    0.05945
 27 Li    0.00283    0.09021    0.01561
 28 Li    0.04436   -0.02779   -0.04512
 29 Li   -0.03691   -0.02507   -0.04410
 30 Li    0.00296   -0.12694    0.07302
 31 Li    0.04068    0.02357   -0.04242
 32 Li   -0.04391    0.02146   -0.04390
 33 Li   -0.00030    0.00843   -0.02063
 34 Li   -0.01389    0.00173   -0.01599
 35 Li    0.01425    0.00191   -0.01421
 36 O    -0.08015   -0.21095   17.43979
 37 C     0.19337    0.74334    6.99405
 38 H     0.00360    0.03956    0.01016
 39 H     0.02886    0.03338    0.02714
 40 H     0.00714    0.01384    0.21321
 41 H    -0.40776   -1.16153    2.05909
 42 N     0.67626    2.40009   -6.66339
 43 N    -0.44025   -1.84376  -20.05643

System changes: positions 

Initializing position-dependent things.

Density initialized from wave functions
       .-----------------------.  
      /|                       |  
     / |                       |  
    /  |                       |  
   /   |                       |  
  /    |                       |  
 *     |                       |  
 |     |                       |  
 |     |                       |  
 |     |                       |  
 |     |                       |  
 | H   |               H       |  
 | H   |                  C    |  
 |     |                       |  
 |     |       Li      Li O    |  
 |     |                 HN    |  
 |     |     Li      Li      Li|  
 |N    |  Li      Li      Li   |  
 | Li  |   Li      Li          |  
 |     |Li      Li      Li     |  
 Li    |                       |  
 |   LLi     LLi     LLi       |  
 |     |  Li      Li      Li   |  
 | Li  |   Li      Li          |  
 |     |Li      Li      Li     |  
 Li    | Li      Li            |  
 |    Li      Li      Li       |  
 |     |                       |  
 |     |                       |  
 |     |                       |  
 |     |                       |  
 |     |                       |  
 |     |                       |  
 |     .-----------------------.  
 |    /                       /   
 |   /                       /    
 |  /                       /     
 | /                       /      
 |/                       /       
 *-----------------------*        

Positions:
   0 Li     1.617037    1.617037   10.000000    ( 0.0000,  0.0000,  0.0000)
   1 Li     4.851111    1.617037   10.000000    ( 0.0000,  0.0000,  0.0000)
   2 Li     8.085185    1.617037   10.000000    ( 0.0000,  0.0000,  0.0000)
   3 Li     1.617037    4.851111   10.000000    ( 0.0000,  0.0000,  0.0000)
   4 Li     4.851111    4.851111   10.000000    ( 0.0000,  0.0000,  0.0000)
   5 Li     8.085185    4.851111   10.000000    ( 0.0000,  0.0000,  0.0000)
   6 Li     1.617037    8.085185   10.000000    ( 0.0000,  0.0000,  0.0000)
   7 Li     4.851111    8.085185   10.000000    ( 0.0000,  0.0000,  0.0000)
   8 Li     8.085185    8.085185   10.000000    ( 0.0000,  0.0000,  0.0000)
   9 Li     0.000000    0.000000   11.617037    ( 0.0000,  0.0000,  0.0000)
  10 Li     3.234074    0.000000   11.617037    ( 0.0000,  0.0000,  0.0000)
  11 Li     6.468148    0.000000   11.617037    ( 0.0000,  0.0000,  0.0000)
  12 Li     0.000000    3.234074   11.617037    ( 0.0000,  0.0000,  0.0000)
  13 Li     3.234074    3.234074   11.617037    ( 0.0000,  0.0000,  0.0000)
  14 Li     6.468148    3.234074   11.617037    ( 0.0000,  0.0000,  0.0000)
  15 Li     0.000000    6.468148   11.617037    ( 0.0000,  0.0000,  0.0000)
  16 Li     3.234074    6.468148   11.617037    ( 0.0000,  0.0000,  0.0000)
  17 Li     6.468148    6.468148   11.617037    ( 0.0000,  0.0000,  0.0000)
  18 Li     1.617149    1.617038   13.469573    ( 0.0000,  0.0000,  0.0000)
  19 Li     4.851109    1.617040   13.469847    ( 0.0000,  0.0000,  0.0000)
  20 Li     8.085072    1.617036   13.469583    ( 0.0000,  0.0000,  0.0000)
  21 Li     1.617001    4.851076   13.469833    ( 0.0000,  0.0000,  0.0000)
  22 Li     4.851111    4.851132   13.469794    ( 0.0000,  0.0000,  0.0000)
  23 Li     8.085222    4.851073   13.469833    ( 0.0000,  0.0000,  0.0000)
  24 Li     1.617004    8.085224   13.469841    ( 0.0000,  0.0000,  0.0000)
  25 Li     4.851109    8.085160   13.469782    ( 0.0000,  0.0000,  0.0000)
  26 Li     8.085220    8.085228   13.469846    ( 0.0000,  0.0000,  0.0000)
  27 Li     0.000006    0.000179   15.445970    ( 0.0000,  0.0000,  0.0000)
  28 Li     3.234162   -0.000055   15.445849    ( 0.0000,  0.0000,  0.0000)
  29 Li     6.468075   -0.000050   15.445851    ( 0.0000,  0.0000,  0.0000)
  30 Li     0.000006    3.233822   15.446084    ( 0.0000,  0.0000,  0.0000)
  31 Li     3.234157    3.234123   15.445854    ( 0.0000,  0.0000,  0.0000)
  32 Li     6.468058    3.234119   15.445851    ( 0.0000,  0.0000,  0.0000)
  33 Li    -0.000001    6.468165   15.445898    ( 0.0000,  0.0000,  0.0000)
  34 Li     3.234049    6.468149   15.445906    ( 0.0000,  0.0000,  0.0000)
  35 Li     6.468174    6.468149   15.445910    ( 0.0000,  0.0000,  0.0000)
  36 O     -0.000159    1.616618   19.680566    ( 0.0000,  0.0000,  0.0000)
  37 C     -0.005115    1.603439   21.089789    ( 0.0000,  0.0000,  0.0000)
  38 H      0.681657    0.852088   21.480193    ( 0.0000,  0.0000,  0.0000)
  39 H     -1.007231    1.423620   21.479468    ( 0.0000,  0.0000,  0.0000)
  40 H      0.327443    2.587706   21.395769    ( 0.0000,  0.0000,  0.0000)
  41 H     -0.291815    0.751602   19.338373    ( 0.0000,  0.0000,  0.0000)
  42 N      0.001343    1.621765   17.182709    ( 0.0000,  0.0000,  0.0000)
  43 N     -0.000874    1.613339   18.252739    ( 0.0000,  0.0000,  0.0000)

Unit cell:
           periodic     x           y           z      points  spacing
  1. axis:    yes    9.702222    0.000000    0.000000    60     0.1617
  2. axis:    yes    0.000000    9.702222    0.000000    60     0.1617
  3. axis:    no     0.000000    0.000000   26.601111   168     0.1583

  Lengths:   9.702222   9.702222  26.601111
  Angles:   90.000000  90.000000  90.000000

Effective grid spacing dv^(1/3) = 0.1606

     iter     time        total  log10-change:
                         energy  eigst   dens
iter:   1 07:03:41  -275.014878  -0.48
iter:   2 07:04:24  -274.741623  -0.42  -1.29
iter:   3 07:05:07  -274.679768  -1.07  -1.50
iter:   4 07:05:50  -274.630663  -0.67  -1.78
Writing to output.gpw (mode='')

iter:   5 07:06:35  -274.627603  -1.27  -1.98
iter:   6 07:07:18  -274.626431c -1.42  -2.05
iter:   7 07:08:01  -274.620688c -1.37  -2.08
iter:   8 07:08:45  -274.620443c -1.81  -2.36
iter:   9 07:09:28  -274.620648c -2.26  -2.42
Writing to output.gpw (mode='')

iter:  10 07:10:15  -274.620289c -2.31  -2.51
iter:  11 07:10:58  -274.620569c -2.45  -2.75
iter:  12 07:11:42  -274.620746c -2.80  -2.81
iter:  13 07:12:25  -274.620772c -3.07  -2.82
iter:  14 07:13:08  -274.620816c -2.97  -2.90
Writing to output.gpw (mode='')

iter:  15 07:13:52  -274.620916c -3.49  -3.15
iter:  16 07:14:35  -274.620936c -3.50  -3.12
iter:  17 07:15:18  -274.620978c -3.33  -3.22
iter:  18 07:16:01  -274.620965c -3.99  -3.33
iter:  19 07:16:45  -274.620974c -3.99  -3.49
Writing to output.gpw (mode='')

iter:  20 07:17:33  -274.620983c -4.24  -3.64
iter:  21 07:18:16  -274.620990c -4.22  -3.66
iter:  22 07:18:59  -274.620997c -4.34  -3.69
iter:  23 07:19:42  -274.621001c -4.51  -3.70
iter:  24 07:20:25  -274.621007c -4.56  -3.79
Writing to output.gpw (mode='')

iter:  25 07:21:09  -274.621011c -4.93  -4.09c
iter:  26 07:21:53  -274.621012c -4.97  -4.07c
iter:  27 07:22:36  -274.621014c -4.92  -4.08c
iter:  28 07:23:19  -274.621017c -4.94  -4.08c
iter:  29 07:24:02  -274.621020c -4.95  -4.10c
Writing to output.gpw (mode='')

iter:  30 07:24:46  -274.621020c -5.26  -4.18c
iter:  31 07:25:30  -274.621021c -5.46  -4.20c
iter:  32 07:26:13  -274.621022c -5.54  -4.26c
iter:  33 07:26:57  -274.621023c -5.43  -4.27c
iter:  34 07:27:40  -274.621022c -5.62  -4.45c
Writing to output.gpw (mode='')

iter:  35 07:28:24  -274.621023c -5.74  -4.51c
iter:  36 07:29:07  -274.621024c -5.81  -4.57c
iter:  37 07:29:50  -274.621025c -5.87  -4.62c
iter:  38 07:30:34  -274.621025c -6.01  -4.77c
iter:  39 07:31:17  -274.621025c -6.06  -4.94c
Writing to output.gpw (mode='')

iter:  40 07:32:01  -274.621025c -5.99  -5.00c
iter:  41 07:32:44  -274.621025c -6.22  -5.17c
iter:  42 07:33:27  -274.621025c -6.32  -5.19c
iter:  43 07:34:10  -274.621025c -6.41  -5.19c
iter:  44 07:34:54  -274.621025c -6.31  -5.14c
Writing to output.gpw (mode='')

iter:  45 07:35:38  -274.621025c -6.58  -5.10c
iter:  46 07:36:22  -274.621025c -6.56  -5.06c
iter:  47 07:37:05  -274.621025c -6.51  -5.06c
iter:  48 07:37:48  -274.621025c -6.55  -5.06c
iter:  49 07:38:31  -274.621025c -6.59  -5.07c
Writing to output.gpw (mode='')

iter:  50 07:39:16  -274.621025c -6.73  -5.12c
iter:  51 07:39:59  -274.621025c -6.75  -5.10c
iter:  52 07:40:42  -274.621025c -6.85  -5.09c
iter:  53 07:41:25  -274.621025c -6.94  -4.99c
iter:  54 07:42:09  -274.621025c -6.93  -5.04c
Writing to output.gpw (mode='')

iter:  55 07:42:53  -274.621025c -6.81  -5.08c
iter:  56 07:43:37  -274.621025c -6.82  -5.02c
iter:  57 07:44:20  -274.621026c -6.86  -5.07c
iter:  58 07:45:03  -274.621026c -7.21  -4.96c
iter:  59 07:45:46  -274.621025c -7.16  -5.03c
Writing to output.gpw (mode='')

iter:  60 07:46:30  -274.621025c -7.08  -5.09c
iter:  61 07:47:14  -274.621025c -7.36  -5.17c
iter:  62 07:47:57  -274.621025c -7.10  -5.20c
iter:  63 07:48:40  -274.621025c -7.24  -5.33c
iter:  64 07:49:23  -274.621025c -7.20  -5.43c
Writing to output.gpw (mode='')

iter:  65 07:50:07  -274.621025c -7.47c -5.53c

Converged after 65 iterations.

Dipole moment: (-16.898891, -4.507584, 0.316083) |e|*Ang

Energy contributions relative to reference atoms: (reference = -13382.245603)

Kinetic:       +179.220522
Potential:     -158.937226
External:        +0.000000
XC:            -295.464894
Entropy (-ST):   -0.143718
Local:           +0.632432
--------------------------
Free energy:   -274.692884
Extrapolated:  -274.621025

Dipole-layer corrected work functions: 3.379630, 2.772011 eV

Showing only first 2 kpts
 Kpt  Band  Eigenvalues  Occupancy
  0    28     -3.32368    1.98603
  0    29     -3.21249    1.87794
  0    30     -2.91446    0.07631
  0    31     -2.82078    0.01211

  1    28     -3.12667    1.46875
  1    29     -3.07437    0.98548
  1    30     -3.05194    0.76563
  1    31     -2.97383    0.23017


Fermi level: -3.07582

No gap

Forces in eV/Ang:
  0 Li    0.01393    0.00004   -0.27272
  1 Li    0.00057    0.00105   -0.26273
  2 Li   -0.01428   -0.00076   -0.27285
  3 Li    0.00238    0.00952   -0.27030
  4 Li   -0.00052   -0.00100   -0.27867
  5 Li   -0.00195    0.00909   -0.26998
  6 Li    0.00102   -0.00975   -0.26969
  7 Li   -0.00004    0.00044   -0.27980
  8 Li   -0.00113   -0.00868   -0.26994
  9 Li    0.00031    0.01542    0.30658
 10 Li    0.02081   -0.00624    0.25486
 11 Li   -0.02132   -0.00634    0.25328
 12 Li   -0.00003   -0.01641    0.30989
 13 Li    0.02127    0.00668    0.25266
 14 Li   -0.02150    0.00550    0.25302
 15 Li   -0.00005    0.00192    0.23810
 16 Li   -0.02722   -0.00040    0.26664
 17 Li    0.02736    0.00107    0.26821
 18 Li    0.05696    0.00015   -0.07835
 19 Li   -0.00091    0.00039    0.06003
 20 Li   -0.05709   -0.00083   -0.07426
 21 Li   -0.01902   -0.02129    0.05595
 22 Li    0.00019    0.01304    0.02963
 23 Li    0.01896   -0.02195    0.05532
 24 Li   -0.01740    0.02252    0.05924
 25 Li   -0.00097   -0.01402    0.02580
 26 Li    0.01854    0.02374    0.06178
 27 Li    0.00256    0.07139   -0.01417
 28 Li    0.04992   -0.02989   -0.05082
 29 Li   -0.04467   -0.02846   -0.05168
 30 Li    0.00118   -0.10743    0.03666
 31 Li    0.04878    0.02714   -0.04948
 32 Li   -0.04996    0.02483   -0.05016
 33 Li   -0.00051    0.00712   -0.02009
 34 Li   -0.01550    0.00132   -0.01483
 35 Li    0.01601    0.00244   -0.01334
 36 O    -0.20580   -0.58733   16.33008
 37 C     0.09718    0.38010    5.28735
 38 H     0.07868   -0.04037    0.19793
 39 H    -0.08515    0.01510    0.21084
 40 H     0.05714    0.16392    0.31150
 41 H    -0.15275   -0.41347    2.08771
 42 N     0.55362    1.96445   -9.55355
 43 N    -0.33263   -1.39397  -14.81358

System changes: positions 

Initializing position-dependent things.

Density initialized from wave functions
       .-----------------------.  
      /|                       |  
     / |                       |  
    /  |                       |  
   /   |                       |  
  /    |                       |  
 *     |                       |  
 |     |                       |  
 |     |                       |  
 |     |                       |  
 |     |                       |  
 | H   |               H       |  
 | H   |                  C    |  
 |     |                       |  
 |     |       Li      Li O    |  
 |     |                 HN    |  
 |     |     Li      Li      Li|  
 |N    |  Li      Li      Li   |  
 | Li  |   Li      Li          |  
 |     |Li      Li      Li     |  
 Li    |                       |  
 |   LLi     LLi     LLi       |  
 |     |  Li      Li      Li   |  
 | Li  |   Li      Li          |  
 |     |Li      Li      Li     |  
 Li    | Li      Li            |  
 |    Li      Li      Li       |  
 |     |                       |  
 |     |                       |  
 |     |                       |  
 |     |                       |  
 |     |                       |  
 |     |                       |  
 |     .-----------------------.  
 |    /                       /   
 |   /                       /    
 |  /                       /     
 | /                       /      
 |/                       /       
 *-----------------------*        

Positions:
   0 Li     1.617037    1.617037   10.000000    ( 0.0000,  0.0000,  0.0000)
   1 Li     4.851111    1.617037   10.000000    ( 0.0000,  0.0000,  0.0000)
   2 Li     8.085185    1.617037   10.000000    ( 0.0000,  0.0000,  0.0000)
   3 Li     1.617037    4.851111   10.000000    ( 0.0000,  0.0000,  0.0000)
   4 Li     4.851111    4.851111   10.000000    ( 0.0000,  0.0000,  0.0000)
   5 Li     8.085185    4.851111   10.000000    ( 0.0000,  0.0000,  0.0000)
   6 Li     1.617037    8.085185   10.000000    ( 0.0000,  0.0000,  0.0000)
   7 Li     4.851111    8.085185   10.000000    ( 0.0000,  0.0000,  0.0000)
   8 Li     8.085185    8.085185   10.000000    ( 0.0000,  0.0000,  0.0000)
   9 Li     0.000000    0.000000   11.617037    ( 0.0000,  0.0000,  0.0000)
  10 Li     3.234074    0.000000   11.617037    ( 0.0000,  0.0000,  0.0000)
  11 Li     6.468148    0.000000   11.617037    ( 0.0000,  0.0000,  0.0000)
  12 Li     0.000000    3.234074   11.617037    ( 0.0000,  0.0000,  0.0000)
  13 Li     3.234074    3.234074   11.617037    ( 0.0000,  0.0000,  0.0000)
  14 Li     6.468148    3.234074   11.617037    ( 0.0000,  0.0000,  0.0000)
  15 Li     0.000000    6.468148   11.617037    ( 0.0000,  0.0000,  0.0000)
  16 Li     3.234074    6.468148   11.617037    ( 0.0000,  0.0000,  0.0000)
  17 Li     6.468148    6.468148   11.617037    ( 0.0000,  0.0000,  0.0000)
  18 Li     1.617303    1.617039   13.469364    ( 0.0000,  0.0000,  0.0000)
  19 Li     4.851107    1.617040   13.470009    ( 0.0000,  0.0000,  0.0000)
  20 Li     8.084919    1.617035   13.469382    ( 0.0000,  0.0000,  0.0000)
  21 Li     1.616950    4.851008   13.469993    ( 0.0000,  0.0000,  0.0000)
  22 Li     4.851112    4.851174   13.469865    ( 0.0000,  0.0000,  0.0000)
  23 Li     8.085271    4.851006   13.469990    ( 0.0000,  0.0000,  0.0000)
  24 Li     1.616957    8.085291   13.470005    ( 0.0000,  0.0000,  0.0000)
  25 Li     4.851107    8.085116   13.469848    ( 0.0000,  0.0000,  0.0000)
  26 Li     8.085270    8.085296   13.470017    ( 0.0000,  0.0000,  0.0000)
  27 Li     0.000012    0.000311   15.445841    ( 0.0000,  0.0000,  0.0000)
  28 Li     3.234311   -0.000141   15.445697    ( 0.0000,  0.0000,  0.0000)
  29 Li     6.467933   -0.000136   15.445691    ( 0.0000,  0.0000,  0.0000)
  30 Li     0.000004    3.233597   15.446069    ( 0.0000,  0.0000,  0.0000)
  31 Li     3.234312    3.234206   15.445701    ( 0.0000,  0.0000,  0.0000)
  32 Li     6.467907    3.234195   15.445699    ( 0.0000,  0.0000,  0.0000)
  33 Li    -0.000003    6.468180   15.445846    ( 0.0000,  0.0000,  0.0000)
  34 Li     3.234003    6.468151   15.445871    ( 0.0000,  0.0000,  0.0000)
  35 Li     6.468222    6.468157   15.445877    ( 0.0000,  0.0000,  0.0000)
  36 O     -0.001091    1.613904   19.720463    ( 0.0000,  0.0000,  0.0000)
  37 C     -0.005153    1.603331   21.098565    ( 0.0000,  0.0000,  0.0000)
  38 H      0.682097    0.851735   21.481295    ( 0.0000,  0.0000,  0.0000)
  39 H     -1.007807    1.423604   21.480592    ( 0.0000,  0.0000,  0.0000)
  40 H      0.327748    2.588602   21.396897    ( 0.0000,  0.0000,  0.0000)
  41 H     -0.291436    0.752805   19.343997    ( 0.0000,  0.0000,  0.0000)
  42 N      0.002434    1.625636   17.148490    ( 0.0000,  0.0000,  0.0000)
  43 N     -0.001425    1.611025   18.229567    ( 0.0000,  0.0000,  0.0000)

Unit cell:
           periodic     x           y           z      points  spacing
  1. axis:    yes    9.702222    0.000000    0.000000    60     0.1617
  2. axis:    yes    0.000000    9.702222    0.000000    60     0.1617
  3. axis:    no     0.000000    0.000000   26.601111   168     0.1583

  Lengths:   9.702222   9.702222  26.601111
  Angles:   90.000000  90.000000  90.000000

Effective grid spacing dv^(1/3) = 0.1606

     iter     time        total  log10-change:
                         energy  eigst   dens
iter:   1 07:51:04  -275.947803  -0.60
iter:   2 07:51:48  -275.942901  -1.10  -1.81
iter:   3 07:52:31  -275.940181c -1.54  -1.98
iter:   4 07:53:14  -275.931606c -1.70  -2.15
Writing to output.gpw (mode='')

iter:   5 07:53:58  -275.919478c -1.54  -2.26
iter:   6 07:54:41  -275.918438c -2.21  -2.35
iter:   7 07:55:24  -275.919037c -2.01  -2.57
iter:   8 07:56:07  -275.920022c -2.10  -2.58
iter:   9 07:56:50  -275.918700c -2.65  -2.69
Writing to output.gpw (mode='')

iter:  10 07:57:34  -275.918689c -2.81  -2.79
iter:  11 07:58:17  -275.918668c -3.55  -2.91
iter:  12 07:59:01  -275.918658c -3.40  -2.99
iter:  13 07:59:44  -275.918681c -3.40  -3.27
iter:  14 08:00:27  -275.918638c -3.74  -3.29
Writing to output.gpw (mode='')

iter:  15 08:01:12  -275.918652c -3.89  -3.38
iter:  16 08:01:55  -275.918682c -4.02  -3.42
iter:  17 08:02:38  -275.918678c -4.15  -3.53
iter:  18 08:03:21  -275.918670c -4.58  -3.70
iter:  19 08:04:04  -275.918669c -4.85  -3.84
Writing to output.gpw (mode='')

iter:  20 08:04:48  -275.918669c -5.00  -3.98
iter:  21 08:05:32  -275.918671c -5.23  -4.04c
iter:  22 08:06:15  -275.918671c -5.39  -4.07c
iter:  23 08:06:58  -275.918668c -5.06  -4.15c
iter:  24 08:07:42  -275.918668c -5.46  -4.29c
Writing to output.gpw (mode='')

iter:  25 08:08:26  -275.918670c -5.56  -4.33c
iter:  26 08:09:10  -275.918670c -5.67  -4.50c
iter:  27 08:09:53  -275.918670c -5.87  -4.62c
iter:  28 08:10:36  -275.918671c -5.90  -4.66c
iter:  29 08:11:19  -275.918671c -6.06  -4.76c
Writing to output.gpw (mode='')

iter:  30 08:12:03  -275.918671c -6.14  -4.82c
iter:  31 08:12:47  -275.918671c -6.25  -4.84c
iter:  32 08:13:31  -275.918672c -6.17  -4.98c
iter:  33 08:14:14  -275.918672c -6.13  -5.06c
iter:  34 08:14:57  -275.918672c -6.58  -5.11c
Writing to output.gpw (mode='')

iter:  35 08:15:46  -275.918672c -6.52  -5.10c
iter:  36 08:16:29  -275.918672c -6.42  -5.00c
iter:  37 08:17:12  -275.918672c -6.63  -5.02c
iter:  38 08:17:55  -275.918672c -6.80  -5.00c
iter:  39 08:18:39  -275.918672c -6.62  -4.98c
Writing to output.gpw (mode='')

iter:  40 08:19:23  -275.918672c -6.55  -4.95c
iter:  41 08:20:06  -275.918672c -6.93  -4.94c
iter:  42 08:20:49  -275.918673c -6.94  -4.99c
iter:  43 08:21:32  -275.918673c -7.01  -5.03c
iter:  44 08:22:15  -275.918673c -6.98  -5.13c
Writing to output.gpw (mode='')

iter:  45 08:22:59  -275.918673c -7.09  -5.22c
iter:  46 08:23:43  -275.918673c -6.95  -5.23c
iter:  47 08:24:26  -275.918673c -7.22  -5.33c
iter:  48 08:25:09  -275.918673c -7.27  -5.37c
iter:  49 08:25:52  -275.918673c -7.43c -5.48c

Converged after 49 iterations.

Dipole moment: (-16.825619, -4.462490, 0.347410) |e|*Ang

Energy contributions relative to reference atoms: (reference = -13382.245603)

Kinetic:       +174.754520
Potential:     -156.069735
External:        +0.000000
XC:            -295.175169
Entropy (-ST):   -0.143495
Local:           +0.643460
--------------------------
Free energy:   -275.990420
Extrapolated:  -275.918673

Dipole-layer corrected work functions: 3.379355, 2.711514 eV

Showing only first 2 kpts
 Kpt  Band  Eigenvalues  Occupancy
  0    28     -3.29326    1.98602
  0    29     -3.18062    1.87448
  0    30     -2.88402    0.07623
  0    31     -2.79058    0.01216

  1    28     -3.09507    1.45928
  1    29     -3.04412    0.98688
  1    30     -3.02312    0.78045
  1    31     -2.94083    0.21972


Fermi level: -3.04543

No gap
Writing to output.gpw (mode='')


Forces in eV/Ang:
  0 Li    0.01369    0.00000   -0.27285
  1 Li    0.00058    0.00099   -0.26225
  2 Li   -0.01406   -0.00076   -0.27294
  3 Li    0.00227    0.00950   -0.27039
  4 Li   -0.00046   -0.00059   -0.27868
  5 Li   -0.00195    0.00907   -0.27011
  6 Li    0.00104   -0.00963   -0.26986
  7 Li   -0.00005    0.00036   -0.27979
  8 Li   -0.00119   -0.00862   -0.27007
  9 Li    0.00031    0.01593    0.30742
 10 Li    0.02095   -0.00627    0.25473
 11 Li   -0.02149   -0.00643    0.25319
 12 Li   -0.00005   -0.01673    0.31058
 13 Li    0.02127    0.00662    0.25283
 14 Li   -0.02153    0.00556    0.25331
 15 Li    0.00001    0.00202    0.23769
 16 Li   -0.02750   -0.00047    0.26697
 17 Li    0.02769    0.00098    0.26811
 18 Li    0.05906    0.00015   -0.08161
 19 Li   -0.00088    0.00029    0.06042
 20 Li   -0.05910   -0.00094   -0.07717
 21 Li   -0.01944   -0.02188    0.05617
 22 Li    0.00027    0.01305    0.02914
 23 Li    0.01938   -0.02227    0.05541
 24 Li   -0.01784    0.02282    0.05914
 25 Li   -0.00085   -0.01418    0.02610
 26 Li    0.01893    0.02388    0.06162
 27 Li    0.00251    0.07728   -0.01196
 28 Li    0.05155   -0.03048   -0.05172
 29 Li   -0.04610   -0.02880   -0.05343
 30 Li    0.00077   -0.11943    0.03997
 31 Li    0.05047    0.02784   -0.04989
 32 Li   -0.05136    0.02543   -0.05098
 33 Li   -0.00048    0.00615   -0.02175
 34 Li   -0.01509    0.00142   -0.01512
 35 Li    0.01550    0.00240   -0.01392
 36 O    -0.26875   -0.78423   13.85372
 37 C     0.05449    0.23711    4.64667
 38 H     0.12715   -0.09248    0.35567
 39 H    -0.15529    0.00215    0.36684
 40 H     0.07092    0.20360    0.39881
 41 H    -0.01292    0.00785    2.03154
 42 N     0.43659    1.60306   -7.34558
 43 N    -0.26352   -1.17882  -14.11285

System changes: positions 

Initializing position-dependent things.

Density initialized from wave functions
       .-----------------------.  
      /|                       |  
     / |                       |  
    /  |                       |  
   /   |                       |  
  /    |                       |  
 *     |                       |  
 |     |                       |  
 |     |                       |  
 |     |                       |  
 |     |                       |  
 | H   |               H       |  
 | H   |                  C    |  
 |     |                  O    |  
 |     |       Li      Li      |  
 |     |                 HN    |  
 |     |     Li      Li      Li|  
 |N    |  Li      Li      Li   |  
 |     |   Li      Li      Li  |  
 |     |Li      Li      Li     |  
 Li    |                       |  
 |   LLi     LLi     LLi       |  
 |     |  Li      Li      Li   |  
 | Li  |   Li      Li          |  
 |     |Li      Li      Li     |  
 Li    | Li      Li            |  
 |    Li      Li      Li       |  
 |     |                       |  
 |     |                       |  
 |     |                       |  
 |     |                       |  
 |     |                       |  
 |     |                       |  
 |     .-----------------------.  
 |    /                       /   
 |   /                       /    
 |  /                       /     
 | /                       /      
 |/                       /       
 *-----------------------*        

Positions:
   0 Li     1.617037    1.617037   10.000000    ( 0.0000,  0.0000,  0.0000)
   1 Li     4.851111    1.617037   10.000000    ( 0.0000,  0.0000,  0.0000)
   2 Li     8.085185    1.617037   10.000000    ( 0.0000,  0.0000,  0.0000)
   3 Li     1.617037    4.851111   10.000000    ( 0.0000,  0.0000,  0.0000)
   4 Li     4.851111    4.851111   10.000000    ( 0.0000,  0.0000,  0.0000)
   5 Li     8.085185    4.851111   10.000000    ( 0.0000,  0.0000,  0.0000)
   6 Li     1.617037    8.085185   10.000000    ( 0.0000,  0.0000,  0.0000)
   7 Li     4.851111    8.085185   10.000000    ( 0.0000,  0.0000,  0.0000)
   8 Li     8.085185    8.085185   10.000000    ( 0.0000,  0.0000,  0.0000)
   9 Li     0.000000    0.000000   11.617037    ( 0.0000,  0.0000,  0.0000)
  10 Li     3.234074    0.000000   11.617037    ( 0.0000,  0.0000,  0.0000)
  11 Li     6.468148    0.000000   11.617037    ( 0.0000,  0.0000,  0.0000)
  12 Li     0.000000    3.234074   11.617037    ( 0.0000,  0.0000,  0.0000)
  13 Li     3.234074    3.234074   11.617037    ( 0.0000,  0.0000,  0.0000)
  14 Li     6.468148    3.234074   11.617037    ( 0.0000,  0.0000,  0.0000)
  15 Li     0.000000    6.468148   11.617037    ( 0.0000,  0.0000,  0.0000)
  16 Li     3.234074    6.468148   11.617037    ( 0.0000,  0.0000,  0.0000)
  17 Li     6.468148    6.468148   11.617037    ( 0.0000,  0.0000,  0.0000)
  18 Li     1.617639    1.617040   13.468903    ( 0.0000,  0.0000,  0.0000)
  19 Li     4.851104    1.617039   13.470333    ( 0.0000,  0.0000,  0.0000)
  20 Li     8.084586    1.617031   13.468943    ( 0.0000,  0.0000,  0.0000)
  21 Li     1.616845    4.850867   13.470312    ( 0.0000,  0.0000,  0.0000)
  22 Li     4.851116    4.851257   13.469998    ( 0.0000,  0.0000,  0.0000)
  23 Li     8.085375    4.850871   13.470298    ( 0.0000,  0.0000,  0.0000)
  24 Li     1.616857    8.085426   13.470325    ( 0.0000,  0.0000,  0.0000)
  25 Li     4.851104    8.085027   13.469982    ( 0.0000,  0.0000,  0.0000)
  26 Li     8.085375    8.085431   13.470350    ( 0.0000,  0.0000,  0.0000)
  27 Li     0.000023    0.000665   15.445626    ( 0.0000,  0.0000,  0.0000)
  28 Li     3.234630   -0.000318   15.445384    ( 0.0000,  0.0000,  0.0000)
  29 Li     6.467631   -0.000309   15.445349    ( 0.0000,  0.0000,  0.0000)
  30 Li    -0.000007    3.232962   15.446097    ( 0.0000,  0.0000,  0.0000)
  31 Li     3.234640    3.234380   15.445395    ( 0.0000,  0.0000,  0.0000)
  32 Li     6.467589    3.234354   15.445387    ( 0.0000,  0.0000,  0.0000)
  33 Li    -0.000006    6.468194   15.445718    ( 0.0000,  0.0000,  0.0000)
  34 Li     3.233919    6.468157   15.445796    ( 0.0000,  0.0000,  0.0000)
  35 Li     6.468307    6.468173   15.445804    ( 0.0000,  0.0000,  0.0000)
  36 O     -0.003910    1.605477   19.759464    ( 0.0000,  0.0000,  0.0000)
  37 C     -0.005898    1.600879   21.105774    ( 0.0000,  0.0000,  0.0000)
  38 H      0.683724    0.850221   21.485952    ( 0.0000,  0.0000,  0.0000)
  39 H     -1.010044    1.423368   21.485263    ( 0.0000,  0.0000,  0.0000)
  40 H      0.328562    2.590977   21.400493    ( 0.0000,  0.0000,  0.0000)
  41 H     -0.288492    0.761798   19.354143    ( 0.0000,  0.0000,  0.0000)
  42 N      0.002725    1.627526   17.116793    ( 0.0000,  0.0000,  0.0000)
  43 N     -0.001419    1.609860   18.194668    ( 0.0000,  0.0000,  0.0000)

Unit cell:
           periodic     x           y           z      points  spacing
  1. axis:    yes    9.702222    0.000000    0.000000    60     0.1617
  2. axis:    yes    0.000000    9.702222    0.000000    60     0.1617
  3. axis:    no     0.000000    0.000000   26.601111   168     0.1583

  Lengths:   9.702222   9.702222  26.601111
  Angles:   90.000000  90.000000  90.000000

Effective grid spacing dv^(1/3) = 0.1606

     iter     time        total  log10-change:
                         energy  eigst   dens
iter:   1 08:26:50  -277.397398  -0.57
iter:   2 08:27:34  -277.198095  -0.53  -1.37
iter:   3 08:28:17  -277.154542  -1.32  -1.60
iter:   4 08:29:00  -277.137280  -0.68  -1.92
Writing to output.gpw (mode='')

iter:   5 08:29:44  -277.131460c -1.56  -1.92
iter:   6 08:30:27  -277.134137c -1.35  -2.11
iter:   7 08:31:10  -277.129968c -1.62  -2.20
iter:   8 08:31:53  -277.129238c -2.10  -2.41
iter:   9 08:32:36  -277.128723c -2.12  -2.54
Writing to output.gpw (mode='')

iter:  10 08:33:20  -277.128861c -2.71  -2.68
iter:  11 08:34:03  -277.128977c -2.85  -2.81
iter:  12 08:34:46  -277.129046c -2.92  -2.82
iter:  13 08:35:29  -277.129012c -2.97  -2.94
iter:  14 08:36:13  -277.129022c -3.46  -3.03
Writing to output.gpw (mode='')

iter:  15 08:36:57  -277.129043c -3.40  -3.15
iter:  16 08:37:39  -277.129056c -3.60  -3.28
iter:  17 08:38:23  -277.129079c -3.74  -3.43
iter:  18 08:39:06  -277.129090c -4.02  -3.45
iter:  19 08:39:50  -277.129101c -4.20  -3.55
Writing to output.gpw (mode='')

iter:  20 08:40:34  -277.129118c -4.07  -3.72
iter:  21 08:41:17  -277.129121c -4.56  -3.86
iter:  22 08:42:00  -277.129125c -4.34  -3.87
iter:  23 08:42:44  -277.129129c -4.65  -3.84
iter:  24 08:43:27  -277.129133c -4.71  -3.80
Writing to output.gpw (mode='')

iter:  25 08:44:13  -277.129136c -4.78  -3.81
iter:  26 08:44:56  -277.129139c -4.82  -3.96
iter:  27 08:45:39  -277.129140c -5.00  -4.09c
iter:  28 08:46:23  -277.129142c -5.20  -4.09c
iter:  29 08:47:06  -277.129144c -5.27  -4.23c
Writing to output.gpw (mode='')

iter:  30 08:47:50  -277.129142c -5.33  -4.15c
iter:  31 08:48:33  -277.129142c -5.48  -4.28c
iter:  32 08:49:17  -277.129142c -5.63  -4.31c
iter:  33 08:50:00  -277.129142c -5.56  -4.51c
iter:  34 08:50:43  -277.129142c -5.69  -4.54c
Writing to output.gpw (mode='')

iter:  35 08:51:28  -277.129143c -5.89  -4.76c
iter:  36 08:52:12  -277.129143c -5.57  -4.80c
iter:  37 08:52:55  -277.129144c -5.87  -4.85c
iter:  38 08:53:38  -277.129144c -5.99  -4.99c
iter:  39 08:54:21  -277.129144c -6.14  -5.05c
Writing to output.gpw (mode='')

iter:  40 08:55:06  -277.129144c -6.18  -5.13c
iter:  41 08:55:49  -277.129144c -6.24  -5.30c
iter:  42 08:56:32  -277.129144c -6.29  -5.33c
iter:  43 08:57:15  -277.129144c -6.35  -5.44c
iter:  44 08:57:59  -277.129144c -6.43  -5.54c
Writing to output.gpw (mode='')

iter:  45 08:58:43  -277.129144c -6.64  -5.54c
iter:  46 08:59:26  -277.129144c -6.47  -5.48c
iter:  47 09:00:09  -277.129144c -6.73  -5.47c
iter:  48 09:00:53  -277.129144c -6.94  -5.43c
iter:  49 09:01:36  -277.129144c -6.35  -5.41c
Writing to output.gpw (mode='')

iter:  50 09:02:20  -277.129144c -6.65  -5.35c
iter:  51 09:03:04  -277.129144c -6.71  -5.32c
iter:  52 09:03:47  -277.129144c -7.00  -5.28c
iter:  53 09:04:31  -277.129144c -7.15  -5.28c
iter:  54 09:05:15  -277.129144c -7.02  -5.31c
Writing to output.gpw (mode='')

iter:  55 09:05:59  -277.129144c -7.08  -5.26c
iter:  56 09:06:43  -277.129144c -7.04  -5.21c
iter:  57 09:07:26  -277.129144c -7.40  -5.21c
iter:  58 09:08:10  -277.129144c -7.44c -5.21c

Converged after 58 iterations.

Dipole moment: (-16.489204, -4.429219, 0.347396) |e|*Ang

Energy contributions relative to reference atoms: (reference = -13382.245603)

Kinetic:       +172.520078
Potential:     -154.893496
External:        +0.000000
XC:            -295.336069
Entropy (-ST):   -0.143143
Local:           +0.651914
--------------------------
Free energy:   -277.200715
Extrapolated:  -277.129144

Dipole-layer corrected work functions: 3.379772, 2.711959 eV

Showing only first 2 kpts
 Kpt  Band  Eigenvalues  Occupancy
  0    28     -3.29357    1.98599
  0    29     -3.18000    1.87200
  0    30     -2.88424    0.07592
  0    31     -2.79102    0.01216

  1    28     -3.09466    1.45256
  1    29     -3.04457    0.98704
  1    30     -3.02433    0.78790
  1    31     -2.93937    0.21245


Fermi level: -3.04587

No gap
Writing to output.gpw (mode='')


Forces in eV/Ang:
  0 Li    0.01348   -0.00001   -0.27289
  1 Li    0.00052    0.00094   -0.26189
  2 Li   -0.01381   -0.00072   -0.27298
  3 Li    0.00221    0.00939   -0.27045
  4 Li   -0.00040   -0.00022   -0.27885
  5 Li   -0.00196    0.00903   -0.27023
  6 Li    0.00108   -0.00947   -0.27002
  7 Li   -0.00005    0.00013   -0.27986
  8 Li   -0.00124   -0.00859   -0.27021
  9 Li    0.00028    0.01652    0.30797
 10 Li    0.02127   -0.00651    0.25441
 11 Li   -0.02177   -0.00670    0.25297
 12 Li   -0.00008   -0.01714    0.31075
 13 Li    0.02158    0.00678    0.25263
 14 Li   -0.02180    0.00585    0.25321
 15 Li    0.00004    0.00190    0.23755
 16 Li   -0.02806   -0.00050    0.26733
 17 Li    0.02824    0.00090    0.26822
 18 Li    0.06078    0.00024   -0.08233
 19 Li   -0.00077    0.00022    0.05966
 20 Li   -0.06074   -0.00090   -0.07819
 21 Li   -0.01979   -0.02262    0.05658
 22 Li    0.00030    0.01340    0.02831
 23 Li    0.01972   -0.02279    0.05576
 24 Li   -0.01831    0.02318    0.05927
 25 Li   -0.00075   -0.01451    0.02579
 26 Li    0.01932    0.02409    0.06161
 27 Li    0.00240    0.07214   -0.02821
 28 Li    0.05225   -0.03046   -0.05280
 29 Li   -0.04716   -0.02896   -0.05518
 30 Li    0.00011   -0.11383    0.02016
 31 Li    0.05114    0.02798   -0.05070
 32 Li   -0.05208    0.02586   -0.05204
 33 Li   -0.00049    0.00544   -0.02215
 34 Li   -0.01479    0.00153   -0.01503
 35 Li    0.01519    0.00236   -0.01401
 36 O    -0.15781   -0.46389   10.40586
 37 C     0.00920    0.11253    4.53210
 38 H     0.13531   -0.11114    0.51224
 39 H    -0.16722   -0.01293    0.51755
 40 H     0.03739    0.10217    0.40914
 41 H    -0.03706   -0.08184    1.86090
 42 N     0.35299    1.34867   -7.24140
 43 N    -0.17089   -0.87929  -10.85472

System changes: positions 

Initializing position-dependent things.

Density initialized from wave functions
       .-----------------------.  
      /|                       |  
     / |                       |  
    /  |                       |  
   /   |                       |  
  /    |                       |  
 *     |                       |  
 |     |                       |  
 |     |                       |  
 |     |                       |  
 |     |                       |  
 | H   |               H       |  
 | H   |                  C    |  
 |     |                  O    |  
 |     |       Li      Li      |  
 |     |                 HN    |  
 |     |     Li      Li      Li|  
 |N    |  Li      Li      Li   |  
 |     |   Li      Li      Li  |  
 |     |Li      Li      Li     |  
 Li    |                       |  
 |   LLi     LLi     LLi       |  
 |     |  Li      Li      Li   |  
 | Li  |   Li      Li          |  
 |     |Li      Li      Li     |  
 Li    | Li      Li            |  
 |    Li      Li      Li       |  
 |     |                       |  
 |     |                       |  
 |     |                       |  
 |     |                       |  
 |     |                       |  
 |     |                       |  
 |     .-----------------------.  
 |    /                       /   
 |   /                       /    
 |  /                       /     
 | /                       /      
 |/                       /       
 *-----------------------*        

Positions:
   0 Li     1.617037    1.617037   10.000000    ( 0.0000,  0.0000,  0.0000)
   1 Li     4.851111    1.617037   10.000000    ( 0.0000,  0.0000,  0.0000)
   2 Li     8.085185    1.617037   10.000000    ( 0.0000,  0.0000,  0.0000)
   3 Li     1.617037    4.851111   10.000000    ( 0.0000,  0.0000,  0.0000)
   4 Li     4.851111    4.851111   10.000000    ( 0.0000,  0.0000,  0.0000)
   5 Li     8.085185    4.851111   10.000000    ( 0.0000,  0.0000,  0.0000)
   6 Li     1.617037    8.085185   10.000000    ( 0.0000,  0.0000,  0.0000)
   7 Li     4.851111    8.085185   10.000000    ( 0.0000,  0.0000,  0.0000)
   8 Li     8.085185    8.085185   10.000000    ( 0.0000,  0.0000,  0.0000)
   9 Li     0.000000    0.000000   11.617037    ( 0.0000,  0.0000,  0.0000)
  10 Li     3.234074    0.000000   11.617037    ( 0.0000,  0.0000,  0.0000)
  11 Li     6.468148    0.000000   11.617037    ( 0.0000,  0.0000,  0.0000)
  12 Li     0.000000    3.234074   11.617037    ( 0.0000,  0.0000,  0.0000)
  13 Li     3.234074    3.234074   11.617037    ( 0.0000,  0.0000,  0.0000)
  14 Li     6.468148    3.234074   11.617037    ( 0.0000,  0.0000,  0.0000)
  15 Li     0.000000    6.468148   11.617037    ( 0.0000,  0.0000,  0.0000)
  16 Li     3.234074    6.468148   11.617037    ( 0.0000,  0.0000,  0.0000)
  17 Li     6.468148    6.468148   11.617037    ( 0.0000,  0.0000,  0.0000)
  18 Li     1.618110    1.617043   13.468274    ( 0.0000,  0.0000,  0.0000)
  19 Li     4.851101    1.617038   13.470764    ( 0.0000,  0.0000,  0.0000)
  20 Li     8.084118    1.617025   13.468343    ( 0.0000,  0.0000,  0.0000)
  21 Li     1.616696    4.850681   13.470738    ( 0.0000,  0.0000,  0.0000)
  22 Li     4.851120    4.851365   13.470183    ( 0.0000,  0.0000,  0.0000)
  23 Li     8.085522    4.850690   13.470713    ( 0.0000,  0.0000,  0.0000)
  24 Li     1.616716    8.085606   13.470758    ( 0.0000,  0.0000,  0.0000)
  25 Li     4.851101    8.084911   13.470165    ( 0.0000,  0.0000,  0.0000)
  26 Li     8.085521    8.085613   13.470799    ( 0.0000,  0.0000,  0.0000)
  27 Li     0.000038    0.001138   15.445234    ( 0.0000,  0.0000,  0.0000)
  28 Li     3.235047   -0.000550   15.444968    ( 0.0000,  0.0000,  0.0000)
  29 Li     6.467243   -0.000534   15.444896    ( 0.0000,  0.0000,  0.0000)
  30 Li    -0.000022    3.232133   15.446016    ( 0.0000,  0.0000,  0.0000)
  31 Li     3.235059    3.234602   15.444995    ( 0.0000,  0.0000,  0.0000)
  32 Li     6.467174    3.234561   15.444976    ( 0.0000,  0.0000,  0.0000)
  33 Li    -0.000010    6.468213   15.445542    ( 0.0000,  0.0000,  0.0000)
  34 Li     3.233813    6.468168   15.445690    ( 0.0000,  0.0000,  0.0000)
  35 Li     6.468416    6.468191   15.445700    ( 0.0000,  0.0000,  0.0000)
  36 O     -0.005488    1.600657   19.783656    ( 0.0000,  0.0000,  0.0000)
  37 C     -0.006909    1.598083   21.124504    ( 0.0000,  0.0000,  0.0000)
  38 H      0.685524    0.848476   21.492898    ( 0.0000,  0.0000,  0.0000)
  39 H     -1.012464    1.422982   21.492178    ( 0.0000,  0.0000,  0.0000)
  40 H      0.328958    2.592071   21.404752    ( 0.0000,  0.0000,  0.0000)
  41 H     -0.286506    0.767815   19.365980    ( 0.0000,  0.0000,  0.0000)
  42 N      0.003087    1.630302   17.076891    ( 0.0000,  0.0000,  0.0000)
  43 N     -0.000965    1.609290   18.163905    ( 0.0000,  0.0000,  0.0000)

Unit cell:
           periodic     x           y           z      points  spacing
  1. axis:    yes    9.702222    0.000000    0.000000    60     0.1617
  2. axis:    yes    0.000000    9.702222    0.000000    60     0.1617
  3. axis:    no     0.000000    0.000000   26.601111   168     0.1583

  Lengths:   9.702222   9.702222  26.601111
  Angles:   90.000000  90.000000  90.000000

Effective grid spacing dv^(1/3) = 0.1606

     iter     time        total  log10-change:
                         energy  eigst   dens
iter:   1 09:09:09  -278.138454  -0.76
iter:   2 09:09:52  -278.074279  -0.99  -1.60
iter:   3 09:10:35  -278.056818  -1.82  -1.81
iter:   4 09:11:19  -278.054791c -0.99  -2.16
Writing to output.gpw (mode='')

iter:   5 09:12:03  -278.047188c -1.92  -2.01
iter:   6 09:12:47  -278.043817c -1.87  -2.19
iter:   7 09:13:30  -278.044761c -1.88  -2.56
iter:   8 09:14:14  -278.044471c -2.64  -2.57
iter:   9 09:14:57  -278.043845c -2.49  -2.68
Writing to output.gpw (mode='')

iter:  10 09:15:42  -278.043848c -3.07  -2.90
iter:  11 09:16:26  -278.043876c -3.28  -3.09
iter:  12 09:17:09  -278.043846c -3.38  -3.16
iter:  13 09:17:52  -278.043856c -3.75  -3.24
iter:  14 09:18:36  -278.043889c -3.63  -3.31
Writing to output.gpw (mode='')

iter:  15 09:19:20  -278.043906c -3.79  -3.47
iter:  16 09:20:04  -278.043913c -3.98  -3.55
iter:  17 09:20:47  -278.043921c -4.29  -3.61
iter:  18 09:21:31  -278.043927c -4.42  -3.67
iter:  19 09:22:14  -278.043933c -4.36  -3.77
Writing to output.gpw (mode='')

iter:  20 09:22:58  -278.043937c -4.52  -3.89
iter:  21 09:23:42  -278.043940c -4.67  -3.96
iter:  22 09:24:25  -278.043942c -4.99  -4.18c
iter:  23 09:25:09  -278.043944c -4.73  -4.22c
iter:  24 09:25:52  -278.043945c -4.92  -4.22c
Writing to output.gpw (mode='')

iter:  25 09:26:36  -278.043947c -5.14  -4.26c
iter:  26 09:27:20  -278.043948c -5.21  -4.25c
iter:  27 09:28:03  -278.043949c -5.37  -4.26c
iter:  28 09:28:47  -278.043950c -5.38  -4.26c
iter:  29 09:29:30  -278.043950c -5.76  -4.22c
Writing to output.gpw (mode='')

iter:  30 09:30:14  -278.043951c -5.81  -4.36c
iter:  31 09:30:58  -278.043951c -5.64  -4.54c
iter:  32 09:31:41  -278.043951c -6.03  -4.61c
iter:  33 09:32:25  -278.043951c -5.92  -4.69c
iter:  34 09:33:08  -278.043951c -5.91  -4.76c
Writing to output.gpw (mode='')

iter:  35 09:33:53  -278.043951c -6.16  -4.98c
iter:  36 09:34:36  -278.043951c -6.28  -4.97c
iter:  37 09:35:19  -278.043951c -6.37  -4.96c
iter:  38 09:36:03  -278.043951c -6.06  -4.99c
iter:  39 09:36:46  -278.043951c -6.45  -4.91c
Writing to output.gpw (mode='')

iter:  40 09:37:30  -278.043952c -6.53  -4.94c
iter:  41 09:38:14  -278.043952c -6.48  -4.92c
iter:  42 09:38:57  -278.043952c -6.52  -4.85c
iter:  43 09:39:41  -278.043952c -6.71  -4.94c
iter:  44 09:40:24  -278.043952c -6.88  -4.81c
Writing to output.gpw (mode='')

iter:  45 09:41:10  -278.043952c -6.80  -4.95c
iter:  46 09:41:53  -278.043952c -7.00  -5.09c
iter:  47 09:42:37  -278.043952c -7.14  -5.11c
iter:  48 09:43:20  -278.043952c -6.92  -5.10c
iter:  49 09:44:04  -278.043952c -7.18  -5.20c
Writing to output.gpw (mode='')

iter:  50 09:44:48  -278.043952c -7.06  -5.32c
iter:  51 09:45:31  -278.043952c -7.27  -5.33c
iter:  52 09:46:15  -278.043952c -7.33  -5.34c
iter:  53 09:46:58  -278.043952c -7.28  -5.38c
iter:  54 09:47:42  -278.043952c -7.31  -5.52c
Writing to output.gpw (mode='')

iter:  55 09:48:26  -278.043952c -7.41c -5.59c

Converged after 55 iterations.

Dipole moment: (-16.324370, -4.379557, 0.331540) |e|*Ang

Energy contributions relative to reference atoms: (reference = -13382.245603)

Kinetic:       +168.267919
Potential:     -151.953674
External:        +0.000000
XC:            -294.944723
Entropy (-ST):   -0.142843
Local:           +0.657947
--------------------------
Free energy:   -278.115374
Extrapolated:  -278.043952

Dipole-layer corrected work functions: 3.380885, 2.743552 eV

Showing only first 2 kpts
 Kpt  Band  Eigenvalues  Occupancy
  0    28     -3.30943    1.98585
  0    29     -3.19365    1.86535
  0    30     -2.90088    0.07635
  0    31     -2.80753    0.01219

  1    28     -3.11117    1.45382
  1    29     -3.06053    0.98311
  1    30     -3.04227    0.80314
  1    31     -2.95193    0.19846


Fermi level: -3.06222

No gap

Forces in eV/Ang:
  0 Li    0.01328   -0.00007   -0.27306
  1 Li    0.00054    0.00092   -0.26119
  2 Li   -0.01363   -0.00075   -0.27315
  3 Li    0.00235    0.00943   -0.27069
  4 Li   -0.00034    0.00040   -0.27926
  5 Li   -0.00219    0.00905   -0.27050
  6 Li    0.00131   -0.00943   -0.27028
  7 Li   -0.00007   -0.00024   -0.28030
  8 Li   -0.00148   -0.00859   -0.27044
  9 Li    0.00027    0.01702    0.30906
 10 Li    0.02163   -0.00678    0.25426
 11 Li   -0.02214   -0.00696    0.25280
 12 Li   -0.00011   -0.01755    0.31192
 13 Li    0.02180    0.00695    0.25271
 14 Li   -0.02202    0.00608    0.25331
 15 Li    0.00007    0.00206    0.23727
 16 Li   -0.02873   -0.00052    0.26744
 17 Li    0.02894    0.00087    0.26814
 18 Li    0.06289    0.00029   -0.08412
 19 Li   -0.00074    0.00016    0.05877
 20 Li   -0.06282   -0.00103   -0.07995
 21 Li   -0.02029   -0.02261    0.05586
 22 Li    0.00030    0.01304    0.02789
 23 Li    0.02024   -0.02267    0.05507
 24 Li   -0.01874    0.02302    0.05849
 25 Li   -0.00065   -0.01429    0.02580
 26 Li    0.01970    0.02389    0.06073
 27 Li    0.00248    0.07368   -0.03445
 28 Li    0.05179   -0.02996   -0.05247
 29 Li   -0.04647   -0.02827   -0.05524
 30 Li   -0.00041   -0.11848    0.01241
 31 Li    0.05022    0.02738   -0.04977
 32 Li   -0.05146    0.02545   -0.05147
 33 Li   -0.00046    0.00473   -0.02333
 34 Li   -0.01389    0.00167   -0.01528
 35 Li    0.01423    0.00221   -0.01444
 36 O    -0.06351   -0.14237    8.19035
 37 C    -0.01498    0.08123    3.90236
 38 H     0.17000   -0.16478    0.64961
 39 H    -0.23144   -0.04528    0.66102
 40 H     0.03076    0.08397    0.48780
 41 H    -0.07758   -0.18773    1.64532
 42 N     0.28212    1.15860   -5.65051
 43 N    -0.10917   -0.69104   -9.76095

System changes: positions 

Initializing position-dependent things.

Density initialized from wave functions
       .-----------------------.  
      /|                       |  
     / |                       |  
    /  |                       |  
   /   |                       |  
  /    |                       |  
 *     |                       |  
 |     |                       |  
 |     |                       |  
 |     |                       |  
 |     |                       |  
 | H   |               H       |  
 | H   |                  C    |  
 |     |                  O    |  
 |     |       Li      LiH     |  
 |     |                       |  
 |N    |     Li      Li      Li|  
 |N    |  Li      Li      Li   |  
 |     |   Li      Li      Li  |  
 |     |Li      Li      Li     |  
 Li    |                       |  
 |   LLi     LLi     LLi       |  
 |     |  Li      Li      Li   |  
 | Li  |   Li      Li          |  
 |     |Li      Li      Li     |  
 Li    | Li      Li            |  
 |    Li      Li      Li       |  
 |     |                       |  
 |     |                       |  
 |     |                       |  
 |     |                       |  
 |     |                       |  
 |     |                       |  
 |     .-----------------------.  
 |    /                       /   
 |   /                       /    
 |  /                       /     
 | /                       /      
 |/                       /       
 *-----------------------*        

Positions:
   0 Li     1.617037    1.617037   10.000000    ( 0.0000,  0.0000,  0.0000)
   1 Li     4.851111    1.617037   10.000000    ( 0.0000,  0.0000,  0.0000)
   2 Li     8.085185    1.617037   10.000000    ( 0.0000,  0.0000,  0.0000)
   3 Li     1.617037    4.851111   10.000000    ( 0.0000,  0.0000,  0.0000)
   4 Li     4.851111    4.851111   10.000000    ( 0.0000,  0.0000,  0.0000)
   5 Li     8.085185    4.851111   10.000000    ( 0.0000,  0.0000,  0.0000)
   6 Li     1.617037    8.085185   10.000000    ( 0.0000,  0.0000,  0.0000)
   7 Li     4.851111    8.085185   10.000000    ( 0.0000,  0.0000,  0.0000)
   8 Li     8.085185    8.085185   10.000000    ( 0.0000,  0.0000,  0.0000)
   9 Li     0.000000    0.000000   11.617037    ( 0.0000,  0.0000,  0.0000)
  10 Li     3.234074    0.000000   11.617037    ( 0.0000,  0.0000,  0.0000)
  11 Li     6.468148    0.000000   11.617037    ( 0.0000,  0.0000,  0.0000)
  12 Li     0.000000    3.234074   11.617037    ( 0.0000,  0.0000,  0.0000)
  13 Li     3.234074    3.234074   11.617037    ( 0.0000,  0.0000,  0.0000)
  14 Li     6.468148    3.234074   11.617037    ( 0.0000,  0.0000,  0.0000)
  15 Li     0.000000    6.468148   11.617037    ( 0.0000,  0.0000,  0.0000)
  16 Li     3.234074    6.468148   11.617037    ( 0.0000,  0.0000,  0.0000)
  17 Li     6.468148    6.468148   11.617037    ( 0.0000,  0.0000,  0.0000)
  18 Li     1.618779    1.617047   13.467396    ( 0.0000,  0.0000,  0.0000)
  19 Li     4.851096    1.617036   13.471343    ( 0.0000,  0.0000,  0.0000)
  20 Li     8.083453    1.617015   13.467503    ( 0.0000,  0.0000,  0.0000)
  21 Li     1.616487    4.850429   13.471311    ( 0.0000,  0.0000,  0.0000)
  22 Li     4.851126    4.851507   13.470434    ( 0.0000,  0.0000,  0.0000)
  23 Li     8.085730    4.850447   13.471273    ( 0.0000,  0.0000,  0.0000)
  24 Li     1.616519    8.085850   13.471343    ( 0.0000,  0.0000,  0.0000)
  25 Li     4.851098    8.084756   13.470416    ( 0.0000,  0.0000,  0.0000)
  26 Li     8.085726    8.085859   13.471404    ( 0.0000,  0.0000,  0.0000)
  27 Li     0.000060    0.001802   15.444624    ( 0.0000,  0.0000,  0.0000)
  28 Li     3.235604   -0.000860   15.444407    ( 0.0000,  0.0000,  0.0000)
  29 Li     6.466727   -0.000831   15.444284    ( 0.0000,  0.0000,  0.0000)
  30 Li    -0.000046    3.230956   15.445815    ( 0.0000,  0.0000,  0.0000)
  31 Li     3.235612    3.234895   15.444464    ( 0.0000,  0.0000,  0.0000)
  32 Li     6.466620    3.234836   15.444424    ( 0.0000,  0.0000,  0.0000)
  33 Li    -0.000015    6.468236   15.445290    ( 0.0000,  0.0000,  0.0000)
  34 Li     3.233678    6.468185   15.445541    ( 0.0000,  0.0000,  0.0000)
  35 Li     6.468553    6.468214   15.445553    ( 0.0000,  0.0000,  0.0000)
  36 O     -0.006130    1.599306   19.801781    ( 0.0000,  0.0000,  0.0000)
  37 C     -0.008375    1.594723   21.143515    ( 0.0000,  0.0000,  0.0000)
  38 H      0.688314    0.845498   21.503543    ( 0.0000,  0.0000,  0.0000)
  39 H     -1.016475    1.422028   21.502902    ( 0.0000,  0.0000,  0.0000)
  40 H      0.329417    2.593356   21.411454    ( 0.0000,  0.0000,  0.0000)
  41 H     -0.285022    0.772639   19.379525    ( 0.0000,  0.0000,  0.0000)
  42 N      0.003210    1.633424   17.037013    ( 0.0000,  0.0000,  0.0000)
  43 N      0.000090    1.609749   18.127307    ( 0.0000,  0.0000,  0.0000)

Unit cell:
           periodic     x           y           z      points  spacing
  1. axis:    yes    9.702222    0.000000    0.000000    60     0.1617
  2. axis:    yes    0.000000    9.702222    0.000000    60     0.1617
  3. axis:    no     0.000000    0.000000   26.601111   168     0.1583

  Lengths:   9.702222   9.702222  26.601111
  Angles:   90.000000  90.000000  90.000000

Effective grid spacing dv^(1/3) = 0.1606

     iter     time        total  log10-change:
                         energy  eigst   dens
iter:   1 09:49:23  -278.943287  -0.75
iter:   2 09:50:07  -278.856456  -0.89  -1.55
iter:   3 09:50:50  -278.834867  -1.80  -1.78
iter:   4 09:51:33  -278.835951c -0.98  -2.16
Writing to output.gpw (mode='')

iter:   5 09:52:20  -278.825864c -1.94  -1.98
iter:   6 09:53:04  -278.823019c -2.10  -2.17
iter:   7 09:53:47  -278.824646c -1.70  -2.38
iter:   8 09:54:30  -278.823689c -2.66  -2.40
iter:   9 09:55:14  -278.822848c -2.28  -2.52
Writing to output.gpw (mode='')

iter:  10 09:55:59  -278.822917c -3.15  -2.90
iter:  11 09:56:42  -278.823230c -3.03  -3.09
iter:  12 09:57:25  -278.822997c -2.98  -2.84
iter:  13 09:58:09  -278.823019c -3.77  -3.13
iter:  14 09:58:53  -278.823045c -3.63  -3.27
Writing to output.gpw (mode='')

iter:  15 09:59:38  -278.823053c -3.92  -3.49
iter:  16 10:00:21  -278.823068c -4.11  -3.52
iter:  17 10:01:05  -278.823080c -4.14  -3.52
iter:  18 10:01:48  -278.823100c -4.05  -3.71
iter:  19 10:02:32  -278.823108c -4.56  -3.80
Writing to output.gpw (mode='')

iter:  20 10:03:16  -278.823106c -4.58  -3.76
iter:  21 10:03:59  -278.823109c -4.80  -4.06c
iter:  22 10:04:43  -278.823111c -4.81  -4.10c
iter:  23 10:05:27  -278.823112c -4.87  -4.11c
iter:  24 10:06:10  -278.823113c -5.18  -4.19c
Writing to output.gpw (mode='')

iter:  25 10:06:55  -278.823114c -5.34  -4.16c
iter:  26 10:07:38  -278.823119c -5.45  -4.20c
iter:  27 10:08:22  -278.823118c -5.38  -4.55c
iter:  28 10:09:05  -278.823118c -5.17  -4.70c
iter:  29 10:09:49  -278.823119c -5.71  -4.71c
Writing to output.gpw (mode='')

iter:  30 10:10:39  -278.823119c -5.55  -4.72c
iter:  31 10:11:22  -278.823119c -5.82  -4.72c
iter:  32 10:12:06  -278.823119c -5.95  -4.68c
iter:  33 10:12:49  -278.823120c -6.09  -4.73c
iter:  34 10:13:33  -278.823119c -5.90  -4.79c
Writing to output.gpw (mode='')

iter:  35 10:14:20  -278.823120c -5.88  -4.71c
iter:  36 10:15:04  -278.823120c -6.25  -4.73c
iter:  37 10:15:47  -278.823121c -6.23  -4.59c
iter:  38 10:16:31  -278.823121c -6.22  -4.94c
iter:  39 10:17:15  -278.823121c -6.22  -5.01c
Writing to output.gpw (mode='')

iter:  40 10:17:59  -278.823121c -6.28  -5.02c
iter:  41 10:18:42  -278.823121c -6.78  -5.17c
iter:  42 10:19:26  -278.823121c -6.53  -5.26c
iter:  43 10:20:09  -278.823121c -6.69  -5.31c
iter:  44 10:20:53  -278.823121c -6.97  -5.39c
Writing to output.gpw (mode='')

iter:  45 10:21:37  -278.823121c -6.68  -5.43c
iter:  46 10:22:20  -278.823121c -6.88  -5.57c
iter:  47 10:23:04  -278.823121c -7.00  -5.60c
iter:  48 10:23:47  -278.823121c -6.93  -5.71c
iter:  49 10:24:30  -278.823121c -7.25  -5.80c
Writing to output.gpw (mode='')

iter:  50 10:25:14  -278.823121c -7.26  -5.83c
iter:  51 10:25:58  -278.823121c -7.13  -5.87c
iter:  52 10:26:42  -278.823121c -7.33  -5.90c
iter:  53 10:27:25  -278.823121c -7.14  -5.87c
iter:  54 10:28:09  -278.823121c -7.52c -5.81c

Converged after 54 iterations.

Dipole moment: (-16.245864, -4.346062, 0.311625) |e|*Ang

Energy contributions relative to reference atoms: (reference = -13382.245603)

Kinetic:       +164.666402
Potential:     -149.499191
External:        +0.000000
XC:            -294.581870
Entropy (-ST):   -0.142507
Local:           +0.662792
--------------------------
Free energy:   -278.894375
Extrapolated:  -278.823121

Dipole-layer corrected work functions: 3.381875, 2.782825 eV

Showing only first 2 kpts
 Kpt  Band  Eigenvalues  Occupancy
  0    28     -3.32913    1.98573
  0    29     -3.21131    1.85902
  0    30     -2.92114    0.07653
  0    31     -2.82789    0.01225

  1    28     -3.13136    1.45434
  1    29     -3.08039    0.98045
  1    30     -3.06349    0.81360
  1    31     -2.96858    0.18636


Fermi level: -3.08235

No gap
Writing to output.gpw (mode='')


Forces in eV/Ang:
  0 Li    0.01309   -0.00011   -0.27320
  1 Li    0.00052    0.00093   -0.26058
  2 Li   -0.01344   -0.00076   -0.27330
  3 Li    0.00248    0.00949   -0.27098
  4 Li   -0.00029    0.00100   -0.27968
  5 Li   -0.00238    0.00913   -0.27082
  6 Li    0.00148   -0.00944   -0.27059
  7 Li   -0.00007   -0.00065   -0.28074
  8 Li   -0.00165   -0.00866   -0.27074
  9 Li    0.00026    0.01752    0.31019
 10 Li    0.02209   -0.00715    0.25413
 11 Li   -0.02256   -0.00733    0.25270
 12 Li   -0.00013   -0.01793    0.31301
 13 Li    0.02217    0.00722    0.25275
 14 Li   -0.02237    0.00641    0.25336
 15 Li    0.00009    0.00217    0.23712
 16 Li   -0.02946   -0.00051    0.26768
 17 Li    0.02966    0.00083    0.26825
 18 Li    0.06467    0.00031   -0.08498
 19 Li   -0.00068    0.00009    0.05735
 20 Li   -0.06458   -0.00108   -0.08110
 21 Li   -0.02070   -0.02260    0.05498
 22 Li    0.00028    0.01286    0.02721
 23 Li    0.02067   -0.02259    0.05423
 24 Li   -0.01909    0.02288    0.05756
 25 Li   -0.00058   -0.01420    0.02542
 26 Li    0.02000    0.02368    0.05967
 27 Li    0.00243    0.06931   -0.04828
 28 Li    0.05121   -0.02932   -0.05226
 29 Li   -0.04599   -0.02769   -0.05536
 30 Li   -0.00095   -0.11546   -0.00520
 31 Li    0.04931    0.02669   -0.04912
 32 Li   -0.05085    0.02506   -0.05104
 33 Li   -0.00048    0.00418   -0.02391
 34 Li   -0.01308    0.00177   -0.01529
 35 Li    0.01342    0.00213   -0.01454
 36 O    -0.01314    0.01974    6.39587
 37 C     0.01190    0.10499    3.30974
 38 H     0.14430   -0.16477    0.69811
 39 H    -0.22863   -0.05262    0.72071
 40 H     0.00603    0.01803    0.54820
 41 H    -0.09445   -0.22265    1.44795
 42 N     0.23047    1.00189   -4.89561
 43 N    -0.07335   -0.67827   -8.06496

System changes: positions 

Initializing position-dependent things.

Density initialized from wave functions
       .-----------------------.  
      /|                       |  
     / |                       |  
    /  |                       |  
   /   |                       |  
  /    |                       |  
 *     |                       |  
 |     |                       |  
 |     |                       |  
 |     |                       |  
 |     |                       |  
 | H   |               H       |  
 | H   |                  C    |  
 |     |                  O    |  
 |     |       Li      LiH     |  
 |     |                       |  
 |N    |     Li      Li      Li|  
 |N    |  Li      Li      Li   |  
 |     |   Li      Li      Li  |  
 |     |Li      Li      Li     |  
 Li    |                       |  
 |   LLi     LLi     LLi       |  
 |     |  Li      Li      Li   |  
 | Li  |   Li      Li          |  
 |     |Li      Li      Li     |  
 Li    | Li      Li            |  
 |    Li      Li      Li       |  
 |     |                       |  
 |     |                       |  
 |     |                       |  
 |     |                       |  
 |     |                       |  
 |     |                       |  
 |     .-----------------------.  
 |    /                       /   
 |   /                       /    
 |  /                       /     
 | /                       /      
 |/                       /       
 *-----------------------*        

Positions:
   0 Li     1.617037    1.617037   10.000000    ( 0.0000,  0.0000,  0.0000)
   1 Li     4.851111    1.617037   10.000000    ( 0.0000,  0.0000,  0.0000)
   2 Li     8.085185    1.617037   10.000000    ( 0.0000,  0.0000,  0.0000)
[...]

iter:  15 12:52:23  -283.211176c -5.24  -4.02c
iter:  16 12:53:07  -283.211178c -5.36  -3.88
iter:  17 12:53:50  -283.211180c -5.46  -4.27c
iter:  18 12:54:33  -283.211178c -5.99  -4.37c
iter:  19 12:55:17  -283.211179c -6.17  -4.37c
Writing to output.gpw (mode='')

iter:  20 12:56:01  -283.211179c -6.16  -4.63c
iter:  21 12:56:44  -283.211180c -6.77  -4.70c
iter:  22 12:57:27  -283.211180c -6.91  -4.74c
iter:  23 12:58:11  -283.211180c -6.62  -4.79c
iter:  24 12:58:54  -283.211180c -7.02  -4.93c
Writing to output.gpw (mode='')

iter:  25 12:59:38  -283.211180c -7.18  -5.04c
iter:  26 13:00:21  -283.211180c -7.17  -5.14c
iter:  27 13:01:05  -283.211180c -7.33  -5.27c
iter:  28 13:01:48  -283.211180c -7.56c -5.35c

Converged after 28 iterations.

Dipole moment: (2.614771, -5.632421, 0.035518) |e|*Ang

Energy contributions relative to reference atoms: (reference = -13382.245603)

Kinetic:       +133.922015
Potential:     -126.811562
External:        +0.000000
XC:            -290.957211
Entropy (-ST):   -0.147261
Local:           +0.709210
--------------------------
Free energy:   -283.284810
Extrapolated:  -283.211180

Dipole-layer corrected work functions: 3.409316, 3.341039 eV

Showing only first 2 kpts
 Kpt  Band  Eigenvalues  Occupancy
  0    28     -3.63634    1.98928
  0    29     -3.57715    1.96539
  0    30     -3.24747    0.14430
  0    31     -3.15437    0.02387

  1    28     -3.42695    1.47596
  1    29     -3.36480    0.89659
  1    30     -3.32094    0.50523
  1    31     -3.25780    0.17453


Fermi level: -3.37518

No gap
Writing to output.gpw (mode='')


Forces in eV/Ang:
  0 Li    0.02110    0.00453   -0.26849
  1 Li   -0.00294    0.00298   -0.27332
  2 Li   -0.01940    0.00476   -0.26836
  3 Li   -0.00257    0.01325   -0.26888
  4 Li   -0.00071   -0.00338   -0.29105
  5 Li    0.00355    0.01542   -0.26751
  6 Li   -0.00265   -0.01944   -0.27988
  7 Li   -0.00077    0.00154   -0.27451
  8 Li    0.00407   -0.02141   -0.27923
  9 Li    0.00253    0.00736    0.31511
 10 Li    0.01183   -0.00288    0.26270
 11 Li   -0.00976   -0.00771    0.26799
 12 Li    0.00278    0.02943    0.23852
 13 Li    0.02458    0.02115    0.24464
 14 Li   -0.02038    0.02513    0.24783
 15 Li    0.00299   -0.02577    0.21206
 16 Li   -0.03597   -0.01368    0.25690
 17 Li    0.03399   -0.01364    0.25638
 18 Li   -0.00003   -0.01484    0.00156
 19 Li   -0.00176    0.00884    0.02008
 20 Li   -0.00353   -0.01053   -0.00163
 21 Li    0.00700    0.01188    0.01872
 22 Li   -0.00182    0.00544    0.01371
 23 Li   -0.01124    0.00668    0.02233
 24 Li    0.00651   -0.00036    0.01770
 25 Li    0.00084   -0.01929   -0.00059
 26 Li   -0.00802    0.00053    0.01697
 27 Li    0.00006   -0.01100    0.00993
 28 Li    0.00792   -0.00831    0.00406
 29 Li   -0.00679   -0.00884    0.00541
 30 Li    0.00245   -0.01976   -0.01856
 31 Li   -0.00945    0.00738    0.00317
 32 Li    0.00367    0.00929   -0.00229
 33 Li   -0.00130   -0.02308    0.00505
 34 Li    0.00263    0.00292   -0.00762
 35 Li   -0.00006    0.00198   -0.00676
 36 O     0.03952    0.03139   -0.01792
 37 C     0.00366    0.00067   -0.02337
 38 H    -0.02958   -0.00807    0.04928
 39 H     0.01523   -0.04071    0.01393
 40 H     0.00401   -0.00860   -0.02398
 41 H     0.00791    0.04204    0.02863
 42 N     0.00233   -0.04012    0.05784
 43 N     0.01460    0.03773   -0.04224

System changes: positions 

Initializing position-dependent things.

Density initialized from wave functions
       .-----------------------.  
      /|                       |  
     / |                       |  
    /  |                       |  
   /   |                       |  
  /    |                       |  
 *     |                       |  
 |     |                       |  
 |     |                       |  
 |     |                       |  
 | H   |                       |  
 | H   |               H  C    |  
 |     |                       |  
 |O    |                       |  
 |     |       Li      LiH     |  
 |     |                       |  
 |     |     Li      Li      Li|  
 |     |  Li      Li     NNi   |  
 | Li  |   Li      Li          |  
 |     |Li      Li      Li     |  
 Li    |                       |  
 |   LLi     LLi     LLi       |  
 |     |  Li      Li      Li   |  
 | Li  |   Li      Li          |  
 |     |Li      Li      Li     |  
 Li    | Li      Li            |  
 |    Li      Li      Li       |  
 |     |                       |  
 |     |                       |  
 |     |                       |  
 |     |                       |  
 |     |                       |  
 |     |                       |  
 |     .-----------------------.  
 |    /                       /   
 |   /                       /    
 |  /                       /     
 | /                       /      
 |/                       /       
 *-----------------------*        

Positions:
   0 Li     1.617037    1.617037   10.000000    ( 0.0000,  0.0000,  0.0000)
   1 Li     4.851111    1.617037   10.000000    ( 0.0000,  0.0000,  0.0000)
   2 Li     8.085185    1.617037   10.000000    ( 0.0000,  0.0000,  0.0000)
   3 Li     1.617037    4.851111   10.000000    ( 0.0000,  0.0000,  0.0000)
   4 Li     4.851111    4.851111   10.000000    ( 0.0000,  0.0000,  0.0000)
   5 Li     8.085185    4.851111   10.000000    ( 0.0000,  0.0000,  0.0000)
   6 Li     1.617037    8.085185   10.000000    ( 0.0000,  0.0000,  0.0000)
   7 Li     4.851111    8.085185   10.000000    ( 0.0000,  0.0000,  0.0000)
   8 Li     8.085185    8.085185   10.000000    ( 0.0000,  0.0000,  0.0000)
   9 Li     0.000000    0.000000   11.617037    ( 0.0000,  0.0000,  0.0000)
  10 Li     3.234074    0.000000   11.617037    ( 0.0000,  0.0000,  0.0000)
  11 Li     6.468148    0.000000   11.617037    ( 0.0000,  0.0000,  0.0000)
  12 Li     0.000000    3.234074   11.617037    ( 0.0000,  0.0000,  0.0000)
  13 Li     3.234074    3.234074   11.617037    ( 0.0000,  0.0000,  0.0000)
  14 Li     6.468148    3.234074   11.617037    ( 0.0000,  0.0000,  0.0000)
  15 Li     0.000000    6.468148   11.617037    ( 0.0000,  0.0000,  0.0000)
  16 Li     3.234074    6.468148   11.617037    ( 0.0000,  0.0000,  0.0000)
  17 Li     6.468148    6.468148   11.617037    ( 0.0000,  0.0000,  0.0000)
  18 Li     1.609303    1.653213   13.431353    ( 0.0000,  0.0000,  0.0000)
  19 Li     4.855548    1.618853   13.439958    ( 0.0000,  0.0000,  0.0000)
  20 Li     8.098909    1.650686   13.422661    ( 0.0000,  0.0000,  0.0000)
  21 Li     1.583372    4.826796   13.500562    ( 0.0000,  0.0000,  0.0000)
  22 Li     4.851544    4.871114   13.442641    ( 0.0000,  0.0000,  0.0000)
  23 Li     8.124021    4.830900   13.496202    ( 0.0000,  0.0000,  0.0000)
  24 Li     1.602887    8.083821   13.451173    ( 0.0000,  0.0000,  0.0000)
  25 Li     4.848595    8.063948   13.451683    ( 0.0000,  0.0000,  0.0000)
  26 Li     8.101599    8.081545   13.448492    ( 0.0000,  0.0000,  0.0000)
  27 Li     0.009799    0.004246   15.386286    ( 0.0000,  0.0000,  0.0000)
  28 Li     3.284203   -0.009201   15.335083    ( 0.0000,  0.0000,  0.0000)
  29 Li     6.415531   -0.018130   15.327280    ( 0.0000,  0.0000,  0.0000)
  30 Li     0.001911    3.220809   15.574020    ( 0.0000,  0.0000,  0.0000)
  31 Li     3.295160    3.245277   15.378965    ( 0.0000,  0.0000,  0.0000)
  32 Li     6.414320    3.253766   15.376846    ( 0.0000,  0.0000,  0.0000)
  33 Li    -0.000148    6.517266   15.443174    ( 0.0000,  0.0000,  0.0000)
  34 Li     3.224640    6.465320   15.414577    ( 0.0000,  0.0000,  0.0000)
  35 Li     6.477300    6.465135   15.410443    ( 0.0000,  0.0000,  0.0000)
  36 O      0.019593    1.926140   20.239256    ( 0.0000,  0.0000,  0.0000)
  37 C     -0.043347    1.618774   21.632341    ( 0.0000,  0.0000,  0.0000)
  38 H      0.645801    0.812336   21.902481    ( 0.0000,  0.0000,  0.0000)
  39 H     -1.055572    1.343095   21.947692    ( 0.0000,  0.0000,  0.0000)
  40 H      0.251725    2.520544   22.166568    ( 0.0000,  0.0000,  0.0000)
  41 H     -0.160405    1.122566   19.736422    ( 0.0000,  0.0000,  0.0000)
  42 N     -0.070618    1.690152   16.835194    ( 0.0000,  0.0000,  0.0000)
  43 N     -0.111206    0.738207   17.460421    ( 0.0000,  0.0000,  0.0000)

Unit cell:
           periodic     x           y           z      points  spacing
  1. axis:    yes    9.702222    0.000000    0.000000    60     0.1617
  2. axis:    yes    0.000000    9.702222    0.000000    60     0.1617
  3. axis:    no     0.000000    0.000000   26.601111   168     0.1583

  Lengths:   9.702222   9.702222  26.601111
  Angles:   90.000000  90.000000  90.000000

Effective grid spacing dv^(1/3) = 0.1606

     iter     time        total  log10-change:
                         energy  eigst   dens
iter:   1 13:02:46  -283.214181  -2.37
iter:   2 13:03:30  -283.213242  -2.89  -2.36
iter:   3 13:04:13  -283.212310c -3.80  -2.52
iter:   4 13:04:56  -283.212211c -4.01  -2.91
Writing to output.gpw (mode='')

iter:   5 13:05:39  -283.212132c -3.79  -3.11
iter:   6 13:06:23  -283.212092c -3.92  -3.29
iter:   7 13:07:06  -283.212071c -4.31  -3.38
iter:   8 13:07:49  -283.212067c -4.71  -3.62
iter:   9 13:08:32  -283.212063c -4.71  -3.64
Writing to output.gpw (mode='')

iter:  10 13:09:20  -283.212065c -5.26  -3.87
iter:  11 13:10:03  -283.212066c -5.70  -3.96
iter:  12 13:10:46  -283.212064c -5.67  -4.05c
iter:  13 13:11:29  -283.212064c -6.14  -4.28c
iter:  14 13:12:12  -283.212065c -6.43  -4.36c
Writing to output.gpw (mode='')

iter:  15 13:12:56  -283.212066c -6.53  -4.41c
iter:  16 13:13:39  -283.212065c -6.39  -4.50c
iter:  17 13:14:23  -283.212066c -6.64  -4.72c
iter:  18 13:15:06  -283.212067c -6.69  -4.85c
iter:  19 13:15:49  -283.212067c -7.08  -4.95c
Writing to output.gpw (mode='')

iter:  20 13:16:33  -283.212067c -6.98  -4.91c
iter:  21 13:17:16  -283.212066c -7.20  -4.93c
iter:  22 13:17:59  -283.212066c -7.53c -5.14c

Converged after 22 iterations.

Dipole moment: (2.303717, -5.606207, 0.037101) |e|*Ang

Energy contributions relative to reference atoms: (reference = -13382.245603)

Kinetic:       +134.069138
Potential:     -126.931329
External:        +0.000000
XC:            -290.985705
Entropy (-ST):   -0.147124
Local:           +0.709393
--------------------------
Free energy:   -283.285628
Extrapolated:  -283.212066

Dipole-layer corrected work functions: 3.409104, 3.337782 eV

Showing only first 2 kpts
 Kpt  Band  Eigenvalues  Occupancy
  0    28     -3.63460    1.98928
  0    29     -3.57544    1.96541
  0    30     -3.24554    0.14378
  0    31     -3.15249    0.02380

  1    28     -3.42547    1.47789
  1    29     -3.36326    0.89849
  1    30     -3.31917    0.50495
  1    31     -3.25592    0.17407


Fermi level: -3.37344

No gap
Writing to output.gpw (mode='')


Forces in eV/Ang:
  0 Li    0.02117    0.00449   -0.26858
  1 Li   -0.00293    0.00304   -0.27318
  2 Li   -0.01944    0.00472   -0.26845
  3 Li   -0.00254    0.01339   -0.26910
  4 Li   -0.00071   -0.00343   -0.29086
  5 Li    0.00355    0.01555   -0.26772
  6 Li   -0.00265   -0.01952   -0.27974
  7 Li   -0.00076    0.00162   -0.27479
  8 Li    0.00405   -0.02147   -0.27910
  9 Li    0.00250    0.00626    0.31538
 10 Li    0.01250   -0.00326    0.26308
 11 Li   -0.01053   -0.00802    0.26827
 12 Li    0.00276    0.03016    0.24101
 13 Li    0.02452    0.02112    0.24540
 14 Li   -0.02062    0.02515    0.24840
 15 Li    0.00284   -0.02554    0.21267
 16 Li   -0.03555   -0.01354    0.25664
 17 Li    0.03354   -0.01365    0.25613
 18 Li    0.00089   -0.01393    0.00130
 19 Li   -0.00175    0.00812    0.01884
 20 Li   -0.00419   -0.00989   -0.00142
 21 Li    0.00633    0.01105    0.01617
 22 Li   -0.00182    0.00505    0.01207
 23 Li   -0.01017    0.00606    0.01957
 24 Li    0.00559   -0.00011    0.01663
 25 Li    0.00081   -0.01781   -0.00095
 26 Li   -0.00688    0.00072    0.01601
 27 Li    0.00030   -0.01217    0.00482
 28 Li    0.00778   -0.00831    0.00371
 29 Li   -0.00679   -0.00885    0.00492
 30 Li    0.00227   -0.03682   -0.00214
 31 Li   -0.00959    0.00720    0.00282
 32 Li    0.00394    0.00897   -0.00236
 33 Li   -0.00125   -0.02180    0.00403
 34 Li    0.00264    0.00295   -0.00596
 35 Li   -0.00027    0.00218   -0.00511
 36 O     0.03038    0.00916    0.00714
 37 C     0.00682   -0.01173   -0.01172
 38 H     0.01630   -0.01663    0.02394
 39 H    -0.01617   -0.00758   -0.00977
 40 H    -0.00043    0.01431    0.00719
 41 H     0.00640    0.03316    0.00605
 42 N     0.00128    0.02489    0.03245
 43 N    -0.00382   -0.00891   -0.00202

Timing:                                      incl.     excl.
-------------------------------------------------------------------
Density initialized from wave functions:    60.515    60.511   0.1% |
 Symmetrize density:                         0.004     0.004   0.0% |
Forces:                                    329.262   329.262   0.3% |
Hamiltonian:                              1537.180     0.019   0.0% |
 Atomic:                                     7.152     0.097   0.0% |
  XC Correction:                             7.055     7.055   0.0% |
 Calculate atomic Hamiltonians:              6.622     6.622   0.0% |
 Communicate:                               13.803    13.803   0.0% |
 Hartree integrate/restrict:                 5.703     5.703   0.0% |
 Initialize Hamiltonian:                     0.001     0.001   0.0% |
 Poisson:                                  161.268    76.041   0.1% |
  Communicate from 1D:                      10.119    10.119   0.0% |
  Communicate from 2D:                      15.859    15.859   0.0% |
  Communicate to 1D:                         3.635     3.635   0.0% |
  Communicate to 2D:                        16.498    16.498   0.0% |
  FFT 1D:                                   16.376    16.376   0.0% |
  FFT 2D:                                   22.740    22.740   0.0% |
 XC 3D grid:                              1340.650   412.969   0.4% |
  VdW-DF integral:                         927.681    11.978   0.0% |
   Convolution:                            179.705   179.705   0.2% |
   FFT:                                     57.465    57.465   0.0% |
   gather:                                 230.352   230.352   0.2% |
   hmm1:                                    36.001    36.001   0.0% |
   hmm2:                                    60.262    60.262   0.1% |
   iFFT:                                    55.370    55.370   0.0% |
   potential:                              288.081     9.376   0.0% |
    collect:                                23.351    23.351   0.0% |
    p1:                                    126.026   126.026   0.1% |
    p2:                                     85.637    85.637   0.1% |
    sum:                                    43.690    43.690   0.0% |
   splines:                                  8.467     8.467   0.0% |
 vbar:                                       1.962     1.962   0.0% |
LCAO initialization:                         7.734     0.523   0.0% |
 LCAO eigensolver:                           2.343     0.002   0.0% |
  Calculate projections:                     0.000     0.000   0.0% |
  DenseAtomicCorrection:                     0.000     0.000   0.0% |
  Distribute overlap matrix:                 2.204     2.204   0.0% |
  Orbital Layouts:                           0.047     0.047   0.0% |
  Potential matrix:                          0.089     0.089   0.0% |
  Sum over cells:                            0.002     0.002   0.0% |
 LCAO to grid:                               3.601     3.601   0.0% |
 Set positions (LCAO WFS):                   1.267     1.018   0.0% |
  Basic WFS set positions:                   0.004     0.004   0.0% |
  Basis functions set positions:             0.001     0.001   0.0% |
  P tci:                                     0.000     0.000   0.0% |
  ST tci:                                    0.153     0.153   0.0% |
  mktci:                                     0.092     0.092   0.0% |
Redistribute:                                0.059     0.059   0.0% |
SCF-cycle:                               112912.748  2199.468   1.9% ||
 Davidson:                               53751.741 18885.796  16.4% |------|
  Apply hamiltonian:                      3052.722  3052.722   2.6% ||
  Subspace diag:                          8978.339     0.537   0.0% |
   calc_h_matrix:                         5033.109  1628.624   1.4% ||
    Apply hamiltonian:                    3404.485  3404.485   2.9% ||
   diagonalize:                             95.591    95.591   0.1% |
   rotate_psi:                            3849.102  3849.102   3.3% ||
  calc. matrices:                        16318.277 10780.893   9.3% |---|
   Apply hamiltonian:                     5537.384  5537.384   4.8% |-|
  diagonalize:                              30.769    30.769   0.0% |
  rotate_psi:                             6485.839  6485.839   5.6% |-|
 Density:                                  910.863     0.191   0.0% |
  Atomic density matrices:                  23.461    23.461   0.0% |
  Mix:                                     495.718   495.718   0.4% |
  Multipole moments:                         4.587     4.587   0.0% |
  Pseudo density:                          386.906   386.756   0.3% |
   Symmetrize density:                       0.150     0.150   0.0% |
 Hamiltonian:                            55945.339     0.725   0.0% |
  Atomic:                                  263.204     3.694   0.0% |
   XC Correction:                          259.509   259.509   0.2% |
  Calculate atomic Hamiltonians:           249.075   249.075   0.2% |
  Communicate:                             516.642   516.642   0.4% |
  Hartree integrate/restrict:              208.206   208.206   0.2% |
  Poisson:                                5893.595  2781.402   2.4% ||
   Communicate from 1D:                    362.136   362.136   0.3% |
   Communicate from 2D:                    587.075   587.075   0.5% |
   Communicate to 1D:                      130.862   130.862   0.1% |
   Communicate to 2D:                      603.342   603.342   0.5% |
   FFT 1D:                                 589.470   589.470   0.5% |
   FFT 2D:                                 839.308   839.308   0.7% |
  XC 3D grid:                            48742.881 15094.363  13.1% |----|
   VdW-DF integral:                      33648.518   438.432   0.4% |
    Convolution:                          6623.211  6623.211   5.7% |-|
    FFT:                                  2084.108  2084.108   1.8% ||
    gather:                               8365.280  8365.280   7.2% |--|
    hmm1:                                 1351.571  1351.571   1.2% |
    hmm2:                                 2220.497  2220.497   1.9% ||
    iFFT:                                 2046.790  2046.790   1.8% ||
    potential:                           10518.586   348.129   0.3% |
     collect:                              838.188   838.188   0.7% |
     p1:                                  4626.580  4626.580   4.0% |-|
     p2:                                  3154.625  3154.625   2.7% ||
     sum:                                 1551.064  1551.064   1.3% ||
    splines:                                 0.043     0.043   0.0% |
  vbar:                                     71.011    71.011   0.1% |
 Orthonormalize:                           105.337     0.025   0.0% |
  calc_s_matrix:                            22.296    22.296   0.0% |
  inverse-cholesky:                          1.159     1.159   0.0% |
  projections:                              24.369    24.369   0.0% |
  rotate_psi_s:                             57.488    57.488   0.0% |
Set symmetry:                                0.004     0.004   0.0% |
Other:                                     652.187   652.187   0.6% |
-------------------------------------------------------------------
Total:                                             115499.691 100.0%

Memory usage: 1.66 GiB
Date: Tue Mar  7 13:18:05 2023
