
  ___ ___ ___ _ _ _  
 |   |   |_  | | | | 
 | | | | | . | | | | 
 |__ |  _|___|_____|  22.8.0
 |___|_|             

User:   vazumah@d012
Date:   Wed Mar  8 23:22:12 2023
Arch:   x86_64
Pid:    1910
CWD:    /home/vazumah/Research_Projects/LiMEAS/LiNRR_proton_donors/on_pure_surface/Li_BCC100/adsorbates/ethanediol_z/ontop/9.702_9.702
Python: 3.10.6
gpaw:   /home/vazumah/anaconda3/envs/NAME/lib/python3.10/site-packages/gpaw
_gpaw:  /home/vazumah/anaconda3/envs/NAME/lib/python3.10/site-packages/
        _gpaw.cpython-310-x86_64-linux-gnu.so
ase:    /home/vazumah/anaconda3/envs/NAME/lib/python3.10/site-packages/ase (version 3.22.1)
numpy:  /home/vazumah/anaconda3/envs/NAME/lib/python3.10/site-packages/numpy (version 1.23.3)
scipy:  /home/vazumah/anaconda3/envs/NAME/lib/python3.10/site-packages/scipy (version 1.9.1)
libxc:  5.2.3
units:  Angstrom and eV
cores: 32
OpenMP: True
OMP_NUM_THREADS: 1

Input parameters:
  h: 0.16
  kpts: {size: [4, 4, 1]}
  occupations: {name: fermi-dirac,
                width: 0.05}
  poissonsolver: {dipolelayer: xy}
  xc: BEEF-vdW

System changes: positions, numbers, cell, pbc, initial_charges, initial_magmoms 

Initialize ...

species:
  Li:
    name: Lithium
    id: 830b4218f175192f93f959cfc0aad614
    Z: 3.0
    valence: 1
    core: 2
    charge: 0.0
    file: /home/vazumah/anaconda3/envs/NAME/share/gpaw/Li.PBE.gz
    compensation charges: {type: gauss,
                           rc: 0.33,
                           lmax: 2}
    cutoffs: {filter: 1.91,
              core: 2.55}
    valence states:
      #              energy  rcut
      - 2s(1.00)    -2.874   1.058
      - 2p(0.00)    -1.090   1.058
      -  s          24.337   1.058
  
    # Using partial waves for Li as LCAO basis

  O:
    name: Oxygen
    id: 32ecd46bf208036f09c70b0ec9a88b78
    Z: 8.0
    valence: 6
    core: 2
    charge: 0.0
    file: /home/vazumah/anaconda3/envs/NAME/share/gpaw/O.PBE.gz
    compensation charges: {type: gauss,
                           rc: 0.21,
                           lmax: 2}
    cutoffs: {filter: 1.17,
              core: 0.83}
    valence states:
      #              energy  rcut
      - 2s(2.00)   -23.961   0.688
      - 2p(4.00)    -9.029   0.598
      -  s           3.251   0.688
      -  p          18.182   0.598
      -  d           0.000   0.619
  
    # Using partial waves for O as LCAO basis

  C:
    name: Carbon
    id: 4aa54d4b901d75f77cc0ea3eec22967b
    Z: 6.0
    valence: 4
    core: 2
    charge: 0.0
    file: /home/vazumah/anaconda3/envs/NAME/share/gpaw/C.PBE.gz
    compensation charges: {type: gauss,
                           rc: 0.20,
                           lmax: 2}
    cutoffs: {filter: 1.14,
              core: 1.14}
    valence states:
      #              energy  rcut
      - 2s(2.00)   -13.751   0.635
      - 2p(2.00)    -5.284   0.635
      -  s          13.461   0.635
      -  p          21.927   0.635
      -  d           0.000   0.635
  
    # Using partial waves for C as LCAO basis

  H:
    name: Hydrogen
    id: d65de229564ff8ea4db303e23b6d1ecf
    Z: 1.0
    valence: 1
    core: 0
    charge: 0.0
    file: /home/vazumah/anaconda3/envs/NAME/share/gpaw/H.PBE.gz
    compensation charges: {type: gauss,
                           rc: 0.15,
                           lmax: 2}
    cutoffs: {filter: 0.85,
              core: 0.53}
    valence states:
      #              energy  rcut
      - 1s(1.00)    -6.494   0.476
      -  s          20.717   0.476
      -  p           0.000   0.476
  
    # Using partial waves for H as LCAO basis

Reference energy: -13512.263335  # eV

Spin-paired calculation

Convergence criteria:
 Maximum [total energy] change in last 3 cyles: 0.0005 eV / electron
 Maximum integral of absolute [dens]ity change: 0.0001 electrons / valence electron
 Maximum integral of absolute [eigenst]ate change: 4e-08 eV^2 / valence electron
 Maximum number of scf [iter]ations: 333
 (Square brackets indicate name in SCF output, whereas a 'c' in
 the SCF output indicates the quantity has converged.)

Symmetries present (total): 1

  ( 1  0  0)
  ( 0  1  0)
  ( 0  0  1)

16 k-points: 4 x 4 x 1 Monkhorst-Pack grid
8 k-points in the irreducible part of the Brillouin zone
       k-points in crystal coordinates                weights
   0:     0.12500000   -0.37500000    0.00000000          2/16
   1:     0.12500000   -0.12500000    0.00000000          2/16
   2:     0.12500000    0.12500000    0.00000000          2/16
   3:     0.12500000    0.37500000    0.00000000          2/16
   4:     0.37500000   -0.37500000    0.00000000          2/16
   5:     0.37500000   -0.12500000    0.00000000          2/16
   6:     0.37500000    0.12500000    0.00000000          2/16
   7:     0.37500000    0.37500000    0.00000000          2/16

Wave functions: Uniform real-space grid
  Kinetic energy operator: 6*3+1=19 point O(h^6) finite-difference Laplacian
  ScaLapack parameters: grid=1x1, blocksize=None
  Wavefunction extrapolation:
    Improved wavefunction reuse through dual PAW basis 

Occupation numbers: Fermi-Dirac:
  width: 0.0500  # eV
 

Eigensolver
   Davidson(niter=2) 

Densities:
  Coarse grid: 60*60*156 grid
  Fine grid: 120*120*312 grid
  Total Charge: 0.000000 

Density mixing:
  Method: separate
  Backend: pulay
  Linear mixing parameter: 0.05
  old densities: 5
  Damping of long wavelength oscillations: 50 

Hamiltonian:
  XC and Coulomb potentials evaluated on a 120*120*312 grid
  Using the BEEF-vdW Exchange-Correlation functional
  Interpolation: tri-quintic (5. degree polynomial)
  Poisson solver: FastPoissonSolver using
    Stencil: 6*3+1=19 point O(h^6) finite-difference Laplacian
    FFT axes: [0, 1]
    FST axes: [2]

Dipole correction along z-axis 

XC parameters: BEEF-vdW with 2 nearest neighbor stencil

Memory estimate:
  Process memory now: 211.74 MiB
  Calculator: 298.81 MiB
    Density: 88.21 MiB
      Arrays: 27.47 MiB
      Localized functions: 50.30 MiB
      Mixer: 10.44 MiB
    Hamiltonian: 21.93 MiB
      Arrays: 17.96 MiB
      XC: 0.00 MiB
      Poisson: 0.00 MiB
      vbar: 3.97 MiB
    Wavefunctions: 188.67 MiB
      Arrays psit_nG: 87.67 MiB
      Eigensolver: 98.38 MiB
      Projections: 0.04 MiB
      Projectors: 2.58 MiB

Total number of cores used: 32
Parallelization over k-points: 8
Domain decomposition: 1 x 1 x 4

Number of atoms: 46
Number of atomic orbitals: 166
Number of bands in calculation: 42
Number of valence electrons: 62
Bands to converge: occupied

... initialized

Initializing position-dependent things.

Density initialized from atomic densities
Creating initial wave functions:
  42 bands from LCAO basis set

       .-----------------------.  
      /|                       |  
     / |                       |  
    /  |                       |  
   /   |                       |  
  /    |                       |  
 *     |                      H|  
 |     |                       |  
 |     |                       |  
 |     |                  H    |  
 |     |                O      |  
 |C  H |                       |  
 |     |              H  CH    |  
 |     |                       |  
 O H Li|     Li      Li        |  
 |     |  Li      Li      Li   |  
 | Li  |   Li      Li          |  
 |     |Li      Li      Li     |  
 Li    | Li      Li            |  
 |   LLi     LLi     LLi       |  
 |     |  Li      Li      Li   |  
 | Li  |   Li      Li          |  
 |     |Li      Li      Li     |  
 Li    | Li      Li            |  
 |    Li      Li      Li       |  
 |     |                       |  
 |     |                       |  
 |     |                       |  
 |     |                       |  
 |     |                       |  
 |     |                       |  
 |     .-----------------------.  
 |    /                       /   
 |   /                       /    
 |  /                       /     
 | /                       /      
 |/                       /       
 *-----------------------*        

Positions:
   0 Li     1.617037    1.617037   10.000000    ( 0.0000,  0.0000,  0.0000)
   1 Li     4.851111    1.617037   10.000000    ( 0.0000,  0.0000,  0.0000)
   2 Li     8.085185    1.617037   10.000000    ( 0.0000,  0.0000,  0.0000)
   3 Li     1.617037    4.851111   10.000000    ( 0.0000,  0.0000,  0.0000)
   4 Li     4.851111    4.851111   10.000000    ( 0.0000,  0.0000,  0.0000)
   5 Li     8.085185    4.851111   10.000000    ( 0.0000,  0.0000,  0.0000)
   6 Li     1.617037    8.085185   10.000000    ( 0.0000,  0.0000,  0.0000)
   7 Li     4.851111    8.085185   10.000000    ( 0.0000,  0.0000,  0.0000)
   8 Li     8.085185    8.085185   10.000000    ( 0.0000,  0.0000,  0.0000)
   9 Li     0.000000    0.000000   11.617037    ( 0.0000,  0.0000,  0.0000)
  10 Li     3.234074    0.000000   11.617037    ( 0.0000,  0.0000,  0.0000)
  11 Li     6.468148    0.000000   11.617037    ( 0.0000,  0.0000,  0.0000)
  12 Li     0.000000    3.234074   11.617037    ( 0.0000,  0.0000,  0.0000)
  13 Li     3.234074    3.234074   11.617037    ( 0.0000,  0.0000,  0.0000)
  14 Li     6.468148    3.234074   11.617037    ( 0.0000,  0.0000,  0.0000)
  15 Li     0.000000    6.468148   11.617037    ( 0.0000,  0.0000,  0.0000)
  16 Li     3.234074    6.468148   11.617037    ( 0.0000,  0.0000,  0.0000)
  17 Li     6.468148    6.468148   11.617037    ( 0.0000,  0.0000,  0.0000)
  18 Li     1.617038    1.617038   13.469728    ( 0.0000,  0.0000,  0.0000)
  19 Li     4.851111    1.617038   13.469729    ( 0.0000,  0.0000,  0.0000)
  20 Li     8.085184    1.617038   13.469728    ( 0.0000,  0.0000,  0.0000)
  21 Li     1.617038    4.851111   13.469729    ( 0.0000,  0.0000,  0.0000)
  22 Li     4.851111    4.851111   13.469730    ( 0.0000,  0.0000,  0.0000)
  23 Li     8.085184    4.851111   13.469729    ( 0.0000,  0.0000,  0.0000)
  24 Li     1.617038    8.085184   13.469728    ( 0.0000,  0.0000,  0.0000)
  25 Li     4.851111    8.085184   13.469729    ( 0.0000,  0.0000,  0.0000)
  26 Li     8.085184    8.085184   13.469728    ( 0.0000,  0.0000,  0.0000)
  27 Li    -0.000000   -0.000000   15.445939    ( 0.0000,  0.0000,  0.0000)
  28 Li     3.234074    0.000000   15.445939    ( 0.0000,  0.0000,  0.0000)
  29 Li     6.468148    0.000000   15.445939    ( 0.0000,  0.0000,  0.0000)
  30 Li     0.000000    3.234074   15.445939    ( 0.0000,  0.0000,  0.0000)
  31 Li     3.234076    3.234076   15.445938    ( 0.0000,  0.0000,  0.0000)
  32 Li     6.468146    3.234076   15.445938    ( 0.0000,  0.0000,  0.0000)
  33 Li     0.000000    6.468148   15.445939    ( 0.0000,  0.0000,  0.0000)
  34 Li     3.234076    6.468146   15.445938    ( 0.0000,  0.0000,  0.0000)
  35 Li     6.468146    6.468146   15.445938    ( 0.0000,  0.0000,  0.0000)
  36 O      9.702222    9.702222   18.445939    ( 0.0000,  0.0000,  0.0000)
  37 O      9.469533    9.746216   21.344137    ( 0.0000,  0.0000,  0.0000)
  38 C      9.289845   10.873434   19.174500    ( 0.0000,  0.0000,  0.0000)
  39 C      9.858996   10.887124   20.583686    ( 0.0000,  0.0000,  0.0000)
  40 H      9.582678   11.787824   18.646375    ( 0.0000,  0.0000,  0.0000)
  41 H      8.200278   10.826136   19.207249    ( 0.0000,  0.0000,  0.0000)
  42 H      9.482515   11.761390   21.120404    ( 0.0000,  0.0000,  0.0000)
  43 H     10.958056   10.962625   20.533956    ( 0.0000,  0.0000,  0.0000)
  44 H     10.649543    9.776737   18.276515    ( 0.0000,  0.0000,  0.0000)
  45 H      9.565972    8.979095   20.764672    ( 0.0000,  0.0000,  0.0000)

Unit cell:
           periodic     x           y           z      points  spacing
  1. axis:    yes    9.702222    0.000000    0.000000    60     0.1617
  2. axis:    yes    0.000000    9.702222    0.000000    60     0.1617
  3. axis:    no     0.000000    0.000000   24.851111   156     0.1593

  Lengths:   9.702222   9.702222  24.851111
  Angles:   90.000000  90.000000  90.000000

Effective grid spacing dv^(1/3) = 0.1609

     iter     time        total  log10-change:
                         energy  eigst   dens
iter:   1 23:23:17  -561.845309
iter:   2 23:24:01   -84.503931  +2.50  -0.01
iter:   3 23:24:44     6.026490  +3.14  -0.18
iter:   4 23:26:04  -134.260539  +3.10  -0.21
Writing to output.gpw (mode='')

iter:   5 23:27:34  -212.104774  +2.97  -0.21
iter:   6 23:29:16  -269.982183  +2.57  -0.43
iter:   7 23:30:46  -292.587579  +2.27  -0.55
iter:   8 23:33:21  -311.321678  +2.07  -0.55
iter:   9 23:38:10  -361.273253  +2.20  -0.48
Writing to output.gpw (mode='')

iter:  10 23:40:53  -336.766904  +1.81  -0.48
iter:  11 23:43:54  -302.941895  +1.56  -0.50
iter:  12 23:47:46  -304.587404  +1.09  -0.65
iter:  13 23:50:32  -307.819988  +1.44  -0.64
iter:  14 23:54:52  -325.432226  +1.42  -0.54
Writing to output.gpw (mode='')

iter:  15 00:00:14  -300.718434  +0.86  -0.38
iter:  16 00:06:09  -297.967162  +0.92  -0.65
iter:  17 00:11:28  -296.830002  +0.74  -0.74
iter:  18 00:17:12  -293.925491  +0.39  -0.76
iter:  19 00:22:50  -292.593548  +0.19  -0.86
Writing to output.gpw (mode='')

iter:  20 00:26:36  -292.317563  +0.25  -0.92
iter:  21 00:29:01  -296.925941  +0.38  -0.98
iter:  22 00:31:21  -295.148731  -0.47  -0.84
iter:  23 00:33:28  -291.814579  +0.56  -0.87
iter:  24 00:36:02  -291.971622  +0.78  -1.02
Writing to output.gpw (mode='')

iter:  25 00:40:05  -291.113370  -0.05  -1.10
iter:  26 00:42:19  -291.012917  -0.26  -1.35
iter:  27 00:45:37  -291.024660  -0.85  -1.41
iter:  28 00:48:05  -291.046609  -0.66  -1.40
iter:  29 00:52:26  -291.163230  -0.75  -1.34
Writing to output.gpw (mode='')

iter:  30 00:56:43  -291.209991  -0.70  -1.29
iter:  31 01:02:15  -291.009294  -0.77  -1.26
iter:  32 01:07:05  -290.963446  -0.60  -1.37
iter:  33 01:12:34  -290.901755  -0.62  -1.46
iter:  34 01:16:35  -290.885111  -1.35  -1.61
Writing to output.gpw (mode='')

iter:  35 01:21:42  -290.878943c -1.40  -1.69
iter:  36 01:26:01  -290.871227c -1.37  -1.78
iter:  37 01:30:36  -290.853254c -1.55  -1.91
iter:  38 01:34:46  -290.839854  -1.78  -2.06
iter:  39 01:39:30  -290.825223c -1.56  -2.10
Writing to output.gpw (mode='')

iter:  40 01:42:36  -290.822667c -1.91  -2.20
iter:  41 01:45:52  -290.821259c -1.78  -2.25
iter:  42 01:48:23  -290.820525c -2.18  -2.29
iter:  43 01:51:30  -290.820766c -2.68  -2.48
iter:  44 01:54:10  -290.820792c -2.73  -2.50
Writing to output.gpw (mode='')

iter:  45 01:58:52  -290.820859c -2.75  -2.54
iter:  46 02:02:01  -290.821040c -2.84  -2.76
iter:  47 02:06:32  -290.821196c -3.10  -2.90
iter:  48 02:09:16  -290.821220c -3.24  -2.99
iter:  49 02:13:39  -290.821179c -3.39  -3.00
Writing to output.gpw (mode='')

iter:  50 02:18:59  -290.821191c -3.68  -3.07
iter:  51 02:24:49  -290.821181c -3.74  -3.15
iter:  52 02:27:28  -290.821165c -3.81  -3.22
iter:  53 02:30:57  -290.821196c -3.94  -3.36
iter:  54 02:34:52  -290.821210c -3.93  -3.45
Writing to output.gpw (mode='')

iter:  55 02:38:02  -290.821217c -4.12  -3.56
iter:  56 02:42:04  -290.821232c -4.19  -3.69
iter:  57 02:44:36  -290.821251c -4.21  -3.70
iter:  58 02:47:26  -290.821259c -4.46  -3.87
iter:  59 02:50:38  -290.821264c -4.60  -3.97
Writing to output.gpw (mode='')

iter:  60 02:56:22  -290.821268c -4.42  -4.01c
iter:  61 02:58:54  -290.821274c -4.67  -4.17c
iter:  62 03:05:10  -290.821278c -4.78  -4.33c
iter:  63 03:10:30  -290.821281c -4.76  -4.38c
iter:  64 03:16:50  -290.821283c -4.82  -4.40c
Writing to output.gpw (mode='')

iter:  65 03:19:39  -290.821286c -4.90  -4.56c
iter:  66 03:22:18  -290.821288c -5.08  -4.61c
iter:  67 03:25:55  -290.821289c -5.05  -4.64c
iter:  68 03:31:10  -290.821291c -4.99  -4.65c
iter:  69 03:35:26  -290.821292c -5.17  -4.68c
Writing to output.gpw (mode='')

iter:  70 03:38:28  -290.821293c -5.10  -4.68c
iter:  71 03:41:58  -290.821294c -5.35  -4.71c
iter:  72 03:45:14  -290.821294c -5.44  -4.74c
iter:  73 03:49:38  -290.821295c -5.25  -4.76c
iter:  74 03:53:06  -290.821295c -5.57  -4.75c
Writing to output.gpw (mode='')

iter:  75 03:57:08  -290.821296c -5.70  -4.76c
iter:  76 03:59:46  -290.821296c -5.70  -4.73c
iter:  77 04:04:45  -290.821296c -5.87  -4.62c
iter:  78 04:09:37  -290.821296c -5.83  -4.71c
iter:  79 04:13:31  -290.821297c -5.86  -4.76c
Writing to output.gpw (mode='')

iter:  80 04:17:34  -290.821297c -6.08  -4.89c
iter:  81 04:21:55  -290.821297c -6.12  -4.96c
iter:  82 04:27:00  -290.821297c -6.19  -5.02c
iter:  83 04:30:51  -290.821296c -6.17  -5.18c
iter:  84 04:33:59  -290.821296c -6.39  -5.39c
Writing to output.gpw (mode='')

iter:  85 04:40:44  -290.821296c -6.41  -5.39c
iter:  86 04:45:18  -290.821297c -6.35  -5.47c
iter:  87 04:48:00  -290.821297c -6.24  -5.65c
iter:  88 04:51:46  -290.821297c -6.30  -5.74c
iter:  89 04:56:01  -290.821297c -6.49  -5.79c
Writing to output.gpw (mode='')

iter:  90 04:58:52  -290.821297c -6.64  -5.80c
iter:  91 05:01:41  -290.821297c -6.72  -5.87c
iter:  92 05:04:34  -290.821297c -6.71  -5.93c
iter:  93 05:07:56  -290.821297c -6.75  -6.00c
iter:  94 05:11:45  -290.821297c -6.89  -6.10c
Writing to output.gpw (mode='')

iter:  95 05:15:46  -290.821297c -6.90  -6.06c
iter:  96 05:19:15  -290.821297c -6.94  -5.99c
iter:  97 05:23:38  -290.821297c -7.02  -5.90c
iter:  98 05:28:47  -290.821297c -7.13  -5.78c
iter:  99 05:33:51  -290.821297c -7.15  -5.81c
Writing to output.gpw (mode='')

iter: 100 05:38:04  -290.821297c -7.21  -5.89c
iter: 101 05:40:26  -290.821297c -7.20  -5.78c
iter: 102 05:43:03  -290.821297c -7.23  -5.77c
iter: 103 05:45:39  -290.821297c -7.13  -5.79c
iter: 104 05:47:34  -290.821297c -7.21  -6.13c
Writing to output.gpw (mode='')

iter: 105 05:49:36  -290.821297c -7.29  -6.21c
iter: 106 05:51:32  -290.821297c -7.34  -6.26c
iter: 107 05:54:52  -290.821297c -7.34  -6.34c
iter: 108 06:00:49  -290.821297c -7.38  -6.43c
iter: 109 06:04:51  -290.821297c -7.34  -6.53c
Writing to output.gpw (mode='')

iter: 110 06:08:49  -290.821297c -7.37  -6.69c
iter: 111 06:12:44  -290.821297c -7.49c -6.76c

Converged after 111 iterations.

Dipole moment: (9.134588, -17.414658, -0.191062) |e|*Ang

Energy contributions relative to reference atoms: (reference = -13512.263335)

Kinetic:       +138.677428
Potential:     -130.778630
External:        +0.000000
XC:            -299.252085
Entropy (-ST):   -0.152559
Local:           +0.608269
--------------------------
Free energy:   -290.897577
Extrapolated:  -290.821297

Dipole-layer corrected work functions: 3.381833, 3.749121 eV

Showing only first 2 kpts
 Kpt  Band  Eigenvalues  Occupancy
  0    29     -3.81829    1.98734
  0    30     -3.73213    1.93109
  0    31     -3.40292    0.07456
  0    32     -3.31170    0.01242

  1    29     -3.59075    1.24747
  1    30     -3.56228    0.96804
  1    31     -3.51943    0.56956
  1    32     -3.51658    0.54659


Fermi level: -3.56548

No gap
Writing to output.gpw (mode='')


Forces in eV/Ang:
  0 Li    0.00140   -0.00090   -0.27199
  1 Li   -0.00090   -0.00086   -0.27377
  2 Li   -0.00060    0.00359   -0.27165
  3 Li   -0.00198   -0.00054   -0.27198
  4 Li    0.00311    0.00033   -0.27426
  5 Li   -0.00110   -0.00058   -0.27261
  6 Li    0.00235    0.00147   -0.27192
  7 Li   -0.00093    0.00049   -0.27349
  8 Li   -0.00152   -0.00304   -0.27170
  9 Li   -0.00083    0.00068    0.26964
 10 Li    0.00434   -0.00002    0.25566
 11 Li   -0.00331   -0.00039    0.26130
 12 Li    0.00036    0.00097    0.25829
 13 Li   -0.00132   -0.00355    0.26455
 14 Li    0.00108    0.00472    0.25672
 15 Li    0.00060   -0.00173    0.26098
 16 Li   -0.00181    0.00357    0.26351
 17 Li    0.00133   -0.00427    0.25693
 18 Li   -0.00207   -0.00414    0.04697
 19 Li    0.00531    0.00157    0.03351
 20 Li   -0.00289    0.00132    0.02660
 21 Li    0.00021    0.00066    0.03439
 22 Li   -0.00192    0.00072    0.03120
 23 Li    0.00160    0.00049    0.04260
 24 Li   -0.00155    0.00345    0.03914
 25 Li    0.00456   -0.00226    0.03471
 26 Li   -0.00261   -0.00177    0.01689
 27 Li   -0.02687   -0.00495    0.16069
 28 Li    0.01325    0.00377   -0.04113
 29 Li   -0.01625    0.00188   -0.02281
 30 Li    0.00681    0.01710   -0.04503
 31 Li   -0.00741   -0.01119   -0.01265
 32 Li   -0.00117    0.00518   -0.02655
 33 Li    0.00503   -0.01030   -0.01096
 34 Li   -0.00269    0.00731   -0.01502
 35 Li   -0.00440   -0.00833   -0.02329
 36 O    -0.13419   -0.06608   -0.20051
 37 O    -0.07892   -0.02274   -0.02064
 38 C    -0.06818    0.04909    0.09412
 39 C     0.05406   -0.02572    0.01438
 40 H     0.02171    0.06502   -0.06021
 41 H    -0.03077   -0.01339   -0.01418
 42 H     0.03264    0.02020   -0.00237
 43 H    -0.03230    0.02113    0.00336
 44 H     0.22996   -0.00587   -0.03273
 45 H     0.01815   -0.04198    0.02058

System changes: positions 

Initializing position-dependent things.

Density initialized from wave functions
       .-----------------------.  
      /|                       |  
     / |                       |  
    /  |                       |  
   /   |                       |  
  /    |                       |  
 *     |                      H|  
 |     |                       |  
 |     |                       O  
 |     |                  H    |  
 |     |                O      |  
 |C  H |                       |  
 |     |              H  CH    Li 
 |     |                       |  
 | H Li|     Li      Li        |  
 |     |  Li      Li      Li   |  
 | Li  |   Li      Li          |  
 |     |Li      Li      Li     |  
 |     | Li      Li            |  
 |   LLi     LLi     LLi       |  
 |     |  Li      Li      Li   |  
 | Li  |   Li      Li          |  
 |     |Li      Li      Li     |  
 Li    | Li      Li            |  
 |    Li      Li      Li       |  
 |     |                       |  
 |     |                       |  
 |     |                       |  
 |     |                       |  
 |     |                       |  
 |     |                       |  
 |     .-----------------------.  
 |    /                       /   
 |   /                       /    
 |  /                       /     
 | /                       /      
 |/                       /       
 *-----------------------*        

Positions:
   0 Li     1.617037    1.617037   10.000000    ( 0.0000,  0.0000,  0.0000)
   1 Li     4.851111    1.617037   10.000000    ( 0.0000,  0.0000,  0.0000)
   2 Li     8.085185    1.617037   10.000000    ( 0.0000,  0.0000,  0.0000)
   3 Li     1.617037    4.851111   10.000000    ( 0.0000,  0.0000,  0.0000)
   4 Li     4.851111    4.851111   10.000000    ( 0.0000,  0.0000,  0.0000)
   5 Li     8.085185    4.851111   10.000000    ( 0.0000,  0.0000,  0.0000)
   6 Li     1.617037    8.085185   10.000000    ( 0.0000,  0.0000,  0.0000)
   7 Li     4.851111    8.085185   10.000000    ( 0.0000,  0.0000,  0.0000)
   8 Li     8.085185    8.085185   10.000000    ( 0.0000,  0.0000,  0.0000)
   9 Li     0.000000    0.000000   11.617037    ( 0.0000,  0.0000,  0.0000)
  10 Li     3.234074    0.000000   11.617037    ( 0.0000,  0.0000,  0.0000)
  11 Li     6.468148    0.000000   11.617037    ( 0.0000,  0.0000,  0.0000)
  12 Li     0.000000    3.234074   11.617037    ( 0.0000,  0.0000,  0.0000)
  13 Li     3.234074    3.234074   11.617037    ( 0.0000,  0.0000,  0.0000)
  14 Li     6.468148    3.234074   11.617037    ( 0.0000,  0.0000,  0.0000)
  15 Li     0.000000    6.468148   11.617037    ( 0.0000,  0.0000,  0.0000)
  16 Li     3.234074    6.468148   11.617037    ( 0.0000,  0.0000,  0.0000)
  17 Li     6.468148    6.468148   11.617037    ( 0.0000,  0.0000,  0.0000)
  18 Li     1.617009    1.616979   13.470399    ( 0.0000,  0.0000,  0.0000)
  19 Li     4.851187    1.617061   13.470208    ( 0.0000,  0.0000,  0.0000)
  20 Li     8.085143    1.617057   13.470108    ( 0.0000,  0.0000,  0.0000)
  21 Li     1.617041    4.851120   13.470221    ( 0.0000,  0.0000,  0.0000)
  22 Li     4.851084    4.851121   13.470176    ( 0.0000,  0.0000,  0.0000)
  23 Li     8.085206    4.851118   13.470338    ( 0.0000,  0.0000,  0.0000)
  24 Li     1.617016    8.085233   13.470287    ( 0.0000,  0.0000,  0.0000)
  25 Li     4.851176    8.085151   13.470225    ( 0.0000,  0.0000,  0.0000)
  26 Li     8.085147    8.085159   13.469969    ( 0.0000,  0.0000,  0.0000)
  27 Li    -0.000384   -0.000071   15.448235    ( 0.0000,  0.0000,  0.0000)
  28 Li     3.234263    0.000054   15.445351    ( 0.0000,  0.0000,  0.0000)
  29 Li     6.467916    0.000027   15.445613    ( 0.0000,  0.0000,  0.0000)
  30 Li     0.000097    3.234318   15.445295    ( 0.0000,  0.0000,  0.0000)
  31 Li     3.233971    3.233917   15.445757    ( 0.0000,  0.0000,  0.0000)
  32 Li     6.468129    3.234151   15.445559    ( 0.0000,  0.0000,  0.0000)
  33 Li     0.000072    6.468001   15.445782    ( 0.0000,  0.0000,  0.0000)
  34 Li     3.234038    6.468250   15.445723    ( 0.0000,  0.0000,  0.0000)
  35 Li     6.468083    6.468027   15.445605    ( 0.0000,  0.0000,  0.0000)
  36 O      9.700305    9.701278   18.443075    ( 0.0000,  0.0000,  0.0000)
  37 O      9.468405    9.745891   21.343843    ( 0.0000,  0.0000,  0.0000)
  38 C      9.288871   10.874135   19.175845    ( 0.0000,  0.0000,  0.0000)
  39 C      9.859768   10.886757   20.583891    ( 0.0000,  0.0000,  0.0000)
  40 H      9.582988   11.788753   18.645514    ( 0.0000,  0.0000,  0.0000)
  41 H      8.199839   10.825944   19.207047    ( 0.0000,  0.0000,  0.0000)
  42 H      9.482981   11.761678   21.120370    ( 0.0000,  0.0000,  0.0000)
  43 H     10.957595   10.962927   20.534004    ( 0.0000,  0.0000,  0.0000)
  44 H     10.652828    9.776653   18.276047    ( 0.0000,  0.0000,  0.0000)
  45 H      9.566231    8.978496   20.764966    ( 0.0000,  0.0000,  0.0000)

Unit cell:
           periodic     x           y           z      points  spacing
  1. axis:    yes    9.702222    0.000000    0.000000    60     0.1617
  2. axis:    yes    0.000000    9.702222    0.000000    60     0.1617
  3. axis:    no     0.000000    0.000000   24.851111   156     0.1593

  Lengths:   9.702222   9.702222  24.851111
  Angles:   90.000000  90.000000  90.000000

Effective grid spacing dv^(1/3) = 0.1609

     iter     time        total  log10-change:
                         energy  eigst   dens
iter:   1 06:17:03  -290.824102  -2.78
iter:   2 06:22:34  -290.824028  -3.57  -3.01
iter:   3 06:27:18  -290.823828c -3.98  -3.01
iter:   4 06:34:00  -290.823721c -2.88  -3.16
Writing to output.gpw (mode='')

iter:   5 06:38:33  -290.823465c -3.53  -2.94
iter:   6 06:41:42  -290.823465c -4.14  -3.28
iter:   7 06:45:59  -290.823567c -3.62  -3.33
iter:   8 06:49:43  -290.823506c -4.41  -3.19
iter:   9 06:54:13  -290.823467c -4.33  -3.33
Writing to output.gpw (mode='')

iter:  10 07:01:24  -290.823410c -3.98  -3.38
iter:  11 07:08:31  -290.823424c -4.71  -3.60
iter:  12 07:13:56  -290.823422c -4.81  -3.68
iter:  13 07:18:25  -290.823425c -4.47  -3.74
iter:  14 07:22:43  -290.823419c -5.12  -3.93
Writing to output.gpw (mode='')

iter:  15 07:28:29  -290.823422c -5.74  -4.02c
iter:  16 07:33:51  -290.823420c -5.16  -4.11c
iter:  17 07:40:26  -290.823420c -5.78  -4.13c
iter:  18 07:46:36  -290.823416c -6.09  -4.15c
iter:  19 07:52:25  -290.823417c -5.99  -4.43c
Writing to output.gpw (mode='')

iter:  20 07:58:40  -290.823417c -6.44  -4.63c
iter:  21 08:03:06  -290.823416c -6.74  -4.67c
iter:  22 08:06:47  -290.823417c -6.79  -4.61c
iter:  23 08:10:26  -290.823417c -7.46c -4.65c

Converged after 23 iterations.

Dipole moment: (9.277211, -17.314129, -0.188680) |e|*Ang

Energy contributions relative to reference atoms: (reference = -13512.263335)

Kinetic:       +138.304951
Potential:     -130.509426
External:        +0.000000
XC:            -299.149845
Entropy (-ST):   -0.152570
Local:           +0.607187
--------------------------
Free energy:   -290.899702
Extrapolated:  -290.823417

Dipole-layer corrected work functions: 3.381772, 3.744479 eV

Showing only first 2 kpts
 Kpt  Band  Eigenvalues  Occupancy
  0    29     -3.81575    1.98730
  0    30     -3.72974    1.93104
  0    31     -3.40054    0.07452
  0    32     -3.30915    0.01237

  1    29     -3.58846    1.24806
  1    30     -3.55986    0.96739
  1    31     -3.51716    0.57020
  1    32     -3.51432    0.54733


Fermi level: -3.56313

No gap
Writing to output.gpw (mode='')


Forces in eV/Ang:
  0 Li    0.00141   -0.00090   -0.27202
  1 Li   -0.00089   -0.00084   -0.27381
  2 Li   -0.00062    0.00361   -0.27165
  3 Li   -0.00197   -0.00054   -0.27202
  4 Li    0.00313    0.00033   -0.27423
  5 Li   -0.00112   -0.00057   -0.27262
  6 Li    0.00235    0.00147   -0.27192
  7 Li   -0.00092    0.00047   -0.27351
  8 Li   -0.00153   -0.00306   -0.27168
  9 Li   -0.00074    0.00075    0.27006
 10 Li    0.00435   -0.00002    0.25625
 11 Li   -0.00340   -0.00039    0.26164
 12 Li    0.00039    0.00099    0.25886
 13 Li   -0.00140   -0.00367    0.26513
 14 Li    0.00113    0.00482    0.25717
 15 Li    0.00064   -0.00181    0.26140
 16 Li   -0.00187    0.00367    0.26403
 17 Li    0.00135   -0.00438    0.25734
 18 Li   -0.00245   -0.00453    0.04600
 19 Li    0.00515    0.00160    0.03247
 20 Li   -0.00247    0.00092    0.02607
 21 Li    0.00029    0.00069    0.03340
 22 Li   -0.00199    0.00070    0.03021
 23 Li    0.00158    0.00054    0.04127
 24 Li   -0.00199    0.00381    0.03851
 25 Li    0.00443   -0.00226    0.03360
 26 Li   -0.00215   -0.00141    0.01674
 27 Li   -0.02687   -0.00473    0.16258
 28 Li    0.01314    0.00368   -0.04040
 29 Li   -0.01623    0.00181   -0.02230
 30 Li    0.00665    0.01697   -0.04422
 31 Li   -0.00720   -0.01095   -0.01227
 32 Li   -0.00119    0.00508   -0.02592
 33 Li    0.00490   -0.01024   -0.01049
 34 Li   -0.00264    0.00717   -0.01454
 35 Li   -0.00429   -0.00814   -0.02265
 36 O     0.07186    0.00804   -0.19229
 37 O    -0.06659   -0.01616   -0.01648
 38 C    -0.01963    0.03447    0.00425
 39 C    -0.00547   -0.02029    0.01933
 40 H     0.00433    0.02658   -0.02948
 41 H    -0.04428   -0.00778   -0.00338
 42 H     0.03822    0.00668   -0.00497
 43 H    -0.00083    0.01449    0.00331
 44 H     0.00736   -0.02598    0.00194
 45 H     0.01778   -0.04045    0.01916

System changes: positions 

Initializing position-dependent things.

Density initialized from wave functions
       .-----------------------.  
      /|                       |  
     / |                       |  
    /  |                       |  
   /   |                       |  
  /    |                       |  
 *     |                      H|  
 |     |                       |  
 |     |                       O  
 |     |                  H    |  
 |     |                O      |  
 |C  H |                       |  
 |     |              H  CH    Li 
 |     |                       |  
 | H Li|     Li      Li        |  
 |     |  Li      Li      Li   |  
 | Li  |   Li      Li          |  
 |     |Li      Li      Li     |  
 |     | Li      Li            |  
 |   LLi     LLi     LLi       |  
 |     |  Li      Li      Li   |  
 | Li  |   Li      Li          |  
 |     |Li      Li      Li     |  
 Li    | Li      Li            |  
 |    Li      Li      Li       |  
 |     |                       |  
 |     |                       |  
 |     |                       |  
 |     |                       |  
 |     |                       |  
 |     |                       |  
 |     .-----------------------.  
 |    /                       /   
 |   /                       /    
 |  /                       /     
 | /                       /      
 |/                       /       
 *-----------------------*        

Positions:
   0 Li     1.617037    1.617037   10.000000    ( 0.0000,  0.0000,  0.0000)
   1 Li     4.851111    1.617037   10.000000    ( 0.0000,  0.0000,  0.0000)
   2 Li     8.085185    1.617037   10.000000    ( 0.0000,  0.0000,  0.0000)
   3 Li     1.617037    4.851111   10.000000    ( 0.0000,  0.0000,  0.0000)
   4 Li     4.851111    4.851111   10.000000    ( 0.0000,  0.0000,  0.0000)
   5 Li     8.085185    4.851111   10.000000    ( 0.0000,  0.0000,  0.0000)
   6 Li     1.617037    8.085185   10.000000    ( 0.0000,  0.0000,  0.0000)
   7 Li     4.851111    8.085185   10.000000    ( 0.0000,  0.0000,  0.0000)
   8 Li     8.085185    8.085185   10.000000    ( 0.0000,  0.0000,  0.0000)
   9 Li     0.000000    0.000000   11.617037    ( 0.0000,  0.0000,  0.0000)
  10 Li     3.234074    0.000000   11.617037    ( 0.0000,  0.0000,  0.0000)
  11 Li     6.468148    0.000000   11.617037    ( 0.0000,  0.0000,  0.0000)
  12 Li     0.000000    3.234074   11.617037    ( 0.0000,  0.0000,  0.0000)
  13 Li     3.234074    3.234074   11.617037    ( 0.0000,  0.0000,  0.0000)
  14 Li     6.468148    3.234074   11.617037    ( 0.0000,  0.0000,  0.0000)
  15 Li     0.000000    6.468148   11.617037    ( 0.0000,  0.0000,  0.0000)
  16 Li     3.234074    6.468148   11.617037    ( 0.0000,  0.0000,  0.0000)
  17 Li     6.468148    6.468148   11.617037    ( 0.0000,  0.0000,  0.0000)
  18 Li     1.616914    1.616799   13.472298    ( 0.0000,  0.0000,  0.0000)
  19 Li     4.851400    1.617126   13.471554    ( 0.0000,  0.0000,  0.0000)
  20 Li     8.085035    1.617100   13.471184    ( 0.0000,  0.0000,  0.0000)
  21 Li     1.617052    4.851148   13.471603    ( 0.0000,  0.0000,  0.0000)
  22 Li     4.851003    4.851150   13.471428    ( 0.0000,  0.0000,  0.0000)
  23 Li     8.085271    4.851139   13.472048    ( 0.0000,  0.0000,  0.0000)
  24 Li     1.616941    8.085384   13.471874    ( 0.0000,  0.0000,  0.0000)
  25 Li     4.851360    8.085059   13.471618    ( 0.0000,  0.0000,  0.0000)
  26 Li     8.085052    8.085096   13.470657    ( 0.0000,  0.0000,  0.0000)
  27 Li    -0.001485   -0.000268   15.454869    ( 0.0000,  0.0000,  0.0000)
  28 Li     3.234803    0.000206   15.443685    ( 0.0000,  0.0000,  0.0000)
  29 Li     6.467251    0.000102   15.444692    ( 0.0000,  0.0000,  0.0000)
  30 Li     0.000372    3.235015   15.443472    ( 0.0000,  0.0000,  0.0000)
  31 Li     3.233673    3.233464   15.445249    ( 0.0000,  0.0000,  0.0000)
  32 Li     6.468080    3.234360   15.444487    ( 0.0000,  0.0000,  0.0000)
  33 Li     0.000274    6.467581   15.445346    ( 0.0000,  0.0000,  0.0000)
  34 Li     3.233929    6.468546   15.445121    ( 0.0000,  0.0000,  0.0000)
  35 Li     6.467905    6.467690   15.444668    ( 0.0000,  0.0000,  0.0000)
  36 O      9.700285    9.700541   18.435078    ( 0.0000,  0.0000,  0.0000)
  37 O      9.465500    9.745134   21.343107    ( 0.0000,  0.0000,  0.0000)
  38 C      9.287368   10.875758   19.177312    ( 0.0000,  0.0000,  0.0000)
  39 C      9.860401   10.885847   20.584612    ( 0.0000,  0.0000,  0.0000)
  40 H      9.583416   11.790396   18.643864    ( 0.0000,  0.0000,  0.0000)
  41 H      8.198219   10.825545   19.206753    ( 0.0000,  0.0000,  0.0000)
  42 H      9.484467   11.762146   21.120204    ( 0.0000,  0.0000,  0.0000)
  43 H     10.957108   10.963617   20.534140    ( 0.0000,  0.0000,  0.0000)
  44 H     10.656332    9.775878   18.275628    ( 0.0000,  0.0000,  0.0000)
  45 H      9.566965    8.976816   20.765771    ( 0.0000,  0.0000,  0.0000)

Unit cell:
           periodic     x           y           z      points  spacing
  1. axis:    yes    9.702222    0.000000    0.000000    60     0.1617
  2. axis:    yes    0.000000    9.702222    0.000000    60     0.1617
  3. axis:    no     0.000000    0.000000   24.851111   156     0.1593

  Lengths:   9.702222   9.702222  24.851111
  Angles:   90.000000  90.000000  90.000000

Effective grid spacing dv^(1/3) = 0.1609

     iter     time        total  log10-change:
                         energy  eigst   dens
iter:   1 08:16:23  -290.829540  -2.24
iter:   2 08:21:44  -290.827643  -2.92  -2.33
iter:   3 08:27:11  -290.827289c -3.51  -2.66
iter:   4 08:31:37  -290.826505c -2.93  -2.87
Writing to output.gpw (mode='')

iter:   5 08:37:42  -290.826484c -3.85  -3.06
iter:   6 08:43:53  -290.826438c -3.82  -3.24
iter:   7 08:49:39  -290.826499c -3.35  -3.40
iter:   8 08:56:52  -290.826405c -3.86  -3.30
iter:   9 09:02:22  -290.826409c -4.19  -3.61
Writing to output.gpw (mode='')

iter:  10 09:07:50  -290.826434c -4.40  -3.72
iter:  11 09:12:52  -290.826419c -4.94  -3.59
iter:  12 09:16:26  -290.826412c -4.77  -3.68
iter:  13 09:21:22  -290.826408c -5.26  -4.01c
iter:  14 09:28:25  -290.826411c -5.44  -4.15c
Writing to output.gpw (mode='')

iter:  15 09:33:31  -290.826410c -6.10  -4.37c
iter:  16 09:38:17  -290.826410c -6.07  -4.40c
iter:  17 09:42:57  -290.826411c -6.32  -4.30c
iter:  18 09:48:19  -290.826411c -6.44  -4.44c
iter:  19 09:51:51  -290.826411c -6.40  -4.54c
Writing to output.gpw (mode='')

iter:  20 09:55:38  -290.826411c -7.13  -4.64c
iter:  21 10:00:48  -290.826411c -6.94  -4.84c
iter:  22 10:04:21  -290.826411c -7.13  -5.01c
iter:  23 10:09:25  -290.826411c -7.48c -5.11c

Converged after 23 iterations.

Dipole moment: (9.264473, -17.191459, -0.181074) |e|*Ang

Energy contributions relative to reference atoms: (reference = -13512.263335)

Kinetic:       +137.798737
Potential:     -130.144067
External:        +0.000000
XC:            -299.012202
Entropy (-ST):   -0.152604
Local:           +0.607423
--------------------------
Free energy:   -290.902713
Extrapolated:  -290.826411

Dipole-layer corrected work functions: 3.381641, 3.729727 eV

Showing only first 2 kpts
 Kpt  Band  Eigenvalues  Occupancy
  0    29     -3.80785    1.98718
  0    30     -3.72222    1.93093
  0    31     -3.39298    0.07437
  0    32     -3.30120    0.01225

  1    29     -3.58106    1.24844
  1    30     -3.55228    0.96601
  1    31     -3.50997    0.57227
  1    32     -3.50719    0.54981


Fermi level: -3.55568

No gap
Writing to output.gpw (mode='')


Forces in eV/Ang:
  0 Li    0.00147   -0.00084   -0.27204
  1 Li   -0.00087   -0.00080   -0.27404
  2 Li   -0.00071    0.00366   -0.27165
  3 Li   -0.00192   -0.00053   -0.27225
  4 Li    0.00310    0.00029   -0.27434
  5 Li   -0.00111   -0.00058   -0.27284
  6 Li    0.00239    0.00141   -0.27188
  7 Li   -0.00091    0.00045   -0.27372
  8 Li   -0.00157   -0.00309   -0.27162
  9 Li   -0.00058    0.00088    0.27067
 10 Li    0.00455    0.00001    0.25757
 11 Li   -0.00369   -0.00035    0.26252
 12 Li    0.00049    0.00115    0.26011
 13 Li   -0.00162   -0.00393    0.26656
 14 Li    0.00124    0.00497    0.25840
 15 Li    0.00077   -0.00212    0.26243
 16 Li   -0.00205    0.00391    0.26536
 17 Li    0.00139   -0.00455    0.25849
 18 Li   -0.00349   -0.00546    0.04340
 19 Li    0.00490    0.00176    0.02941
 20 Li   -0.00149   -0.00020    0.02491
 21 Li    0.00060    0.00087    0.03047
 22 Li   -0.00214    0.00064    0.02756
 23 Li    0.00135    0.00074    0.03769
 24 Li   -0.00318    0.00457    0.03684
 25 Li    0.00424   -0.00238    0.03049
 26 Li   -0.00109   -0.00049    0.01652
 27 Li   -0.02669   -0.00413    0.16597
 28 Li    0.01289    0.00340   -0.03802
 29 Li   -0.01644    0.00164   -0.02113
 30 Li    0.00616    0.01682   -0.04207
 31 Li   -0.00666   -0.01026   -0.01076
 32 Li   -0.00111    0.00479   -0.02413
 33 Li    0.00454   -0.01028   -0.00931
 34 Li   -0.00246    0.00680   -0.01298
 35 Li   -0.00399   -0.00766   -0.02100
 36 O     0.12267    0.13158   -0.08172
 37 O    -0.04197   -0.01251   -0.01152
 38 C     0.05205   -0.02491   -0.13697
 39 C    -0.06119   -0.01998   -0.01433
 40 H    -0.02257   -0.02258    0.01935
 41 H    -0.02776   -0.00630    0.00080
 42 H     0.03501   -0.00790   -0.00098
 43 H     0.02577   -0.00372    0.00694
 44 H    -0.09293   -0.02933    0.01565
 45 H     0.01686   -0.02816    0.02209

System changes: positions 

Initializing position-dependent things.

Density initialized from wave functions
       .-----------------------.  
      /|                       |  
     / |                       |  
    /  |                       |  
   /   |                       |  
  /    |                       |  
 *     |                      H|  
 |     |                       |  
 |     |                       |  
 |     |                  H    |  
 |     |                O      |  
 |C  H |                       |  
 |     |              H  CH    Li 
 |     |                       |  
 | H Li|     Li      Li  O     |  
 |     |  Li      Li      Li   |  
 | Li  |   Li      Li          |  
 |     |Li      Li      Li     |  
 |     | Li      Li            |  
 |   LLi     LLi     LLi       |  
 |     |  Li      Li      Li   |  
 | Li  |   Li      Li          |  
 |     |Li      Li      Li     |  
 Li    | Li      Li            |  
 |    Li      Li      Li       |  
 |     |                       |  
 |     |                       |  
 |     |                       |  
 |     |                       |  
 |     |                       |  
 |     |                       |  
 |     .-----------------------.  
 |    /                       /   
 |   /                       /    
 |  /                       /     
 | /                       /      
 |/                       /       
 *-----------------------*        

Positions:
   0 Li     1.617037    1.617037   10.000000    ( 0.0000,  0.0000,  0.0000)
   1 Li     4.851111    1.617037   10.000000    ( 0.0000,  0.0000,  0.0000)
   2 Li     8.085185    1.617037   10.000000    ( 0.0000,  0.0000,  0.0000)
   3 Li     1.617037    4.851111   10.000000    ( 0.0000,  0.0000,  0.0000)
   4 Li     4.851111    4.851111   10.000000    ( 0.0000,  0.0000,  0.0000)
   5 Li     8.085185    4.851111   10.000000    ( 0.0000,  0.0000,  0.0000)
   6 Li     1.617037    8.085185   10.000000    ( 0.0000,  0.0000,  0.0000)
   7 Li     4.851111    8.085185   10.000000    ( 0.0000,  0.0000,  0.0000)
   8 Li     8.085185    8.085185   10.000000    ( 0.0000,  0.0000,  0.0000)
   9 Li     0.000000    0.000000   11.617037    ( 0.0000,  0.0000,  0.0000)
  10 Li     3.234074    0.000000   11.617037    ( 0.0000,  0.0000,  0.0000)
  11 Li     6.468148    0.000000   11.617037    ( 0.0000,  0.0000,  0.0000)
  12 Li     0.000000    3.234074   11.617037    ( 0.0000,  0.0000,  0.0000)
  13 Li     3.234074    3.234074   11.617037    ( 0.0000,  0.0000,  0.0000)
  14 Li     6.468148    3.234074   11.617037    ( 0.0000,  0.0000,  0.0000)
  15 Li     0.000000    6.468148   11.617037    ( 0.0000,  0.0000,  0.0000)
  16 Li     3.234074    6.468148   11.617037    ( 0.0000,  0.0000,  0.0000)
  17 Li     6.468148    6.468148   11.617037    ( 0.0000,  0.0000,  0.0000)
  18 Li     1.616714    1.616447   13.475688    ( 0.0000,  0.0000,  0.0000)
  19 Li     4.851782    1.617249   13.473924    ( 0.0000,  0.0000,  0.0000)
  20 Li     8.084866    1.617150   13.473113    ( 0.0000,  0.0000,  0.0000)
  21 Li     1.617079    4.851203   13.474045    ( 0.0000,  0.0000,  0.0000)
  22 Li     4.850852    4.851202   13.473639    ( 0.0000,  0.0000,  0.0000)
  23 Li     8.085384    4.851184   13.475070    ( 0.0000,  0.0000,  0.0000)
  24 Li     1.616773    8.085678   13.474721    ( 0.0000,  0.0000,  0.0000)
  25 Li     4.851689    8.084887   13.474073    ( 0.0000,  0.0000,  0.0000)
  26 Li     8.084906    8.085005   13.471905    ( 0.0000,  0.0000,  0.0000)
  27 Li    -0.003485   -0.000611   15.467038    ( 0.0000,  0.0000,  0.0000)
  28 Li     3.235780    0.000475   15.440714    ( 0.0000,  0.0000,  0.0000)
  29 Li     6.466033    0.000235   15.443045    ( 0.0000,  0.0000,  0.0000)
  30 Li     0.000859    3.236281   15.440207    ( 0.0000,  0.0000,  0.0000)
  31 Li     3.233144    3.232659   15.444363    ( 0.0000,  0.0000,  0.0000)
  32 Li     6.467995    3.234734   15.442583    ( 0.0000,  0.0000,  0.0000)
  33 Li     0.000634    6.466814   15.444581    ( 0.0000,  0.0000,  0.0000)
  34 Li     3.233736    6.469075   15.444064    ( 0.0000,  0.0000,  0.0000)
  35 Li     6.467590    6.467090   15.443004    ( 0.0000,  0.0000,  0.0000)
  36 O      9.701077    9.702341   18.423478    ( 0.0000,  0.0000,  0.0000)
  37 O      9.460840    9.743837   21.341892    ( 0.0000,  0.0000,  0.0000)
  38 C      9.286439   10.877148   19.176406    ( 0.0000,  0.0000,  0.0000)
  39 C      9.860204   10.884185   20.585003    ( 0.0000,  0.0000,  0.0000)
  40 H      9.583513   11.792160   18.642097    ( 0.0000,  0.0000,  0.0000)
  41 H      8.195750   10.824843   19.206302    ( 0.0000,  0.0000,  0.0000)
  42 H      9.487072   11.762641   21.120016    ( 0.0000,  0.0000,  0.0000)
  43 H     10.956857   10.964398   20.534487    ( 0.0000,  0.0000,  0.0000)
  44 H     10.660592    9.774428   18.275143    ( 0.0000,  0.0000,  0.0000)
  45 H      9.568277    8.974085   20.767321    ( 0.0000,  0.0000,  0.0000)

Unit cell:
           periodic     x           y           z      points  spacing
  1. axis:    yes    9.702222    0.000000    0.000000    60     0.1617
  2. axis:    yes    0.000000    9.702222    0.000000    60     0.1617
  3. axis:    no     0.000000    0.000000   24.851111   156     0.1593

  Lengths:   9.702222   9.702222  24.851111
  Angles:   90.000000  90.000000  90.000000

Effective grid spacing dv^(1/3) = 0.1609

     iter     time        total  log10-change:
                         energy  eigst   dens
iter:   1 10:16:37  -290.842283  -1.89
iter:   2 10:21:55  -290.832798  -2.48  -2.00
iter:   3 10:28:35  -290.830987c -3.25  -2.36
iter:   4 10:35:15  -290.830574c -3.37  -2.74
Writing to output.gpw (mode='')

iter:   5 10:43:00  -290.830172c -3.14  -2.85
iter:   6 10:49:42  -290.830136c -3.44  -3.16
iter:   7 10:55:47  -290.830178c -3.33  -3.33
iter:   8 11:00:48  -290.830142c -3.92  -3.26
iter:   9 11:07:13  -290.830168c -3.99  -3.49
Writing to output.gpw (mode='')

iter:  10 11:15:09  -290.830153c -4.84  -3.55
iter:  11 11:22:34  -290.830148c -4.62  -3.70
iter:  12 11:30:12  -290.830147c -4.75  -3.81
iter:  13 11:35:19  -290.830141c -5.09  -3.78
iter:  14 11:40:23  -290.830138c -5.10  -3.96
Writing to output.gpw (mode='')

iter:  15 11:45:30  -290.830142c -5.92  -4.01c
iter:  16 11:49:07  -290.830143c -5.60  -4.13c
iter:  17 11:53:56  -290.830141c -5.72  -4.24c
iter:  18 11:59:30  -290.830141c -6.09  -4.32c
iter:  19 12:02:34  -290.830142c -6.30  -4.51c
Writing to output.gpw (mode='')

iter:  20 12:06:58  -290.830141c -6.59  -4.51c
iter:  21 12:10:04  -290.830141c -6.40  -4.53c
iter:  22 12:13:38  -290.830140c -6.91  -4.74c
iter:  23 12:17:40  -290.830140c -7.17  -4.80c
iter:  24 12:21:03  -290.830141c -7.09  -4.83c
Writing to output.gpw (mode='')

iter:  25 12:26:28  -290.830141c -7.42c -4.97c

Converged after 25 iterations.

Dipole moment: (9.213449, -17.240434, -0.171171) |e|*Ang

Energy contributions relative to reference atoms: (reference = -13512.263335)

Kinetic:       +137.250021
Potential:     -129.742888
External:        +0.000000
XC:            -298.868349
Entropy (-ST):   -0.152669
Local:           +0.607409
--------------------------
Free energy:   -290.906476
Extrapolated:  -290.830141

Dipole-layer corrected work functions: 3.381493, 3.710542 eV

Showing only first 2 kpts
 Kpt  Band  Eigenvalues  Occupancy
  0    29     -3.79734    1.98696
  0    30     -3.71240    1.93073
  0    31     -3.38316    0.07415
  0    32     -3.29061    0.01202

  1    29     -3.57142    1.24873
  1    30     -3.54240    0.96382
  1    31     -3.50081    0.57640
  1    32     -3.49805    0.55401


Fermi level: -3.54602

No gap

Forces in eV/Ang:
  0 Li    0.00156   -0.00076   -0.27207
  1 Li   -0.00082   -0.00072   -0.27442
  2 Li   -0.00085    0.00372   -0.27163
  3 Li   -0.00184   -0.00052   -0.27266
  4 Li    0.00306    0.00022   -0.27447
  5 Li   -0.00110   -0.00060   -0.27319
  6 Li    0.00241    0.00133   -0.27182
  7 Li   -0.00089    0.00043   -0.27406
  8 Li   -0.00163   -0.00314   -0.27150
  9 Li   -0.00025    0.00111    0.27174
 10 Li    0.00480    0.00006    0.26005
 11 Li   -0.00416   -0.00029    0.26409
 12 Li    0.00066    0.00137    0.26249
 13 Li   -0.00207   -0.00446    0.26913
 14 Li    0.00149    0.00522    0.26060
 15 Li    0.00100   -0.00259    0.26431
 16 Li   -0.00241    0.00439    0.26776
 17 Li    0.00151   -0.00486    0.26052
 18 Li   -0.00537   -0.00717    0.03898
 19 Li    0.00433    0.00201    0.02398
 20 Li    0.00039   -0.00224    0.02299
 21 Li    0.00109    0.00114    0.02527
 22 Li   -0.00241    0.00052    0.02288
 23 Li    0.00103    0.00107    0.03118
 24 Li   -0.00533    0.00605    0.03413
 25 Li    0.00380   -0.00251    0.02490
 26 Li    0.00092    0.00123    0.01637
 27 Li   -0.02647   -0.00323    0.16917
 28 Li    0.01229    0.00286   -0.03401
 29 Li   -0.01659    0.00133   -0.01886
 30 Li    0.00528    0.01637   -0.03809
 31 Li   -0.00574   -0.00906   -0.00820
 32 Li   -0.00092    0.00414   -0.02072
 33 Li    0.00392   -0.01015   -0.00732
 34 Li   -0.00227    0.00621   -0.01018
 35 Li   -0.00335   -0.00665   -0.01787
 36 O     0.14250    0.22280   -0.00753
 37 O    -0.00007    0.00141   -0.01107
 38 C     0.06418   -0.07266   -0.20848
 39 C    -0.07728   -0.01167   -0.07025
 40 H    -0.04266   -0.04404    0.05423
 41 H     0.03445   -0.00576   -0.00953
 42 H     0.01967   -0.02969   -0.00298
 43 H     0.02443   -0.03454    0.01223
 44 H    -0.15680   -0.02378    0.02361
 45 H     0.01570   -0.01632    0.02358

System changes: positions 

Initializing position-dependent things.

Density initialized from wave functions
       .-----------------------.  
      /|                       |  
     / |                       |  
    /  |                       |  
   /   |                       |  
  /    |                       |  
 *     |                      H|  
 |     |                       |  
 |     |                       |  
 |     |                  H    |  
 |     |                O      |  
 |C  H |                       |  
 |     |              H  CH    Li 
 |     |                       |  
 O H Li|     Li      Li        |  
 |     |  Li      Li      Li   |  
 | Li  |   Li      Li          |  
 |     |Li      Li      Li     |  
 |     | Li      Li            |  
 |   LLi     LLi     LLi       |  
 |     |  Li      Li      Li   |  
 | Li  |   Li      Li          |  
 |     |Li      Li      Li     |  
 Li    | Li      Li            |  
 |    Li      Li      Li       |  
 |     |                       |  
 |     |                       |  
 |     |                       |  
 |     |                       |  
 |     |                       |  
 |     |                       |  
 |     .-----------------------.  
 |    /                       /   
 |   /                       /    
 |  /                       /     
 | /                       /      
 |/                       /       
 *-----------------------*        

Positions:
   0 Li     1.617037    1.617037   10.000000    ( 0.0000,  0.0000,  0.0000)
   1 Li     4.851111    1.617037   10.000000    ( 0.0000,  0.0000,  0.0000)
   2 Li     8.085185    1.617037   10.000000    ( 0.0000,  0.0000,  0.0000)
   3 Li     1.617037    4.851111   10.000000    ( 0.0000,  0.0000,  0.0000)
   4 Li     4.851111    4.851111   10.000000    ( 0.0000,  0.0000,  0.0000)
   5 Li     8.085185    4.851111   10.000000    ( 0.0000,  0.0000,  0.0000)
   6 Li     1.617037    8.085185   10.000000    ( 0.0000,  0.0000,  0.0000)
   7 Li     4.851111    8.085185   10.000000    ( 0.0000,  0.0000,  0.0000)
   8 Li     8.085185    8.085185   10.000000    ( 0.0000,  0.0000,  0.0000)
   9 Li     0.000000    0.000000   11.617037    ( 0.0000,  0.0000,  0.0000)
  10 Li     3.234074    0.000000   11.617037    ( 0.0000,  0.0000,  0.0000)
  11 Li     6.468148    0.000000   11.617037    ( 0.0000,  0.0000,  0.0000)
  12 Li     0.000000    3.234074   11.617037    ( 0.0000,  0.0000,  0.0000)
  13 Li     3.234074    3.234074   11.617037    ( 0.0000,  0.0000,  0.0000)
  14 Li     6.468148    3.234074   11.617037    ( 0.0000,  0.0000,  0.0000)
  15 Li     0.000000    6.468148   11.617037    ( 0.0000,  0.0000,  0.0000)
  16 Li     3.234074    6.468148   11.617037    ( 0.0000,  0.0000,  0.0000)
  17 Li     6.468148    6.468148   11.617037    ( 0.0000,  0.0000,  0.0000)
  18 Li     1.616075    1.615390   13.485012    ( 0.0000,  0.0000,  0.0000)
  19 Li     4.852831    1.617604   13.480346    ( 0.0000,  0.0000,  0.0000)
  20 Li     8.084467    1.617205   13.478443    ( 0.0000,  0.0000,  0.0000)
  21 Li     1.617177    4.851370   13.480676    ( 0.0000,  0.0000,  0.0000)
  22 Li     4.850419    4.851341   13.479647    ( 0.0000,  0.0000,  0.0000)
  23 Li     8.085685    4.851322   13.483273    ( 0.0000,  0.0000,  0.0000)
  24 Li     1.616212    8.086565   13.482591    ( 0.0000,  0.0000,  0.0000)
  25 Li     4.852594    8.084400   13.480726    ( 0.0000,  0.0000,  0.0000)
  26 Li     8.084582    8.084821   13.475396    ( 0.0000,  0.0000,  0.0000)
  27 Li    -0.009084   -0.001537   15.501299    ( 0.0000,  0.0000,  0.0000)
  28 Li     3.238496    0.001209   15.432548    ( 0.0000,  0.0000,  0.0000)
  29 Li     6.462613    0.000594   15.438520    ( 0.0000,  0.0000,  0.0000)
  30 Li     0.002190    3.239812   15.431215    ( 0.0000,  0.0000,  0.0000)
  31 Li     3.231699    3.230450   15.441985    ( 0.0000,  0.0000,  0.0000)
  32 Li     6.467762    3.235756   15.437385    ( 0.0000,  0.0000,  0.0000)
  33 Li     0.001617    6.464668   15.442520    ( 0.0000,  0.0000,  0.0000)
  34 Li     3.233201    6.470534   15.441217    ( 0.0000,  0.0000,  0.0000)
  35 Li     6.466733    6.465450   15.438468    ( 0.0000,  0.0000,  0.0000)
  36 O      9.704052    9.711332   18.394238    ( 0.0000,  0.0000,  0.0000)
  37 O      9.449510    9.740760   21.338511    ( 0.0000,  0.0000,  0.0000)
  38 C      9.284488   10.878973   19.170671    ( 0.0000,  0.0000,  0.0000)
  39 C      9.858900   10.879852   20.583757    ( 0.0000,  0.0000,  0.0000)
  40 H      9.582920   11.796139   18.638653    ( 0.0000,  0.0000,  0.0000)
  41 H      8.191377   10.822894   19.204627    ( 0.0000,  0.0000,  0.0000)
  42 H      9.493747   11.763125   21.119422    ( 0.0000,  0.0000,  0.0000)
  43 H     10.956149   10.965307   20.535681    ( 0.0000,  0.0000,  0.0000)
  44 H     10.669892    9.770595   18.274111    ( 0.0000,  0.0000,  0.0000)
  45 H      9.571910    8.966937   20.771737    ( 0.0000,  0.0000,  0.0000)

Unit cell:
           periodic     x           y           z      points  spacing
  1. axis:    yes    9.702222    0.000000    0.000000    60     0.1617
  2. axis:    yes    0.000000    9.702222    0.000000    60     0.1617
  3. axis:    no     0.000000    0.000000   24.851111   156     0.1593

  Lengths:   9.702222   9.702222  24.851111
  Angles:   90.000000  90.000000  90.000000

Effective grid spacing dv^(1/3) = 0.1609

     iter     time        total  log10-change:
                         energy  eigst   dens
iter:   1 12:34:46  -290.944956  -1.02
iter:   2 12:39:09  -290.857554  -1.61  -1.53
iter:   3 12:43:41  -290.840939  -2.43  -1.91
iter:   4 12:49:54  -290.839413c -2.68  -2.34
Writing to output.gpw (mode='')

iter:   5 12:55:36  -290.837460c -2.34  -2.43
iter:   6 13:00:31  -290.837279c -2.53  -2.76
iter:   7 13:04:24  -290.837496c -2.68  -2.93
iter:   8 13:08:27  -290.837459c -3.17  -2.87
iter:   9 13:12:59  -290.837538c -3.53  -3.09
Writing to output.gpw (mode='')

iter:  10 13:17:08  -290.837464c -4.00  -3.09
iter:  11 13:21:15  -290.837441c -4.27  -3.17
iter:  12 13:25:13  -290.837397c -3.98  -3.29
iter:  13 13:30:20  -290.837402c -4.60  -3.51
iter:  14 13:36:15  -290.837403c -4.65  -3.55
Writing to output.gpw (mode='')

iter:  15 13:41:00  -290.837393c -4.50  -3.68
iter:  16 13:45:50  -290.837391c -5.02  -3.81
iter:  17 13:49:39  -290.837394c -5.32  -3.86
iter:  18 13:55:35  -290.837394c -5.29  -3.96
iter:  19 14:02:21  -290.837392c -5.48  -4.27c
Writing to output.gpw (mode='')

iter:  20 14:07:03  -290.837392c -5.68  -4.34c
iter:  21 14:11:30  -290.837394c -5.93  -4.35c
iter:  22 14:15:37  -290.837394c -6.05  -4.44c
iter:  23 14:20:16  -290.837395c -6.16  -4.50c
iter:  24 14:26:18  -290.837395c -6.46  -4.62c
Writing to output.gpw (mode='')

iter:  25 14:32:27  -290.837396c -6.50  -4.65c
iter:  26 14:37:04  -290.837396c -6.69  -4.83c
iter:  27 14:41:58  -290.837396c -6.78  -4.99c
iter:  28 14:47:00  -290.837396c -6.70  -5.04c
iter:  29 14:56:15  -290.837396c -6.93  -5.15c
Writing to output.gpw (mode='')

iter:  30 15:05:21  -290.837396c -7.19  -5.33c
iter:  31 15:09:49  -290.837396c -7.02  -5.37c
iter:  32 15:17:41  -290.837396c -7.16  -5.45c
iter:  33 15:22:35  -290.837396c -7.34  -5.54c
iter:  34 15:26:18  -290.837396c -7.52c -5.60c

Converged after 34 iterations.

Dipole moment: (8.976848, -17.740251, -0.147888) |e|*Ang

Energy contributions relative to reference atoms: (reference = -13512.263335)

Kinetic:       +136.258042
Potential:     -129.012128
External:        +0.000000
XC:            -298.615109
Entropy (-ST):   -0.152868
Local:           +0.608233
--------------------------
Free energy:   -290.913830
Extrapolated:  -290.837396

Dipole-layer corrected work functions: 3.381227, 3.665518 eV

Showing only first 2 kpts
 Kpt  Band  Eigenvalues  Occupancy
  0    29     -3.77235    1.98634
  0    30     -3.68927    1.93008
  0    31     -3.36020    0.07370
  0    32     -3.26540    0.01143

  1    29     -3.54884    1.24930
  1    30     -3.51924    0.95870
  1    31     -3.47976    0.58959
  1    32     -3.47659    0.56353


Fermi level: -3.52337

No gap
Writing to output.gpw (mode='')


Forces in eV/Ang:
  0 Li    0.00174   -0.00063   -0.27234
  1 Li   -0.00067   -0.00050   -0.27556
  2 Li   -0.00118    0.00383   -0.27175
  3 Li   -0.00161   -0.00046   -0.27387
  4 Li    0.00295    0.00003   -0.27475
  5 Li   -0.00108   -0.00061   -0.27422
  6 Li    0.00243    0.00115   -0.27184
  7 Li   -0.00083    0.00035   -0.27512
  8 Li   -0.00171   -0.00324   -0.27135
  9 Li    0.00066    0.00173    0.27436
 10 Li    0.00540    0.00017    0.26694
 11 Li   -0.00541   -0.00014    0.26841
 12 Li    0.00113    0.00190    0.26908
 13 Li   -0.00329   -0.00587    0.27622
 14 Li    0.00218    0.00592    0.26671
 15 Li    0.00161   -0.00381    0.26948
 16 Li   -0.00339    0.00568    0.27439
 17 Li    0.00183   -0.00568    0.26618
 18 Li   -0.01050   -0.01184    0.02720
 19 Li    0.00275    0.00280    0.00921
 20 Li    0.00548   -0.00777    0.01798
 21 Li    0.00257    0.00189    0.01114
 22 Li   -0.00318    0.00020    0.01019
 23 Li    0.00007    0.00201    0.01346
 24 Li   -0.01119    0.01006    0.02716
 25 Li    0.00257   -0.00299    0.00969
 26 Li    0.00637    0.00591    0.01629
 27 Li   -0.02555   -0.00050    0.17630
 28 Li    0.01038    0.00128   -0.02303
 29 Li   -0.01676    0.00043   -0.01277
 30 Li    0.00285    0.01478   -0.02685
 31 Li   -0.00322   -0.00577   -0.00138
 32 Li   -0.00037    0.00230   -0.01143
 33 Li    0.00226   -0.00945   -0.00210
 34 Li   -0.00184    0.00471   -0.00264
 35 Li   -0.00152   -0.00377   -0.00935
 36 O     0.14892    0.34776    0.13330
 37 O     0.07985    0.02819   -0.03397
 38 C     0.10566   -0.10203   -0.26214
 39 C    -0.08563    0.01479   -0.16646
 40 H    -0.08175   -0.05534    0.10724
 41 H     0.13789   -0.01224   -0.04651
 42 H    -0.02155   -0.08549   -0.02915
 43 H     0.00626   -0.10689    0.01128
 44 H    -0.22706    0.00401    0.03235
 45 H     0.01043    0.01400    0.03059

System changes: positions 

Initializing position-dependent things.

Density initialized from wave functions
       .-----------------------.  
      /|                       |  
     / |                       |  
    /  |                       |  
   /   |                       |  
  /    |                       |  
 *     |                      H|  
 |     |                       |  
 |     |                       |  
 |     |                  H    |  
 |     |                O      |  
 |C  H |                       |  
 |     |              H  CH    Li 
 |     |                       |  
 O H Li|     Li      Li        |  
 |     |  Li      Li      Li   |  
 | Li  |   Li      Li          |  
 |     |Li      Li      Li     |  
 |     | Li      Li            |  
 |   LLi     LLi     LLi       |  
 |     |  Li      Li      Li   |  
 | Li  |   Li      Li          |  
 |     |Li      Li      Li     |  
 Li    | Li      Li            |  
 |    Li      Li      Li       |  
 |     |                       |  
 |     |                       |  
 |     |                       |  
 |     |                       |  
 |     |                       |  
 |     |                       |  
 |     .-----------------------.  
 |    /                       /   
 |   /                       /    
 |  /                       /     
 | /                       /      
 |/                       /       
 *-----------------------*        

Positions:
   0 Li     1.617037    1.617037   10.000000    ( 0.0000,  0.0000,  0.0000)
   1 Li     4.851111    1.617037   10.000000    ( 0.0000,  0.0000,  0.0000)
   2 Li     8.085185    1.617037   10.000000    ( 0.0000,  0.0000,  0.0000)
   3 Li     1.617037    4.851111   10.000000    ( 0.0000,  0.0000,  0.0000)
   4 Li     4.851111    4.851111   10.000000    ( 0.0000,  0.0000,  0.0000)
   5 Li     8.085185    4.851111   10.000000    ( 0.0000,  0.0000,  0.0000)
   6 Li     1.617037    8.085185   10.000000    ( 0.0000,  0.0000,  0.0000)
   7 Li     4.851111    8.085185   10.000000    ( 0.0000,  0.0000,  0.0000)
   8 Li     8.085185    8.085185   10.000000    ( 0.0000,  0.0000,  0.0000)
   9 Li     0.000000    0.000000   11.617037    ( 0.0000,  0.0000,  0.0000)
  10 Li     3.234074    0.000000   11.617037    ( 0.0000,  0.0000,  0.0000)
  11 Li     6.468148    0.000000   11.617037    ( 0.0000,  0.0000,  0.0000)
  12 Li     0.000000    3.234074   11.617037    ( 0.0000,  0.0000,  0.0000)
  13 Li     3.234074    3.234074   11.617037    ( 0.0000,  0.0000,  0.0000)
  14 Li     6.468148    3.234074   11.617037    ( 0.0000,  0.0000,  0.0000)
  15 Li     0.000000    6.468148   11.617037    ( 0.0000,  0.0000,  0.0000)
  16 Li     3.234074    6.468148   11.617037    ( 0.0000,  0.0000,  0.0000)
  17 Li     6.468148    6.468148   11.617037    ( 0.0000,  0.0000,  0.0000)
  18 Li     1.615210    1.614056   13.495394    ( 0.0000,  0.0000,  0.0000)
  19 Li     4.853992    1.618032   13.487325    ( 0.0000,  0.0000,  0.0000)
  20 Li     8.084141    1.617125   13.484423    ( 0.0000,  0.0000,  0.0000)
  21 Li     1.617327    4.851580   13.487912    ( 0.0000,  0.0000,  0.0000)
  22 Li     4.849902    4.851492   13.486204    ( 0.0000,  0.0000,  0.0000)
  23 Li     8.086005    4.851504   13.492218    ( 0.0000,  0.0000,  0.0000)
  24 Li     1.615418    8.087685   13.491431    ( 0.0000,  0.0000,  0.0000)
  25 Li     4.853601    8.083830   13.487960    ( 0.0000,  0.0000,  0.0000)
  26 Li     8.084351    8.084732   13.479396    ( 0.0000,  0.0000,  0.0000)
  27 Li    -0.015480   -0.002526   15.540772    ( 0.0000,  0.0000,  0.0000)
  28 Li     3.241560    0.002009   15.423472    ( 0.0000,  0.0000,  0.0000)
  29 Li     6.458686    0.000982   15.433490    ( 0.0000,  0.0000,  0.0000)
  30 Li     0.003653    3.243821   15.421197    ( 0.0000,  0.0000,  0.0000)
  31 Li     3.230109    3.228004   15.439437    ( 0.0000,  0.0000,  0.0000)
  32 Li     6.467509    3.236881   15.431666    ( 0.0000,  0.0000,  0.0000)
  33 Li     0.002701    6.462225   15.440293    ( 0.0000,  0.0000,  0.0000)
  34 Li     3.232600    6.472167   15.438149    ( 0.0000,  0.0000,  0.0000)
  35 Li     6.465797    6.463643   15.433487    ( 0.0000,  0.0000,  0.0000)
  36 O      9.708110    9.725521   18.364815    ( 0.0000,  0.0000,  0.0000)
  37 O      9.438667    9.737932   21.334116    ( 0.0000,  0.0000,  0.0000)
  38 C      9.283674   10.879948   19.161868    ( 0.0000,  0.0000,  0.0000)
  39 C      9.856836   10.875545   20.579736    ( 0.0000,  0.0000,  0.0000)
  40 H      9.581108   11.800103   18.636324    ( 0.0000,  0.0000,  0.0000)
  41 H      8.189053   10.820518   19.201828    ( 0.0000,  0.0000,  0.0000)
  42 H      9.500366   11.762208   21.118126    ( 0.0000,  0.0000,  0.0000)
  43 H     10.955060   10.964449   20.537056    ( 0.0000,  0.0000,  0.0000)
  44 H     10.678016    9.766844   18.273256    ( 0.0000,  0.0000,  0.0000)
  45 H      9.575939    8.959558   20.776984    ( 0.0000,  0.0000,  0.0000)

Unit cell:
           periodic     x           y           z      points  spacing
  1. axis:    yes    9.702222    0.000000    0.000000    60     0.1617
  2. axis:    yes    0.000000    9.702222    0.000000    60     0.1617
  3. axis:    no     0.000000    0.000000   24.851111   156     0.1593

  Lengths:   9.702222   9.702222  24.851111
  Angles:   90.000000  90.000000  90.000000

Effective grid spacing dv^(1/3) = 0.1609

     iter     time        total  log10-change:
                         energy  eigst   dens
iter:   1 15:30:44  -291.006306  -0.90
iter:   2 15:34:56  -290.872621  -1.46  -1.46
iter:   3 15:39:11  -290.848413  -2.36  -1.83
iter:   4 15:43:29  -290.846662c -2.63  -2.31
Writing to output.gpw (mode='')

iter:   5 15:47:32  -290.845194c -2.26  -2.44
iter:   6 15:51:19  -290.845028c -2.42  -2.70
iter:   7 15:56:07  -290.845263c -2.65  -2.85
iter:   8 16:00:49  -290.845167c -3.36  -2.82
iter:   9 16:04:43  -290.845292c -3.36  -3.05
Writing to output.gpw (mode='')

iter:  10 16:11:10  -290.845236c -3.87  -3.15
iter:  11 16:15:16  -290.845210c -3.93  -3.18
iter:  12 16:22:06  -290.845225c -3.93  -3.35
iter:  13 16:27:37  -290.845223c -4.62  -3.51
iter:  14 16:32:32  -290.845221c -4.82  -3.57
Writing to output.gpw (mode='')

iter:  15 16:37:37  -290.845216c -4.71  -3.62
iter:  16 16:43:05  -290.845212c -4.73  -3.86
iter:  17 16:48:13  -290.845213c -5.25  -4.09c
iter:  18 16:55:18  -290.845216c -5.46  -4.14c
iter:  19 17:01:20  -290.845218c -5.34  -4.20c
Writing to output.gpw (mode='')

iter:  20 17:08:50  -290.845217c -5.61  -4.26c
iter:  21 17:12:48  -290.845217c -5.80  -4.40c
iter:  22 17:17:45  -290.845218c -5.73  -4.44c
iter:  23 17:24:10  -290.845217c -5.96  -4.60c
iter:  24 17:31:05  -290.845217c -6.02  -4.69c
Writing to output.gpw (mode='')

iter:  25 17:35:25  -290.845217c -6.31  -4.74c
iter:  26 17:40:02  -290.845218c -6.30  -4.75c
iter:  27 17:45:02  -290.845218c -6.48  -4.79c
iter:  28 17:49:01  -290.845218c -6.79  -5.00c
iter:  29 17:52:36  -290.845219c -6.72  -5.08c
Writing to output.gpw (mode='')

iter:  30 17:56:51  -290.845219c -6.83  -5.14c
iter:  31 18:00:49  -290.845219c -6.94  -5.16c
iter:  32 18:05:19  -290.845219c -7.19  -5.18c
iter:  33 18:08:08  -290.845219c -7.20  -5.34c
iter:  34 18:11:56  -290.845219c -7.14  -5.44c
Writing to output.gpw (mode='')

iter:  35 18:15:53  -290.845219c -7.21  -5.48c
iter:  36 18:19:26  -290.845218c -7.35  -5.56c
iter:  37 18:21:51  -290.845219c -7.62c -5.54c

Converged after 37 iterations.

Dipole moment: (8.637167, -18.638503, -0.125498) |e|*Ang

Energy contributions relative to reference atoms: (reference = -13512.263335)

Kinetic:       +135.728335
Potential:     -128.616926
External:        +0.000000
XC:            -298.487024
Entropy (-ST):   -0.153123
Local:           +0.606958
--------------------------
Free energy:   -290.921780
Extrapolated:  -290.845219

Dipole-layer corrected work functions: 3.380891, 3.622141 eV

Showing only first 2 kpts
 Kpt  Band  Eigenvalues  Occupancy
  0    29     -3.74789    1.98561
  0    30     -3.66676    1.92920
  0    31     -3.33815    0.07341
  0    32     -3.24074    0.01080

  1    29     -3.52706    1.25006
  1    30     -3.49696    0.95451
  1    31     -3.45988    0.60615
  1    32     -3.45568    0.57128


Fermi level: -3.50152

No gap
Writing to output.gpw (mode='')


Forces in eV/Ang:
  0 Li    0.00194   -0.00049   -0.27261
  1 Li   -0.00049   -0.00024   -0.27680
  2 Li   -0.00154    0.00393   -0.27184
  3 Li   -0.00134   -0.00039   -0.27520
  4 Li    0.00284   -0.00018   -0.27501
  5 Li   -0.00109   -0.00063   -0.27538
  6 Li    0.00242    0.00096   -0.27183
  7 Li   -0.00075    0.00024   -0.27630
  8 Li   -0.00178   -0.00332   -0.27112
  9 Li    0.00162    0.00238    0.27668
 10 Li    0.00593    0.00027    0.27456
 11 Li   -0.00668    0.00002    0.27315
 12 Li    0.00163    0.00235    0.27638
 13 Li   -0.00470   -0.00748    0.28395
 14 Li    0.00300    0.00659    0.27339
 15 Li    0.00228   -0.00501    0.27516
 16 Li   -0.00456    0.00718    0.28165
 17 Li    0.00227   -0.00647    0.27238
 18 Li   -0.01596   -0.01675    0.01417
 19 Li    0.00099    0.00376   -0.00697
 20 Li    0.01085   -0.01375    0.01270
 21 Li    0.00429    0.00275   -0.00432
 22 Li   -0.00407   -0.00014   -0.00350
 23 Li   -0.00105    0.00309   -0.00601
 24 Li   -0.01753    0.01423    0.01966
 25 Li    0.00122   -0.00361   -0.00699
 26 Li    0.01218    0.01095    0.01647
 27 Li   -0.02392    0.00331    0.18209
 28 Li    0.00788   -0.00057   -0.01050
 29 Li   -0.01666   -0.00058   -0.00601
 30 Li    0.00005    0.01256   -0.01383
 31 Li   -0.00035   -0.00209    0.00612
 32 Li    0.00022    0.00026   -0.00112
 33 Li    0.00043   -0.00843    0.00356
 34 Li   -0.00136    0.00308    0.00572
 35 Li    0.00050   -0.00057    0.00012
 36 O     0.10292    0.30259    0.23133
 37 O     0.09397    0.05885   -0.05475
 38 C     0.11765   -0.08343   -0.20630
 39 C    -0.05639    0.02518   -0.20973
 40 H    -0.10238   -0.01445    0.12388
 41 H     0.20624   -0.01980   -0.08927
 42 H    -0.06764   -0.12780   -0.06890
 43 H    -0.01469   -0.16791   -0.00461
 44 H    -0.23146    0.04202    0.03560
 45 H     0.00864    0.02763    0.02509

System changes: positions 

Initializing position-dependent things.

Density initialized from wave functions
       .-----------------------.  
      /|                       |  
     / |                       |  
    /  |                       |  
   /   |                       |  
  /    |                       |  
 *     |                      H|  
 |     |                       |  
 |     |                       |  
 |     |                  H    |  
 |     |                O      |  
 |C  H |                       |  
 |     |              H  CH    Li 
 |     |                       |  
 O H Li|     Li      Li        |  
 |     |  Li      Li      Li   |  
 | Li  |   Li      Li          |  
 |     |Li      Li      Li     |  
 |     | Li      Li            |  
 |   LLi     LLi     LLi       |  
 |     |  Li      Li      Li   |  
 | Li  |   Li      Li          |  
 |     |Li      Li      Li     |  
 Li    | Li      Li            |  
 |    Li      Li      Li       |  
 |     |                       |  
 |     |                       |  
 |     |                       |  
 |     |                       |  
 |     |                       |  
 |     |                       |  
 |     .-----------------------.  
 |    /                       /   
 |   /                       /    
 |  /                       /     
 | /                       /      
 |/                       /       
 *-----------------------*        

Positions:
   0 Li     1.617037    1.617037   10.000000    ( 0.0000,  0.0000,  0.0000)
   1 Li     4.851111    1.617037   10.000000    ( 0.0000,  0.0000,  0.0000)
   2 Li     8.085185    1.617037   10.000000    ( 0.0000,  0.0000,  0.0000)
   3 Li     1.617037    4.851111   10.000000    ( 0.0000,  0.0000,  0.0000)
   4 Li     4.851111    4.851111   10.000000    ( 0.0000,  0.0000,  0.0000)
   5 Li     8.085185    4.851111   10.000000    ( 0.0000,  0.0000,  0.0000)
   6 Li     1.617037    8.085185   10.000000    ( 0.0000,  0.0000,  0.0000)
   7 Li     4.851111    8.085185   10.000000    ( 0.0000,  0.0000,  0.0000)
   8 Li     8.085185    8.085185   10.000000    ( 0.0000,  0.0000,  0.0000)
   9 Li     0.000000    0.000000   11.617037    ( 0.0000,  0.0000,  0.0000)
  10 Li     3.234074    0.000000   11.617037    ( 0.0000,  0.0000,  0.0000)
  11 Li     6.468148    0.000000   11.617037    ( 0.0000,  0.0000,  0.0000)
  12 Li     0.000000    3.234074   11.617037    ( 0.0000,  0.0000,  0.0000)
  13 Li     3.234074    3.234074   11.617037    ( 0.0000,  0.0000,  0.0000)
  14 Li     6.468148    3.234074   11.617037    ( 0.0000,  0.0000,  0.0000)
  15 Li     0.000000    6.468148   11.617037    ( 0.0000,  0.0000,  0.0000)
  16 Li     3.234074    6.468148   11.617037    ( 0.0000,  0.0000,  0.0000)
  17 Li     6.468148    6.468148   11.617037    ( 0.0000,  0.0000,  0.0000)
  18 Li     1.614143    1.612544   13.505219    ( 0.0000,  0.0000,  0.0000)
  19 Li     4.855080    1.618491   13.493651    ( 0.0000,  0.0000,  0.0000)
  20 Li     8.084022    1.616819   13.490160    ( 0.0000,  0.0000,  0.0000)
  21 Li     1.617539    4.851821   13.494520    ( 0.0000,  0.0000,  0.0000)
  22 Li     4.849356    4.851629   13.492201    ( 0.0000,  0.0000,  0.0000)
  23 Li     8.086283    4.851725   13.500374    ( 0.0000,  0.0000,  0.0000)
  24 Li     1.614390    8.088958   13.499927    ( 0.0000,  0.0000,  0.0000)
  25 Li     4.854550    8.083241   13.494519    ( 0.0000,  0.0000,  0.0000)
  26 Li     8.084343    8.084834   13.483369    ( 0.0000,  0.0000,  0.0000)
  27 Li    -0.021783   -0.003379   15.580263    ( 0.0000,  0.0000,  0.0000)
  28 Li     3.244518    0.002737   15.414919    ( 0.0000,  0.0000,  0.0000)
  29 Li     6.454782    0.001330   15.428746    ( 0.0000,  0.0000,  0.0000)
  30 Li     0.005003    3.247729   15.411721    ( 0.0000,  0.0000,  0.0000)
  31 Li     3.228635    3.225710   15.437187    ( 0.0000,  0.0000,  0.0000)
  32 Li     6.467279    3.237924   15.426368    ( 0.0000,  0.0000,  0.0000)
  33 Li     0.003708    6.459829   15.438296    ( 0.0000,  0.0000,  0.0000)
  34 Li     3.232022    6.473727   15.435413    ( 0.0000,  0.0000,  0.0000)
  35 Li     6.464941    6.461967   15.428892    ( 0.0000,  0.0000,  0.0000)
  36 O      9.712475    9.741946   18.340913    ( 0.0000,  0.0000,  0.0000)
  37 O      9.429678    9.736282   21.329062    ( 0.0000,  0.0000,  0.0000)
  38 C      9.284485   10.880145   19.151802    ( 0.0000,  0.0000,  0.0000)
  39 C      9.854570   10.871892   20.572995    ( 0.0000,  0.0000,  0.0000)
  40 H      9.577957   11.804155   18.635760    ( 0.0000,  0.0000,  0.0000)
  41 H      8.190012   10.817944   19.197640    ( 0.0000,  0.0000,  0.0000)
  42 H      9.505297   11.759359   21.115630    ( 0.0000,  0.0000,  0.0000)
  43 H     10.953613   10.960973   20.538112    ( 0.0000,  0.0000,  0.0000)
  44 H     10.683094    9.764248   18.272876    ( 0.0000,  0.0000,  0.0000)
  45 H      9.579823    8.953080   20.782183    ( 0.0000,  0.0000,  0.0000)

Unit cell:
           periodic     x           y           z      points  spacing
  1. axis:    yes    9.702222    0.000000    0.000000    60     0.1617
  2. axis:    yes    0.000000    9.702222    0.000000    60     0.1617
  3. axis:    no     0.000000    0.000000   24.851111   156     0.1593

  Lengths:   9.702222   9.702222  24.851111
  Angles:   90.000000  90.000000  90.000000

Effective grid spacing dv^(1/3) = 0.1609

     iter     time        total  log10-change:
                         energy  eigst   dens
iter:   1 18:25:45  -291.031478  -0.87
iter:   2 18:28:58  -290.883577  -1.41  -1.44
iter:   3 18:32:40  -290.857018  -2.39  -1.81
iter:   4 18:36:08  -290.854656c -2.55  -2.33
Writing to output.gpw (mode='')

iter:   5 18:39:31  -290.853594c -2.25  -2.51
iter:   6 18:41:51  -290.853483c -2.64  -2.72
iter:   7 18:45:02  -290.854125c -2.27  -2.83
iter:   8 18:49:21  -290.853599c -3.09  -2.72
iter:   9 18:51:47  -290.853668c -3.46  -3.12
Writing to output.gpw (mode='')

iter:  10 18:55:21  -290.853684c -3.81  -3.13
iter:  11 18:58:40  -290.853682c -3.74  -3.14
iter:  12 19:02:34  -290.853684c -3.69  -3.20
iter:  13 19:06:11  -290.853679c -4.20  -3.36
iter:  14 19:09:36  -290.853663c -3.99  -3.47
Writing to output.gpw (mode='')

iter:  15 19:13:24  -290.853679c -4.51  -3.58
iter:  16 19:15:33  -290.853687c -4.50  -3.73
iter:  17 19:18:15  -290.853686c -5.07  -3.80
iter:  18 19:21:12  -290.853687c -5.06  -3.95
iter:  19 19:24:29  -290.853689c -5.23  -4.05c
Writing to output.gpw (mode='')

iter:  20 19:28:29  -290.853687c -5.46  -4.07c
iter:  21 19:31:47  -290.853687c -5.57  -4.14c
iter:  22 19:35:36  -290.853689c -6.03  -4.17c
iter:  23 19:38:53  -290.853686c -5.81  -4.33c
iter:  24 19:41:23  -290.853686c -6.06  -4.50c
Writing to output.gpw (mode='')

iter:  25 19:43:57  -290.853686c -6.09  -4.64c
iter:  26 19:46:13  -290.853687c -6.36  -4.69c
iter:  27 19:50:35  -290.853687c -6.58  -4.79c
iter:  28 19:54:20  -290.853687c -6.58  -5.00c
iter:  29 19:57:58  -290.853687c -6.54  -5.16c
Writing to output.gpw (mode='')

iter:  30 20:00:49  -290.853688c -6.80  -5.21c
iter:  31 20:05:32  -290.853688c -7.06  -5.23c
iter:  32 20:08:01  -290.853688c -6.99  -5.25c
iter:  33 20:10:58  -290.853688c -7.09  -5.33c
iter:  34 20:15:04  -290.853688c -7.40c -5.40c

Converged after 34 iterations.

Dipole moment: (8.296961, -19.715477, -0.107593) |e|*Ang

Energy contributions relative to reference atoms: (reference = -13512.263335)

Kinetic:       +135.809610
Potential:     -128.672023
External:        +0.000000
XC:            -298.522239
Entropy (-ST):   -0.153402
Local:           +0.607665
--------------------------
Free energy:   -290.930389
Extrapolated:  -290.853688

Dipole-layer corrected work functions: 3.380610, 3.587441 eV

Showing only first 2 kpts
 Kpt  Band  Eigenvalues  Occupancy
  0    29     -3.72792    1.98489
  0    30     -3.64853    1.92817
  0    31     -3.32065    0.07340
  0    32     -3.22063    0.01025

  1    29     -3.50968    1.25106
  1    30     -3.47926    0.95240
  1    31     -3.44427    0.62219
  1    32     -3.43887    0.57683


Fermi level: -3.48403

No gap
Writing to output.gpw (mode='')


Forces in eV/Ang:
  0 Li    0.00211   -0.00039   -0.27289
  1 Li   -0.00031    0.00002   -0.27801
  2 Li   -0.00187    0.00399   -0.27193
  3 Li   -0.00107   -0.00030   -0.27650
  4 Li    0.00273   -0.00038   -0.27517
  5 Li   -0.00111   -0.00064   -0.27656
  6 Li    0.00240    0.00080   -0.27185
  7 Li   -0.00066    0.00013   -0.27747
  8 Li   -0.00183   -0.00338   -0.27090
  9 Li    0.00248    0.00294    0.27819
 10 Li    0.00627    0.00032    0.28173
 11 Li   -0.00772    0.00014    0.27759
 12 Li    0.00209    0.00264    0.28325
 13 Li   -0.00615   -0.00906    0.29111
 14 Li    0.00389    0.00709    0.27962
 15 Li    0.00291   -0.00595    0.28046
 16 Li   -0.00580    0.00871    0.28838
 17 Li    0.00279   -0.00704    0.27815
 18 Li   -0.02089   -0.02111    0.00203
 19 Li   -0.00072    0.00473   -0.02202
 20 Li    0.01565   -0.01920    0.00806
 21 Li    0.00598    0.00359   -0.01871
 22 Li   -0.00489   -0.00046   -0.01601
 23 Li   -0.00214    0.00413   -0.02423
 24 Li   -0.02329    0.01786    0.01269
 25 Li   -0.00009   -0.00426   -0.02253
 26 Li    0.01740    0.01554    0.01695
 27 Li   -0.02324    0.00740    0.18639
 28 Li    0.00511   -0.00239    0.00180
 29 Li   -0.01621   -0.00154    0.00043
 30 Li   -0.00264    0.01002   -0.00100
 31 Li    0.00233    0.00138    0.01303
 32 Li    0.00083   -0.00175    0.00860
 33 Li   -0.00127   -0.00722    0.00878
 34 Li   -0.00092    0.00158    0.01350
 35 Li    0.00244    0.00252    0.00906
 36 O     0.02437    0.13831    0.23702
 37 O     0.10134    0.08194   -0.07142
 38 C     0.10051   -0.01453   -0.08023
 39 C    -0.00760    0.01022   -0.18734
 40 H    -0.09731    0.05953    0.10466
 41 H     0.21264   -0.02727   -0.12533
 42 H    -0.10681   -0.13773   -0.11407
 43 H    -0.02473   -0.20378   -0.03284
 44 H    -0.14750    0.07453    0.03693
 45 H     0.00883    0.03639    0.02032

System changes: positions 

Initializing position-dependent things.

Density initialized from wave functions
       .-----------------------.  
      /|                       |  
     / |                       |  
    /  |                       |  
   /   |                       |  
  /    |                       |  
 *     |                      H|  
 |     |                       |  
 |     |                       |  
 |     |                  H    |  
 |     |                O      |  
 |C  H |                       |  
 |     |              H  CH    Li 
 |     |                       |  
 O H Li|     Li      Li        |  
 |     |  Li      Li      Li   |  
 | Li  |   Li      Li          |  
 |     |Li      Li      Li     |  
 |     | Li      Li            |  
 |   LLi     LLi     LLi       |  
 |     |  Li      Li      Li   |  
 | Li  |   Li      Li          |  
 |     |Li      Li      Li     |  
 Li    | Li      Li            |  
 |    Li      Li      Li       |  
 |     |                       |  
[...]

Dipole moment: (1.420758, -4.325902, 0.039590) |e|*Ang

Energy contributions relative to reference atoms: (reference = -13512.263335)

Kinetic:       +137.924354
Potential:     -130.470168
External:        +0.000000
XC:            -299.128591
Entropy (-ST):   -0.156564
Local:           +0.612693
--------------------------
Free energy:   -291.218275
Extrapolated:  -291.139993

Dipole-layer corrected work functions: 3.375054, 3.298949 eV

Showing only first 2 kpts
 Kpt  Band  Eigenvalues  Occupancy
  0    29     -3.56343    1.97864
  0    30     -3.48625    1.90378
  0    31     -3.18954    0.09954
  0    32     -3.05698    0.00737

  1    29     -3.38141    1.41702
  1    30     -3.34179    1.04786
  1    31     -3.29362    0.59146
  1    32     -3.28157    0.49623


Fermi level: -3.33700

No gap
Writing to output.gpw (mode='')


Forces in eV/Ang:
  0 Li    0.00454    0.00083   -0.27377
  1 Li   -0.00012   -0.00247   -0.28380
  2 Li   -0.00170    0.00136   -0.26924
  3 Li   -0.00303   -0.00064   -0.27985
  4 Li    0.00228   -0.00044   -0.25892
  5 Li    0.00140    0.00108   -0.28522
  6 Li    0.00157   -0.00013   -0.27165
  7 Li    0.00165    0.00176   -0.28561
  8 Li   -0.00082   -0.00234   -0.26666
  9 Li   -0.01075   -0.00020    0.24192
 10 Li   -0.01413   -0.00851    0.30979
 11 Li   -0.00141   -0.00816    0.29461
 12 Li   -0.00898   -0.00877    0.31354
 13 Li   -0.02279   -0.01128    0.29689
 14 Li    0.02299   -0.00892    0.29818
 15 Li   -0.01093    0.00954    0.29736
 16 Li   -0.03330    0.02159    0.29495
 17 Li    0.03577    0.01996    0.29163
 18 Li    0.00061   -0.00352    0.00671
 19 Li    0.00477   -0.00070   -0.00516
 20 Li    0.00137    0.00117   -0.01101
 21 Li   -0.00473    0.00181   -0.00727
 22 Li   -0.00095    0.00019   -0.01187
 23 Li   -0.00430    0.00184   -0.00189
 24 Li   -0.00063    0.00288    0.00202
 25 Li    0.00402   -0.00268   -0.00413
 26 Li    0.00354   -0.00170   -0.01126
 27 Li    0.00248    0.00378   -0.00145
 28 Li    0.00794    0.00394    0.00635
 29 Li    0.00155    0.00367   -0.00225
 30 Li    0.00312    0.00579   -0.00612
 31 Li   -0.00229    0.00044   -0.00659
 32 Li    0.00217   -0.00243   -0.00559
 33 Li    0.00305   -0.00085    0.00047
 34 Li   -0.00033   -0.00392   -0.00542
 35 Li   -0.00136   -0.00158   -0.00641
 36 O     0.04832    0.03658    0.00296
 37 O    -0.01328    0.02070   -0.04510
 38 C    -0.00042    0.03375    0.02476
 39 C    -0.01153   -0.00568    0.01020
 40 H     0.03095    0.00656   -0.03414
 41 H    -0.00606   -0.03290    0.03526
 42 H    -0.02597   -0.02007    0.00156
 43 H    -0.00236   -0.00703   -0.03100
 44 H     0.01194   -0.01769   -0.03870
 45 H    -0.01555   -0.00399    0.00588

System changes: positions 

Initializing position-dependent things.

Density initialized from wave functions
       .-----------------------.  
      /|                       |  
     / |                       |  
    /  |                       |  
   /   |                       |  
  /    |                      O|  
 *     |                      H|  
 |     |                       |  
 |     |                       |  
 |     |                       |  
 |     |                 H     |  
 |C  H |                       |  
 |     |       Li      Li      |  
 |H    |              H  C     |  
 |  H  |     Li      Li      Li|  
 |O    |  Li      Li      Li   |  
 |     |   Li      Li      Li  |  
 |     |Li      Li      LLi    |  
 |     |                       |  
 |   LLi     LLi     LLi       |  
 |     |  Li      Li      Li   |  
 | Li  |   Li      Li          |  
 |     |Li      Li      Li     |  
 Li    | Li      Li            |  
 |    Li      Li      Li       |  
 |     |                       |  
 |     |                       |  
 |     |                       |  
 |     |                       |  
 |     |                       |  
 |     |                       |  
 |     .-----------------------.  
 |    /                       /   
 |   /                       /    
 |  /                       /     
 | /                       /      
 |/                       /       
 *-----------------------*        

Positions:
   0 Li     1.617037    1.617037   10.000000    ( 0.0000,  0.0000,  0.0000)
   1 Li     4.851111    1.617037   10.000000    ( 0.0000,  0.0000,  0.0000)
   2 Li     8.085185    1.617037   10.000000    ( 0.0000,  0.0000,  0.0000)
   3 Li     1.617037    4.851111   10.000000    ( 0.0000,  0.0000,  0.0000)
   4 Li     4.851111    4.851111   10.000000    ( 0.0000,  0.0000,  0.0000)
   5 Li     8.085185    4.851111   10.000000    ( 0.0000,  0.0000,  0.0000)
   6 Li     1.617037    8.085185   10.000000    ( 0.0000,  0.0000,  0.0000)
   7 Li     4.851111    8.085185   10.000000    ( 0.0000,  0.0000,  0.0000)
   8 Li     8.085185    8.085185   10.000000    ( 0.0000,  0.0000,  0.0000)
   9 Li     0.000000    0.000000   11.617037    ( 0.0000,  0.0000,  0.0000)
  10 Li     3.234074    0.000000   11.617037    ( 0.0000,  0.0000,  0.0000)
  11 Li     6.468148    0.000000   11.617037    ( 0.0000,  0.0000,  0.0000)
  12 Li     0.000000    3.234074   11.617037    ( 0.0000,  0.0000,  0.0000)
  13 Li     3.234074    3.234074   11.617037    ( 0.0000,  0.0000,  0.0000)
  14 Li     6.468148    3.234074   11.617037    ( 0.0000,  0.0000,  0.0000)
  15 Li     0.000000    6.468148   11.617037    ( 0.0000,  0.0000,  0.0000)
  16 Li     3.234074    6.468148   11.617037    ( 0.0000,  0.0000,  0.0000)
  17 Li     6.468148    6.468148   11.617037    ( 0.0000,  0.0000,  0.0000)
  18 Li     1.571399    1.587357   13.525053    ( 0.0000,  0.0000,  0.0000)
  19 Li     4.845510    1.639806   13.470958    ( 0.0000,  0.0000,  0.0000)
  20 Li     8.099160    1.570076   13.548219    ( 0.0000,  0.0000,  0.0000)
  21 Li     1.642434    4.858275   13.493308    ( 0.0000,  0.0000,  0.0000)
  22 Li     4.853161    4.859007   13.500117    ( 0.0000,  0.0000,  0.0000)
  23 Li     8.076190    4.861445   13.483113    ( 0.0000,  0.0000,  0.0000)
  24 Li     1.556985    8.106700   13.542760    ( 0.0000,  0.0000,  0.0000)
  25 Li     4.848090    8.057919   13.469987    ( 0.0000,  0.0000,  0.0000)
  26 Li     8.110884    8.129721   13.568424    ( 0.0000,  0.0000,  0.0000)
  27 Li    -0.113957    0.002672   15.930367    ( 0.0000,  0.0000,  0.0000)
  28 Li     3.258299   -0.012248   15.348377    ( 0.0000,  0.0000,  0.0000)
  29 Li     6.348170   -0.003530   15.430689    ( 0.0000,  0.0000,  0.0000)
  30 Li    -0.003769    3.298778   15.381944    ( 0.0000,  0.0000,  0.0000)
  31 Li     3.241022    3.217897   15.454219    ( 0.0000,  0.0000,  0.0000)
  32 Li     6.469914    3.241302   15.438897    ( 0.0000,  0.0000,  0.0000)
  33 Li    -0.006195    6.414197   15.456975    ( 0.0000,  0.0000,  0.0000)
  34 Li     3.237804    6.479329   15.464958    ( 0.0000,  0.0000,  0.0000)
  35 Li     6.476078    6.474611   15.463551    ( 0.0000,  0.0000,  0.0000)
  36 O      9.994717   10.027538   17.841026    ( 0.0000,  0.0000,  0.0000)
  37 O      9.310772    9.491194   20.703323    ( 0.0000,  0.0000,  0.0000)
  38 C      9.403391   10.995819   18.755105    ( 0.0000,  0.0000,  0.0000)
  39 C      9.806009   10.726042   20.194679    ( 0.0000,  0.0000,  0.0000)
  40 H      9.704791   12.010559   18.468049    ( 0.0000,  0.0000,  0.0000)
  41 H      8.326025   10.898336   18.619741    ( 0.0000,  0.0000,  0.0000)
  42 H      9.387627   11.510351   20.831022    ( 0.0000,  0.0000,  0.0000)
  43 H     10.900794   10.780693   20.288310    ( 0.0000,  0.0000,  0.0000)
  44 H     10.958527   10.160667   17.850658    ( 0.0000,  0.0000,  0.0000)
  45 H      9.631861    8.784016   20.128733    ( 0.0000,  0.0000,  0.0000)

Unit cell:
           periodic     x           y           z      points  spacing
  1. axis:    yes    9.702222    0.000000    0.000000    60     0.1617
  2. axis:    yes    0.000000    9.702222    0.000000    60     0.1617
  3. axis:    no     0.000000    0.000000   24.851111   156     0.1593

  Lengths:   9.702222   9.702222  24.851111
  Angles:   90.000000  90.000000  90.000000

Effective grid spacing dv^(1/3) = 0.1609

     iter     time        total  log10-change:
                         energy  eigst   dens
iter:   1 14:42:39  -291.169734  -1.49
iter:   2 14:43:05  -291.150791  -1.89  -1.82
iter:   3 14:43:30  -291.143073c -2.94  -2.05
iter:   4 14:43:56  -291.141196c -2.36  -2.34
Writing to output.gpw (mode='')

iter:   5 14:44:23  -291.141215c -3.72  -2.84
iter:   6 14:44:49  -291.141186c -3.37  -2.76
iter:   7 14:45:14  -291.141446c -2.48  -2.71
iter:   8 14:45:40  -291.141052c -3.86  -2.88
iter:   9 14:46:06  -291.140983c -3.88  -3.23
Writing to output.gpw (mode='')

iter:  10 14:46:34  -291.141190c -3.63  -3.35
iter:  11 14:46:59  -291.141124c -4.50  -3.15
iter:  12 14:47:25  -291.141006c -4.05  -3.24
iter:  13 14:47:50  -291.141007c -4.77  -3.82
iter:  14 14:48:16  -291.141010c -5.13  -3.88
Writing to output.gpw (mode='')

iter:  15 14:48:43  -291.140996c -4.83  -4.00
iter:  16 14:49:08  -291.140994c -5.05  -4.03c
iter:  17 14:49:34  -291.140996c -5.46  -4.05c
iter:  18 14:49:59  -291.141012c -5.72  -4.08c
iter:  19 14:50:25  -291.141012c -5.93  -4.33c
Writing to output.gpw (mode='')

iter:  20 14:50:52  -291.141004c -5.80  -4.40c
iter:  21 14:51:17  -291.141005c -6.52  -4.35c
iter:  22 14:51:43  -291.141009c -6.44  -4.42c
iter:  23 14:52:08  -291.141009c -6.67  -4.56c
iter:  24 14:52:34  -291.141011c -6.52  -4.62c
Writing to output.gpw (mode='')

iter:  25 14:53:01  -291.141012c -6.52  -4.72c
iter:  26 14:53:26  -291.141009c -6.94  -4.74c
iter:  27 14:53:52  -291.141009c -7.28  -4.96c
iter:  28 14:54:17  -291.141010c -7.11  -5.08c
iter:  29 14:54:43  -291.141009c -7.34  -5.12c
Writing to output.gpw (mode='')

iter:  30 14:55:09  -291.141009c -7.37  -5.22c
iter:  31 14:55:34  -291.141009c -7.67c -5.30c

Converged after 31 iterations.

Dipole moment: (1.283945, -4.142292, 0.042099) |e|*Ang

Energy contributions relative to reference atoms: (reference = -13512.263335)

Kinetic:       +138.119706
Potential:     -130.601652
External:        +0.000000
XC:            -299.193590
Entropy (-ST):   -0.156261
Local:           +0.612657
--------------------------
Free energy:   -291.219140
Extrapolated:  -291.141009

Dipole-layer corrected work functions: 3.375048, 3.294120 eV

Showing only first 2 kpts
 Kpt  Band  Eigenvalues  Occupancy
  0    29     -3.56284    1.97940
  0    30     -3.48473    1.90541
  0    31     -3.18596    0.09736
  0    32     -3.05649    0.00765

  1    29     -3.37783    1.40736
  1    30     -3.33831    1.03729
  1    31     -3.29150    0.59395
  1    32     -3.27941    0.49818


Fermi level: -3.33458

No gap
Writing to output.gpw (mode='')


Forces in eV/Ang:
  0 Li    0.00448    0.00087   -0.27370
  1 Li   -0.00030   -0.00254   -0.28402
  2 Li   -0.00191    0.00160   -0.26900
  3 Li   -0.00306   -0.00056   -0.28008
  4 Li    0.00231   -0.00042   -0.25856
  5 Li    0.00133    0.00098   -0.28543
  6 Li    0.00168   -0.00019   -0.27163
  7 Li    0.00128    0.00179   -0.28605
  8 Li   -0.00105   -0.00241   -0.26643
  9 Li   -0.00860   -0.00076    0.24140
 10 Li   -0.01136   -0.00882    0.30938
 11 Li   -0.00091   -0.00822    0.29476
 12 Li   -0.00828   -0.00763    0.31269
 13 Li   -0.02103   -0.01077    0.29488
 14 Li    0.02294   -0.00849    0.29589
 15 Li   -0.01003    0.00842    0.29752
 16 Li   -0.03175    0.02130    0.29400
 17 Li    0.03586    0.01966    0.29011
 18 Li   -0.00156   -0.00362    0.00739
 19 Li    0.00437   -0.00343   -0.00626
 20 Li   -0.00192    0.00138   -0.01145
 21 Li   -0.00860    0.00160   -0.00747
 22 Li   -0.00076    0.00092   -0.01588
 23 Li   -0.00230    0.00163   -0.00179
 24 Li   -0.00419    0.00306    0.00050
 25 Li    0.00338   -0.00183   -0.00578
 26 Li    0.00187   -0.00175   -0.01265
 27 Li   -0.00318    0.00111    0.00038
 28 Li    0.00790    0.00622    0.00998
 29 Li    0.00323    0.00437   -0.00044
 30 Li    0.00690    0.00621   -0.00607
 31 Li   -0.00348   -0.00053   -0.00371
 32 Li    0.00175   -0.00135   -0.00500
 33 Li    0.00571    0.00352    0.00284
 34 Li    0.00006   -0.00401   -0.00315
 35 Li   -0.00244   -0.00327   -0.00500
 36 O     0.03084    0.03873   -0.00371
 37 O    -0.02372   -0.00102   -0.02115
 38 C     0.00585    0.02206   -0.00908
 39 C    -0.00585    0.00402    0.00076
 40 H     0.00505   -0.00215   -0.02610
 41 H    -0.00647   -0.01219    0.03236
 42 H    -0.02612   -0.03099   -0.01167
 43 H     0.01899   -0.01461   -0.01124
 44 H     0.02906   -0.00741   -0.03517
 45 H    -0.00377    0.00469   -0.00637

Timing:                                      incl.     excl.
-------------------------------------------------------------------
Density initialized from wave functions:   434.284   434.281   0.1% |
 Symmetrize density:                         0.003     0.003   0.0% |
Forces:                                    450.635   450.635   0.1% |
Hamiltonian:                             13584.685     0.014   0.0% |
 Atomic:                                     5.527     0.095   0.0% |
  XC Correction:                             5.432     5.432   0.0% |
 Calculate atomic Hamiltonians:             11.278    11.278   0.0% |
 Communicate:                              212.138   212.138   0.0% |
 Hartree integrate/restrict:                 3.926     3.926   0.0% |
 Initialize Hamiltonian:                     0.000     0.000   0.0% |
 Poisson:                                  158.879    77.578   0.0% |
  Communicate from 1D:                      17.595    17.595   0.0% |
  Communicate from 2D:                      27.874    27.874   0.0% |
  Communicate to 1D:                         2.058     2.058   0.0% |
  Communicate to 2D:                        16.703    16.703   0.0% |
  FFT 1D:                                    8.705     8.705   0.0% |
  FFT 2D:                                    8.366     8.366   0.0% |
 XC 3D grid:                             13192.444   555.960   0.1% |
  VdW-DF integral:                       12636.484     6.120   0.0% |
   Convolution:                             75.226    75.226   0.0% |
   FFT:                                     30.233    30.233   0.0% |
   gather:                               11227.537 11227.537   2.3% ||
   hmm1:                                    22.289    22.289   0.0% |
   hmm2:                                    26.037    26.037   0.0% |
   iFFT:                                    31.454    31.454   0.0% |
   potential:                             1210.645     3.265   0.0% |
    collect:                                60.588    60.588   0.0% |
    p1:                                     95.680    95.680   0.0% |
    p2:                                     36.250    36.250   0.0% |
    sum:                                  1014.861  1014.861   0.2% |
   splines:                                  6.944     6.944   0.0% |
 vbar:                                       0.479     0.479   0.0% |
LCAO initialization:                         2.505     0.235   0.0% |
 LCAO eigensolver:                           0.931     0.001   0.0% |
  Calculate projections:                     0.000     0.000   0.0% |
  DenseAtomicCorrection:                     0.000     0.000   0.0% |
  Distribute overlap matrix:                 0.879     0.879   0.0% |
  Orbital Layouts:                           0.050     0.050   0.0% |
  Potential matrix:                          0.001     0.001   0.0% |
  Sum over cells:                            0.001     0.001   0.0% |
 LCAO to grid:                               0.882     0.882   0.0% |
 Set positions (LCAO WFS):                   0.457     0.297   0.0% |
  Basic WFS set positions:                   0.002     0.002   0.0% |
  Basis functions set positions:             0.000     0.000   0.0% |
  P tci:                                     0.001     0.001   0.0% |
  ST tci:                                    0.094     0.094   0.0% |
  mktci:                                     0.062     0.062   0.0% |
Redistribute:                                0.059     0.059   0.0% |
SCF-cycle:                               469116.996 50682.513  10.5% |---|
 Davidson:                               34290.800 14062.821   2.9% ||
  Apply hamiltonian:                      2795.678  2795.678   0.6% |
  Subspace diag:                          4079.899     0.602   0.0% |
   calc_h_matrix:                         2708.596   269.596   0.1% |
    Apply hamiltonian:                    2439.000  2439.000   0.5% |
   diagonalize:                            594.430   594.430   0.1% |
   rotate_psi:                             776.271   776.271   0.2% |
  calc. matrices:                        11404.983  4857.705   1.0% |
   Apply hamiltonian:                     6547.278  6547.278   1.4% ||
  diagonalize:                              12.396    12.396   0.0% |
  rotate_psi:                             1935.023  1935.023   0.4% |
 Density:                                 2134.843     0.073   0.0% |
  Atomic density matrices:                1676.915  1676.915   0.3% |
  Mix:                                     254.109   254.109   0.1% |
  Multipole moments:                         5.030     5.030   0.0% |
  Pseudo density:                          198.717   198.628   0.0% |
   Symmetrize density:                       0.088     0.088   0.0% |
 Hamiltonian:                            381948.760     0.395   0.0% |
  Atomic:                                  159.780     2.330   0.0% |
   XC Correction:                          157.450   157.450   0.0% |
  Calculate atomic Hamiltonians:           311.570   311.570   0.1% |
  Communicate:                            6128.117  6128.117   1.3% ||
  Hartree integrate/restrict:              112.818   112.818   0.0% |
  Poisson:                                4722.348  2300.173   0.5% |
   Communicate from 1D:                    532.245   532.245   0.1% |
   Communicate from 2D:                    856.355   856.355   0.2% |
   Communicate to 1D:                       61.173    61.173   0.0% |
   Communicate to 2D:                      483.822   483.822   0.1% |
   FFT 1D:                                 248.355   248.355   0.1% |
   FFT 2D:                                 240.226   240.226   0.0% |
  XC 3D grid:                            370500.021 15986.909   3.3% ||
   VdW-DF integral:                      354513.112   178.004   0.0% |
    Convolution:                          2186.150  2186.150   0.5% |
    FFT:                                   866.951   866.951   0.2% |
    gather:                              317437.870 317437.870  65.5% |-------------------------|
    hmm1:                                  644.438   644.438   0.1% |
    hmm2:                                  745.756   745.756   0.2% |
    iFFT:                                  900.507   900.507   0.2% |
    potential:                           31553.390    95.049   0.0% |
     collect:                             1823.425  1823.425   0.4% |
     p1:                                  2787.569  2787.569   0.6% |
     p2:                                  1034.554  1034.554   0.2% |
     sum:                                25812.792 25812.792   5.3% |-|
    splines:                                 0.046     0.046   0.0% |
  vbar:                                     13.710    13.710   0.0% |
 Orthonormalize:                            60.080     0.016   0.0% |
  calc_s_matrix:                             5.405     5.405   0.0% |
  inverse-cholesky:                         40.423    40.423   0.0% |
  projections:                               0.005     0.005   0.0% |
  rotate_psi_s:                             14.231    14.231   0.0% |
Set symmetry:                                0.002     0.002   0.0% |
Other:                                     816.512   816.512   0.2% |
-------------------------------------------------------------------
Total:                                             484405.678 100.0%

Memory usage: 1.39 GiB
Date: Tue Mar 14 14:55:38 2023
