
  ___ ___ ___ _ _ _  
 |   |   |_  | | | | 
 | | | | | . | | | | 
 |__ |  _|___|_____|  22.8.0
 |___|_|             

User:   vazumah@r316.ib.bridges2.psc.edu
Date:   Fri Mar 10 10:03:24 2023
Arch:   x86_64
Pid:    4984
CWD:    /jet/home/vazumah/Calcs/LiMEAS/proton_donors/butanol_z/bridge/0.0_1.617/N2_y
Python: 3.11.0
gpaw:   /jet/home/vazumah/.conda/envs/GPAW_mpich/lib/python3.11/site-packages/gpaw
_gpaw:  /jet/home/vazumah/.conda/envs/GPAW_mpich/lib/python3.11/site-packages/
        _gpaw.cpython-311-x86_64-linux-gnu.so
ase:    /jet/home/vazumah/.conda/envs/GPAW_mpich/lib/python3.11/site-packages/ase (version 3.22.1)
numpy:  /jet/home/vazumah/.conda/envs/GPAW_mpich/lib/python3.11/site-packages/numpy (version 1.24.2)
scipy:  /jet/home/vazumah/.conda/envs/GPAW_mpich/lib/python3.11/site-packages/scipy (version 1.10.1)
libxc:  5.2.3
units:  Angstrom and eV
cores: 128
OpenMP: True
OMP_NUM_THREADS: 1

Input parameters:
  h: 0.16
  kpts: {size: [4, 4, 1]}
  occupations: {name: fermi-dirac,
                width: 0.05}
  poissonsolver: {dipolelayer: xy}
  xc: BEEF-vdW

System changes: positions, numbers, cell, pbc, initial_charges, initial_magmoms 

Initialize ...

species:
  Li:
    name: Lithium
    id: 830b4218f175192f93f959cfc0aad614
    Z: 3.0
    valence: 1
    core: 2
    charge: 0.0
    file: /jet/home/vazumah/datasets/gpaw-setups-0.9.20000/Li.PBE.gz
    compensation charges: {type: gauss,
                           rc: 0.33,
                           lmax: 2}
    cutoffs: {filter: 1.91,
              core: 2.55}
    valence states:
      #              energy  rcut
      - 2s(1.00)    -2.874   1.058
      - 2p(0.00)    -1.090   1.058
      -  s          24.337   1.058
  
    # Using partial waves for Li as LCAO basis

  O:
    name: Oxygen
    id: 32ecd46bf208036f09c70b0ec9a88b78
    Z: 8.0
    valence: 6
    core: 2
    charge: 0.0
    file: /jet/home/vazumah/datasets/gpaw-setups-0.9.20000/O.PBE.gz
    compensation charges: {type: gauss,
                           rc: 0.21,
                           lmax: 2}
    cutoffs: {filter: 1.17,
              core: 0.83}
    valence states:
      #              energy  rcut
      - 2s(2.00)   -23.961   0.688
      - 2p(4.00)    -9.029   0.598
      -  s           3.251   0.688
      -  p          18.182   0.598
      -  d           0.000   0.619
  
    # Using partial waves for O as LCAO basis

  C:
    name: Carbon
    id: 4aa54d4b901d75f77cc0ea3eec22967b
    Z: 6.0
    valence: 4
    core: 2
    charge: 0.0
    file: /jet/home/vazumah/datasets/gpaw-setups-0.9.20000/C.PBE.gz
    compensation charges: {type: gauss,
                           rc: 0.20,
                           lmax: 2}
    cutoffs: {filter: 1.14,
              core: 1.14}
    valence states:
      #              energy  rcut
      - 2s(2.00)   -13.751   0.635
      - 2p(2.00)    -5.284   0.635
      -  s          13.461   0.635
      -  p          21.927   0.635
      -  d           0.000   0.635
  
    # Using partial waves for C as LCAO basis

  H:
    name: Hydrogen
    id: d65de229564ff8ea4db303e23b6d1ecf
    Z: 1.0
    valence: 1
    core: 0
    charge: 0.0
    file: /jet/home/vazumah/datasets/gpaw-setups-0.9.20000/H.PBE.gz
    compensation charges: {type: gauss,
                           rc: 0.15,
                           lmax: 2}
    cutoffs: {filter: 0.85,
              core: 0.53}
    valence states:
      #              energy  rcut
      - 1s(1.00)    -6.494   0.476
      -  s          20.717   0.476
      -  p           0.000   0.476
  
    # Using partial waves for H as LCAO basis

  N:
    name: Nitrogen
    id: f7500608b86eaa90eef8b1d9a670dc53
    Z: 7.0
    valence: 5
    core: 2
    charge: 0.0
    file: /jet/home/vazumah/datasets/gpaw-setups-0.9.20000/N.PBE.gz
    compensation charges: {type: gauss,
                           rc: 0.18,
                           lmax: 2}
    cutoffs: {filter: 1.11,
              core: 0.96}
    valence states:
      #              energy  rcut
      - 2s(2.00)   -18.583   0.603
      - 2p(3.00)    -7.089   0.529
      -  s           8.629   0.603
      -  p          20.123   0.529
      -  d           0.000   0.577
  
    # Using partial waves for N as LCAO basis

Reference energy: -16540.070923  # eV

Spin-paired calculation

Convergence criteria:
 Maximum [total energy] change in last 3 cyles: 0.0005 eV / electron
 Maximum integral of absolute [dens]ity change: 0.0001 electrons / valence electron
 Maximum integral of absolute [eigenst]ate change: 4e-08 eV^2 / valence electron
 Maximum number of scf [iter]ations: 333
 (Square brackets indicate name in SCF output, whereas a 'c' in
 the SCF output indicates the quantity has converged.)

Symmetries present (total): 1

  ( 1  0  0)
  ( 0  1  0)
  ( 0  0  1)

16 k-points: 4 x 4 x 1 Monkhorst-Pack grid
8 k-points in the irreducible part of the Brillouin zone
       k-points in crystal coordinates                weights
   0:     0.12500000   -0.37500000    0.00000000          2/16
   1:     0.12500000   -0.12500000    0.00000000          2/16
   2:     0.12500000    0.12500000    0.00000000          2/16
   3:     0.12500000    0.37500000    0.00000000          2/16
   4:     0.37500000   -0.37500000    0.00000000          2/16
   5:     0.37500000   -0.12500000    0.00000000          2/16
   6:     0.37500000    0.12500000    0.00000000          2/16
   7:     0.37500000    0.37500000    0.00000000          2/16

Wave functions: Uniform real-space grid
  Kinetic energy operator: 6*3+1=19 point O(h^6) finite-difference Laplacian
  ScaLapack parameters: grid=1x1, blocksize=None
  Wavefunction extrapolation:
    Improved wavefunction reuse through dual PAW basis 

Occupation numbers: Fermi-Dirac:
  width: 0.0500  # eV
 

Eigensolver
   Davidson(niter=2) 

Densities:
  Coarse grid: 60*60*164 grid
  Fine grid: 120*120*328 grid
  Total Charge: 0.000000 

Density mixing:
  Method: separate
  Backend: pulay
  Linear mixing parameter: 0.05
  old densities: 5
  Damping of long wavelength oscillations: 50 

Hamiltonian:
  XC and Coulomb potentials evaluated on a 120*120*328 grid
  Using the BEEF-vdW Exchange-Correlation functional
  Interpolation: tri-quintic (5. degree polynomial)
  Poisson solver: FastPoissonSolver using
    Stencil: 6*3+1=19 point O(h^6) finite-difference Laplacian
    FFT axes: [0, 1]
    FST axes: [2]

Dipole correction along z-axis 

XC parameters: BEEF-vdW with 2 nearest neighbor stencil

Memory estimate:
  Process memory now: 125.40 MiB
  Calculator: 88.32 MiB
    Density: 22.73 MiB
      Arrays: 7.22 MiB
      Localized functions: 12.76 MiB
      Mixer: 2.75 MiB
    Hamiltonian: 5.73 MiB
      Arrays: 4.72 MiB
      XC: 0.00 MiB
      Poisson: 0.00 MiB
      vbar: 1.01 MiB
    Wavefunctions: 59.86 MiB
      Arrays psit_nG: 28.02 MiB
      Eigensolver: 31.16 MiB
      Projections: 0.02 MiB
      Projectors: 0.67 MiB

Total number of cores used: 128
Parallelization over k-points: 8
Domain decomposition: 2 x 2 x 4

Number of atoms: 53
Number of atomic orbitals: 182
Number of bands in calculation: 51
Number of valence electrons: 78
Bands to converge: occupied

... initialized

Initializing position-dependent things.

Density initialized from atomic densities
Creating initial wave functions:
  51 bands from LCAO basis set

       .-----------------------.  
      /|                       |  
     / |                       |  
    /  |                       |  
   /   |                       |  
  /    |                       |  
 *     |                       |  
 |     |                       |  
 |   H |                H H    |  
 |     |                  C    |  
 |     |                       |  
 | HH  |               HHC     |  
 |     |                  C    |  
 |     |                       |  
 | HH  |               H C     |  
 |O  Li|     Li      Li        |  
 |NN   |                       |  
 | Li  |  LLi     LLi     Li   |  
 |     |                       |  
 Li    |LLi     LLi     Li     |  
 |   Li|     Li      Li        |  
 |    Li  Li  Li  Li  Li  Li   |  
 | Li  |   Li      Li          |  
 |     |Li      Li      Li     |  
 Li    | Li      Li            |  
 |    Li      Li      Li       |  
 |     |                       |  
 |     |                       |  
 |     |                       |  
 |     |                       |  
 |     |                       |  
 |     |                       |  
 |     .-----------------------.  
 |    /                       /   
 |   /                       /    
 |  /                       /     
 | /                       /      
 |/                       /       
 *-----------------------*        

Positions:
   0 Li     1.617037    1.617037   10.000000    ( 0.0000,  0.0000,  0.0000)
   1 Li     4.851111    1.617037   10.000000    ( 0.0000,  0.0000,  0.0000)
   2 Li     8.085185    1.617037   10.000000    ( 0.0000,  0.0000,  0.0000)
   3 Li     1.617037    4.851111   10.000000    ( 0.0000,  0.0000,  0.0000)
   4 Li     4.851111    4.851111   10.000000    ( 0.0000,  0.0000,  0.0000)
   5 Li     8.085185    4.851111   10.000000    ( 0.0000,  0.0000,  0.0000)
   6 Li     1.617037    8.085185   10.000000    ( 0.0000,  0.0000,  0.0000)
   7 Li     4.851111    8.085185   10.000000    ( 0.0000,  0.0000,  0.0000)
   8 Li     8.085185    8.085185   10.000000    ( 0.0000,  0.0000,  0.0000)
   9 Li     0.000000    0.000000   11.617037    ( 0.0000,  0.0000,  0.0000)
  10 Li     3.234074    0.000000   11.617037    ( 0.0000,  0.0000,  0.0000)
  11 Li     6.468148    0.000000   11.617037    ( 0.0000,  0.0000,  0.0000)
  12 Li     0.000000    3.234074   11.617037    ( 0.0000,  0.0000,  0.0000)
  13 Li     3.234074    3.234074   11.617037    ( 0.0000,  0.0000,  0.0000)
  14 Li     6.468148    3.234074   11.617037    ( 0.0000,  0.0000,  0.0000)
  15 Li     0.000000    6.468148   11.617037    ( 0.0000,  0.0000,  0.0000)
  16 Li     3.234074    6.468148   11.617037    ( 0.0000,  0.0000,  0.0000)
  17 Li     6.468148    6.468148   11.617037    ( 0.0000,  0.0000,  0.0000)
  18 Li     1.617038    1.617038   13.469728    ( 0.0000,  0.0000,  0.0000)
  19 Li     4.851111    1.617038   13.469729    ( 0.0000,  0.0000,  0.0000)
  20 Li     8.085184    1.617038   13.469728    ( 0.0000,  0.0000,  0.0000)
  21 Li     1.617038    4.851111   13.469729    ( 0.0000,  0.0000,  0.0000)
  22 Li     4.851111    4.851111   13.469730    ( 0.0000,  0.0000,  0.0000)
  23 Li     8.085184    4.851111   13.469729    ( 0.0000,  0.0000,  0.0000)
  24 Li     1.617038    8.085184   13.469728    ( 0.0000,  0.0000,  0.0000)
  25 Li     4.851111    8.085184   13.469729    ( 0.0000,  0.0000,  0.0000)
  26 Li     8.085184    8.085184   13.469728    ( 0.0000,  0.0000,  0.0000)
  27 Li    -0.000000   -0.000000   15.445939    ( 0.0000,  0.0000,  0.0000)
  28 Li     3.234074    0.000000   15.445939    ( 0.0000,  0.0000,  0.0000)
  29 Li     6.468148    0.000000   15.445939    ( 0.0000,  0.0000,  0.0000)
  30 Li     0.000000    3.234074   15.445939    ( 0.0000,  0.0000,  0.0000)
  31 Li     3.234076    3.234076   15.445938    ( 0.0000,  0.0000,  0.0000)
  32 Li     6.468146    3.234076   15.445938    ( 0.0000,  0.0000,  0.0000)
  33 Li     0.000000    6.468148   15.445939    ( 0.0000,  0.0000,  0.0000)
  34 Li     3.234076    6.468146   15.445938    ( 0.0000,  0.0000,  0.0000)
  35 Li     6.468146    6.468146   15.445938    ( 0.0000,  0.0000,  0.0000)
  36 O      0.000000    1.617037   18.445939    ( 0.0000,  0.0000,  0.0000)
  37 C     -0.035826    1.629378   20.912999    ( 0.0000,  0.0000,  0.0000)
  38 C     -0.022415    0.774326   22.182560    ( 0.0000,  0.0000,  0.0000)
  39 C     -0.000207    0.806558   19.630422    ( 0.0000,  0.0000,  0.0000)
  40 C     -0.006786    1.625311   23.455270    ( 0.0000,  0.0000,  0.0000)
  41 H     -0.929319    2.262547   20.898200    ( 0.0000,  0.0000,  0.0000)
  42 H      0.835530    2.299566   20.926315    ( 0.0000,  0.0000,  0.0000)
  43 H      0.853794    0.115250   22.169599    ( 0.0000,  0.0000,  0.0000)
  44 H     -0.900386    0.118162   22.187463    ( 0.0000,  0.0000,  0.0000)
  45 H      0.873932    0.140991   19.636976    ( 0.0000,  0.0000,  0.0000)
  46 H     -0.894826    0.183243   19.545907    ( 0.0000,  0.0000,  0.0000)
  47 H      0.877257    2.267792   23.482857    ( 0.0000,  0.0000,  0.0000)
  48 H     -0.884238    2.275325   23.500588    ( 0.0000,  0.0000,  0.0000)
  49 H     -0.000642    1.011586   24.358445    ( 0.0000,  0.0000,  0.0000)
  50 H      0.762179    2.206136   18.495250    ( 0.0000,  0.0000,  0.0000)
  51 N      0.000000    1.617000   16.945939    ( 0.0000,  0.0000,  0.0000)
  52 N      0.000000    2.713622   16.945939    ( 0.0000,  0.0000,  0.0000)

Unit cell:
           periodic     x           y           z      points  spacing
  1. axis:    yes    9.702222    0.000000    0.000000    60     0.1617
  2. axis:    yes    0.000000    9.702222    0.000000    60     0.1617
  3. axis:    no     0.000000    0.000000   26.351111   164     0.1607

  Lengths:   9.702222   9.702222  26.351111
  Angles:   90.000000  90.000000  90.000000

Effective grid spacing dv^(1/3) = 0.1614

     iter     time        total  log10-change:
                         energy  eigst   dens
iter:   1 10:03:39  -821.417138
iter:   2 10:03:46   189.517333  +2.77  +0.06
iter:   3 10:03:54   310.243877  +3.48  -0.10
iter:   4 10:04:01   -72.055728  +3.52  -0.17
Writing to output.gpw (mode='')

iter:   5 10:04:09  -234.876538  +3.08  -0.17
iter:   6 10:04:16  -364.472479  +2.79  -0.39
iter:   7 10:04:24  -436.554340  +2.49  -0.43
iter:   8 10:04:31  -473.948780  +2.32  -0.34
iter:   9 10:04:45 -1098.145596  +3.30  -0.28
Writing to output.gpw (mode='')

iter:  10 10:04:54  -464.416097  +2.02  -0.03
iter:  11 10:05:01  -333.189379  +2.19  -0.21
iter:  12 10:05:09  -336.296107  +2.22  -0.38
iter:  13 10:05:16  -346.797873  +2.70  -0.47
iter:  14 10:05:24  -358.138533  +1.86  -0.72
Writing to output.gpw (mode='')

iter:  15 10:05:31  -437.911000  +1.73  -0.71
iter:  16 10:05:39  -401.331504  +1.31  -0.29
iter:  17 10:05:46  -353.312973  +1.36  -0.32
iter:  18 10:05:54  -353.883691  +1.06  -0.75
iter:  19 10:06:01  -351.658832  +1.17  -0.77
Writing to output.gpw (mode='')

iter:  20 10:06:09  -351.893286  +1.26  -0.97
iter:  21 10:06:16  -352.155813  +1.02  -1.09
iter:  22 10:06:24  -354.555716  +0.92  -1.17
iter:  23 10:06:31  -353.361741  +0.93  -0.99
iter:  24 10:06:39  -353.113301  +0.53  -1.12
Writing to output.gpw (mode='')

iter:  25 10:06:46  -355.536368  +0.63  -1.18
iter:  26 10:06:54  -352.843950  +0.35  -0.93
iter:  27 10:07:01  -353.286603  +0.43  -1.43
iter:  28 10:07:09  -352.975248  -0.23  -1.31
iter:  29 10:07:16  -353.054630  -0.31  -1.65
Writing to output.gpw (mode='')

iter:  30 10:07:24  -353.180487  -0.22  -1.69
iter:  31 10:07:31  -353.236623  -0.50  -1.89
iter:  32 10:07:39  -353.262738  -0.52  -2.00
iter:  33 10:07:46  -353.303038  -0.66  -2.06
iter:  34 10:07:53  -353.339728  -0.63  -2.13
Writing to output.gpw (mode='')

iter:  35 10:08:01  -353.369520  -0.76  -2.30
iter:  36 10:08:08  -353.398768  -0.85  -2.33
iter:  37 10:08:16  -353.423255  -0.87  -2.33
iter:  38 10:08:23  -353.443671  -1.06  -2.38
iter:  39 10:08:31  -353.461807c -1.16  -2.42
Writing to output.gpw (mode='')

iter:  40 10:08:38  -353.476133c -1.22  -2.41
iter:  41 10:08:46  -353.489469c -1.32  -2.39
iter:  42 10:08:53  -353.501206c -1.48  -2.40
iter:  43 10:09:00  -353.516240c -1.36  -2.31
iter:  44 10:09:08  -353.525377c -1.51  -2.20
Writing to output.gpw (mode='')

iter:  45 10:09:15  -353.529043c -1.60  -2.18
iter:  46 10:09:23  -353.533423c -1.57  -2.22
iter:  47 10:09:30  -353.537812c -1.60  -2.35
iter:  48 10:09:38  -353.541897c -1.76  -2.40
iter:  49 10:09:51  -353.546871c -1.78  -2.42
Writing to output.gpw (mode='')

iter:  50 10:09:59  -353.549659c -2.08  -2.63
iter:  51 10:10:06  -353.551615c -2.13  -2.77
iter:  52 10:10:14  -353.553811c -2.04  -2.86
iter:  53 10:10:21  -353.555859c -2.13  -2.98
iter:  54 10:10:29  -353.557290c -2.31  -3.07
Writing to output.gpw (mode='')

iter:  55 10:10:36  -353.558921c -2.17  -3.06
iter:  56 10:10:43  -353.559974c -2.40  -2.92
iter:  57 10:10:51  -353.561157c -2.50  -2.92
iter:  58 10:10:58  -353.561956c -2.62  -3.03
iter:  59 10:11:06  -353.562583c -2.53  -2.98
Writing to output.gpw (mode='')

iter:  60 10:11:13  -353.563206c -2.54  -2.98
iter:  61 10:11:21  -353.563854c -2.69  -2.97
iter:  62 10:11:28  -353.564256c -2.99  -3.14
iter:  63 10:11:35  -353.564737c -2.71  -3.18
iter:  64 10:11:43  -353.565035c -3.04  -3.28
Writing to output.gpw (mode='')

iter:  65 10:11:50  -353.565286c -3.15  -3.51
iter:  66 10:11:58  -353.565493c -3.19  -3.64
iter:  67 10:12:05  -353.565676c -3.19  -3.68
iter:  68 10:12:13  -353.565837c -3.22  -3.75
iter:  69 10:12:20  -353.565998c -3.20  -3.83
Writing to output.gpw (mode='')

iter:  70 10:12:27  -353.566107c -3.50  -3.98
iter:  71 10:12:35  -353.566208c -3.52  -4.01c
iter:  72 10:12:42  -353.566322c -3.34  -4.10c
iter:  73 10:12:50  -353.566401c -3.50  -4.18c
iter:  74 10:12:57  -353.566464c -3.62  -4.16c
Writing to output.gpw (mode='')

iter:  75 10:13:04  -353.566521c -3.66  -4.14c
iter:  76 10:13:12  -353.566577c -3.79  -4.07c
iter:  77 10:13:19  -353.566615c -3.93  -4.01c
iter:  78 10:13:27  -353.566644c -4.08  -3.94
iter:  79 10:13:34  -353.566675c -3.90  -3.93
Writing to output.gpw (mode='')

iter:  80 10:13:41  -353.566699c -4.18  -3.93
iter:  81 10:13:49  -353.566719c -4.14  -3.88
iter:  82 10:13:56  -353.566732c -4.12  -3.89
iter:  83 10:14:04  -353.566745c -4.38  -3.92
iter:  84 10:14:11  -353.566755c -4.34  -3.96
Writing to output.gpw (mode='')

iter:  85 10:14:19  -353.566765c -4.52  -4.02c
iter:  86 10:14:26  -353.566770c -4.62  -4.21c
iter:  87 10:14:34  -353.566776c -4.55  -4.23c
iter:  88 10:14:45  -353.566783c -4.65  -4.26c
iter:  89 10:14:54  -353.566789c -4.62  -4.46c
Writing to output.gpw (mode='')

iter:  90 10:15:01  -353.566792c -4.85  -4.59c
iter:  91 10:15:09  -353.566797c -4.72  -4.65c
iter:  92 10:15:16  -353.566801c -4.74  -4.76c
iter:  93 10:15:23  -353.566803c -5.05  -4.83c
iter:  94 10:15:31  -353.566805c -5.01  -4.84c
Writing to output.gpw (mode='')

iter:  95 10:15:38  -353.566806c -5.01  -4.84c
iter:  96 10:15:46  -353.566808c -5.09  -4.86c
iter:  97 10:15:53  -353.566809c -5.30  -4.90c
iter:  98 10:16:01  -353.566809c -5.41  -4.97c
iter:  99 10:16:08  -353.566810c -5.36  -4.97c
Writing to output.gpw (mode='')

iter: 100 10:16:16  -353.566811c -5.52  -5.00c
iter: 101 10:16:23  -353.566812c -5.42  -4.94c
iter: 102 10:16:30  -353.566811c -5.25  -4.99c
iter: 103 10:16:38  -353.566812c -5.75  -5.00c
iter: 104 10:16:45  -353.566812c -5.73  -5.01c
Writing to output.gpw (mode='')

iter: 105 10:16:53  -353.566812c -5.75  -5.02c
iter: 106 10:17:00  -353.566812c -5.77  -5.00c
iter: 107 10:17:07  -353.566812c -5.81  -4.99c
iter: 108 10:17:17  -353.566812c -6.09  -4.88c
iter: 109 10:17:24  -353.566813c -6.10  -4.89c
Writing to output.gpw (mode='')

iter: 110 10:17:32  -353.566813c -6.06  -4.91c
iter: 111 10:17:39  -353.566813c -5.95  -4.92c
iter: 112 10:17:46  -353.566813c -6.23  -4.99c
iter: 113 10:17:54  -353.566813c -6.47  -5.10c
iter: 114 10:18:01  -353.566812c -6.51  -5.14c
Writing to output.gpw (mode='')

iter: 115 10:18:09  -353.566812c -6.56  -5.18c
iter: 116 10:18:16  -353.566812c -6.57  -5.26c
iter: 117 10:18:23  -353.566812c -6.44  -5.38c
iter: 118 10:18:31  -353.566812c -6.62  -5.47c
iter: 119 10:18:38  -353.566812c -6.71  -5.55c
Writing to output.gpw (mode='')

iter: 120 10:18:46  -353.566812c -6.90  -5.78c
iter: 121 10:18:53  -353.566812c -6.87  -5.81c
iter: 122 10:19:00  -353.566812c -6.74  -5.83c
iter: 123 10:19:08  -353.566812c -6.95  -5.94c
iter: 124 10:19:15  -353.566812c -7.04  -6.07c
Writing to output.gpw (mode='')

iter: 125 10:19:23  -353.566812c -6.94  -6.11c
iter: 126 10:19:30  -353.566812c -7.07  -6.19c
iter: 127 10:19:37  -353.566812c -7.12  -6.18c
iter: 128 10:19:51  -353.566812c -6.87  -6.16c
iter: 129 10:19:58  -353.566812c -7.15  -6.04c
Writing to output.gpw (mode='')

iter: 130 10:20:05  -353.566812c -7.36  -6.02c
iter: 131 10:20:13  -353.566812c -7.44c -5.96c

Converged after 131 iterations.

Dipole moment: (-24.384085, -17.161230, 0.657125) |e|*Ang

Energy contributions relative to reference atoms: (reference = -16540.070923)

Kinetic:       +222.806590
Potential:     -207.630115
External:        +0.000000
XC:            -369.496432
Entropy (-ST):   -0.155771
Local:           +0.831030
--------------------------
Free energy:   -353.644698
Extrapolated:  -353.566812

Dipole-layer corrected work functions: 3.372239, 2.109020 eV

Showing only first 2 kpts
 Kpt  Band  Eigenvalues  Occupancy
  0    37     -2.99321    1.98728
  0    38     -2.87862    1.88094
  0    39     -2.62949    0.19544
  0    40     -2.49906    0.01583

  1    37     -2.80522    1.56888
  1    38     -2.76417    1.23119
  1    39     -2.66484    0.36017
  1    40     -2.65378    0.29940


Fermi level: -2.74063

Gap: 0.035 eV
Transition (v -> c):
  (s=0, k=1, n=38, [0.12, -0.12, 0.00]) -> (s=0, k=4, n=39, [0.38, -0.38, 0.00])
Writing to output.gpw (mode='')


Forces in eV/Ang:
  0 Li    0.02208   -0.00113   -0.27725
  1 Li   -0.00120    0.00142   -0.26902
  2 Li   -0.02064   -0.00340   -0.27590
  3 Li   -0.00132    0.01738   -0.27592
  4 Li   -0.00086   -0.00925   -0.26606
  5 Li    0.00184    0.01915   -0.27241
  6 Li   -0.00779   -0.01384   -0.26597
  7 Li    0.00045    0.00459   -0.27678
  8 Li    0.00696   -0.01444   -0.26632
  9 Li    0.00091   -0.00198    0.29762
 10 Li    0.00845    0.00017    0.26536
 11 Li   -0.00945   -0.00355    0.26464
 12 Li   -0.00036   -0.00395    0.33520
 13 Li    0.01893   -0.00031    0.25665
 14 Li   -0.01933   -0.00047    0.26303
 15 Li   -0.00167    0.00043    0.24276
 16 Li   -0.00477    0.00268    0.25980
 17 Li    0.00668    0.00771    0.25462
 18 Li    0.03995   -0.00752   -0.11372
 19 Li   -0.00005    0.00615    0.07661
 20 Li   -0.04084   -0.00837   -0.12152
 21 Li    0.00509   -0.01280    0.00324
 22 Li    0.00391    0.01121    0.04205
 23 Li   -0.00751   -0.01155    0.00452
 24 Li   -0.01743    0.01989    0.06903
 25 Li   -0.00061   -0.01891    0.01060
 26 Li    0.01809    0.01902    0.06870
 27 Li   -0.00701    0.04567    0.22688
 28 Li    0.08355   -0.05690   -0.04915
 29 Li   -0.07992   -0.06039   -0.04565
 30 Li    0.00180    2.08096   -4.40670
 31 Li    0.09600    0.04284   -0.04999
 32 Li   -0.08704    0.04071   -0.03774
 33 Li   -0.00008    0.04877   -0.03131
 34 Li   -0.01061    0.00858   -0.01417
 35 Li    0.01019    0.01099   -0.02110
 36 O     0.29436   -2.72893   11.64541
 37 C     0.01119    0.26228   -0.17562
 38 C    -0.01832   -0.10401    0.02303
 39 C    -0.07565   -1.90446    1.43803
 40 C    -0.02198    0.01779    0.01153
 41 H     0.01777    0.04549    0.02670
 42 H    -0.04136    0.01201    0.00865
 43 H    -0.01118    0.02191   -0.00341
 44 H     0.01074    0.01063   -0.00463
 45 H    -0.04897    0.01894   -0.07736
 46 H     0.04287   -0.01538    0.01272
 47 H     0.00875   -0.01106   -0.00220
 48 H    -0.01330   -0.00983    0.00223
 49 H     0.00044    0.00859   -0.18898
 50 H     0.30200    0.42174    0.69579
 51 N    -0.54013   -6.90532   -6.92416
 52 N     0.05446    8.64092   -2.18336

System changes: positions 

Initializing position-dependent things.

Density initialized from wave functions
       .-----------------------.  
      /|                       |  
     / |                       |  
    /  |                       |  
   /   |                       |  
  /    |                       |  
 *     |                       |  
 |     |                       |  
 |   H |                H H    |  
 |     |                  C    |  
 |     |                       |  
 | HH  |               HHC     |  
 |     |                  C    |  
 |     |       Li      Li      |  
 | HH  |               H C     |  
 |O    |     Li      Li      Li|  
 | N   |                  N    |  
 | Li  |  LLi     LLi     Li   |  
 |     |                       |  
 |     |Li      Li      LLi    |  
 |   Li|     Li      Li        |  
 |    Li  Li  Li  Li  Li  Li   |  
 | Li  |   Li      Li          |  
 |     |Li      Li      Li     |  
 Li    | Li      Li            |  
 |    Li      Li      Li       |  
 |     |                       |  
 |     |                       |  
 |     |                       |  
 |     |                       |  
 |     |                       |  
 |     |                       |  
 |     .-----------------------.  
 |    /                       /   
 |   /                       /    
 |  /                       /     
 | /                       /      
 |/                       /       
 *-----------------------*        

Positions:
   0 Li     1.617037    1.617037   10.000000    ( 0.0000,  0.0000,  0.0000)
   1 Li     4.851111    1.617037   10.000000    ( 0.0000,  0.0000,  0.0000)
   2 Li     8.085185    1.617037   10.000000    ( 0.0000,  0.0000,  0.0000)
   3 Li     1.617037    4.851111   10.000000    ( 0.0000,  0.0000,  0.0000)
   4 Li     4.851111    4.851111   10.000000    ( 0.0000,  0.0000,  0.0000)
   5 Li     8.085185    4.851111   10.000000    ( 0.0000,  0.0000,  0.0000)
   6 Li     1.617037    8.085185   10.000000    ( 0.0000,  0.0000,  0.0000)
   7 Li     4.851111    8.085185   10.000000    ( 0.0000,  0.0000,  0.0000)
   8 Li     8.085185    8.085185   10.000000    ( 0.0000,  0.0000,  0.0000)
   9 Li     0.000000    0.000000   11.617037    ( 0.0000,  0.0000,  0.0000)
  10 Li     3.234074    0.000000   11.617037    ( 0.0000,  0.0000,  0.0000)
  11 Li     6.468148    0.000000   11.617037    ( 0.0000,  0.0000,  0.0000)
  12 Li     0.000000    3.234074   11.617037    ( 0.0000,  0.0000,  0.0000)
  13 Li     3.234074    3.234074   11.617037    ( 0.0000,  0.0000,  0.0000)
  14 Li     6.468148    3.234074   11.617037    ( 0.0000,  0.0000,  0.0000)
  15 Li     0.000000    6.468148   11.617037    ( 0.0000,  0.0000,  0.0000)
  16 Li     3.234074    6.468148   11.617037    ( 0.0000,  0.0000,  0.0000)
  17 Li     6.468148    6.468148   11.617037    ( 0.0000,  0.0000,  0.0000)
  18 Li     1.617172    1.617013   13.469348    ( 0.0000,  0.0000,  0.0000)
  19 Li     4.851111    1.617059   13.469986    ( 0.0000,  0.0000,  0.0000)
  20 Li     8.085047    1.617010   13.469322    ( 0.0000,  0.0000,  0.0000)
  21 Li     1.617055    4.851068   13.469740    ( 0.0000,  0.0000,  0.0000)
  22 Li     4.851124    4.851148   13.469871    ( 0.0000,  0.0000,  0.0000)
  23 Li     8.085158    4.851072   13.469745    ( 0.0000,  0.0000,  0.0000)
  24 Li     1.616980    8.085250   13.469959    ( 0.0000,  0.0000,  0.0000)
  25 Li     4.851109    8.085120   13.469765    ( 0.0000,  0.0000,  0.0000)
  26 Li     8.085244    8.085247   13.469958    ( 0.0000,  0.0000,  0.0000)
  27 Li    -0.000023    0.000153   15.446698    ( 0.0000,  0.0000,  0.0000)
  28 Li     3.234353   -0.000190   15.445775    ( 0.0000,  0.0000,  0.0000)
  29 Li     6.467881   -0.000202   15.445786    ( 0.0000,  0.0000,  0.0000)
  30 Li     0.000006    3.241031   15.431206    ( 0.0000,  0.0000,  0.0000)
  31 Li     3.234397    3.234220   15.445771    ( 0.0000,  0.0000,  0.0000)
  32 Li     6.467855    3.234213   15.445812    ( 0.0000,  0.0000,  0.0000)
  33 Li    -0.000000    6.468311   15.445834    ( 0.0000,  0.0000,  0.0000)
  34 Li     3.234041    6.468174   15.445891    ( 0.0000,  0.0000,  0.0000)
  35 Li     6.468180    6.468182   15.445868    ( 0.0000,  0.0000,  0.0000)
  36 O      0.000984    1.607913   18.484873    ( 0.0000,  0.0000,  0.0000)
  37 C     -0.035788    1.630255   20.912412    ( 0.0000,  0.0000,  0.0000)
  38 C     -0.022476    0.773978   22.182637    ( 0.0000,  0.0000,  0.0000)
  39 C     -0.000460    0.800190   19.635230    ( 0.0000,  0.0000,  0.0000)
  40 C     -0.006860    1.625371   23.455309    ( 0.0000,  0.0000,  0.0000)
  41 H     -0.929260    2.262699   20.898289    ( 0.0000,  0.0000,  0.0000)
  42 H      0.835392    2.299606   20.926344    ( 0.0000,  0.0000,  0.0000)
  43 H      0.853757    0.115324   22.169587    ( 0.0000,  0.0000,  0.0000)
  44 H     -0.900350    0.118198   22.187448    ( 0.0000,  0.0000,  0.0000)
  45 H      0.873768    0.141055   19.636718    ( 0.0000,  0.0000,  0.0000)
  46 H     -0.894682    0.183192   19.545949    ( 0.0000,  0.0000,  0.0000)
  47 H      0.877286    2.267755   23.482849    ( 0.0000,  0.0000,  0.0000)
  48 H     -0.884282    2.275292   23.500595    ( 0.0000,  0.0000,  0.0000)
  49 H     -0.000640    1.011615   24.357813    ( 0.0000,  0.0000,  0.0000)
  50 H      0.763189    2.207546   18.497576    ( 0.0000,  0.0000,  0.0000)
  51 N     -0.001806    1.593914   16.922790    ( 0.0000,  0.0000,  0.0000)
  52 N      0.000182    2.742510   16.938640    ( 0.0000,  0.0000,  0.0000)

Unit cell:
           periodic     x           y           z      points  spacing
  1. axis:    yes    9.702222    0.000000    0.000000    60     0.1617
  2. axis:    yes    0.000000    9.702222    0.000000    60     0.1617
  3. axis:    no     0.000000    0.000000   26.351111   164     0.1607

  Lengths:   9.702222   9.702222  26.351111
  Angles:   90.000000  90.000000  90.000000

Effective grid spacing dv^(1/3) = 0.1614

     iter     time        total  log10-change:
                         energy  eigst   dens
iter:   1 10:20:22  -355.828729  -0.06
iter:   2 10:20:29  -354.875785  -0.59  -1.37
iter:   3 10:20:37  -354.708035  -0.80  -1.38
iter:   4 10:20:44  -354.606724  -0.77  -1.53
Writing to output.gpw (mode='')

iter:   5 10:20:52  -354.538690  -1.34  -1.80
iter:   6 10:21:00  -354.575449  -1.24  -1.90
iter:   7 10:21:07  -354.590864  -1.08  -1.77
iter:   8 10:21:15  -354.554850c -1.92  -1.94
iter:   9 10:21:22  -354.482334  -1.61  -1.99
Writing to output.gpw (mode='')

iter:  10 10:21:30  -354.486624  -2.50  -2.34
iter:  11 10:21:37  -354.482908c -2.35  -2.31
iter:  12 10:21:45  -354.483969c -1.78  -2.61
iter:  13 10:21:52  -354.484175c -2.42  -2.42
iter:  14 10:22:00  -354.481189c -3.06  -2.63
Writing to output.gpw (mode='')

iter:  15 10:22:07  -354.481271c -3.08  -2.96
iter:  16 10:22:15  -354.481281c -3.19  -2.93
iter:  17 10:22:22  -354.481247c -3.83  -3.16
iter:  18 10:22:30  -354.481145c -3.78  -3.29
iter:  19 10:22:37  -354.481225c -3.79  -3.32
Writing to output.gpw (mode='')

iter:  20 10:22:45  -354.481292c -4.18  -3.33
iter:  21 10:22:52  -354.481297c -4.29  -3.49
iter:  22 10:23:00  -354.481298c -4.45  -3.60
iter:  23 10:23:07  -354.481317c -4.61  -3.81
iter:  24 10:23:15  -354.481324c -4.65  -3.89
Writing to output.gpw (mode='')

iter:  25 10:23:22  -354.481328c -4.94  -4.01c
iter:  26 10:23:30  -354.481320c -5.09  -4.07c
iter:  27 10:23:37  -354.481331c -5.28  -4.29c
iter:  28 10:23:45  -354.481333c -5.27  -4.36c
iter:  29 10:23:52  -354.481336c -5.26  -4.40c
Writing to output.gpw (mode='')

iter:  30 10:24:00  -354.481334c -5.58  -4.49c
iter:  31 10:24:07  -354.481336c -5.68  -4.58c
iter:  32 10:24:15  -354.481338c -5.51  -4.61c
iter:  33 10:24:22  -354.481342c -5.68  -4.65c
iter:  34 10:24:30  -354.481341c -5.97  -4.76c
Writing to output.gpw (mode='')

iter:  35 10:24:37  -354.481341c -6.19  -4.94c
iter:  36 10:24:51  -354.481340c -6.27  -5.01c
iter:  37 10:24:59  -354.481341c -6.42  -5.10c
iter:  38 10:25:06  -354.481341c -6.44  -5.11c
iter:  39 10:25:14  -354.481342c -6.56  -5.14c
Writing to output.gpw (mode='')

iter:  40 10:25:21  -354.481342c -6.79  -5.41c
iter:  41 10:25:29  -354.481342c -6.58  -5.44c
iter:  42 10:25:36  -354.481342c -6.81  -5.48c
iter:  43 10:25:44  -354.481343c -6.84  -5.57c
iter:  44 10:25:51  -354.481343c -6.96  -5.65c
Writing to output.gpw (mode='')

iter:  45 10:25:59  -354.481342c -6.85  -5.71c
iter:  46 10:26:06  -354.481343c -7.16  -5.83c
iter:  47 10:26:14  -354.481343c -7.21  -6.01c
iter:  48 10:26:21  -354.481343c -7.30  -6.00c
iter:  49 10:26:29  -354.481343c -7.12  -5.91c
Writing to output.gpw (mode='')

iter:  50 10:26:36  -354.481343c -7.49c -5.81c

Converged after 50 iterations.

Dipole moment: (-24.340347, -17.084632, 0.599293) |e|*Ang

Energy contributions relative to reference atoms: (reference = -16540.070923)

Kinetic:       +213.673221
Potential:     -200.773826
External:        +0.000000
XC:            -368.136591
Entropy (-ST):   -0.157049
Local:           +0.834377
--------------------------
Free energy:   -354.559867
Extrapolated:  -354.481343

Dipole-layer corrected work functions: 3.377382, 2.225335 eV

Showing only first 2 kpts
 Kpt  Band  Eigenvalues  Occupancy
  0    37     -3.05297    1.98704
  0    38     -2.93545    1.87189
  0    39     -2.71003    0.27732
  0    40     -2.55725    0.01505

  1    37     -2.87601    1.63309
  1    38     -2.81725    1.15764
  1    39     -2.71111    0.28251
  1    40     -2.70607    0.25894


Fermi level: -2.80136

Gap: 0.030 eV
Transition (v -> c):
  (s=0, k=1, n=38, [0.12, -0.12, 0.00]) -> (s=0, k=4, n=39, [0.38, -0.38, 0.00])

Forces in eV/Ang:
  0 Li    0.02249   -0.00159   -0.27882
  1 Li   -0.00104    0.00126   -0.26963
  2 Li   -0.02117   -0.00348   -0.27788
  3 Li   -0.00109    0.01849   -0.27719
  4 Li   -0.00084   -0.00944   -0.26512
  5 Li    0.00151    0.01966   -0.27442
  6 Li   -0.00743   -0.01411   -0.26624
  7 Li    0.00023    0.00515   -0.27765
  8 Li    0.00710   -0.01472   -0.26587
  9 Li    0.00105   -0.00364    0.29789
 10 Li    0.00853    0.00051    0.26592
 11 Li   -0.01008   -0.00270    0.26567
 12 Li   -0.00023   -0.00268    0.33979
 13 Li    0.01709   -0.00080    0.25851
 14 Li   -0.01720   -0.00090    0.26516
 15 Li   -0.00143    0.00042    0.24371
 16 Li   -0.00350    0.00272    0.25846
 17 Li    0.00505    0.00785    0.25379
 18 Li    0.03770   -0.00985   -0.11996
 19 Li   -0.00060    0.00749    0.07952
 20 Li   -0.03821   -0.01188   -0.12717
 21 Li    0.01012   -0.00715   -0.00834
 22 Li    0.00291    0.00705    0.04490
 23 Li   -0.01180   -0.00499   -0.00767
 24 Li   -0.01777    0.01755    0.06664
 25 Li    0.00030   -0.01778    0.01193
 26 Li    0.01761    0.01725    0.06571
 27 Li   -0.00746    0.07843    0.27757
 28 Li    0.08010   -0.05984   -0.04624
 29 Li   -0.07478   -0.06047   -0.04017
 30 Li   -0.00391    1.95505   -4.30197
 31 Li    0.08209    0.04324   -0.04050
 32 Li   -0.07120    0.03942   -0.02183
 33 Li   -0.00012    0.04542   -0.03018
 34 Li   -0.00678    0.00978   -0.01710
 35 Li    0.00645    0.01124   -0.02291
 36 O     0.29042   -1.70119    8.82617
 37 C     0.00070    0.05413    0.05186
 38 C    -0.01520   -0.01848    0.03956
 39 C     0.03669   -1.62999    1.62469
 40 C    -0.01962    0.00027    0.00432
 41 H     0.00954    0.04285    0.00088
 42 H    -0.02579    0.01070   -0.01852
 43 H    -0.00613    0.01785   -0.00303
 44 H     0.00261    0.00524   -0.00438
 45 H     0.04065   -0.12707    0.02051
 46 H    -0.05050   -0.12396    0.06664
 47 H     0.00852   -0.01056   -0.00263
 48 H    -0.01561   -0.00766    0.00211
 49 H     0.00044    0.00525   -0.16582
 50 H     0.08720    0.22639    0.63468
 51 N    -0.45557   -0.97753   -5.74759
 52 N     0.08539    2.16170   -1.17552

System changes: positions 

Initializing position-dependent things.

Density initialized from wave functions
       .-----------------------.  
      /|                       |  
     / |                       |  
    /  |                       |  
   /   |                       |  
  /    |                       |  
 *     |                       |  
 |     |                       |  
 |   H |                H H    |  
 |     |                  C    |  
 |     |                       |  
 | HH  |               HHC     |  
 |     |                  C    |  
 |     |       Li      Li      |  
 | HH  |               H C     |  
 |O    |     Li      Li      Li|  
 | N   |                  N    |  
 |     |  LLi     LLi     LLi  |  
 |     |                       |  
 |     |Li      Li      LLi    |  
 |   Li|     Li      Li        |  
 |    Li  Li  Li  Li  Li  Li   |  
 | Li  |   Li      Li          |  
 |     |Li      Li      Li     |  
 Li    | Li      Li            |  
 |    Li      Li      Li       |  
 |     |                       |  
 |     |                       |  
 |     |                       |  
 |     |                       |  
 |     |                       |  
 |     |                       |  
 |     .-----------------------.  
 |    /                       /   
 |   /                       /    
 |  /                       /     
 | /                       /      
 |/                       /       
 *-----------------------*        

Positions:
   0 Li     1.617037    1.617037   10.000000    ( 0.0000,  0.0000,  0.0000)
   1 Li     4.851111    1.617037   10.000000    ( 0.0000,  0.0000,  0.0000)
   2 Li     8.085185    1.617037   10.000000    ( 0.0000,  0.0000,  0.0000)
   3 Li     1.617037    4.851111   10.000000    ( 0.0000,  0.0000,  0.0000)
   4 Li     4.851111    4.851111   10.000000    ( 0.0000,  0.0000,  0.0000)
   5 Li     8.085185    4.851111   10.000000    ( 0.0000,  0.0000,  0.0000)
   6 Li     1.617037    8.085185   10.000000    ( 0.0000,  0.0000,  0.0000)
   7 Li     4.851111    8.085185   10.000000    ( 0.0000,  0.0000,  0.0000)
   8 Li     8.085185    8.085185   10.000000    ( 0.0000,  0.0000,  0.0000)
   9 Li     0.000000    0.000000   11.617037    ( 0.0000,  0.0000,  0.0000)
  10 Li     3.234074    0.000000   11.617037    ( 0.0000,  0.0000,  0.0000)
  11 Li     6.468148    0.000000   11.617037    ( 0.0000,  0.0000,  0.0000)
  12 Li     0.000000    3.234074   11.617037    ( 0.0000,  0.0000,  0.0000)
  13 Li     3.234074    3.234074   11.617037    ( 0.0000,  0.0000,  0.0000)
  14 Li     6.468148    3.234074   11.617037    ( 0.0000,  0.0000,  0.0000)
  15 Li     0.000000    6.468148   11.617037    ( 0.0000,  0.0000,  0.0000)
  16 Li     3.234074    6.468148   11.617037    ( 0.0000,  0.0000,  0.0000)
  17 Li     6.468148    6.468148   11.617037    ( 0.0000,  0.0000,  0.0000)
  18 Li     1.617356    1.616960   13.468740    ( 0.0000,  0.0000,  0.0000)
  19 Li     4.851107    1.617098   13.470386    ( 0.0000,  0.0000,  0.0000)
  20 Li     8.084861    1.616945   13.468679    ( 0.0000,  0.0000,  0.0000)
  21 Li     1.617114    4.851042   13.469680    ( 0.0000,  0.0000,  0.0000)
  22 Li     4.851137    4.851177   13.470099    ( 0.0000,  0.0000,  0.0000)
  23 Li     8.085093    4.851058   13.469687    ( 0.0000,  0.0000,  0.0000)
  24 Li     1.616891    8.085334   13.470287    ( 0.0000,  0.0000,  0.0000)
  25 Li     4.851112    8.085034   13.469826    ( 0.0000,  0.0000,  0.0000)
  26 Li     8.085331    8.085331   13.470280    ( 0.0000,  0.0000,  0.0000)
  27 Li    -0.000061    0.000597   15.448163    ( 0.0000,  0.0000,  0.0000)
  28 Li     3.234747   -0.000493   15.445549    ( 0.0000,  0.0000,  0.0000)
  29 Li     6.467517   -0.000503   15.445595    ( 0.0000,  0.0000,  0.0000)
  30 Li    -0.000023    3.250567   15.409943    ( 0.0000,  0.0000,  0.0000)
  31 Li     3.234784    3.234436   15.445585    ( 0.0000,  0.0000,  0.0000)
  32 Li     6.467526    3.234407   15.445729    ( 0.0000,  0.0000,  0.0000)
  33 Li    -0.000001    6.468532   15.445686    ( 0.0000,  0.0000,  0.0000)
  34 Li     3.234013    6.468225   15.445801    ( 0.0000,  0.0000,  0.0000)
  35 Li     6.468206    6.468239   15.445750    ( 0.0000,  0.0000,  0.0000)
  36 O      0.002425    1.601109   18.524263    ( 0.0000,  0.0000,  0.0000)
  37 C     -0.035802    1.630186   20.913040    ( 0.0000,  0.0000,  0.0000)
  38 C     -0.022547    0.774025   22.182861    ( 0.0000,  0.0000,  0.0000)
  39 C     -0.000095    0.792516   19.643628    ( 0.0000,  0.0000,  0.0000)
  40 C     -0.006954    1.625344   23.455319    ( 0.0000,  0.0000,  0.0000)
  41 H     -0.929226    2.262908   20.898252    ( 0.0000,  0.0000,  0.0000)
  42 H      0.835289    2.299657   20.926208    ( 0.0000,  0.0000,  0.0000)
  43 H      0.853735    0.115406   22.169573    ( 0.0000,  0.0000,  0.0000)
  44 H     -0.900350    0.118215   22.187426    ( 0.0000,  0.0000,  0.0000)
  45 H      0.874116    0.140184   19.636979    ( 0.0000,  0.0000,  0.0000)
  46 H     -0.895086    0.182398   19.546369    ( 0.0000,  0.0000,  0.0000)
  47 H      0.877328    2.267703   23.482836    ( 0.0000,  0.0000,  0.0000)
  48 H     -0.884364    2.275257   23.500605    ( 0.0000,  0.0000,  0.0000)
  49 H     -0.000638    1.011636   24.357024    ( 0.0000,  0.0000,  0.0000)
  50 H      0.763274    2.208356   18.500639    ( 0.0000,  0.0000,  0.0000)
  51 N     -0.003938    1.598683   16.896067    ( 0.0000,  0.0000,  0.0000)
  52 N      0.000658    2.742745   16.934422    ( 0.0000,  0.0000,  0.0000)

Unit cell:
           periodic     x           y           z      points  spacing
  1. axis:    yes    9.702222    0.000000    0.000000    60     0.1617
  2. axis:    yes    0.000000    9.702222    0.000000    60     0.1617
  3. axis:    no     0.000000    0.000000   26.351111   164     0.1607

  Lengths:   9.702222   9.702222  26.351111
  Angles:   90.000000  90.000000  90.000000

Effective grid spacing dv^(1/3) = 0.1614

     iter     time        total  log10-change:
                         energy  eigst   dens
iter:   1 10:26:45  -355.138980  -0.83
iter:   2 10:26:53  -355.117182  -1.14  -1.81
iter:   3 10:27:00  -355.100787c -1.70  -1.87
iter:   4 10:27:08  -355.098549c -1.85  -2.24
Writing to output.gpw (mode='')

iter:   5 10:27:15  -355.117883c -1.79  -2.30
iter:   6 10:27:23  -355.117252c -2.13  -2.02
iter:   7 10:27:30  -355.083514c -1.85  -2.02
iter:   8 10:27:38  -355.083580c -2.48  -2.68
iter:   9 10:27:45  -355.084879c -2.20  -2.74
Writing to output.gpw (mode='')

iter:  10 10:27:52  -355.083450c -2.32  -2.73
iter:  11 10:28:00  -355.083545c -3.04  -2.91
iter:  12 10:28:07  -355.083900c -3.04  -2.94
iter:  13 10:28:15  -355.083724c -3.42  -2.93
iter:  14 10:28:22  -355.083706c -3.39  -2.91
Writing to output.gpw (mode='')

iter:  15 10:28:30  -355.083920c -3.49  -2.92
iter:  16 10:28:37  -355.083947c -3.27  -2.88
iter:  17 10:28:45  -355.083630c -3.31  -2.87
iter:  18 10:28:52  -355.083739c -3.29  -3.04
iter:  19 10:28:59  -355.083755c -3.68  -3.26
Writing to output.gpw (mode='')

iter:  20 10:29:07  -355.083878c -3.77  -3.25
iter:  21 10:29:14  -355.083771c -4.21  -3.24
iter:  22 10:29:22  -355.083749c -4.08  -3.47
iter:  23 10:29:29  -355.083698c -4.60  -3.54
iter:  24 10:29:37  -355.083714c -4.38  -3.52
Writing to output.gpw (mode='')

iter:  25 10:29:50  -355.083747c -4.84  -3.63
iter:  26 10:29:57  -355.083776c -4.78  -3.75
iter:  27 10:30:04  -355.083762c -4.97  -3.98
iter:  28 10:30:12  -355.083764c -5.12  -4.06c
iter:  29 10:30:19  -355.083760c -5.30  -4.12c
Writing to output.gpw (mode='')

iter:  30 10:30:27  -355.083768c -5.34  -4.30c
iter:  31 10:30:34  -355.083772c -5.77  -4.33c
iter:  32 10:30:42  -355.083771c -5.96  -4.46c
iter:  33 10:30:49  -355.083773c -5.79  -4.51c
iter:  34 10:30:56  -355.083771c -5.80  -4.66c
Writing to output.gpw (mode='')

iter:  35 10:31:04  -355.083772c -6.23  -4.75c
iter:  36 10:31:11  -355.083776c -6.04  -4.87c
iter:  37 10:31:19  -355.083775c -6.27  -4.91c
iter:  38 10:31:26  -355.083774c -6.18  -4.98c
iter:  39 10:31:34  -355.083773c -6.30  -5.18c
Writing to output.gpw (mode='')

iter:  40 10:31:41  -355.083774c -6.47  -5.28c
iter:  41 10:31:49  -355.083774c -6.71  -5.39c
iter:  42 10:31:56  -355.083773c -6.47  -5.38c
iter:  43 10:32:04  -355.083774c -6.65  -5.24c
iter:  44 10:32:11  -355.083774c -6.88  -5.29c
Writing to output.gpw (mode='')

iter:  45 10:32:19  -355.083775c -6.75  -5.30c
iter:  46 10:32:26  -355.083775c -7.09  -5.35c
iter:  47 10:32:33  -355.083775c -7.12  -5.31c
iter:  48 10:32:41  -355.083775c -7.09  -5.33c
iter:  49 10:32:49  -355.083775c -7.06  -5.31c
Writing to output.gpw (mode='')

iter:  50 10:33:02  -355.083775c -7.22  -5.21c
iter:  51 10:33:13  -355.083776c -7.16  -5.27c
iter:  52 10:33:20  -355.083775c -7.40c -5.33c

Converged after 52 iterations.

Dipole moment: (-24.314104, -17.085343, 0.554790) |e|*Ang

Energy contributions relative to reference atoms: (reference = -16540.070923)

Kinetic:       +212.787479
Potential:     -200.509347
External:        +0.000000
XC:            -368.119142
Entropy (-ST):   -0.155722
Local:           +0.835096
--------------------------
Free energy:   -355.161637
Extrapolated:  -355.083775

Dipole-layer corrected work functions: 3.378560, 2.312063 eV

Showing only first 2 kpts
 Kpt  Band  Eigenvalues  Occupancy
  0    37     -3.09803    1.98732
  0    38     -2.98352    1.88143
  0    39     -2.75031    0.26023
  0    40     -2.60096    0.01497

  1    37     -2.91915    1.62819
  1    38     -2.86027    1.14848
  1    39     -2.75521    0.28321
  1    40     -2.74921    0.25528


Fermi level: -2.84531

Gap: 0.027 eV
Transition (v -> c):
  (s=0, k=1, n=38, [0.12, -0.12, 0.00]) -> (s=0, k=4, n=39, [0.38, -0.38, 0.00])
Writing to output.gpw (mode='')


Forces in eV/Ang:
  0 Li    0.02249   -0.00166   -0.27898
  1 Li   -0.00100    0.00117   -0.26925
  2 Li   -0.02119   -0.00354   -0.27808
  3 Li   -0.00125    0.01875   -0.27746
  4 Li   -0.00085   -0.00950   -0.26467
  5 Li    0.00165    0.01973   -0.27512
  6 Li   -0.00736   -0.01412   -0.26585
  7 Li    0.00019    0.00527   -0.27836
  8 Li    0.00713   -0.01474   -0.26499
  9 Li    0.00111   -0.00448    0.29665
 10 Li    0.00941    0.00052    0.26521
 11 Li   -0.01125   -0.00264    0.26483
 12 Li   -0.00026   -0.00260    0.34293
 13 Li    0.01675   -0.00074    0.25818
 14 Li   -0.01666   -0.00083    0.26519
 15 Li   -0.00131    0.00088    0.24306
 16 Li   -0.00300    0.00261    0.25771
 17 Li    0.00444    0.00811    0.25310
 18 Li    0.03829   -0.01250   -0.11917
 19 Li   -0.00080    0.00786    0.07876
 20 Li   -0.03837   -0.01553   -0.12505
 21 Li    0.01348   -0.00354   -0.01167
 22 Li    0.00248    0.00632    0.04589
 23 Li   -0.01491   -0.00054   -0.01175
 24 Li   -0.01748    0.01783    0.06618
 25 Li    0.00072   -0.01770    0.01132
 26 Li    0.01708    0.01786    0.06526
 27 Li   -0.00792    0.06176    0.26040
 28 Li    0.07787   -0.05903   -0.04575
 29 Li   -0.07139   -0.05889   -0.03951
 30 Li   -0.00550    1.78060   -3.87169
 31 Li    0.08691    0.04341   -0.04562
 32 Li   -0.07423    0.03885   -0.02394
 33 Li   -0.00007    0.04630   -0.03125
 34 Li   -0.00760    0.00845   -0.01742
 35 Li    0.00721    0.00972   -0.02286
 36 O     0.27910   -1.10587    6.85516
 37 C    -0.00720   -0.13010    0.30942
 38 C    -0.01380    0.04409    0.08939
 39 C     0.13388   -1.30795    1.80561
 40 C    -0.01701   -0.00998    0.00451
 41 H     0.00985    0.02573   -0.02191
 42 H    -0.01885   -0.00409   -0.04135
 43 H    -0.00556    0.01842   -0.00133
 44 H    -0.00050    0.00433   -0.00261
 45 H     0.13370   -0.27331    0.12059
 46 H    -0.11955   -0.21697    0.12320
 47 H     0.00696   -0.01104   -0.00293
 48 H    -0.01679   -0.00647    0.00222
 49 H     0.00037    0.00005   -0.13767
 50 H    -0.03571   -0.02685    0.73899
 51 N    -0.39953   -0.71906   -5.15715
 52 N     0.05004    1.74438   -0.91002

System changes: positions 

Initializing position-dependent things.

Density initialized from wave functions
       .-----------------------.  
      /|                       |  
     / |                       |  
    /  |                       |  
   /   |                       |  
  /    |                       |  
 *     |                       |  
 |     |                       |  
 |   H |                H H    |  
 |     |                  C    |  
 |     |                       |  
 | HH  |               HHC     |  
 |     |                  C    |  
 |     |       Li      Li      |  
 COHH  |               H       |  
 |     |     Li      Li      Li|  
 | N   |                       |  
 |     |  LLi     LLi     NLi  |  
 |     |                       |  
 |     |Li      Li      LLi    |  
 |   Li|     Li      Li        |  
 |    Li  Li  Li  Li  Li  Li   |  
 | Li  |   Li      Li          |  
 |     |Li      Li      Li     |  
 Li    | Li      Li            |  
 |    Li      Li      Li       |  
 |     |                       |  
 |     |                       |  
 |     |                       |  
 |     |                       |  
 |     |                       |  
 |     |                       |  
 |     .-----------------------.  
 |    /                       /   
 |   /                       /    
 |  /                       /     
 | /                       /      
 |/                       /       
 *-----------------------*        

Positions:
   0 Li     1.617037    1.617037   10.000000    ( 0.0000,  0.0000,  0.0000)
   1 Li     4.851111    1.617037   10.000000    ( 0.0000,  0.0000,  0.0000)
   2 Li     8.085185    1.617037   10.000000    ( 0.0000,  0.0000,  0.0000)
   3 Li     1.617037    4.851111   10.000000    ( 0.0000,  0.0000,  0.0000)
   4 Li     4.851111    4.851111   10.000000    ( 0.0000,  0.0000,  0.0000)
   5 Li     8.085185    4.851111   10.000000    ( 0.0000,  0.0000,  0.0000)
   6 Li     1.617037    8.085185   10.000000    ( 0.0000,  0.0000,  0.0000)
   7 Li     4.851111    8.085185   10.000000    ( 0.0000,  0.0000,  0.0000)
   8 Li     8.085185    8.085185   10.000000    ( 0.0000,  0.0000,  0.0000)
   9 Li     0.000000    0.000000   11.617037    ( 0.0000,  0.0000,  0.0000)
  10 Li     3.234074    0.000000   11.617037    ( 0.0000,  0.0000,  0.0000)
  11 Li     6.468148    0.000000   11.617037    ( 0.0000,  0.0000,  0.0000)
  12 Li     0.000000    3.234074   11.617037    ( 0.0000,  0.0000,  0.0000)
  13 Li     3.234074    3.234074   11.617037    ( 0.0000,  0.0000,  0.0000)
  14 Li     6.468148    3.234074   11.617037    ( 0.0000,  0.0000,  0.0000)
  15 Li     0.000000    6.468148   11.617037    ( 0.0000,  0.0000,  0.0000)
  16 Li     3.234074    6.468148   11.617037    ( 0.0000,  0.0000,  0.0000)
  17 Li     6.468148    6.468148   11.617037    ( 0.0000,  0.0000,  0.0000)
  18 Li     1.617703    1.616820   13.467661    ( 0.0000,  0.0000,  0.0000)
  19 Li     4.851097    1.617175   13.471096    ( 0.0000,  0.0000,  0.0000)
  20 Li     8.084518    1.616767   13.467560    ( 0.0000,  0.0000,  0.0000)
  21 Li     1.617274    4.851051   13.469526    ( 0.0000,  0.0000,  0.0000)
  22 Li     4.851154    4.851221   13.470527    ( 0.0000,  0.0000,  0.0000)
  23 Li     8.084923    4.851103   13.469525    ( 0.0000,  0.0000,  0.0000)
  24 Li     1.616735    8.085494   13.470876    ( 0.0000,  0.0000,  0.0000)
  25 Li     4.851124    8.084876   13.469925    ( 0.0000,  0.0000,  0.0000)
  26 Li     8.085480    8.085494   13.470861    ( 0.0000,  0.0000,  0.0000)
  27 Li    -0.000138    0.001058   15.450442    ( 0.0000,  0.0000,  0.0000)
  28 Li     3.235424   -0.001024   15.445145    ( 0.0000,  0.0000,  0.0000)
  29 Li     6.466911   -0.001021   15.445253    ( 0.0000,  0.0000,  0.0000)
  30 Li    -0.000096    3.264886   15.378992    ( 0.0000,  0.0000,  0.0000)
  31 Li     3.235589    3.234830   15.445142    ( 0.0000,  0.0000,  0.0000)
  32 Li     6.466854    3.234750   15.445519    ( 0.0000,  0.0000,  0.0000)
  33 Li    -0.000001    6.468953   15.445396    ( 0.0000,  0.0000,  0.0000)
  34 Li     3.233944    6.468291   15.445636    ( 0.0000,  0.0000,  0.0000)
  35 Li     6.468272    6.468313   15.445542    ( 0.0000,  0.0000,  0.0000)
  36 O      0.004837    1.598075   18.564075    ( 0.0000,  0.0000,  0.0000)
  37 C     -0.035954    1.627036   20.918493    ( 0.0000,  0.0000,  0.0000)
  38 C     -0.022654    0.775118   22.184139    ( 0.0000,  0.0000,  0.0000)
  39 C      0.002160    0.784017   19.661842    ( 0.0000,  0.0000,  0.0000)
  40 C     -0.007080    1.625134   23.455350    ( 0.0000,  0.0000,  0.0000)
  41 H     -0.929147    2.262984   20.897809    ( 0.0000,  0.0000,  0.0000)
  42 H      0.835206    2.299486   20.925587    ( 0.0000,  0.0000,  0.0000)
  43 H      0.853698    0.115571   22.169577    ( 0.0000,  0.0000,  0.0000)
  44 H     -0.900395    0.118237   22.187419    ( 0.0000,  0.0000,  0.0000)
  45 H      0.876296    0.136179   19.639117    ( 0.0000,  0.0000,  0.0000)
  46 H     -0.896930    0.179436   19.548072    ( 0.0000,  0.0000,  0.0000)
  47 H      0.877377    2.267600   23.482806    ( 0.0000,  0.0000,  0.0000)
  48 H     -0.884530    2.275213   23.500626    ( 0.0000,  0.0000,  0.0000)
  49 H     -0.000635    1.011584   24.356069    ( 0.0000,  0.0000,  0.0000)
  50 H      0.761513    2.205544   18.508143    ( 0.0000,  0.0000,  0.0000)
  51 N     -0.006910    1.603964   16.856651    ( 0.0000,  0.0000,  0.0000)
  52 N      0.000844    2.744423   16.930183    ( 0.0000,  0.0000,  0.0000)

Unit cell:
           periodic     x           y           z      points  spacing
  1. axis:    yes    9.702222    0.000000    0.000000    60     0.1617
  2. axis:    yes    0.000000    9.702222    0.000000    60     0.1617
  3. axis:    no     0.000000    0.000000   26.351111   164     0.1607

  Lengths:   9.702222   9.702222  26.351111
  Angles:   90.000000  90.000000  90.000000

Effective grid spacing dv^(1/3) = 0.1614

     iter     time        total  log10-change:
                         energy  eigst   dens
iter:   1 10:33:29  -355.738647  -0.72
iter:   2 10:33:37  -355.727665  -1.15  -1.88
iter:   3 10:33:44  -355.718489c -1.66  -1.95
iter:   4 10:33:52  -355.718669c -1.86  -2.26
Writing to output.gpw (mode='')

iter:   5 10:33:59  -355.731717c -1.90  -2.29
iter:   6 10:34:07  -355.740998c -1.67  -2.12
iter:   7 10:34:14  -355.705278c -1.74  -2.11
iter:   8 10:34:22  -355.705746c -2.43  -2.57
iter:   9 10:34:29  -355.704660c -2.25  -2.61
Writing to output.gpw (mode='')

iter:  10 10:34:37  -355.704859c -2.61  -2.91
iter:  11 10:34:49  -355.704911c -3.18  -2.89
iter:  12 10:34:57  -355.705030c -3.02  -2.96
iter:  13 10:35:04  -355.705196c -3.06  -3.10
iter:  14 10:35:12  -355.705002c -3.42  -3.07
Writing to output.gpw (mode='')

iter:  15 10:35:19  -355.704964c -3.29  -3.30
iter:  16 10:35:27  -355.704991c -3.39  -3.44
iter:  17 10:35:34  -355.705016c -4.03  -3.48
iter:  18 10:35:42  -355.705048c -4.08  -3.46
iter:  19 10:35:49  -355.705096c -3.93  -3.50
Writing to output.gpw (mode='')

iter:  20 10:35:57  -355.705161c -4.05  -3.54
iter:  21 10:36:04  -355.705138c -4.47  -3.52
iter:  22 10:36:12  -355.705151c -4.36  -3.58
iter:  23 10:36:19  -355.705141c -4.19  -3.71
iter:  24 10:36:27  -355.705129c -4.66  -3.82
Writing to output.gpw (mode='')

iter:  25 10:36:34  -355.705148c -4.73  -3.95
iter:  26 10:36:42  -355.705148c -4.86  -4.01c
iter:  27 10:36:49  -355.705141c -5.15  -4.06c
iter:  28 10:36:57  -355.705151c -5.09  -4.34c
iter:  29 10:37:04  -355.705150c -5.41  -4.38c
Writing to output.gpw (mode='')

iter:  30 10:37:12  -355.705156c -5.16  -4.40c
iter:  31 10:37:19  -355.705153c -5.80  -4.53c
iter:  32 10:37:27  -355.705156c -5.52  -4.55c
iter:  33 10:37:34  -355.705157c -5.97  -4.47c
iter:  34 10:37:42  -355.705158c -5.61  -4.51c
Writing to output.gpw (mode='')

iter:  35 10:37:49  -355.705159c -6.09  -4.65c
iter:  36 10:37:57  -355.705158c -6.21  -4.67c
iter:  37 10:38:04  -355.705161c -6.19  -4.69c
iter:  38 10:38:12  -355.705163c -6.14  -4.72c
iter:  39 10:38:19  -355.705163c -6.28  -4.76c
Writing to output.gpw (mode='')

iter:  40 10:38:27  -355.705161c -6.20  -4.73c
iter:  41 10:38:34  -355.705162c -6.38  -4.74c
iter:  42 10:38:42  -355.705161c -6.53  -4.89c
iter:  43 10:38:49  -355.705161c -6.72  -5.15c
iter:  44 10:38:57  -355.705161c -7.02  -5.26c
Writing to output.gpw (mode='')

iter:  45 10:39:04  -355.705161c -6.87  -5.30c
iter:  46 10:39:12  -355.705162c -7.09  -5.31c
iter:  47 10:39:19  -355.705162c -6.96  -5.36c
iter:  48 10:39:27  -355.705162c -7.24  -5.40c
iter:  49 10:39:34  -355.705162c -7.27  -5.51c
Writing to output.gpw (mode='')

iter:  50 10:39:46  -355.705163c -7.55c -5.65c

Converged after 50 iterations.

Dipole moment: (-24.388612, -17.078920, 0.500186) |e|*Ang

Energy contributions relative to reference atoms: (reference = -16540.070923)

Kinetic:       +211.394758
Potential:     -199.832690
External:        +0.000000
XC:            -368.026467
Entropy (-ST):   -0.154159
Local:           +0.836315
--------------------------
Free energy:   -355.782242
Extrapolated:  -355.705163

Dipole-layer corrected work functions: 3.380354, 2.418826 eV

Showing only first 2 kpts
 Kpt  Band  Eigenvalues  Occupancy
  0    37     -3.15374    1.98767
  0    38     -3.04348    1.89348
  0    39     -2.80080    0.24354
  0    40     -2.65441    0.01473

  1    37     -2.97343    1.62818
  1    38     -2.91311    1.13440
  1    39     -2.81121    0.29169
  1    40     -2.79972    0.23894


Fermi level: -2.89959

Gap: 0.022 eV
Transition (v -> c):
  (s=0, k=1, n=38, [0.12, -0.12, 0.00]) -> (s=0, k=4, n=39, [0.38, -0.38, 0.00])

Forces in eV/Ang:
  0 Li    0.02242   -0.00180   -0.27942
  1 Li   -0.00090    0.00106   -0.26872
  2 Li   -0.02117   -0.00362   -0.27859
  3 Li   -0.00147    0.01922   -0.27823
  4 Li   -0.00088   -0.00959   -0.26427
  5 Li    0.00187    0.01995   -0.27633
  6 Li   -0.00734   -0.01432   -0.26529
  7 Li    0.00011    0.00550   -0.27954
  8 Li    0.00718   -0.01487   -0.26394
  9 Li    0.00112   -0.00568    0.29544
 10 Li    0.01087    0.00029    0.26436
 11 Li   -0.01296   -0.00265    0.26391
 12 Li   -0.00027   -0.00237    0.34760
 13 Li    0.01619   -0.00073    0.25823
 14 Li   -0.01604   -0.00075    0.26551
 15 Li   -0.00114    0.00149    0.24219
 16 Li   -0.00218    0.00283    0.25659
 17 Li    0.00351    0.00842    0.25211
 18 Li    0.03872   -0.01659   -0.11811
 19 Li   -0.00098    0.00826    0.07757
 20 Li   -0.03846   -0.02043   -0.12255
 21 Li    0.01914    0.00311   -0.01880
 22 Li    0.00202    0.00518    0.04704
 23 Li   -0.02024    0.00680   -0.01968
 24 Li   -0.01702    0.01805    0.06517
 25 Li    0.00124   -0.01731    0.01052
 26 Li    0.01638    0.01827    0.06410
 27 Li   -0.00853    0.04568    0.24069
 28 Li    0.07477   -0.05801   -0.04470
 29 Li   -0.06741   -0.05692   -0.03830
 30 Li   -0.00730    1.53977   -3.29307
 31 Li    0.09105    0.04330   -0.04980
 32 Li   -0.07625    0.03784   -0.02499
 33 Li    0.00003    0.04735   -0.03155
 34 Li   -0.00856    0.00692   -0.01779
 35 Li    0.00801    0.00809   -0.02274
 36 O     0.04729   -0.73727    4.92611
 37 C     0.00387   -0.13298    0.51046
 38 C    -0.01378    0.01597    0.20999
 39 C     0.13260   -1.05428    1.66848
 40 C    -0.01526    0.00002    0.03426
 41 H     0.04098   -0.02837   -0.02481
 42 H    -0.04628   -0.05144   -0.03314
 43 H    -0.01623    0.02829    0.00970
 44 H     0.00817    0.01227    0.00828
 45 H     0.18924   -0.37552    0.23966
 46 H    -0.07286   -0.23561    0.21286
 47 H     0.00302   -0.01264   -0.00241
 48 H    -0.01483   -0.00703    0.00339
 49 H     0.00006   -0.00694   -0.10159
 50 H     0.04793   -0.12813    0.79958
 51 N    -0.32157   -0.28352   -4.42761
 52 N     0.00219    1.30009   -0.86010

System changes: positions 

Initializing position-dependent things.

Density initialized from wave functions
       .-----------------------.  
      /|                       |  
     / |                       |  
    /  |                       |  
   /   |                       |  
  /    |                       |  
 *     |                       |  
 |     |                       |  
 |   H |                H H    |  
 |     |                  C    |  
 |     |                       |  
 | HH  |               HHC     |  
 |     |                  C    |  
 |     |       Li      Li      |  
 COHH  |               H       |  
 |     |     Li      Li      Li|  
 | N   |                       |  
 |     |  LLi     LLi     NLi  |  
 |     |                       |  
 |     |Li      Li      LLi    |  
 |   Li|     Li      Li        |  
 |    Li  Li  Li  Li  Li  Li   |  
 | Li  |   Li      Li          |  
 |     |Li      Li      Li     |  
 Li    | Li      Li            |  
 |    Li      Li      Li       |  
 |     |                       |  
 |     |                       |  
 |     |                       |  
 |     |                       |  
 |     |                       |  
 |     |                       |  
 |     .-----------------------.  
 |    /                       /   
 |   /                       /    
 |  /                       /     
 | /                       /      
 |/                       /       
 *-----------------------*        

Positions:
   0 Li     1.617037    1.617037   10.000000    ( 0.0000,  0.0000,  0.0000)
   1 Li     4.851111    1.617037   10.000000    ( 0.0000,  0.0000,  0.0000)
   2 Li     8.085185    1.617037   10.000000    ( 0.0000,  0.0000,  0.0000)
   3 Li     1.617037    4.851111   10.000000    ( 0.0000,  0.0000,  0.0000)
   4 Li     4.851111    4.851111   10.000000    ( 0.0000,  0.0000,  0.0000)
   5 Li     8.085185    4.851111   10.000000    ( 0.0000,  0.0000,  0.0000)
   6 Li     1.617037    8.085185   10.000000    ( 0.0000,  0.0000,  0.0000)
   7 Li     4.851111    8.085185   10.000000    ( 0.0000,  0.0000,  0.0000)
   8 Li     8.085185    8.085185   10.000000    ( 0.0000,  0.0000,  0.0000)
   9 Li     0.000000    0.000000   11.617037    ( 0.0000,  0.0000,  0.0000)
  10 Li     3.234074    0.000000   11.617037    ( 0.0000,  0.0000,  0.0000)
  11 Li     6.468148    0.000000   11.617037    ( 0.0000,  0.0000,  0.0000)
  12 Li     0.000000    3.234074   11.617037    ( 0.0000,  0.0000,  0.0000)
  13 Li     3.234074    3.234074   11.617037    ( 0.0000,  0.0000,  0.0000)
  14 Li     6.468148    3.234074   11.617037    ( 0.0000,  0.0000,  0.0000)
  15 Li     0.000000    6.468148   11.617037    ( 0.0000,  0.0000,  0.0000)
  16 Li     3.234074    6.468148   11.617037    ( 0.0000,  0.0000,  0.0000)
  17 Li     6.468148    6.468148   11.617037    ( 0.0000,  0.0000,  0.0000)
  18 Li     1.618119    1.616608   13.466404    ( 0.0000,  0.0000,  0.0000)
  19 Li     4.851084    1.617268   13.471917    ( 0.0000,  0.0000,  0.0000)
  20 Li     8.084109    1.616503   13.466270    ( 0.0000,  0.0000,  0.0000)
  21 Li     1.617526    4.851139   13.469265    ( 0.0000,  0.0000,  0.0000)
  22 Li     4.851170    4.851262   13.471042    ( 0.0000,  0.0000,  0.0000)
  23 Li     8.084663    4.851239   13.469245    ( 0.0000,  0.0000,  0.0000)
  24 Li     1.616557    8.085687   13.471562    ( 0.0000,  0.0000,  0.0000)
  25 Li     4.851143    8.084695   13.470032    ( 0.0000,  0.0000,  0.0000)
  26 Li     8.085648    8.085693   13.471534    ( 0.0000,  0.0000,  0.0000)
  27 Li    -0.000234    0.001409   15.452875    ( 0.0000,  0.0000,  0.0000)
  28 Li     3.236192   -0.001636   15.444678    ( 0.0000,  0.0000,  0.0000)
  29 Li     6.466234   -0.001610   15.444859    ( 0.0000,  0.0000,  0.0000)
  30 Li    -0.000197    3.279129   15.348974    ( 0.0000,  0.0000,  0.0000)
  31 Li     3.236593    3.235293   15.444571    ( 0.0000,  0.0000,  0.0000)
  32 Li     6.466029    3.235145   15.445252    ( 0.0000,  0.0000,  0.0000)
  33 Li    -0.000000    6.469464   15.445052    ( 0.0000,  0.0000,  0.0000)
  34 Li     3.233847    6.468352   15.445440    ( 0.0000,  0.0000,  0.0000)
  35 Li     6.468361    6.468384   15.445298    ( 0.0000,  0.0000,  0.0000)
  36 O      0.004405    1.596601   18.593449    ( 0.0000,  0.0000,  0.0000)
  37 C     -0.035935    1.624166   20.926630    ( 0.0000,  0.0000,  0.0000)
  38 C     -0.022789    0.775689   22.187173    ( 0.0000,  0.0000,  0.0000)
  39 C      0.004333    0.776136   19.680528    ( 0.0000,  0.0000,  0.0000)
  40 C     -0.007217    1.625085   23.455819    ( 0.0000,  0.0000,  0.0000)
  41 H     -0.928602    2.262365   20.897356    ( 0.0000,  0.0000,  0.0000)
  42 H      0.834673    2.298663   20.925084    ( 0.0000,  0.0000,  0.0000)
  43 H      0.853494    0.115909   22.169733    ( 0.0000,  0.0000,  0.0000)
  44 H     -0.900305    0.118386   22.187559    ( 0.0000,  0.0000,  0.0000)
  45 H      0.879232    0.130672   19.642880    ( 0.0000,  0.0000,  0.0000)
  46 H     -0.898091    0.176123   19.551106    ( 0.0000,  0.0000,  0.0000)
  47 H      0.877384    2.267457   23.482779    ( 0.0000,  0.0000,  0.0000)
  48 H     -0.884691    2.275146   23.500667    ( 0.0000,  0.0000,  0.0000)
  49 H     -0.000636    1.011446   24.355330    ( 0.0000,  0.0000,  0.0000)
  50 H      0.761293    2.201917   18.517525    ( 0.0000,  0.0000,  0.0000)
  51 N     -0.009592    1.610457   16.817272    ( 0.0000,  0.0000,  0.0000)
  52 N      0.000488    2.747111   16.924009    ( 0.0000,  0.0000,  0.0000)

Unit cell:
           periodic     x           y           z      points  spacing
  1. axis:    yes    9.702222    0.000000    0.000000    60     0.1617
  2. axis:    yes    0.000000    9.702222    0.000000    60     0.1617
  3. axis:    no     0.000000    0.000000   26.351111   164     0.1607

  Lengths:   9.702222   9.702222  26.351111
  Angles:   90.000000  90.000000  90.000000

Effective grid spacing dv^(1/3) = 0.1614

     iter     time        total  log10-change:
                         energy  eigst   dens
iter:   1 10:39:56  -356.185462  -0.86
iter:   2 10:40:04  -356.181981  -1.35  -2.03
iter:   3 10:40:11  -356.178754c -1.85  -2.10
iter:   4 10:40:19  -356.176125c -2.01  -2.33
Writing to output.gpw (mode='')

iter:   5 10:40:26  -356.173170c -2.14  -2.43
iter:   6 10:40:34  -356.171660c -2.05  -2.48
iter:   7 10:40:41  -356.171041c -2.69  -2.61
iter:   8 10:40:49  -356.171555c -2.38  -2.70
iter:   9 10:40:56  -356.170930c -3.02  -2.69
Writing to output.gpw (mode='')

iter:  10 10:41:03  -356.171053c -3.11  -2.89
iter:  11 10:41:11  -356.170874c -3.59  -3.00
iter:  12 10:41:18  -356.170980c -3.28  -3.07
iter:  13 10:41:26  -356.170956c -3.54  -3.22
iter:  14 10:41:33  -356.170925c -3.55  -3.28
Writing to output.gpw (mode='')

iter:  15 10:41:41  -356.170942c -3.87  -3.49
iter:  16 10:41:48  -356.170950c -4.35  -3.57
iter:  17 10:41:56  -356.170980c -4.00  -3.63
iter:  18 10:42:03  -356.170977c -4.28  -3.82
iter:  19 10:42:10  -356.170987c -4.71  -3.83
Writing to output.gpw (mode='')

iter:  20 10:42:18  -356.170989c -4.55  -3.89
iter:  21 10:42:25  -356.171007c -4.49  -3.97
iter:  22 10:42:33  -356.171015c -4.67  -4.09c
iter:  23 10:42:40  -356.171019c -4.97  -4.12c
iter:  24 10:42:48  -356.171018c -4.91  -4.14c
Writing to output.gpw (mode='')

iter:  25 10:42:55  -356.171021c -5.05  -4.20c
iter:  26 10:43:02  -356.171017c -5.33  -4.43c
iter:  27 10:43:10  -356.171025c -5.17  -4.33c
iter:  28 10:43:17  -356.171035c -5.30  -4.50c
iter:  29 10:43:25  -356.171036c -5.47  -4.42c
Writing to output.gpw (mode='')

iter:  30 10:43:32  -356.171035c -5.42  -4.54c
iter:  31 10:43:40  -356.171034c -5.76  -4.73c
iter:  32 10:43:47  -356.171036c -5.74  -4.83c
iter:  33 10:43:54  -356.171037c -5.90  -4.88c
iter:  34 10:44:02  -356.171039c -5.88  -4.93c
Writing to output.gpw (mode='')

iter:  35 10:44:09  -356.171037c -6.07  -5.02c
iter:  36 10:44:17  -356.171037c -6.22  -5.06c
iter:  37 10:44:24  -356.171039c -6.18  -5.12c
iter:  38 10:44:32  -356.171039c -6.48  -5.17c
iter:  39 10:44:45  -356.171039c -6.39  -5.21c
Writing to output.gpw (mode='')

iter:  40 10:44:54  -356.171039c -6.51  -5.24c
iter:  41 10:45:01  -356.171039c -6.57  -5.28c
iter:  42 10:45:08  -356.171038c -6.67  -5.13c
iter:  43 10:45:16  -356.171038c -6.76  -5.19c
iter:  44 10:45:23  -356.171038c -6.90  -5.24c
Writing to output.gpw (mode='')

iter:  45 10:45:31  -356.171040c -7.08  -5.15c
iter:  46 10:45:38  -356.171042c -7.12  -5.23c
iter:  47 10:45:46  -356.171041c -7.11  -5.27c
iter:  48 10:45:53  -356.171041c -7.44c -5.54c

Converged after 48 iterations.

Dipole moment: (-24.191597, -17.080400, 0.454030) |e|*Ang

Energy contributions relative to reference atoms: (reference = -16540.070923)

Kinetic:       +210.078341
Potential:     -199.092279
External:        +0.000000
XC:            -367.917525
Entropy (-ST):   -0.152735
Local:           +0.836789
--------------------------
Free energy:   -356.247408
Extrapolated:  -356.171041

Dipole-layer corrected work functions: 3.381778, 2.508977 eV

Showing only first 2 kpts
 Kpt  Band  Eigenvalues  Occupancy
  0    37     -3.20084    1.98799
  0    38     -3.09498    1.90444
  0    39     -2.84265    0.22720
  0    40     -2.69932    0.01448

  1    37     -3.01917    1.62790
  1    38     -2.95785    1.12412
  1    39     -2.85901    0.30185
  1    40     -2.84130    0.22180


Fermi level: -2.94538

Gap: 0.017 eV
Transition (v -> c):
  (s=0, k=1, n=38, [0.12, -0.12, 0.00]) -> (s=0, k=4, n=39, [0.38, -0.38, 0.00])
Writing to output.gpw (mode='')


Forces in eV/Ang:
  0 Li    0.02227   -0.00188   -0.27991
  1 Li   -0.00080    0.00098   -0.26812
  2 Li   -0.02106   -0.00368   -0.27912
  3 Li   -0.00178    0.01969   -0.27912
  4 Li   -0.00092   -0.00973   -0.26393
  5 Li    0.00218    0.02027   -0.27748
  6 Li   -0.00748   -0.01466   -0.26468
  7 Li    0.00003    0.00574   -0.28066
  8 Li    0.00730   -0.01512   -0.26297
  9 Li    0.00113   -0.00686    0.29463
 10 Li    0.01237   -0.00006    0.26376
 11 Li   -0.01468   -0.00283    0.26318
 12 Li   -0.00031   -0.00210    0.35198
 13 Li    0.01579   -0.00074    0.25860
 14 Li   -0.01562   -0.00070    0.26609
 15 Li   -0.00100    0.00205    0.24139
 16 Li   -0.00125    0.00321    0.25558
 17 Li    0.00256    0.00885    0.25114
 18 Li    0.03881   -0.02054   -0.11684
 19 Li   -0.00108    0.00856    0.07614
 20 Li   -0.03829   -0.02500   -0.11995
 21 Li    0.02534    0.01050   -0.02709
 22 Li    0.00171    0.00423    0.04783
 23 Li   -0.02619    0.01470   -0.02855
 24 Li   -0.01655    0.01814    0.06400
 25 Li    0.00167   -0.01685    0.00981
 26 Li    0.01578    0.01843    0.06274
 27 Li   -0.00917    0.03427    0.22223
 28 Li    0.07234   -0.05715   -0.04361
 29 Li   -0.06438   -0.05533   -0.03716
 30 Li   -0.00834    1.34246   -2.84198
 31 Li    0.09362    0.04307   -0.05219
 32 Li   -0.07710    0.03689   -0.02526
 33 Li    0.00007    0.04830   -0.03102
 34 Li   -0.00945    0.00564   -0.01805
 35 Li    0.00876    0.00679   -0.02258
 36 O    -0.05573   -0.47915    3.56188
 37 C     0.00973   -0.12863    0.57291
 38 C    -0.01021    0.00113    0.30219
 39 C     0.11206   -0.86345    1.41386
 40 C    -0.01366    0.00390    0.07965
 41 H     0.05625   -0.06636   -0.00921
 42 H    -0.05274   -0.07730   -0.00598
 43 H    -0.01650    0.02768    0.02890
 44 H     0.00624    0.01034    0.02628
 45 H     0.19461   -0.41019    0.32578
 46 H    -0.02244   -0.24662    0.29960
 47 H     0.00197   -0.01218   -0.00060
 48 H    -0.01533   -0.00579    0.00589
 49 H    -0.00024   -0.01006   -0.06052
 50 H     0.04844   -0.23430    0.81584
 51 N    -0.23970    0.00388   -3.77801
 52 N    -0.02647    1.00544   -0.85788

System changes: positions 

Initializing position-dependent things.

Density initialized from wave functions
       .-----------------------.  
      /|                       |  
     / |                       |  
    /  |                       |  
   /   |                       |  
  /    |                       |  
 *     |                       |  
 |     |                       |  
 |   H |                H H    |  
 |     |                  C    |  
 |     |                       |  
 | HH  |               HHC     |  
 |     |                  C    |  
 |     |       Li      Li      |  
 COHH  |               H       |  
 |   Li|     Li      Li        |  
 |     |                   N   |  
 |     |  LLi     LLi     NLi  |  
 |     |                       |  
 |     |Li      Li      LLi    |  
 |   Li|     Li      Li        |  
 |    Li  Li  Li  Li  Li  Li   |  
 | Li  |   Li      Li          |  
 |     |Li      Li      Li     |  
 Li    | Li      Li            |  
 |    Li      Li      Li       |  
 |     |                       |  
 |     |                       |  
 |     |                       |  
 |     |                       |  
 |     |                       |  
 |     |                       |  
 |     .-----------------------.  
 |    /                       /   
 |   /                       /    
 |  /                       /     
 | /                       /      
 |/                       /       
 *-----------------------*        

Positions:
   0 Li     1.617037    1.617037   10.000000    ( 0.0000,  0.0000,  0.0000)
   1 Li     4.851111    1.617037   10.000000    ( 0.0000,  0.0000,  0.0000)
   2 Li     8.085185    1.617037   10.000000    ( 0.0000,  0.0000,  0.0000)
   3 Li     1.617037    4.851111   10.000000    ( 0.0000,  0.0000,  0.0000)
   4 Li     4.851111    4.851111   10.000000    ( 0.0000,  0.0000,  0.0000)
   5 Li     8.085185    4.851111   10.000000    ( 0.0000,  0.0000,  0.0000)
   6 Li     1.617037    8.085185   10.000000    ( 0.0000,  0.0000,  0.0000)
   7 Li     4.851111    8.085185   10.000000    ( 0.0000,  0.0000,  0.0000)
   8 Li     8.085185    8.085185   10.000000    ( 0.0000,  0.0000,  0.0000)
   9 Li     0.000000    0.000000   11.617037    ( 0.0000,  0.0000,  0.0000)
  10 Li     3.234074    0.000000   11.617037    ( 0.0000,  0.0000,  0.0000)
  11 Li     6.468148    0.000000   11.617037    ( 0.0000,  0.0000,  0.0000)
  12 Li     0.000000    3.234074   11.617037    ( 0.0000,  0.0000,  0.0000)
  13 Li     3.234074    3.234074   11.617037    ( 0.0000,  0.0000,  0.0000)
  14 Li     6.468148    3.234074   11.617037    ( 0.0000,  0.0000,  0.0000)
  15 Li     0.000000    6.468148   11.617037    ( 0.0000,  0.0000,  0.0000)
  16 Li     3.234074    6.468148   11.617037    ( 0.0000,  0.0000,  0.0000)
  17 Li     6.468148    6.468148   11.617037    ( 0.0000,  0.0000,  0.0000)
  18 Li     1.618604    1.616316   13.464960    ( 0.0000,  0.0000,  0.0000)
  19 Li     4.851069    1.617379   13.472853    ( 0.0000,  0.0000,  0.0000)
  20 Li     8.083635    1.616145   13.464802    ( 0.0000,  0.0000,  0.0000)
  21 Li     1.617894    4.851330   13.468862    ( 0.0000,  0.0000,  0.0000)
  22 Li     4.851186    4.851302   13.471649    ( 0.0000,  0.0000,  0.0000)
  23 Li     8.084288    4.851491   13.468816    ( 0.0000,  0.0000,  0.0000)
  24 Li     1.616355    8.085912   13.472346    ( 0.0000,  0.0000,  0.0000)
  25 Li     4.851169    8.084489   13.470148    ( 0.0000,  0.0000,  0.0000)
  26 Li     8.085837    8.085925   13.472301    ( 0.0000,  0.0000,  0.0000)
  27 Li    -0.000354    0.001696   15.455476    ( 0.0000,  0.0000,  0.0000)
  28 Li     3.237061   -0.002338   15.444147    ( 0.0000,  0.0000,  0.0000)
  29 Li     6.465476   -0.002279   15.444412    ( 0.0000,  0.0000,  0.0000)
  30 Li    -0.000320    3.293596   15.318829    ( 0.0000,  0.0000,  0.0000)
  31 Li     3.237789    3.235828   15.443886    ( 0.0000,  0.0000,  0.0000)
  32 Li     6.465060    3.235594   15.444935    ( 0.0000,  0.0000,  0.0000)
  33 Li     0.000001    6.470071   15.444663    ( 0.0000,  0.0000,  0.0000)
  34 Li     3.233723    6.468408   15.445210    ( 0.0000,  0.0000,  0.0000)
  35 Li     6.468475    6.468452   15.445017    ( 0.0000,  0.0000,  0.0000)
  36 O      0.002745    1.596227   18.616336    ( 0.0000,  0.0000,  0.0000)
  37 C     -0.035818    1.621451   20.935977    ( 0.0000,  0.0000,  0.0000)
  38 C     -0.022896    0.775978   22.191772    ( 0.0000,  0.0000,  0.0000)
  39 C      0.006259    0.768516   19.698112    ( 0.0000,  0.0000,  0.0000)
  40 C     -0.007362    1.625104   23.457005    ( 0.0000,  0.0000,  0.0000)
  41 H     -0.927782    2.261200   20.897136    ( 0.0000,  0.0000,  0.0000)
  42 H      0.833974    2.297426   20.924965    ( 0.0000,  0.0000,  0.0000)
  43 H      0.853266    0.116278   22.170182    ( 0.0000,  0.0000,  0.0000)
  44 H     -0.900231    0.118522   22.187973    ( 0.0000,  0.0000,  0.0000)
  45 H      0.882368    0.124334   19.648076    ( 0.0000,  0.0000,  0.0000)
  46 H     -0.898539    0.172413   19.555636    ( 0.0000,  0.0000,  0.0000)
  47 H      0.877386    2.267300   23.482776    ( 0.0000,  0.0000,  0.0000)
  48 H     -0.884885    2.275084   23.500751    ( 0.0000,  0.0000,  0.0000)
  49 H     -0.000641    1.011264   24.354952    ( 0.0000,  0.0000,  0.0000)
  50 H      0.761320    2.196973   18.528365    ( 0.0000,  0.0000,  0.0000)
  51 N     -0.011779    1.618068   16.778064    ( 0.0000,  0.0000,  0.0000)
  52 N     -0.000212    2.750749   16.915628    ( 0.0000,  0.0000,  0.0000)

Unit cell:
           periodic     x           y           z      points  spacing
  1. axis:    yes    9.702222    0.000000    0.000000    60     0.1617
  2. axis:    yes    0.000000    9.702222    0.000000    60     0.1617
  3. axis:    no     0.000000    0.000000   26.351111   164     0.1607

  Lengths:   9.702222   9.702222  26.351111
  Angles:   90.000000  90.000000  90.000000

Effective grid spacing dv^(1/3) = 0.1614

     iter     time        total  log10-change:
                         energy  eigst   dens
iter:   1 10:46:02  -356.554219  -0.93
iter:   2 10:46:10  -356.552975  -1.50  -2.13
iter:   3 10:46:17  -356.551536c -1.99  -2.20
iter:   4 10:46:25  -356.547356c -2.08  -2.37
Writing to output.gpw (mode='')

iter:   5 10:46:32  -356.545967c -2.26  -2.53
iter:   6 10:46:40  -356.545664c -2.27  -2.62
iter:   7 10:46:47  -356.545061c -3.01  -2.69
iter:   8 10:46:55  -356.545395c -2.76  -2.84
iter:   9 10:47:02  -356.545280c -3.32  -2.81
Writing to output.gpw (mode='')

iter:  10 10:47:10  -356.545320c -3.17  -2.93
iter:  11 10:47:17  -356.545153c -3.53  -3.17
iter:  12 10:47:25  -356.545229c -3.76  -3.23
iter:  13 10:47:32  -356.545236c -3.97  -3.35
iter:  14 10:47:40  -356.545261c -3.94  -3.44
Writing to output.gpw (mode='')

iter:  15 10:47:47  -356.545232c -4.20  -3.58
iter:  16 10:47:55  -356.545240c -4.21  -3.67
iter:  17 10:48:02  -356.545250c -4.63  -3.75
iter:  18 10:48:10  -356.545280c -4.59  -3.82
iter:  19 10:48:17  -356.545275c -4.74  -3.96
Writing to output.gpw (mode='')

iter:  20 10:48:25  -356.545285c -4.79  -4.00c
iter:  21 10:48:32  -356.545296c -5.01  -4.04c
iter:  22 10:48:40  -356.545299c -5.12  -4.19c
iter:  23 10:48:47  -356.545300c -5.40  -4.30c
iter:  24 10:48:55  -356.545300c -5.38  -4.31c
Writing to output.gpw (mode='')

iter:  25 10:49:02  -356.545297c -5.34  -4.31c
iter:  26 10:49:10  -356.545296c -5.54  -4.31c
iter:  27 10:49:19  -356.545300c -5.42  -4.49c
iter:  28 10:49:27  -356.545300c -5.82  -4.47c
iter:  29 10:49:34  -356.545302c -5.43  -4.49c
Writing to output.gpw (mode='')

iter:  30 10:49:47  -356.545303c -5.92  -4.49c
iter:  31 10:49:55  -356.545308c -5.91  -4.51c
iter:  32 10:50:03  -356.545302c -5.81  -4.56c
iter:  33 10:50:10  -356.545305c -6.16  -4.63c
iter:  34 10:50:18  -356.545308c -6.16  -4.63c
Writing to output.gpw (mode='')

iter:  35 10:50:25  -356.545315c -6.36  -4.64c
iter:  36 10:50:33  -356.545307c -6.44  -4.65c
iter:  37 10:50:40  -356.545309c -6.61  -4.83c
iter:  38 10:50:48  -356.545307c -6.54  -4.98c
iter:  39 10:50:55  -356.545309c -6.41  -5.02c
Writing to output.gpw (mode='')

iter:  40 10:51:03  -356.545308c -6.68  -5.21c
iter:  41 10:51:10  -356.545308c -6.69  -5.25c
iter:  42 10:51:18  -356.545309c -6.83  -5.40c
iter:  43 10:51:25  -356.545309c -6.97  -5.50c
iter:  44 10:51:33  -356.545309c -7.03  -5.55c
Writing to output.gpw (mode='')

iter:  45 10:51:40  -356.545309c -7.30  -5.58c
iter:  46 10:51:48  -356.545310c -7.24  -5.58c
iter:  47 10:51:55  -356.545309c -7.29  -5.74c
iter:  48 10:52:03  -356.545309c -7.64c -5.76c

Converged after 48 iterations.

Dipole moment: (-23.891311, -17.085174, 0.414814) |e|*Ang

Energy contributions relative to reference atoms: (reference = -16540.070923)

Kinetic:       +208.868350
Potential:     -198.358831
External:        +0.000000
XC:            -367.816174
Entropy (-ST):   -0.151381
Local:           +0.837036
--------------------------
Free energy:   -356.621000
Extrapolated:  -356.545309

Dipole-layer corrected work functions: 3.382875, 2.585460 eV

Showing only first 2 kpts
 Kpt  Band  Eigenvalues  Occupancy
  0    37     -3.24092    1.98830
  0    38     -3.13941    1.91418
  0    39     -2.87702    0.20999
  0    40     -2.73733    0.01425

  1    37     -3.05772    1.62645
  1    38     -2.99605    1.11824
  1    39     -2.89994    0.31301
  1    40     -2.87570    0.20508


Fermi level: -2.98417

Gap: 0.012 eV
Transition (v -> c):
  (s=0, k=2, n=38, [0.12, 0.12, 0.00]) -> (s=0, k=4, n=39, [0.38, -0.38, 0.00])
Writing to output.gpw (mode='')


Forces in eV/Ang:
[...]
  1    40     -3.19433    0.20690


Fermi level: -3.30230

No gap

Forces in eV/Ang:
  0 Li    0.01536   -0.01029   -0.27192
  1 Li    0.01327   -0.00735   -0.26644
  2 Li   -0.02320   -0.00395   -0.27215
  3 Li   -0.00369    0.01955   -0.27096
  4 Li    0.00487   -0.00539   -0.28528
  5 Li   -0.00026    0.00855   -0.27675
  6 Li   -0.00372   -0.02349   -0.26721
  7 Li    0.00249   -0.00487   -0.28882
  8 Li   -0.00076   -0.01668   -0.27218
  9 Li   -0.01374   -0.00022    0.28772
 10 Li    0.00851   -0.02239    0.27173
 11 Li   -0.01594    0.01071    0.26634
 12 Li   -0.01608    0.04592    0.31605
 13 Li    0.00575    0.05422    0.28414
 14 Li   -0.02486    0.04256    0.26145
 15 Li   -0.00703    0.03364    0.19506
 16 Li   -0.04103    0.02835    0.26317
 17 Li    0.03785    0.00551    0.26096
 18 Li   -0.00061   -0.00534    0.00292
 19 Li    0.00635    0.00060    0.00174
 20 Li    0.00494   -0.00354   -0.00052
 21 Li    0.00218   -0.00647   -0.00067
 22 Li    0.00292   -0.00076    0.00484
 23 Li    0.00035   -0.00905    0.00245
 24 Li   -0.00169    0.00104    0.00992
 25 Li    0.00045   -0.00148    0.00780
 26 Li    0.00023   -0.00059    0.00544
 27 Li   -0.00031   -0.00648    0.01373
 28 Li    0.00670    0.00436    0.00590
 29 Li    0.00509    0.00182    0.00768
 30 Li    0.01195   -0.00595   -0.00609
 31 Li    0.00785   -0.00323   -0.00191
 32 Li    0.01157   -0.00248    0.00207
 33 Li   -0.00197   -0.01996   -0.01022
 34 Li   -0.00318   -0.00642    0.00569
 35 Li    0.00183   -0.00392    0.00540
 36 O     0.01158   -0.01584   -0.01537
 37 C    -0.01654   -0.01665    0.00249
 38 C     0.00226   -0.00473   -0.01184
 39 C    -0.02171   -0.05637    0.03922
 40 C    -0.01319    0.00912   -0.00850
 41 H    -0.00532   -0.01970   -0.00264
 42 H     0.03870    0.00214   -0.02505
 43 H    -0.01571    0.01362    0.00656
 44 H    -0.01355   -0.01902   -0.00508
 45 H     0.02457    0.01329    0.00731
 46 H    -0.00120    0.00472   -0.01910
 47 H    -0.00886   -0.00420   -0.01317
 48 H     0.02351   -0.00731    0.00752
 49 H    -0.00466    0.03461   -0.03774
 50 H    -0.02631   -0.02465   -0.00023
 51 N    -0.02501    0.06106    0.07229
 52 N    -0.00973   -0.02514   -0.04881

System changes: positions 

Initializing position-dependent things.

Density initialized from wave functions
       .-----------------------.  
      /|                       |  
     / |                       |  
    /  |                       |  
   /   |                      H|  
  /    |                       |  
 *     |                       |  
 |     |                       |  
 |H    C H                  H  |  
 |  H  |                H C    |  
 |     H                      O|  
 |C H  |                       |  
 |     |              H  C     |  
 | H   |       Li      Li      |  
 |     |                       |  
 |  NLi|     Li      Li        |  
 |     |                       |  
 | N   |  LLi     LLi     LLi  |  
 |     |                       |  
 |     |Li      Li      LLi    |  
 |   Li|     Li      Li        |  
 |    Li  Li  Li  Li  Li  Li   |  
 | Li  |   Li      Li          |  
 |     |Li      Li      Li     |  
 Li    | Li      Li            |  
 |    Li      Li      Li       |  
 |     |                       |  
 |     |                       |  
 |     |                       |  
 |     |                       |  
 |     |                       |  
 |     |                       |  
 |     .-----------------------.  
 |    /                       /   
 |   /                       /    
 |  /                       /     
 | /                       /      
 |/                       /       
 *-----------------------*        

Positions:
   0 Li     1.617037    1.617037   10.000000    ( 0.0000,  0.0000,  0.0000)
   1 Li     4.851111    1.617037   10.000000    ( 0.0000,  0.0000,  0.0000)
   2 Li     8.085185    1.617037   10.000000    ( 0.0000,  0.0000,  0.0000)
   3 Li     1.617037    4.851111   10.000000    ( 0.0000,  0.0000,  0.0000)
   4 Li     4.851111    4.851111   10.000000    ( 0.0000,  0.0000,  0.0000)
   5 Li     8.085185    4.851111   10.000000    ( 0.0000,  0.0000,  0.0000)
   6 Li     1.617037    8.085185   10.000000    ( 0.0000,  0.0000,  0.0000)
   7 Li     4.851111    8.085185   10.000000    ( 0.0000,  0.0000,  0.0000)
   8 Li     8.085185    8.085185   10.000000    ( 0.0000,  0.0000,  0.0000)
   9 Li     0.000000    0.000000   11.617037    ( 0.0000,  0.0000,  0.0000)
  10 Li     3.234074    0.000000   11.617037    ( 0.0000,  0.0000,  0.0000)
  11 Li     6.468148    0.000000   11.617037    ( 0.0000,  0.0000,  0.0000)
  12 Li     0.000000    3.234074   11.617037    ( 0.0000,  0.0000,  0.0000)
  13 Li     3.234074    3.234074   11.617037    ( 0.0000,  0.0000,  0.0000)
  14 Li     6.468148    3.234074   11.617037    ( 0.0000,  0.0000,  0.0000)
  15 Li     0.000000    6.468148   11.617037    ( 0.0000,  0.0000,  0.0000)
  16 Li     3.234074    6.468148   11.617037    ( 0.0000,  0.0000,  0.0000)
  17 Li     6.468148    6.468148   11.617037    ( 0.0000,  0.0000,  0.0000)
  18 Li     1.610724    1.657756   13.394461    ( 0.0000,  0.0000,  0.0000)
  19 Li     4.827958    1.615686   13.466062    ( 0.0000,  0.0000,  0.0000)
  20 Li     8.062708    1.668040   13.446797    ( 0.0000,  0.0000,  0.0000)
  21 Li     1.569357    4.920917   13.505579    ( 0.0000,  0.0000,  0.0000)
  22 Li     4.834599    4.880398   13.460843    ( 0.0000,  0.0000,  0.0000)
  23 Li     8.103916    4.914035   13.514763    ( 0.0000,  0.0000,  0.0000)
  24 Li     1.575692    8.118698   13.505131    ( 0.0000,  0.0000,  0.0000)
  25 Li     4.865350    8.064852   13.449488    ( 0.0000,  0.0000,  0.0000)
  26 Li     8.112819    8.117025   13.507928    ( 0.0000,  0.0000,  0.0000)
  27 Li    -0.026800    0.235026   15.430483    ( 0.0000,  0.0000,  0.0000)
  28 Li     3.259683   -0.046863   15.356149    ( 0.0000,  0.0000,  0.0000)
  29 Li     6.422063   -0.005973   15.409268    ( 0.0000,  0.0000,  0.0000)
  30 Li    -0.081174    3.386972   15.505614    ( 0.0000,  0.0000,  0.0000)
  31 Li     3.255728    3.285063   15.367651    ( 0.0000,  0.0000,  0.0000)
  32 Li     6.372342    3.245465   15.363919    ( 0.0000,  0.0000,  0.0000)
  33 Li     0.007008    6.657015   15.625269    ( 0.0000,  0.0000,  0.0000)
  34 Li     3.235573    6.487082   15.428028    ( 0.0000,  0.0000,  0.0000)
  35 Li     6.445405    6.464776   15.439273    ( 0.0000,  0.0000,  0.0000)
  36 O     -0.330507   -0.926428   18.771036    ( 0.0000,  0.0000,  0.0000)
  37 C     -0.204867    0.539947   20.774102    ( 0.0000,  0.0000,  0.0000)
  38 C      0.146875    0.573922   22.265308    ( 0.0000,  0.0000,  0.0000)
  39 C      0.020096   -0.843344   20.163714    ( 0.0000,  0.0000,  0.0000)
  40 C     -0.111281    1.929600   22.925383    ( 0.0000,  0.0000,  0.0000)
  41 H     -1.254343    0.823050   20.632406    ( 0.0000,  0.0000,  0.0000)
  42 H      0.394931    1.284061   20.235904    ( 0.0000,  0.0000,  0.0000)
  43 H      1.201952    0.304662   22.396771    ( 0.0000,  0.0000,  0.0000)
  44 H     -0.431013   -0.198545   22.786416    ( 0.0000,  0.0000,  0.0000)
  45 H      1.062744   -1.158945   20.310380    ( 0.0000,  0.0000,  0.0000)
  46 H     -0.617046   -1.576539   20.663386    ( 0.0000,  0.0000,  0.0000)
  47 H      0.504579    2.712421   22.477357    ( 0.0000,  0.0000,  0.0000)
  48 H     -1.156395    2.229590   22.817171    ( 0.0000,  0.0000,  0.0000)
  49 H      0.117389    1.893942   23.990695    ( 0.0000,  0.0000,  0.0000)
  50 H      0.281556   -0.362690   18.279937    ( 0.0000,  0.0000,  0.0000)
  51 N      0.311021    1.628584   16.790460    ( 0.0000,  0.0000,  0.0000)
  52 N      0.492840    2.536110   17.462273    ( 0.0000,  0.0000,  0.0000)

Unit cell:
           periodic     x           y           z      points  spacing
  1. axis:    yes    9.702222    0.000000    0.000000    60     0.1617
  2. axis:    yes    0.000000    9.702222    0.000000    60     0.1617
  3. axis:    no     0.000000    0.000000   26.351111   164     0.1607

  Lengths:   9.702222   9.702222  26.351111
  Angles:   90.000000  90.000000  90.000000

Effective grid spacing dv^(1/3) = 0.1614

     iter     time        total  log10-change:
                         energy  eigst   dens
iter:   1 00:54:24  -359.661105  -1.18
iter:   2 00:54:31  -359.658838  -1.92  -2.08
iter:   3 00:54:46  -359.653461c -2.61  -2.16
iter:   4 00:54:54  -359.652277c -3.09  -2.46
Writing to output.gpw (mode='')

iter:   5 00:55:01  -359.650446c -2.64  -2.53
iter:   6 00:55:09  -359.650324c -3.18  -2.69
iter:   7 00:55:16  -359.650440c -2.71  -2.77
iter:   8 00:55:24  -359.649918c -3.37  -2.88
iter:   9 00:55:31  -359.649941c -3.64  -3.15
Writing to output.gpw (mode='')

iter:  10 00:55:39  -359.650045c -3.75  -3.26
iter:  11 00:55:46  -359.649976c -4.22  -3.21
iter:  12 00:55:54  -359.649993c -3.86  -3.39
iter:  13 00:56:02  -359.649979c -4.95  -3.65
iter:  14 00:56:09  -359.649979c -5.34  -3.75
Writing to output.gpw (mode='')

iter:  15 00:56:17  -359.649981c -5.05  -3.77
iter:  16 00:56:24  -359.649980c -5.25  -4.01c
iter:  17 00:56:32  -359.649974c -5.57  -4.08c
iter:  18 00:56:39  -359.649974c -6.16  -4.21c
iter:  19 00:56:47  -359.649973c -6.41  -4.24c
Writing to output.gpw (mode='')

iter:  20 00:56:54  -359.649971c -6.38  -4.36c
iter:  21 00:57:02  -359.649970c -6.31  -4.49c
iter:  22 00:57:09  -359.649969c -6.76  -4.48c
iter:  23 00:57:17  -359.649971c -6.73  -4.58c
iter:  24 00:57:24  -359.649971c -7.22  -4.76c
Writing to output.gpw (mode='')

iter:  25 00:57:32  -359.649971c -7.52c -4.88c

Converged after 25 iterations.

Dipole moment: (-9.941329, -7.359618, 0.110428) |e|*Ang

Energy contributions relative to reference atoms: (reference = -16540.070923)

Kinetic:       +184.461081
Potential:     -181.417605
External:        +0.000000
XC:            -363.470489
Entropy (-ST):   -0.145831
Local:           +0.849958
--------------------------
Free energy:   -359.722887
Extrapolated:  -359.649971

Dipole-layer corrected work functions: 3.407874, 3.195593 eV

Showing only first 2 kpts
 Kpt  Band  Eigenvalues  Occupancy
  0    37     -3.55386    1.98717
  0    38     -3.49493    1.95889
  0    39     -3.18924    0.19072
  0    40     -3.07622    0.02175

  1    37     -3.35795    1.50955
  1    38     -3.29409    0.92372
  1    39     -3.23458    0.41398
  1    40     -3.19397    0.20769


Fermi level: -3.30173

No gap

Forces in eV/Ang:
  0 Li    0.01534   -0.01000   -0.27232
  1 Li    0.01341   -0.00756   -0.26603
  2 Li   -0.02360   -0.00348   -0.27238
  3 Li   -0.00344    0.01970   -0.27098
  4 Li    0.00475   -0.00519   -0.28546
  5 Li    0.00004    0.00865   -0.27647
  6 Li   -0.00358   -0.02354   -0.26717
  7 Li    0.00270   -0.00493   -0.28863
  8 Li   -0.00098   -0.01675   -0.27251
  9 Li   -0.01484   -0.00087    0.29127
 10 Li    0.01184   -0.02355    0.27192
 11 Li   -0.01602    0.00951    0.26664
 12 Li   -0.01500    0.04602    0.31938
 13 Li    0.00797    0.05514    0.28429
 14 Li   -0.02686    0.04480    0.26009
 15 Li   -0.00654    0.03079    0.19657
 16 Li   -0.04004    0.02886    0.26255
 17 Li    0.03567    0.00409    0.26049
 18 Li   -0.00713   -0.00135    0.00586
 19 Li    0.00355   -0.00071    0.00040
 20 Li    0.00600   -0.00329   -0.00161
 21 Li   -0.00284   -0.00839   -0.00220
 22 Li    0.00433   -0.00142    0.00303
 23 Li    0.00345   -0.00998    0.00055
 24 Li   -0.00210   -0.00101    0.00799
 25 Li   -0.00112   -0.00272    0.00688
 26 Li   -0.00077    0.00368    0.00520
 27 Li    0.01610   -0.01525    0.01617
 28 Li    0.00404    0.00541    0.00807
 29 Li    0.00240    0.00296    0.00497
 30 Li    0.01363   -0.01761   -0.00227
 31 Li    0.01114   -0.00329   -0.00173
 32 Li    0.01146   -0.00270    0.00355
 33 Li   -0.00453   -0.01548   -0.00883
 34 Li   -0.00172   -0.00606    0.00379
 35 Li    0.00376   -0.00521    0.00606
 36 O    -0.01739   -0.04286    0.00310
 37 C    -0.00906   -0.00673    0.00411
 38 C     0.00803   -0.01271    0.00711
 39 C     0.01163   -0.01329    0.00186
 40 C    -0.00512   -0.01491   -0.02847
 41 H     0.01045   -0.01900   -0.01082
 42 H     0.02109   -0.00991    0.00001
 43 H    -0.01868    0.00523   -0.00804
 44 H    -0.01398    0.01038    0.00115
 45 H    -0.01267    0.02102    0.00317
 46 H    -0.00967   -0.02961   -0.00384
 47 H     0.01370    0.01442   -0.03153
 48 H    -0.00444   -0.00543   -0.00271
 49 H     0.01058    0.02424    0.00167
 50 H     0.00546    0.00487   -0.00836
 51 N     0.00716    0.01765    0.02630
 52 N     0.00104   -0.03872   -0.00508

Timing:                                      incl.     excl.
-------------------------------------------------------------------
Density initialized from wave functions:    13.353    13.347   0.0% |
 Symmetrize density:                         0.007     0.007   0.0% |
Forces:                                     93.904    93.904   0.2% |
Hamiltonian:                              1236.977     0.030   0.0% |
 Atomic:                                     0.052     0.051   0.0% |
  XC Correction:                             0.001     0.001   0.0% |
 Calculate atomic Hamiltonians:              0.095     0.095   0.0% |
 Communicate:                               19.776    19.776   0.0% |
 Hartree integrate/restrict:                 4.325     4.325   0.0% |
 Initialize Hamiltonian:                     0.001     0.001   0.0% |
 Poisson:                                   58.546    21.150   0.0% |
  Communicate from 1D:                       5.724     5.724   0.0% |
  Communicate from 2D:                       6.121     6.121   0.0% |
  Communicate to 1D:                         3.368     3.368   0.0% |
  Communicate to 2D:                         6.435     6.435   0.0% |
  FFT 1D:                                    7.780     7.780   0.0% |
  FFT 2D:                                    7.967     7.967   0.0% |
 XC 3D grid:                              1153.233   173.131   0.3% |
  VdW-DF integral:                         980.102     8.234   0.0% |
   Convolution:                             91.604    91.604   0.2% |
   FFT:                                     38.851    38.851   0.1% |
   gather:                                 344.896   344.896   0.6% |
   hmm1:                                    32.276    32.276   0.1% |
   hmm2:                                    42.187    42.187   0.1% |
   iFFT:                                    40.333    40.333   0.1% |
   potential:                              378.145    10.447   0.0% |
    collect:                                59.957    59.957   0.1% |
    p1:                                    173.623   173.623   0.3% |
    p2:                                     64.263    64.263   0.1% |
    sum:                                    69.854    69.854   0.1% |
   splines:                                  3.576     3.576   0.0% |
 vbar:                                       0.920     0.920   0.0% |
LCAO initialization:                         1.165     0.183   0.0% |
 LCAO eigensolver:                           0.196     0.000   0.0% |
  Calculate projections:                     0.000     0.000   0.0% |
  DenseAtomicCorrection:                     0.000     0.000   0.0% |
  Distribute overlap matrix:                 0.177     0.177   0.0% |
  Orbital Layouts:                           0.017     0.017   0.0% |
  Potential matrix:                          0.001     0.001   0.0% |
  Sum over cells:                            0.002     0.002   0.0% |
 LCAO to grid:                               0.673     0.673   0.0% |
 Set positions (LCAO WFS):                   0.114     0.070   0.0% |
  Basic WFS set positions:                   0.001     0.001   0.0% |
  Basis functions set positions:             0.000     0.000   0.0% |
  P tci:                                     0.000     0.000   0.0% |
  ST tci:                                    0.012     0.012   0.0% |
  mktci:                                     0.030     0.030   0.0% |
Redistribute:                                0.139     0.139   0.0% |
SCF-cycle:                               52059.751   854.139   1.6% ||
 Davidson:                               14763.039  4430.582   8.3% |--|
  Apply hamiltonian:                       903.083   903.083   1.7% ||
  Subspace diag:                          2743.355     0.822   0.0% |
   calc_h_matrix:                         1358.059   440.968   0.8% |
    Apply hamiltonian:                     917.091   917.091   1.7% ||
   diagonalize:                            142.799   142.799   0.3% |
   rotate_psi:                            1241.674  1241.674   2.3% ||
  calc. matrices:                         4659.426  2508.273   4.7% |-|
   Apply hamiltonian:                     2151.153  2151.153   4.0% |-|
  diagonalize:                              47.620    47.620   0.1% |
  rotate_psi:                             1978.974  1978.974   3.7% ||
 Density:                                  257.135     0.179   0.0% |
  Atomic density matrices:                  35.773    35.773   0.1% |
  Mix:                                     105.466   105.466   0.2% |
  Multipole moments:                         9.966     9.966   0.0% |
  Pseudo density:                          105.752   105.592   0.2% |
   Symmetrize density:                       0.160     0.160   0.0% |
 Hamiltonian:                            36140.728     0.883   0.0% |
  Atomic:                                    1.836     1.818   0.0% |
   XC Correction:                            0.018     0.018   0.0% |
  Calculate atomic Hamiltonians:             2.843     2.843   0.0% |
  Communicate:                             513.307   513.307   1.0% |
  Hartree integrate/restrict:              127.220   127.220   0.2% |
  Poisson:                                1720.268   631.095   1.2% |
   Communicate from 1D:                    168.932   168.932   0.3% |
   Communicate from 2D:                    171.735   171.735   0.3% |
   Communicate to 1D:                       96.142    96.142   0.2% |
   Communicate to 2D:                      200.199   200.199   0.4% |
   FFT 1D:                                 226.671   226.671   0.4% |
   FFT 2D:                                 225.495   225.495   0.4% |
  XC 3D grid:                            33746.777  5062.583   9.4% |---|
   VdW-DF integral:                      28684.194   241.794   0.5% |
    Convolution:                          2676.840  2676.840   5.0% |-|
    FFT:                                  1137.266  1137.266   2.1% ||
    gather:                              10019.109 10019.109  18.7% |------|
    hmm1:                                  950.603   950.603   1.8% ||
    hmm2:                                 1236.975  1236.975   2.3% ||
    iFFT:                                 1179.025  1179.025   2.2% ||
    potential:                           11242.529   306.770   0.6% |
     collect:                             1740.640  1740.640   3.2% ||
     p1:                                  5078.713  5078.713   9.5% |---|
     p2:                                  1879.665  1879.665   3.5% ||
     sum:                                 2236.742  2236.742   4.2% |-|
    splines:                                 0.052     0.052   0.0% |
  vbar:                                     27.594    27.594   0.1% |
 Orthonormalize:                            44.710     0.031   0.0% |
  calc_s_matrix:                             6.630     6.630   0.0% |
  inverse-cholesky:                         12.701    12.701   0.0% |
  projections:                               0.005     0.005   0.0% |
  rotate_psi_s:                             25.343    25.343   0.0% |
Set symmetry:                                0.008     0.008   0.0% |
Other:                                     243.513   243.513   0.5% |
-------------------------------------------------------------------
Total:                                             53648.811 100.0%

Memory usage: 1.13 GiB
Date: Sat Mar 11 00:57:33 2023
