
  ___ ___ ___ _ _ _  
 |   |   |_  | | | | 
 | | | | | . | | | | 
 |__ |  _|___|_____|  22.8.0
 |___|_|             

User:   vazumah@d005
Date:   Sat Mar 11 16:32:36 2023
Arch:   x86_64
Pid:    14040
CWD:    /home/vazumah/Research_Projects/LiMEAS/LiNRR_proton_donors/N2_with_proton_donor/Li_BCC_100/adsorbates/CH3CH2OH_z/bridge/8.085_1.617/N2_y/barrier/9.61_1.43_15.59
Python: 3.10.6
gpaw:   /home/vazumah/anaconda3/envs/NAME/lib/python3.10/site-packages/gpaw
_gpaw:  /home/vazumah/anaconda3/envs/NAME/lib/python3.10/site-packages/
        _gpaw.cpython-310-x86_64-linux-gnu.so
ase:    /home/vazumah/anaconda3/envs/NAME/lib/python3.10/site-packages/ase (version 3.22.1)
numpy:  /home/vazumah/anaconda3/envs/NAME/lib/python3.10/site-packages/numpy (version 1.23.3)
scipy:  /home/vazumah/anaconda3/envs/NAME/lib/python3.10/site-packages/scipy (version 1.9.1)
libxc:  5.2.3
units:  Angstrom and eV
cores: 32
OpenMP: True
OMP_NUM_THREADS: 1

Reading from output.gpw
Reading input parameters:
  h: 0.16
  kpts: {size: [4, 4, 1]}
  occupations: {name: fermi-dirac,
                width: 0.05}
  poissonsolver: {dipolelayer: xy}
  xc: BEEF-vdW

Initialize ...

species:
  Li:
    name: Lithium
    id: 830b4218f175192f93f959cfc0aad614
    Z: 3.0
    valence: 1
    core: 2
    charge: 0.0
    file: /home/vazumah/anaconda3/envs/NAME/share/gpaw/Li.PBE.gz
    compensation charges: {type: gauss,
                           rc: 0.33,
                           lmax: 2}
    cutoffs: {filter: 1.91,
              core: 2.55}
    valence states:
      #              energy  rcut
      - 2s(1.00)    -2.874   1.058
      - 2p(0.00)    -1.090   1.058
      -  s          24.337   1.058
  
    # Using partial waves for Li as LCAO basis

  O:
    name: Oxygen
    id: 32ecd46bf208036f09c70b0ec9a88b78
    Z: 8.0
    valence: 6
    core: 2
    charge: 0.0
    file: /home/vazumah/anaconda3/envs/NAME/share/gpaw/O.PBE.gz
    compensation charges: {type: gauss,
                           rc: 0.21,
                           lmax: 2}
    cutoffs: {filter: 1.17,
              core: 0.83}
    valence states:
      #              energy  rcut
      - 2s(2.00)   -23.961   0.688
      - 2p(4.00)    -9.029   0.598
      -  s           3.251   0.688
      -  p          18.182   0.598
      -  d           0.000   0.619
  
    # Using partial waves for O as LCAO basis

  C:
    name: Carbon
    id: 4aa54d4b901d75f77cc0ea3eec22967b
    Z: 6.0
    valence: 4
    core: 2
    charge: 0.0
    file: /home/vazumah/anaconda3/envs/NAME/share/gpaw/C.PBE.gz
    compensation charges: {type: gauss,
                           rc: 0.20,
                           lmax: 2}
    cutoffs: {filter: 1.14,
              core: 1.14}
    valence states:
      #              energy  rcut
      - 2s(2.00)   -13.751   0.635
      - 2p(2.00)    -5.284   0.635
      -  s          13.461   0.635
      -  p          21.927   0.635
      -  d           0.000   0.635
  
    # Using partial waves for C as LCAO basis

  H:
    name: Hydrogen
    id: d65de229564ff8ea4db303e23b6d1ecf
    Z: 1.0
    valence: 1
    core: 0
    charge: 0.0
    file: /home/vazumah/anaconda3/envs/NAME/share/gpaw/H.PBE.gz
    compensation charges: {type: gauss,
                           rc: 0.15,
                           lmax: 2}
    cutoffs: {filter: 0.85,
              core: 0.53}
    valence states:
      #              energy  rcut
      - 1s(1.00)    -6.494   0.476
      -  s          20.717   0.476
      -  p           0.000   0.476
  
    # Using partial waves for H as LCAO basis

  N:
    name: Nitrogen
    id: f7500608b86eaa90eef8b1d9a670dc53
    Z: 7.0
    valence: 5
    core: 2
    charge: 0.0
    file: /home/vazumah/anaconda3/envs/NAME/share/gpaw/N.PBE.gz
    compensation charges: {type: gauss,
                           rc: 0.18,
                           lmax: 2}
    cutoffs: {filter: 1.11,
              core: 0.96}
    valence states:
      #              energy  rcut
      - 2s(2.00)   -18.583   0.603
      - 2p(3.00)    -7.089   0.529
      -  s           8.629   0.603
      -  p          20.123   0.529
      -  d           0.000   0.577
  
    # Using partial waves for N as LCAO basis

Reference energy: -14434.854043  # eV

Spin-paired calculation

Convergence criteria:
 Maximum [total energy] change in last 3 cyles: 0.0005 eV / electron
 Maximum integral of absolute [dens]ity change: 0.0001 electrons / valence electron
 Maximum integral of absolute [eigenst]ate change: 4e-08 eV^2 / valence electron
 Maximum number of scf [iter]ations: 333
 (Square brackets indicate name in SCF output, whereas a 'c' in
 the SCF output indicates the quantity has converged.)

Symmetries present (total): 1

  ( 1  0  0)
  ( 0  1  0)
  ( 0  0  1)

16 k-points: 4 x 4 x 1 Monkhorst-Pack grid
8 k-points in the irreducible part of the Brillouin zone
       k-points in crystal coordinates                weights
   0:     0.12500000   -0.37500000    0.00000000          2/16
   1:     0.12500000   -0.12500000    0.00000000          2/16
   2:     0.12500000    0.12500000    0.00000000          2/16
   3:     0.12500000    0.37500000    0.00000000          2/16
   4:     0.37500000   -0.37500000    0.00000000          2/16
   5:     0.37500000   -0.12500000    0.00000000          2/16
   6:     0.37500000    0.12500000    0.00000000          2/16
   7:     0.37500000    0.37500000    0.00000000          2/16

Wave functions: Uniform real-space grid
  Kinetic energy operator: 6*3+1=19 point O(h^6) finite-difference Laplacian
  ScaLapack parameters: grid=1x1, blocksize=None
  Wavefunction extrapolation:
    Improved wavefunction reuse through dual PAW basis 

Occupation numbers: Fermi-Dirac:
  width: 0.0500  # eV
 

Eigensolver
   Davidson(niter=2) 

Densities:
  Coarse grid: 60*60*156 grid
  Fine grid: 120*120*312 grid
  Total Charge: 0.000000 

Density mixing:
  Method: separate
  Backend: pulay
  Linear mixing parameter: 0.05
  old densities: 5
  Damping of long wavelength oscillations: 50 

Hamiltonian:
  XC and Coulomb potentials evaluated on a 120*120*312 grid
  Using the BEEF-vdW Exchange-Correlation functional
  Interpolation: tri-quintic (5. degree polynomial)
  Poisson solver: FastPoissonSolver using
    Stencil: 6*3+1=19 point O(h^6) finite-difference Laplacian
    FFT axes: [0, 1]
    FST axes: [2]

Dipole correction along z-axis 

XC parameters: BEEF-vdW with 2 nearest neighbor stencil

Memory estimate:
  Process memory now: 213.84 MiB
  Calculator: 307.36 MiB
    Density: 88.33 MiB
      Arrays: 27.47 MiB
      Localized functions: 50.43 MiB
      Mixer: 10.44 MiB
    Hamiltonian: 21.95 MiB
      Arrays: 17.96 MiB
      XC: 0.00 MiB
      Poisson: 0.00 MiB
      vbar: 3.99 MiB
    Wavefunctions: 197.08 MiB
      Arrays psit_nG: 91.85 MiB
      Eigensolver: 102.58 MiB
      Projections: 0.05 MiB
      Projectors: 2.60 MiB

Total number of cores used: 32
Parallelization over k-points: 8
Domain decomposition: 1 x 1 x 4

Number of atoms: 47
Number of atomic orbitals: 170
Number of bands in calculation: 44
Number of valence electrons: 66
Bands to converge: occupied

... initialized

Initializing position-dependent things.

Creating initial wave functions:
  44 bands from LCAO basis set

       .-----------------------.  
      /|                       |  
     / |                       |  
    /  |                       |  
   /   |                       |  
  /    |                       |  
 *     |                       |  
 |     |                       |  
 |     |                       |  
 |     |                       |  
 |     |            HHC  H     |  
 |     |                       |  
 |     |              C O      Li 
 |     |            H   H      |  
 |   Li|     Li      Li        |  
 |     |  Li      Li     Lii   |  
 |     |   Li     Li           |  
 |     |Li      LiLi  NNLi     |  
 |  Li | Li                    |  
 |   Li|     LLi     LLi       |  
 |     |  Li      Li      Li   |  
 | Li  |   Li      Li          |  
 |     |Li      Li      Li     |  
 Li    | Li      Li            |  
 |    Li      Li      Li       |  
 |     |                       |  
 |     |                       |  
 |     |                       |  
 |     |                       |  
 |     |                       |  
 |     |                       |  
 |     .-----------------------.  
 |    /                       /   
 |   /                       /    
 |  /                       /     
 | /                       /      
 |/                       /       
 *-----------------------*        

Positions:
   0 Li     1.617037    1.617037   10.000000    ( 0.0000,  0.0000,  0.0000)
   1 Li     4.851111    1.617037   10.000000    ( 0.0000,  0.0000,  0.0000)
   2 Li     8.085185    1.617037   10.000000    ( 0.0000,  0.0000,  0.0000)
   3 Li     1.617037    4.851111   10.000000    ( 0.0000,  0.0000,  0.0000)
   4 Li     4.851111    4.851111   10.000000    ( 0.0000,  0.0000,  0.0000)
   5 Li     8.085185    4.851111   10.000000    ( 0.0000,  0.0000,  0.0000)
   6 Li     1.617037    8.085185   10.000000    ( 0.0000,  0.0000,  0.0000)
   7 Li     4.851111    8.085185   10.000000    ( 0.0000,  0.0000,  0.0000)
   8 Li     8.085185    8.085185   10.000000    ( 0.0000,  0.0000,  0.0000)
   9 Li     0.000000    0.000000   11.617037    ( 0.0000,  0.0000,  0.0000)
  10 Li     3.234074    0.000000   11.617037    ( 0.0000,  0.0000,  0.0000)
  11 Li     6.468148    0.000000   11.617037    ( 0.0000,  0.0000,  0.0000)
  12 Li     0.000000    3.234074   11.617037    ( 0.0000,  0.0000,  0.0000)
  13 Li     3.234074    3.234074   11.617037    ( 0.0000,  0.0000,  0.0000)
  14 Li     6.468148    3.234074   11.617037    ( 0.0000,  0.0000,  0.0000)
  15 Li     0.000000    6.468148   11.617037    ( 0.0000,  0.0000,  0.0000)
  16 Li     3.234074    6.468148   11.617037    ( 0.0000,  0.0000,  0.0000)
  17 Li     6.468148    6.468148   11.617037    ( 0.0000,  0.0000,  0.0000)
  18 Li     0.872380    1.769850   14.083642    ( 0.0000,  0.0000,  0.0000)
  19 Li     4.775756    1.687749   13.507142    ( 0.0000,  0.0000,  0.0000)
  20 Li     7.946889    1.476266   13.364243    ( 0.0000,  0.0000,  0.0000)
  21 Li     1.629919    4.856437   13.485046    ( 0.0000,  0.0000,  0.0000)
  22 Li     4.841838    4.976965   13.513997    ( 0.0000,  0.0000,  0.0000)
  23 Li     8.227037    4.122890   14.046929    ( 0.0000,  0.0000,  0.0000)
  24 Li     1.734602    8.076903   13.519382    ( 0.0000,  0.0000,  0.0000)
  25 Li     4.964345    8.198105   13.545794    ( 0.0000,  0.0000,  0.0000)
  26 Li     8.147323    8.006671   13.506123    ( 0.0000,  0.0000,  0.0000)
  27 Li    -0.036747   -0.217556   15.480631    ( 0.0000,  0.0000,  0.0000)
  28 Li     3.390905    0.064155   15.499668    ( 0.0000,  0.0000,  0.0000)
  29 Li     6.929737    0.503997   15.560075    ( 0.0000,  0.0000,  0.0000)
  30 Li    -0.566484    2.761177   16.571826    ( 0.0000,  0.0000,  0.0000)
  31 Li     3.094234    3.384004   15.504916    ( 0.0000,  0.0000,  0.0000)
  32 Li     6.226600    3.246307   15.475461    ( 0.0000,  0.0000,  0.0000)
  33 Li     0.141549    6.299519   15.484364    ( 0.0000,  0.0000,  0.0000)
  34 Li     3.286591    6.517385   15.496806    ( 0.0000,  0.0000,  0.0000)
  35 Li     6.531675    6.614738   15.498852    ( 0.0000,  0.0000,  0.0000)
  36 O      8.457279    2.554586   18.437035    ( 0.0000,  0.0000,  0.0000)
  37 C      8.312134    1.281434   19.118384    ( 0.0000,  0.0000,  0.0000)
  38 C      8.166977    1.468486   20.620824    ( 0.0000,  0.0000,  0.0000)
  39 H      7.464226    0.738640   18.681150    ( 0.0000,  0.0000,  0.0000)
  40 H      9.224421    0.731130   18.875518    ( 0.0000,  0.0000,  0.0000)
  41 H      8.103136    0.494956   21.115372    ( 0.0000,  0.0000,  0.0000)
  42 H      9.034447    2.002254   21.016275    ( 0.0000,  0.0000,  0.0000)
  43 H      7.265527    2.043570   20.859087    ( 0.0000,  0.0000,  0.0000)
  44 H      7.639782    3.060707   18.550591    ( 0.0000,  0.0000,  0.0000)
  45 N      8.743939    1.352690   15.182095    ( 0.0000,  0.0000,  0.0000)
  46 N      7.784675    2.301693   15.162770    ( 0.0000,  0.0000,  0.0000)

Unit cell:
           periodic     x           y           z      points  spacing
  1. axis:    yes    9.702222    0.000000    0.000000    60     0.1617
  2. axis:    yes    0.000000    9.702222    0.000000    60     0.1617
  3. axis:    no     0.000000    0.000000   24.851111   156     0.1593

  Lengths:   9.702222   9.702222  24.851111
  Angles:   90.000000  90.000000  90.000000

Effective grid spacing dv^(1/3) = 0.1609

     iter     time        total  log10-change:
                         energy  eigst   dens
iter:   1 16:33:32  -309.202832  +1.06
iter:   2 16:34:12  -309.818249  +0.38  -1.70
iter:   3 16:34:48  -309.970470  -0.10  -1.96
iter:   4 16:35:28  -310.030850  -0.47  -2.20
Writing to output.gpw (mode='')

iter:   5 16:36:04  -310.060305  -0.77  -2.41
iter:   6 16:36:42  -310.075927  -1.05  -2.53
iter:   7 16:37:19  -310.084345c -1.31  -2.62
iter:   8 16:37:55  -310.090004c -1.49  -2.93
iter:   9 16:38:36  -310.093725c -1.69  -3.07
Writing to output.gpw (mode='')

iter:  10 16:39:12  -310.096384c -1.82  -3.13
iter:  11 16:39:50  -310.098443c -1.99  -3.14
iter:  12 16:40:34  -310.099666c -2.18  -3.16
iter:  13 16:41:15  -310.100658c -2.27  -3.36
iter:  14 16:42:09  -310.101434c -2.44  -3.43
Writing to output.gpw (mode='')

iter:  15 16:43:08  -310.101968c -2.58  -3.44
iter:  16 16:44:04  -310.102412c -2.65  -3.59
iter:  17 16:44:51  -310.102695c -2.85  -3.52
iter:  18 16:45:32  -310.102891c -2.91  -3.49
iter:  19 16:46:12  -310.103102c -3.19  -3.42
Writing to output.gpw (mode='')

iter:  20 16:46:51  -310.103191c -3.29  -3.26
iter:  21 16:47:30  -310.103276c -3.44  -3.30
iter:  22 16:48:09  -310.103363c -3.45  -3.26
iter:  23 16:48:49  -310.103407c -3.59  -3.24
iter:  24 16:49:28  -310.103485c -3.61  -3.25
Writing to output.gpw (mode='')

iter:  25 16:50:07  -310.103581c -3.72  -3.20
iter:  26 16:50:46  -310.103411c -4.07  -3.13
iter:  27 16:51:25  -310.103409c -4.10  -3.35
iter:  28 16:52:07  -310.103482c -4.16  -3.36
iter:  29 16:52:48  -310.103455c -4.38  -3.24
Writing to output.gpw (mode='')

iter:  30 16:53:29  -310.103417c -4.08  -3.29
iter:  31 16:54:08  -310.103424c -4.54  -3.46
iter:  32 16:54:47  -310.103449c -4.33  -3.44
iter:  33 16:55:26  -310.103479c -4.37  -3.52
iter:  34 16:56:04  -310.103488c -4.59  -3.66
Writing to output.gpw (mode='')

iter:  35 16:56:45  -310.103499c -4.65  -3.63
iter:  36 16:57:24  -310.103494c -4.97  -3.62
iter:  37 16:58:06  -310.103466c -5.19  -3.65
iter:  38 16:58:46  -310.103483c -5.29  -3.72
iter:  39 16:59:23  -310.103470c -5.56  -3.65
Writing to output.gpw (mode='')

iter:  40 17:00:05  -310.103438c -4.87  -3.70
iter:  41 17:00:45  -310.103443c -5.19  -3.88
iter:  42 17:01:26  -310.103440c -5.50  -4.01c
iter:  43 17:02:12  -310.103439c -5.43  -4.08c
iter:  44 17:02:48  -310.103448c -5.51  -4.18c
Writing to output.gpw (mode='')

iter:  45 17:03:30  -310.103457c -5.67  -4.28c
iter:  46 17:04:06  -310.103458c -5.99  -4.36c
iter:  47 17:04:43  -310.103456c -6.20  -4.37c
iter:  48 17:05:19  -310.103461c -6.18  -4.42c
iter:  49 17:05:55  -310.103464c -6.17  -4.65c
Writing to output.gpw (mode='')

iter:  50 17:06:32  -310.103463c -6.29  -4.59c
iter:  51 17:07:22  -310.103462c -6.50  -4.75c
iter:  52 17:08:10  -310.103461c -6.54  -4.81c
iter:  53 17:08:58  -310.103459c -6.49  -4.95c
iter:  54 17:10:21  -310.103461c -6.73  -5.20c
Writing to output.gpw (mode='')

iter:  55 17:11:40  -310.103460c -6.97  -5.19c
iter:  56 17:12:30  -310.103460c -7.09  -5.19c
iter:  57 17:13:29  -310.103461c -7.07  -5.15c
iter:  58 17:14:37  -310.103461c -7.18  -5.27c
iter:  59 17:15:52  -310.103461c -7.19  -5.30c
Writing to output.gpw (mode='')

iter:  60 17:16:59  -310.103461c -7.34  -5.30c
iter:  61 17:18:07  -310.103461c -7.39  -5.29c
iter:  62 17:19:48  -310.103461c -7.58c -5.28c

Converged after 62 iterations.

Dipole moment: (1.371489, -5.476992, 0.404359) |e|*Ang

Energy contributions relative to reference atoms: (reference = -14434.854043)

Kinetic:       +143.599645
Potential:     -136.291556
External:        +0.000000
XC:            -318.120654
Entropy (-ST):   -0.154603
Local:           +0.786404
--------------------------
Free energy:   -310.180763
Extrapolated:  -310.103461

Dipole-layer corrected work functions: 3.385194, 2.607877 eV

Showing only first 2 kpts
 Kpt  Band  Eigenvalues  Occupancy
  0    31     -3.15970    1.92629
  0    32     -3.06308    1.58196
  0    33     -2.95799    0.63260
  0    34     -2.86097    0.12463

  1    31     -3.25561    1.98882
  1    32     -3.12235    1.85055
  1    33     -2.93641    0.46205
  1    34     -2.89387    0.22744


Fermi level: -2.99654

No gap
Writing to output.gpw (mode='')


Forces in eV/Ang:
  0 Li   -0.01950   -0.00817   -0.32601
  1 Li    0.03242    0.00478   -0.28122
  2 Li    0.00176    0.00122   -0.23336
  3 Li    0.01282    0.01410   -0.30213
  4 Li   -0.02391   -0.00714   -0.28086
  5 Li   -0.00774   -0.01909   -0.32179
  6 Li   -0.00684   -0.02469   -0.28241
  7 Li   -0.00922   -0.00973   -0.26512
  8 Li    0.00567    0.03161   -0.28315
  9 Li    0.04146    0.00636    0.32016
 10 Li   -0.07199    0.08722    0.35636
 11 Li   -0.07376   -0.07168    0.14192
 12 Li    0.04058    0.03280    0.10813
 13 Li   -0.09524   -0.03474    0.38015
 14 Li    0.00126    0.03941    0.31227
 15 Li   -0.03329   -0.10032    0.38192
 16 Li    0.05064    0.05629    0.27856
 17 Li    0.08651   -0.07389    0.35037
 18 Li    0.03582    0.00815    0.02151
 19 Li   -0.00351   -0.01436   -0.00126
 20 Li   -0.00915   -0.01644   -0.05850
 21 Li    0.00915    0.00506   -0.02442
 22 Li   -0.00847   -0.00403   -0.00255
 23 Li   -0.02144    0.03044    0.02869
 24 Li   -0.00944    0.00065    0.00815
 25 Li    0.00531    0.00895    0.00113
 26 Li   -0.01322   -0.00180   -0.00205
 27 Li    0.02402   -0.02837    0.01025
 28 Li   -0.01628    0.00257    0.00540
 29 Li   -0.01429   -0.02747   -0.01610
 30 Li    0.03672    0.01590    0.01576
 31 Li   -0.00702   -0.01130   -0.00488
 32 Li    0.01843   -0.00984   -0.01597
 33 Li   -0.00981    0.02005    0.00135
 34 Li    0.01333    0.01370   -0.00230
 35 Li    0.00420   -0.01217    0.01064
 36 O     0.07218    0.03494   -0.08567
 37 C     0.05458    0.03622   -0.02384
 38 C     0.01519    0.00242   -0.06051
 39 H    -0.00192   -0.00836    0.10658
 40 H    -0.03936    0.01047    0.00839
 41 H    -0.04910    0.05189   -0.00894
 42 H    -0.04799   -0.01792    0.00546
 43 H     0.05047   -0.08891    0.00806
 44 H    -0.00523    0.00467   -0.00019
 45 N    -0.09622    0.04432    0.04025
 46 N     0.03337   -0.00990    0.02663

System changes: positions 

Initializing position-dependent things.

Density initialized from wave functions
       .-----------------------.  
      /|                       |  
     / |                       |  
    /  |                       |  
   /   |                       |  
  /    |                       |  
 *     |                       |  
 |     |                       |  
 |     |                       |  
 |     |                       |  
 |     |            HHC  H     |  
 |     |                       |  
 |     |              CO       Li 
 |     |            H   H      |  
 |   Li|     Li      Li        |  
 |     |  Li      Li     Lii   |  
 |     |   Li     Li           |  
 |     |Li      LiLi  NNLi     |  
 |  Li | Li                    |  
 |   Li|     LLi     LLi       |  
 |     |  Li      Li      Li   |  
 | Li  |   Li      Li          |  
 |     |Li      Li      Li     |  
 Li    | Li      Li            |  
 |    Li      Li      Li       |  
 |     |                       |  
 |     |                       |  
 |     |                       |  
 |     |                       |  
 |     |                       |  
 |     |                       |  
 |     .-----------------------.  
 |    /                       /   
 |   /                       /    
 |  /                       /     
 | /                       /      
 |/                       /       
 *-----------------------*        

Positions:
   0 Li     1.617037    1.617037   10.000000    ( 0.0000,  0.0000,  0.0000)
   1 Li     4.851111    1.617037   10.000000    ( 0.0000,  0.0000,  0.0000)
   2 Li     8.085185    1.617037   10.000000    ( 0.0000,  0.0000,  0.0000)
   3 Li     1.617037    4.851111   10.000000    ( 0.0000,  0.0000,  0.0000)
   4 Li     4.851111    4.851111   10.000000    ( 0.0000,  0.0000,  0.0000)
   5 Li     8.085185    4.851111   10.000000    ( 0.0000,  0.0000,  0.0000)
   6 Li     1.617037    8.085185   10.000000    ( 0.0000,  0.0000,  0.0000)
   7 Li     4.851111    8.085185   10.000000    ( 0.0000,  0.0000,  0.0000)
   8 Li     8.085185    8.085185   10.000000    ( 0.0000,  0.0000,  0.0000)
   9 Li     0.000000    0.000000   11.617037    ( 0.0000,  0.0000,  0.0000)
  10 Li     3.234074    0.000000   11.617037    ( 0.0000,  0.0000,  0.0000)
  11 Li     6.468148    0.000000   11.617037    ( 0.0000,  0.0000,  0.0000)
  12 Li     0.000000    3.234074   11.617037    ( 0.0000,  0.0000,  0.0000)
  13 Li     3.234074    3.234074   11.617037    ( 0.0000,  0.0000,  0.0000)
  14 Li     6.468148    3.234074   11.617037    ( 0.0000,  0.0000,  0.0000)
  15 Li     0.000000    6.468148   11.617037    ( 0.0000,  0.0000,  0.0000)
  16 Li     3.234074    6.468148   11.617037    ( 0.0000,  0.0000,  0.0000)
  17 Li     6.468148    6.468148   11.617037    ( 0.0000,  0.0000,  0.0000)
  18 Li     0.871538    1.772217   14.091959    ( 0.0000,  0.0000,  0.0000)
  19 Li     4.770927    1.685305   13.505791    ( 0.0000,  0.0000,  0.0000)
  20 Li     7.949456    1.479060   13.363529    ( 0.0000,  0.0000,  0.0000)
  21 Li     1.630739    4.858701   13.481348    ( 0.0000,  0.0000,  0.0000)
  22 Li     4.838396    4.976916   13.512888    ( 0.0000,  0.0000,  0.0000)
  23 Li     8.227753    4.122073   14.057006    ( 0.0000,  0.0000,  0.0000)
  24 Li     1.732595    8.076003   13.519613    ( 0.0000,  0.0000,  0.0000)
  25 Li     4.966448    8.200996   13.548890    ( 0.0000,  0.0000,  0.0000)
  26 Li     8.146207    8.003133   13.505201    ( 0.0000,  0.0000,  0.0000)
  27 Li    -0.038885   -0.220081   15.480302    ( 0.0000,  0.0000,  0.0000)
  28 Li     3.384279    0.066799   15.500470    ( 0.0000,  0.0000,  0.0000)
  29 Li     6.928049    0.503116   15.558198    ( 0.0000,  0.0000,  0.0000)
  30 Li    -0.567236    2.757009   16.577625    ( 0.0000,  0.0000,  0.0000)
  31 Li     3.089613    3.385201   15.505635    ( 0.0000,  0.0000,  0.0000)
  32 Li     6.224169    3.242775   15.470644    ( 0.0000,  0.0000,  0.0000)
  33 Li     0.142544    6.299360   15.486654    ( 0.0000,  0.0000,  0.0000)
  34 Li     3.287721    6.519834   15.494045    ( 0.0000,  0.0000,  0.0000)
  35 Li     6.534269    6.611316   15.499684    ( 0.0000,  0.0000,  0.0000)
  36 O      8.451950    2.547805   18.435814    ( 0.0000,  0.0000,  0.0000)
  37 C      8.309350    1.277286   19.123772    ( 0.0000,  0.0000,  0.0000)
  38 C      8.168227    1.466784   20.625510    ( 0.0000,  0.0000,  0.0000)
  39 H      7.458499    0.732316   18.696177    ( 0.0000,  0.0000,  0.0000)
  40 H      9.219559    0.724951   18.879852    ( 0.0000,  0.0000,  0.0000)
  41 H      8.100273    0.494314   21.120877    ( 0.0000,  0.0000,  0.0000)
  42 H      9.036375    1.997668   21.021575    ( 0.0000,  0.0000,  0.0000)
  43 H      7.269007    2.042544   20.866515    ( 0.0000,  0.0000,  0.0000)
  44 H      7.633950    3.053649   18.549300    ( 0.0000,  0.0000,  0.0000)
  45 N      8.742492    1.353026   15.183287    ( 0.0000,  0.0000,  0.0000)
  46 N      7.784479    2.302403   15.163885    ( 0.0000,  0.0000,  0.0000)

Unit cell:
           periodic     x           y           z      points  spacing
  1. axis:    yes    9.702222    0.000000    0.000000    60     0.1617
  2. axis:    yes    0.000000    9.702222    0.000000    60     0.1617
  3. axis:    no     0.000000    0.000000   24.851111   156     0.1593

  Lengths:   9.702222   9.702222  24.851111
  Angles:   90.000000  90.000000  90.000000

Effective grid spacing dv^(1/3) = 0.1609

     iter     time        total  log10-change:
                         energy  eigst   dens
iter:   1 17:23:22  -310.112446  -1.68
iter:   2 17:26:37  -310.107199  -2.43  -2.19
iter:   3 17:29:53  -310.106640c -3.10  -2.47
iter:   4 17:33:40  -310.105931c -3.50  -2.62
Writing to output.gpw (mode='')

iter:   5 17:36:23  -310.105441c -3.40  -2.79
iter:   6 17:39:21  -310.105177c -3.15  -2.95
iter:   7 17:41:36  -310.105203c -3.52  -3.15
iter:   8 17:43:49  -310.105282c -3.86  -3.32
iter:   9 17:46:43  -310.105289c -4.28  -3.43
Writing to output.gpw (mode='')

iter:  10 17:51:06  -310.105246c -4.37  -3.50
iter:  11 17:56:48  -310.105253c -4.97  -3.62
iter:  12 18:00:44  -310.105252c -5.05  -3.69
iter:  13 18:05:14  -310.105257c -5.31  -3.85
iter:  14 18:10:10  -310.105245c -5.34  -3.92
Writing to output.gpw (mode='')

iter:  15 18:14:15  -310.105252c -5.33  -4.18c
iter:  16 18:17:36  -310.105255c -5.88  -4.24c
iter:  17 18:22:50  -310.105254c -6.09  -4.34c
iter:  18 18:29:09  -310.105254c -6.14  -4.43c
