
  ___ ___ ___ _ _ _  
 |   |   |_  | | | | 
 | | | | | . | | | | 
 |__ |  _|___|_____|  22.8.0
 |___|_|             

User:   vazumah@f002
Date:   Wed Mar  1 08:10:25 2023
Arch:   x86_64
Pid:    57050
CWD:    /home/vazumah/Research_Projects/LiMEAS/LiNRR_proton_donors/N2_with_proton_donor/Li_BCC_100/adsorbates/CH3CH2OH_z/bridge/8.085_1.617/N2_y/1.8_diag
Python: 3.10.6
gpaw:   /home/vazumah/anaconda3/envs/NAME/lib/python3.10/site-packages/gpaw
_gpaw:  /home/vazumah/anaconda3/envs/NAME/lib/python3.10/site-packages/
        _gpaw.cpython-310-x86_64-linux-gnu.so
ase:    /home/vazumah/anaconda3/envs/NAME/lib/python3.10/site-packages/ase (version 3.22.1)
numpy:  /home/vazumah/anaconda3/envs/NAME/lib/python3.10/site-packages/numpy (version 1.23.3)
scipy:  /home/vazumah/anaconda3/envs/NAME/lib/python3.10/site-packages/scipy (version 1.9.1)
libxc:  5.2.3
units:  Angstrom and eV
cores: 32
OpenMP: True
OMP_NUM_THREADS: 1

Input parameters:
  h: 0.16
  kpts: {size: [4, 4, 1]}
  occupations: {name: fermi-dirac,
                width: 0.05}
  poissonsolver: {dipolelayer: xy}
  xc: BEEF-vdW

System changes: positions, numbers, cell, pbc, initial_charges, initial_magmoms 

Initialize ...

species:
  Li:
    name: Lithium
    id: 830b4218f175192f93f959cfc0aad614
    Z: 3.0
    valence: 1
    core: 2
    charge: 0.0
    file: /home/vazumah/anaconda3/envs/NAME/share/gpaw/Li.PBE.gz
    compensation charges: {type: gauss,
                           rc: 0.33,
                           lmax: 2}
    cutoffs: {filter: 1.91,
              core: 2.55}
    valence states:
      #              energy  rcut
      - 2s(1.00)    -2.874   1.058
      - 2p(0.00)    -1.090   1.058
      -  s          24.337   1.058
  
    # Using partial waves for Li as LCAO basis

  O:
    name: Oxygen
    id: 32ecd46bf208036f09c70b0ec9a88b78
    Z: 8.0
    valence: 6
    core: 2
    charge: 0.0
    file: /home/vazumah/anaconda3/envs/NAME/share/gpaw/O.PBE.gz
    compensation charges: {type: gauss,
                           rc: 0.21,
                           lmax: 2}
    cutoffs: {filter: 1.17,
              core: 0.83}
    valence states:
      #              energy  rcut
      - 2s(2.00)   -23.961   0.688
      - 2p(4.00)    -9.029   0.598
      -  s           3.251   0.688
      -  p          18.182   0.598
      -  d           0.000   0.619
  
    # Using partial waves for O as LCAO basis

  C:
    name: Carbon
    id: 4aa54d4b901d75f77cc0ea3eec22967b
    Z: 6.0
    valence: 4
    core: 2
    charge: 0.0
    file: /home/vazumah/anaconda3/envs/NAME/share/gpaw/C.PBE.gz
    compensation charges: {type: gauss,
                           rc: 0.20,
                           lmax: 2}
    cutoffs: {filter: 1.14,
              core: 1.14}
    valence states:
      #              energy  rcut
      - 2s(2.00)   -13.751   0.635
      - 2p(2.00)    -5.284   0.635
      -  s          13.461   0.635
      -  p          21.927   0.635
      -  d           0.000   0.635
  
    # Using partial waves for C as LCAO basis

  H:
    name: Hydrogen
    id: d65de229564ff8ea4db303e23b6d1ecf
    Z: 1.0
    valence: 1
    core: 0
    charge: 0.0
    file: /home/vazumah/anaconda3/envs/NAME/share/gpaw/H.PBE.gz
    compensation charges: {type: gauss,
                           rc: 0.15,
                           lmax: 2}
    cutoffs: {filter: 0.85,
              core: 0.53}
    valence states:
      #              energy  rcut
      - 1s(1.00)    -6.494   0.476
      -  s          20.717   0.476
      -  p           0.000   0.476
  
    # Using partial waves for H as LCAO basis

  N:
    name: Nitrogen
    id: f7500608b86eaa90eef8b1d9a670dc53
    Z: 7.0
    valence: 5
    core: 2
    charge: 0.0
    file: /home/vazumah/anaconda3/envs/NAME/share/gpaw/N.PBE.gz
    compensation charges: {type: gauss,
                           rc: 0.18,
                           lmax: 2}
    cutoffs: {filter: 1.11,
              core: 0.96}
    valence states:
      #              energy  rcut
      - 2s(2.00)   -18.583   0.603
      - 2p(3.00)    -7.089   0.529
      -  s           8.629   0.603
      -  p          20.123   0.529
      -  d           0.000   0.577
  
    # Using partial waves for N as LCAO basis

Reference energy: -14434.854043  # eV

Spin-paired calculation

Convergence criteria:
 Maximum [total energy] change in last 3 cyles: 0.0005 eV / electron
 Maximum integral of absolute [dens]ity change: 0.0001 electrons / valence electron
 Maximum integral of absolute [eigenst]ate change: 4e-08 eV^2 / valence electron
 Maximum number of scf [iter]ations: 333
 (Square brackets indicate name in SCF output, whereas a 'c' in
 the SCF output indicates the quantity has converged.)

Symmetries present (total): 1

  ( 1  0  0)
  ( 0  1  0)
  ( 0  0  1)

16 k-points: 4 x 4 x 1 Monkhorst-Pack grid
8 k-points in the irreducible part of the Brillouin zone
       k-points in crystal coordinates                weights
   0:     0.12500000   -0.37500000    0.00000000          2/16
   1:     0.12500000   -0.12500000    0.00000000          2/16
   2:     0.12500000    0.12500000    0.00000000          2/16
   3:     0.12500000    0.37500000    0.00000000          2/16
   4:     0.37500000   -0.37500000    0.00000000          2/16
   5:     0.37500000   -0.12500000    0.00000000          2/16
   6:     0.37500000    0.12500000    0.00000000          2/16
   7:     0.37500000    0.37500000    0.00000000          2/16

Wave functions: Uniform real-space grid
  Kinetic energy operator: 6*3+1=19 point O(h^6) finite-difference Laplacian
  ScaLapack parameters: grid=1x1, blocksize=None
  Wavefunction extrapolation:
    Improved wavefunction reuse through dual PAW basis 

Occupation numbers: Fermi-Dirac:
  width: 0.0500  # eV
 

Eigensolver
   Davidson(niter=2) 

Densities:
  Coarse grid: 60*60*156 grid
  Fine grid: 120*120*312 grid
  Total Charge: 0.000000 

Density mixing:
  Method: separate
  Backend: pulay
  Linear mixing parameter: 0.05
  old densities: 5
  Damping of long wavelength oscillations: 50 

Hamiltonian:
  XC and Coulomb potentials evaluated on a 120*120*312 grid
  Using the BEEF-vdW Exchange-Correlation functional
  Interpolation: tri-quintic (5. degree polynomial)
  Poisson solver: FastPoissonSolver using
    Stencil: 6*3+1=19 point O(h^6) finite-difference Laplacian
    FFT axes: [0, 1]
    FST axes: [2]

Dipole correction along z-axis 

XC parameters: BEEF-vdW with 2 nearest neighbor stencil

Memory estimate:
  Process memory now: 213.27 MiB
  Calculator: 307.36 MiB
    Density: 88.33 MiB
      Arrays: 27.47 MiB
      Localized functions: 50.43 MiB
      Mixer: 10.44 MiB
    Hamiltonian: 21.95 MiB
      Arrays: 17.96 MiB
      XC: 0.00 MiB
      Poisson: 0.00 MiB
      vbar: 3.99 MiB
    Wavefunctions: 197.08 MiB
      Arrays psit_nG: 91.85 MiB
      Eigensolver: 102.58 MiB
      Projections: 0.05 MiB
      Projectors: 2.60 MiB

Total number of cores used: 32
Parallelization over k-points: 8
Domain decomposition: 1 x 1 x 4

Number of atoms: 47
Number of atomic orbitals: 170
Number of bands in calculation: 44
Number of valence electrons: 66
Bands to converge: occupied

... initialized

Initializing position-dependent things.

Density initialized from atomic densities
Creating initial wave functions:
  44 bands from LCAO basis set

       .-----------------------.  
      /|                       |  
     / |                       |  
    /  |                       |  
   /   |                       |  
  /    |                       |  
 *     |                       |  
 |     |                       |  
 |     |                       |  
 |     |            H    H     |  
 |     |              H        |  
 |     |            H O        |  
 |     Li      Li  H  C H      |  
 |     |                       |  
 |   Li|     Li      Li        |  
 |     |  Li      Li      Li   |  
 |     |   Li      LiN    Li   |  
 |     |Li      LiLi   NLi     |  
 |     |                       |  
 |   LLi     LLi     LLi       |  
 |     |  Li      Li      Li   |  
 | Li  |   Li      Li          |  
 |     |Li      Li      Li     |  
 Li    | Li      Li            |  
 |    Li      Li      Li       |  
 |     |                       |  
 |     |                       |  
 |     |                       |  
 |     |                       |  
 |     |                       |  
 |     |                       |  
 |     .-----------------------.  
 |    /                       /   
 |   /                       /    
 |  /                       /     
 | /                       /      
 |/                       /       
 *-----------------------*        

Positions:
   0 Li     1.617037    1.617037   10.000000    ( 0.0000,  0.0000,  0.0000)
   1 Li     4.851111    1.617037   10.000000    ( 0.0000,  0.0000,  0.0000)
   2 Li     8.085185    1.617037   10.000000    ( 0.0000,  0.0000,  0.0000)
   3 Li     1.617037    4.851111   10.000000    ( 0.0000,  0.0000,  0.0000)
   4 Li     4.851111    4.851111   10.000000    ( 0.0000,  0.0000,  0.0000)
   5 Li     8.085185    4.851111   10.000000    ( 0.0000,  0.0000,  0.0000)
   6 Li     1.617037    8.085185   10.000000    ( 0.0000,  0.0000,  0.0000)
   7 Li     4.851111    8.085185   10.000000    ( 0.0000,  0.0000,  0.0000)
   8 Li     8.085185    8.085185   10.000000    ( 0.0000,  0.0000,  0.0000)
   9 Li     0.000000    0.000000   11.617037    ( 0.0000,  0.0000,  0.0000)
  10 Li     3.234074    0.000000   11.617037    ( 0.0000,  0.0000,  0.0000)
  11 Li     6.468148    0.000000   11.617037    ( 0.0000,  0.0000,  0.0000)
  12 Li     0.000000    3.234074   11.617037    ( 0.0000,  0.0000,  0.0000)
  13 Li     3.234074    3.234074   11.617037    ( 0.0000,  0.0000,  0.0000)
  14 Li     6.468148    3.234074   11.617037    ( 0.0000,  0.0000,  0.0000)
  15 Li     0.000000    6.468148   11.617037    ( 0.0000,  0.0000,  0.0000)
  16 Li     3.234074    6.468148   11.617037    ( 0.0000,  0.0000,  0.0000)
  17 Li     6.468148    6.468148   11.617037    ( 0.0000,  0.0000,  0.0000)
  18 Li     1.595509    1.594341   13.521113    ( 0.0000,  0.0000,  0.0000)
  19 Li     4.875757    1.669805   13.523007    ( 0.0000,  0.0000,  0.0000)
  20 Li     8.084601    1.619304   13.573205    ( 0.0000,  0.0000,  0.0000)
  21 Li     1.537970    4.787371   13.515473    ( 0.0000,  0.0000,  0.0000)
  22 Li     4.813147    4.877897   13.504320    ( 0.0000,  0.0000,  0.0000)
  23 Li     8.033336    4.828877   13.530236    ( 0.0000,  0.0000,  0.0000)
  24 Li     1.653345    8.047130   13.481953    ( 0.0000,  0.0000,  0.0000)
  25 Li     4.911990    8.143315   13.494306    ( 0.0000,  0.0000,  0.0000)
  26 Li     8.125773    8.099628   13.516332    ( 0.0000,  0.0000,  0.0000)
  27 Li     0.122820   -0.114585   15.486523    ( 0.0000,  0.0000,  0.0000)
  28 Li     3.369991   -0.045509   15.433870    ( 0.0000,  0.0000,  0.0000)
  29 Li     6.701148    0.204638   15.590293    ( 0.0000,  0.0000,  0.0000)
  30 Li    -0.305390    2.980364   15.691723    ( 0.0000,  0.0000,  0.0000)
  31 Li     3.083623    3.281383   15.463522    ( 0.0000,  0.0000,  0.0000)
  32 Li     6.319692    3.337664   15.554884    ( 0.0000,  0.0000,  0.0000)
  33 Li     0.047264    6.350009   15.456463    ( 0.0000,  0.0000,  0.0000)
  34 Li     3.243262    6.476191   15.445465    ( 0.0000,  0.0000,  0.0000)
  35 Li     6.419510    6.599247   15.450516    ( 0.0000,  0.0000,  0.0000)
  36 O      7.889996    2.545694   19.227444    ( 0.0000,  0.0000,  0.0000)
  37 C      8.020026    1.225021   19.777759    ( 0.0000,  0.0000,  0.0000)
  38 C      8.194501    1.224440   21.291760    ( 0.0000,  0.0000,  0.0000)
  39 H      7.159011    0.607327   19.488645    ( 0.0000,  0.0000,  0.0000)
  40 H      8.900117    0.803689   19.287345    ( 0.0000,  0.0000,  0.0000)
  41 H      8.352089    0.206024   21.656245    ( 0.0000,  0.0000,  0.0000)
  42 H      9.054614    1.831527   21.579376    ( 0.0000,  0.0000,  0.0000)
  43 H      7.307568    1.625626   21.791403    ( 0.0000,  0.0000,  0.0000)
  44 H      7.058133    2.920631   19.540742    ( 0.0000,  0.0000,  0.0000)
  45 N      7.577460    2.050534   15.591184    ( 0.0000,  0.0000,  0.0000)
  46 N      8.527623    1.128883   15.588956    ( 0.0000,  0.0000,  0.0000)

Unit cell:
           periodic     x           y           z      points  spacing
  1. axis:    yes    9.702222    0.000000    0.000000    60     0.1617
  2. axis:    yes    0.000000    9.702222    0.000000    60     0.1617
  3. axis:    no     0.000000    0.000000   24.851111   156     0.1593

  Lengths:   9.702222   9.702222  24.851111
  Angles:   90.000000  90.000000  90.000000

Effective grid spacing dv^(1/3) = 0.1609

     iter     time        total  log10-change:
                         energy  eigst   dens
iter:   1 08:11:16  -502.457086
iter:   2 08:11:49  -151.065676  +2.29  -0.08
iter:   3 08:12:22   -99.048991  +3.16  -0.23
iter:   4 08:12:51  -192.200208  +2.92  -0.24
Writing to output.gpw (mode='')

iter:   5 08:13:22  -213.324853  +2.68  -0.28
iter:   6 08:13:55  -261.128732  +2.51  -0.64
iter:   7 08:14:28  -302.584992  +2.39  -0.69
iter:   8 08:14:59  -322.656977  +2.18  -0.62
iter:   9 08:15:46  -354.272864  +2.25  -0.65
Writing to output.gpw (mode='')

iter:  10 08:16:19  -345.305475  +1.74  -0.60
iter:  11 08:16:52  -321.284165  +1.28  -0.57
iter:  12 08:17:24  -319.716600  +1.16  -0.81
iter:  13 08:17:57  -320.431745  +0.94  -0.73
iter:  14 08:18:29  -322.341883  +1.24  -0.70
Writing to output.gpw (mode='')

iter:  15 08:19:00  -315.554058  +0.44  -0.76
iter:  16 08:19:31  -314.732721  +0.95  -0.87
iter:  17 08:20:03  -313.859059  +0.35  -0.88
iter:  18 08:20:37  -312.289773  +0.16  -0.90
iter:  19 08:21:25  -311.657926  +0.24  -0.95
Writing to output.gpw (mode='')

iter:  20 08:21:58  -310.564018  +0.19  -1.00
iter:  21 08:22:31  -310.379560  +0.62  -1.12
iter:  22 08:23:04  -310.395445  +0.01  -1.14
iter:  23 08:23:37  -310.183704  -0.27  -1.15
iter:  24 08:24:10  -310.146086  +0.04  -1.22
Writing to output.gpw (mode='')

iter:  25 08:24:40  -309.962026  -0.19  -1.32
iter:  26 08:25:13  -309.903852  -0.44  -1.39
iter:  27 08:25:43  -309.833826  -0.60  -1.47
iter:  28 08:26:16  -309.798514  -0.76  -1.59
iter:  29 08:26:49  -309.806357  -0.90  -1.82
Writing to output.gpw (mode='')

iter:  30 08:27:22  -309.807322c -1.30  -1.91
iter:  31 08:27:54  -309.800944c -1.46  -1.98
iter:  32 08:28:35  -309.804026c -1.58  -2.20
iter:  33 08:29:31  -309.807059c -1.72  -2.24
iter:  34 08:30:20  -309.808337c -1.75  -2.27
Writing to output.gpw (mode='')

iter:  35 08:30:56  -309.810960c -1.94  -2.47
iter:  36 08:31:32  -309.811989c -2.22  -2.41
iter:  37 08:32:09  -309.812936c -2.20  -2.43
iter:  38 08:32:40  -309.814294c -2.15  -2.51
iter:  39 08:33:12  -309.815287c -2.29  -2.71
Writing to output.gpw (mode='')

iter:  40 08:33:44  -309.815414c -2.58  -2.89
iter:  41 08:34:32  -309.815989c -2.77  -3.01
iter:  42 08:35:06  -309.816458c -2.67  -3.14
iter:  43 08:35:37  -309.816734c -2.80  -3.21
iter:  44 08:36:06  -309.817058c -2.88  -3.22
Writing to output.gpw (mode='')

iter:  45 08:36:39  -309.817264c -2.89  -3.27
iter:  46 08:37:25  -309.817453c -2.97  -3.34
iter:  47 08:37:58  -309.817615c -3.14  -3.42
iter:  48 08:38:31  -309.817692c -3.24  -3.46
iter:  49 08:39:02  -309.817797c -3.47  -3.53
Writing to output.gpw (mode='')

iter:  50 08:39:32  -309.817887c -3.46  -3.60
iter:  51 08:40:02  -309.817971c -3.43  -3.67
iter:  52 08:40:34  -309.818038c -3.58  -3.72
iter:  53 08:41:06  -309.818083c -3.66  -3.77
iter:  54 08:41:49  -309.818128c -3.62  -3.80
Writing to output.gpw (mode='')

iter:  55 08:42:20  -309.818157c -3.87  -3.82
iter:  56 08:43:14  -309.818207c -4.00  -3.80
iter:  57 08:43:57  -309.818224c -4.07  -3.78
iter:  58 08:44:26  -309.818237c -4.13  -3.79
iter:  59 08:44:58  -309.818252c -4.28  -3.81
Writing to output.gpw (mode='')

iter:  60 08:45:27  -309.818252c -4.28  -3.79
iter:  61 08:46:00  -309.818266c -4.33  -3.83
iter:  62 08:46:34  -309.818277c -4.25  -3.80
iter:  63 08:47:05  -309.818277c -4.54  -3.74
iter:  64 08:47:43  -309.818285c -4.60  -3.87
Writing to output.gpw (mode='')

iter:  65 08:48:14  -309.818286c -4.50  -3.81
iter:  66 08:48:49  -309.818293c -4.68  -3.88
iter:  67 08:49:20  -309.818289c -4.84  -3.71
iter:  68 08:49:53  -309.818292c -4.80  -3.94
iter:  69 08:50:25  -309.818299c -4.64  -4.08c
Writing to output.gpw (mode='')

iter:  70 08:50:57  -309.818306c -4.73  -4.18c
iter:  71 08:51:45  -309.818308c -5.06  -4.25c
iter:  72 08:52:25  -309.818306c -5.18  -4.39c
iter:  73 08:53:02  -309.818305c -5.19  -4.51c
iter:  74 08:53:35  -309.818305c -5.27  -4.59c
Writing to output.gpw (mode='')

iter:  75 08:54:08  -309.818304c -5.30  -4.63c
iter:  76 08:54:59  -309.818303c -5.26  -4.79c
iter:  77 08:55:32  -309.818304c -5.63  -4.79c
iter:  78 08:56:01  -309.818304c -5.59  -4.79c
iter:  79 08:56:34  -309.818305c -5.75  -4.75c
Writing to output.gpw (mode='')

iter:  80 08:57:05  -309.818306c -5.80  -4.80c
iter:  81 08:57:43  -309.818306c -5.89  -4.93c
iter:  82 08:58:13  -309.818307c -5.59  -4.92c
iter:  83 08:58:45  -309.818307c -5.62  -4.97c
iter:  84 08:59:17  -309.818307c -5.79  -4.99c
Writing to output.gpw (mode='')

iter:  85 08:59:49  -309.818309c -6.06  -5.06c
iter:  86 09:00:19  -309.818308c -6.34  -5.13c
iter:  87 09:00:57  -309.818308c -6.28  -5.15c
iter:  88 09:01:27  -309.818308c -6.23  -5.20c
iter:  89 09:01:59  -309.818308c -6.27  -5.19c
Writing to output.gpw (mode='')

iter:  90 09:02:30  -309.818308c -6.49  -5.24c
iter:  91 09:03:00  -309.818307c -6.59  -5.37c
iter:  92 09:03:31  -309.818308c -6.74  -5.65c
iter:  93 09:04:01  -309.818308c -6.79  -5.62c
iter:  94 09:04:33  -309.818308c -6.89  -5.61c
Writing to output.gpw (mode='')

iter:  95 09:05:03  -309.818308c -6.85  -5.62c
iter:  96 09:05:40  -309.818308c -6.89  -5.63c
iter:  97 09:06:12  -309.818308c -6.99  -5.50c
iter:  98 09:06:41  -309.818308c -7.05  -5.62c
iter:  99 09:07:11  -309.818308c -7.22  -5.96c
Writing to output.gpw (mode='')

iter: 100 09:07:41  -309.818308c -7.09  -5.92c
iter: 101 09:08:15  -309.818308c -7.25  -5.94c
iter: 102 09:08:44  -309.818308c -7.03  -5.91c
iter: 103 09:09:17  -309.818308c -7.34  -5.82c
iter: 104 09:09:50  -309.818308c -7.10  -5.89c
Writing to output.gpw (mode='')

iter: 105 09:10:40  -309.818308c -7.51c -5.98c

Converged after 105 iterations.

Dipole moment: (-0.534253, -6.311011, 0.215868) |e|*Ang

Energy contributions relative to reference atoms: (reference = -14434.854043)

Kinetic:       +142.925203
Potential:     -136.513559
External:        +0.000000
XC:            -316.920515
Entropy (-ST):   -0.162205
Local:           +0.771666
--------------------------
Free energy:   -309.899410
Extrapolated:  -309.818308

Dipole-layer corrected work functions: 3.399928, 2.984956 eV

Showing only first 2 kpts
 Kpt  Band  Eigenvalues  Occupancy
  0    31     -3.37735    1.95166
  0    32     -3.20777    1.15210
  0    33     -3.18071    0.88320
  0    34     -3.09115    0.23305

  1    31     -3.49759    1.99554
  1    32     -3.15037    0.60249
  1    33     -3.08741    0.21806
  1    34     -3.08530    0.20999


Fermi level: -3.19244

No gap

Forces in eV/Ang:
  0 Li   -0.00873   -0.01048   -0.29440
  1 Li    0.00949    0.01218   -0.29342
  2 Li   -0.00016    0.00010   -0.24777
  3 Li    0.01516    0.01434   -0.28615
  4 Li   -0.00647    0.00820   -0.29155
  5 Li   -0.01078   -0.00867   -0.29330
  6 Li    0.00903   -0.00859   -0.29098
  7 Li   -0.01471   -0.01471   -0.28770
  8 Li    0.01114    0.00939   -0.29292
  9 Li   -0.02709    0.03131    0.31847
 10 Li    0.01302    0.03188    0.30627
 11 Li    0.02570    0.03036    0.25748
 12 Li   -0.03438   -0.02439    0.25383
 13 Li   -0.01501   -0.01607    0.29988
 14 Li    0.02870   -0.02534    0.30679
 15 Li   -0.02808   -0.01845    0.29737
 16 Li    0.00045   -0.01293    0.29122
 17 Li    0.01882    0.00597    0.29931
 18 Li   -0.00860   -0.00854   -0.00040
 19 Li    0.00299   -0.00577    0.00471
 20 Li    0.00040    0.00242    0.16134
 21 Li    0.00953    0.00426   -0.00664
 22 Li   -0.01122    0.00791   -0.00837
 23 Li    0.00277   -0.00932    0.00226
 24 Li    0.00645   -0.00459    0.00606
 25 Li    0.00237   -0.00633   -0.00044
 26 Li    0.00337   -0.00029   -0.00391
 27 Li    0.13516   -0.13777    0.01057
 28 Li    0.00230   -0.01216   -0.00233
 29 Li    0.11298    0.12843    0.01971
 30 Li   -0.11149   -0.12177    0.03119
 31 Li   -0.01225    0.01621   -0.00572
 32 Li   -0.13153    0.13063    0.00405
 33 Li    0.01027   -0.01445   -0.00266
 34 Li   -0.00365   -0.00138    0.00216
 35 Li   -0.01384    0.00108   -0.00662
 36 O    -0.00335    0.01243    0.00090
 37 C    -0.00422    0.00807   -0.03810
 38 C    -0.02417    0.01137   -0.02355
 39 H    -0.00953   -0.00518   -0.00185
 40 H     0.01425    0.00309   -0.00380
 41 H    -0.01643   -0.00685   -0.00453
 42 H    -0.00060    0.00556   -0.00533
 43 H     0.00870   -0.00309   -0.01095
 44 H    -0.02484    0.01541   -0.00215
 45 N     1.91155   -1.84934   -0.09129
 46 N    -1.91272    1.83246   -0.04902

System changes: positions 

Initializing position-dependent things.

Density initialized from wave functions
       .-----------------------.  
      /|                       |  
     / |                       |  
    /  |                       |  
   /   |                       |  
  /    |                       |  
 *     |                       |  
 |     |                       |  
 |     |                       |  
 |     |            H    H     |  
 |     |              H        |  
 |     |            H O        |  
 |     Li      Li  H  C H      |  
 |     |                       |  
 |   Li|     Li      Li        |  
 |     |  Li      Li      Li   |  
 |     |   Li      LiN    Li   |  
 |     |Li      LiLi   NLi     |  
 |     |                       |  
 |   LLi     LLi     LLi       |  
 |     |  Li      Li      Li   |  
 | Li  |   Li      Li          |  
 |     |Li      Li      Li     |  
 Li    | Li      Li            |  
 |    Li      Li      Li       |  
 |     |                       |  
 |     |                       |  
 |     |                       |  
 |     |                       |  
 |     |                       |  
 |     |                       |  
 |     .-----------------------.  
 |    /                       /   
 |   /                       /    
 |  /                       /     
 | /                       /      
 |/                       /       
 *-----------------------*        

Positions:
   0 Li     1.617037    1.617037   10.000000    ( 0.0000,  0.0000,  0.0000)
   1 Li     4.851111    1.617037   10.000000    ( 0.0000,  0.0000,  0.0000)
   2 Li     8.085185    1.617037   10.000000    ( 0.0000,  0.0000,  0.0000)
   3 Li     1.617037    4.851111   10.000000    ( 0.0000,  0.0000,  0.0000)
   4 Li     4.851111    4.851111   10.000000    ( 0.0000,  0.0000,  0.0000)
   5 Li     8.085185    4.851111   10.000000    ( 0.0000,  0.0000,  0.0000)
   6 Li     1.617037    8.085185   10.000000    ( 0.0000,  0.0000,  0.0000)
   7 Li     4.851111    8.085185   10.000000    ( 0.0000,  0.0000,  0.0000)
   8 Li     8.085185    8.085185   10.000000    ( 0.0000,  0.0000,  0.0000)
   9 Li     0.000000    0.000000   11.617037    ( 0.0000,  0.0000,  0.0000)
  10 Li     3.234074    0.000000   11.617037    ( 0.0000,  0.0000,  0.0000)
  11 Li     6.468148    0.000000   11.617037    ( 0.0000,  0.0000,  0.0000)
  12 Li     0.000000    3.234074   11.617037    ( 0.0000,  0.0000,  0.0000)
  13 Li     3.234074    3.234074   11.617037    ( 0.0000,  0.0000,  0.0000)
  14 Li     6.468148    3.234074   11.617037    ( 0.0000,  0.0000,  0.0000)
  15 Li     0.000000    6.468148   11.617037    ( 0.0000,  0.0000,  0.0000)
  16 Li     3.234074    6.468148   11.617037    ( 0.0000,  0.0000,  0.0000)
  17 Li     6.468148    6.468148   11.617037    ( 0.0000,  0.0000,  0.0000)
  18 Li     1.595386    1.594219   13.521107    ( 0.0000,  0.0000,  0.0000)
  19 Li     4.875800    1.669722   13.523074    ( 0.0000,  0.0000,  0.0000)
  20 Li     8.084607    1.619339   13.575510    ( 0.0000,  0.0000,  0.0000)
  21 Li     1.538106    4.787431   13.515378    ( 0.0000,  0.0000,  0.0000)
  22 Li     4.812987    4.878010   13.504200    ( 0.0000,  0.0000,  0.0000)
  23 Li     8.033376    4.828744   13.530268    ( 0.0000,  0.0000,  0.0000)
  24 Li     1.653437    8.047064   13.482040    ( 0.0000,  0.0000,  0.0000)
  25 Li     4.912024    8.143224   13.494300    ( 0.0000,  0.0000,  0.0000)
  26 Li     8.125821    8.099624   13.516276    ( 0.0000,  0.0000,  0.0000)
  27 Li     0.124751   -0.116553   15.486674    ( 0.0000,  0.0000,  0.0000)
  28 Li     3.370024   -0.045682   15.433837    ( 0.0000,  0.0000,  0.0000)
  29 Li     6.702762    0.206473   15.590575    ( 0.0000,  0.0000,  0.0000)
  30 Li    -0.306982    2.978624   15.692169    ( 0.0000,  0.0000,  0.0000)
  31 Li     3.083448    3.281614   15.463440    ( 0.0000,  0.0000,  0.0000)
  32 Li     6.317813    3.339530   15.554942    ( 0.0000,  0.0000,  0.0000)
  33 Li     0.047411    6.349802   15.456425    ( 0.0000,  0.0000,  0.0000)
  34 Li     3.243210    6.476171   15.445496    ( 0.0000,  0.0000,  0.0000)
  35 Li     6.419313    6.599263   15.450421    ( 0.0000,  0.0000,  0.0000)
  36 O      7.889948    2.545872   19.227457    ( 0.0000,  0.0000,  0.0000)
  37 C      8.019965    1.225137   19.777214    ( 0.0000,  0.0000,  0.0000)
  38 C      8.194156    1.224602   21.291423    ( 0.0000,  0.0000,  0.0000)
  39 H      7.158875    0.607253   19.488619    ( 0.0000,  0.0000,  0.0000)
  40 H      8.900320    0.803733   19.287291    ( 0.0000,  0.0000,  0.0000)
  41 H      8.351854    0.205926   21.656181    ( 0.0000,  0.0000,  0.0000)
  42 H      9.054606    1.831606   21.579300    ( 0.0000,  0.0000,  0.0000)
  43 H      7.307692    1.625582   21.791246    ( 0.0000,  0.0000,  0.0000)
  44 H      7.057778    2.920852   19.540712    ( 0.0000,  0.0000,  0.0000)
  45 N      7.604768    2.024115   15.589880    ( 0.0000,  0.0000,  0.0000)
  46 N      8.500298    1.155061   15.588256    ( 0.0000,  0.0000,  0.0000)

Unit cell:
           periodic     x           y           z      points  spacing
  1. axis:    yes    9.702222    0.000000    0.000000    60     0.1617
  2. axis:    yes    0.000000    9.702222    0.000000    60     0.1617
  3. axis:    no     0.000000    0.000000   24.851111   156     0.1593

  Lengths:   9.702222   9.702222  24.851111
  Angles:   90.000000  90.000000  90.000000

Effective grid spacing dv^(1/3) = 0.1609

     iter     time        total  log10-change:
                         energy  eigst   dens
iter:   1 09:11:26  -311.134040  -0.55
iter:   2 09:11:59  -310.287293  -0.39  -1.25
iter:   3 09:12:31  -310.024936  -0.62  -1.33
iter:   4 09:13:07  -309.924366  -0.30  -1.58
Writing to output.gpw (mode='')

iter:   5 09:13:39  -309.919721  -1.01  -1.85
iter:   6 09:14:12  -309.922843c -1.32  -2.01
iter:   7 09:14:44  -309.953673  -0.40  -2.04
iter:   8 09:15:18  -309.920743c -1.48  -2.00
iter:   9 09:15:51  -309.917543  -1.80  -2.20
Writing to output.gpw (mode='')

iter:  10 09:16:23  -309.913909c -2.06  -2.35
iter:  11 09:16:55  -309.914198c -2.45  -2.58
iter:  12 09:17:27  -309.913986c -2.62  -2.67
iter:  13 09:18:20  -309.913894c -2.95  -2.85
iter:  14 09:18:50  -309.913954c -2.99  -3.02
Writing to output.gpw (mode='')

iter:  15 09:19:20  -309.914047c -3.42  -3.16
iter:  16 09:19:49  -309.914074c -3.65  -3.23
iter:  17 09:20:22  -309.914083c -3.68  -3.35
iter:  18 09:20:53  -309.914118c -4.02  -3.40
iter:  19 09:21:24  -309.914142c -3.95  -3.42
Writing to output.gpw (mode='')

iter:  20 09:21:55  -309.914150c -4.04  -3.67
iter:  21 09:22:30  -309.914166c -4.20  -3.78
iter:  22 09:23:02  -309.914174c -4.28  -3.82
iter:  23 09:23:31  -309.914181c -4.65  -3.83
iter:  24 09:24:00  -309.914193c -4.57  -4.02c
Writing to output.gpw (mode='')

iter:  25 09:24:31  -309.914197c -4.68  -4.21c
iter:  26 09:25:03  -309.914198c -4.89  -4.22c
iter:  27 09:25:33  -309.914199c -4.89  -4.26c
iter:  28 09:26:06  -309.914204c -5.05  -4.24c
iter:  29 09:26:49  -309.914203c -5.14  -4.15c
Writing to output.gpw (mode='')

iter:  30 09:27:23  -309.914204c -5.28  -4.21c
iter:  31 09:27:55  -309.914203c -5.30  -4.22c
iter:  32 09:28:25  -309.914203c -5.17  -4.23c
iter:  33 09:28:55  -309.914202c -5.57  -4.34c
iter:  34 09:29:25  -309.914205c -5.75  -4.32c
Writing to output.gpw (mode='')

iter:  35 09:29:55  -309.914205c -5.83  -4.35c
iter:  36 09:30:28  -309.914204c -5.96  -4.29c
iter:  37 09:31:00  -309.914205c -6.38  -4.41c
iter:  38 09:31:30  -309.914206c -6.24  -4.39c
iter:  39 09:32:06  -309.914206c -6.29  -4.50c
Writing to output.gpw (mode='')

iter:  40 09:32:36  -309.914205c -6.28  -4.53c
iter:  41 09:33:09  -309.914205c -6.54  -4.59c
iter:  42 09:33:37  -309.914204c -6.67  -4.61c
iter:  43 09:34:25  -309.914202c -6.57  -4.69c
iter:  44 09:35:05  -309.914202c -6.92  -4.90c
Writing to output.gpw (mode='')

iter:  45 09:35:34  -309.914202c -7.05  -5.10c
iter:  46 09:36:08  -309.914203c -7.18  -5.12c
iter:  47 09:36:40  -309.914204c -6.96  -5.21c
iter:  48 09:37:14  -309.914204c -7.53c -5.35c

Converged after 48 iterations.

Dipole moment: (-0.402198, -6.444857, 0.236457) |e|*Ang

Energy contributions relative to reference atoms: (reference = -14434.854043)

Kinetic:       +147.047827
Potential:     -139.971712
External:        +0.000000
XC:            -317.683504
Entropy (-ST):   -0.162795
Local:           +0.774583
--------------------------
Free energy:   -309.995601
Extrapolated:  -309.914204

Dipole-layer corrected work functions: 3.395275, 2.940723 eV

Showing only first 2 kpts
 Kpt  Band  Eigenvalues  Occupancy
  0    31     -3.35601    1.95450
  0    32     -3.18267    1.14568
  0    33     -3.15268    0.84798
  0    34     -3.06463    0.22461

  1    31     -3.47754    1.99591
  1    32     -3.12995    0.63690
  1    33     -3.06373    0.22105
  1    34     -3.05116    0.17626


Fermi level: -3.16800

No gap
Writing to output.gpw (mode='')


Forces in eV/Ang:
  0 Li   -0.00771   -0.01042   -0.29600
  1 Li    0.00868    0.01212   -0.29524
  2 Li   -0.00021    0.00002   -0.25087
  3 Li    0.01494    0.01415   -0.28542
  4 Li   -0.00523    0.00697   -0.29431
  5 Li   -0.01079   -0.00761   -0.29498
  6 Li    0.00769   -0.00742   -0.29369
  7 Li   -0.01425   -0.01443   -0.28712
  8 Li    0.01107    0.00845   -0.29489
  9 Li   -0.02951    0.03339    0.32833
 10 Li    0.01167    0.03185    0.30418
 11 Li    0.03097    0.03563    0.27062
 12 Li   -0.03912   -0.02934    0.26657
 13 Li   -0.01391   -0.01627    0.29787
 14 Li    0.03060   -0.02761    0.31639
 15 Li   -0.02822   -0.01747    0.29512
 16 Li    0.00045   -0.01272    0.29769
 17 Li    0.01897    0.00473    0.29707
 18 Li   -0.00017   -0.00730   -0.00589
 19 Li   -0.00901   -0.00710   -0.00374
 20 Li    0.00329    0.00528   -0.04099
 21 Li    0.00212   -0.00316   -0.00459
 22 Li   -0.00348    0.00014   -0.00337
 23 Li    0.00376   -0.00067   -0.00359
 24 Li   -0.00130    0.00266    0.01080
 25 Li    0.00973    0.00158    0.00172
 26 Li    0.00218   -0.01010   -0.01041
 27 Li   -0.01351    0.00416    0.00047
 28 Li    0.00310   -0.00091    0.00028
 29 Li   -0.02888   -0.01764   -0.00421
 30 Li    0.02959    0.02309    0.01576
 31 Li   -0.01229    0.00480   -0.00369
 32 Li    0.01213   -0.01733   -0.01435
 33 Li   -0.00075   -0.01397   -0.00101
 34 Li   -0.00370   -0.00129    0.00160
 35 Li   -0.00264    0.00160   -0.00445
 36 O    -0.01740    0.01989   -0.02528
 37 C    -0.00760   -0.00675   -0.01359
 38 C    -0.00226    0.00175   -0.02257
 39 H    -0.00892   -0.00368   -0.00390
 40 H     0.01718    0.00228   -0.00198
 41 H    -0.01822    0.00357   -0.01081
 42 H    -0.00786    0.00066   -0.00934
 43 H    -0.00161    0.00135   -0.00995
 44 H    -0.01499    0.01440   -0.00519
 45 N    -0.30582    0.29542    0.00732
 46 N     0.27159   -0.29771    0.03860

System changes: positions 

Initializing position-dependent things.

Density initialized from wave functions
       .-----------------------.  
      /|                       |  
     / |                       |  
    /  |                       |  
   /   |                       |  
  /    |                       |  
 *     |                       |  
 |     |                       |  
 |     |                       |  
 |     |            H    H     |  
 |     |              H        |  
 |     |            H O        |  
 |     Li      Li  H  C H      |  
 |     |                       |  
 |   Li|     Li      Li        |  
 |     |  Li      Li      Li   |  
 |     |   Li      LiN    Li   |  
 |     |Li      LiLi   NLi     |  
 |     |                       |  
 |   LLi     LLi     LLi       |  
 |     |  Li      Li      Li   |  
 | Li  |   Li      Li          |  
 |     |Li      Li      Li     |  
 Li    | Li      Li            |  
 |    Li      Li      Li       |  
 |     |                       |  
 |     |                       |  
 |     |                       |  
 |     |                       |  
 |     |                       |  
 |     |                       |  
 |     .-----------------------.  
 |    /                       /   
 |   /                       /    
 |  /                       /     
 | /                       /      
 |/                       /       
 *-----------------------*        

Positions:
   0 Li     1.617037    1.617037   10.000000    ( 0.0000,  0.0000,  0.0000)
   1 Li     4.851111    1.617037   10.000000    ( 0.0000,  0.0000,  0.0000)
   2 Li     8.085185    1.617037   10.000000    ( 0.0000,  0.0000,  0.0000)
   3 Li     1.617037    4.851111   10.000000    ( 0.0000,  0.0000,  0.0000)
   4 Li     4.851111    4.851111   10.000000    ( 0.0000,  0.0000,  0.0000)
   5 Li     8.085185    4.851111   10.000000    ( 0.0000,  0.0000,  0.0000)
   6 Li     1.617037    8.085185   10.000000    ( 0.0000,  0.0000,  0.0000)
   7 Li     4.851111    8.085185   10.000000    ( 0.0000,  0.0000,  0.0000)
   8 Li     8.085185    8.085185   10.000000    ( 0.0000,  0.0000,  0.0000)
   9 Li     0.000000    0.000000   11.617037    ( 0.0000,  0.0000,  0.0000)
  10 Li     3.234074    0.000000   11.617037    ( 0.0000,  0.0000,  0.0000)
  11 Li     6.468148    0.000000   11.617037    ( 0.0000,  0.0000,  0.0000)
  12 Li     0.000000    3.234074   11.617037    ( 0.0000,  0.0000,  0.0000)
  13 Li     3.234074    3.234074   11.617037    ( 0.0000,  0.0000,  0.0000)
  14 Li     6.468148    3.234074   11.617037    ( 0.0000,  0.0000,  0.0000)
  15 Li     0.000000    6.468148   11.617037    ( 0.0000,  0.0000,  0.0000)
  16 Li     3.234074    6.468148   11.617037    ( 0.0000,  0.0000,  0.0000)
  17 Li     6.468148    6.468148   11.617037    ( 0.0000,  0.0000,  0.0000)
  18 Li     1.595384    1.594129   13.521034    ( 0.0000,  0.0000,  0.0000)
  19 Li     4.875689    1.669634   13.523028    ( 0.0000,  0.0000,  0.0000)
  20 Li     8.084647    1.619404   13.575004    ( 0.0000,  0.0000,  0.0000)
  21 Li     1.538132    4.787392   13.515322    ( 0.0000,  0.0000,  0.0000)
  22 Li     4.812944    4.878012   13.504159    ( 0.0000,  0.0000,  0.0000)
  23 Li     8.033422    4.828736   13.530224    ( 0.0000,  0.0000,  0.0000)
  24 Li     1.653421    8.047097   13.482173    ( 0.0000,  0.0000,  0.0000)
  25 Li     4.912144    8.143244   13.494321    ( 0.0000,  0.0000,  0.0000)
  26 Li     8.125848    8.099499   13.516147    ( 0.0000,  0.0000,  0.0000)
  27 Li     0.124585   -0.116503   15.486680    ( 0.0000,  0.0000,  0.0000)
  28 Li     3.370062   -0.045694   15.433840    ( 0.0000,  0.0000,  0.0000)
  29 Li     6.702405    0.206255   15.590523    ( 0.0000,  0.0000,  0.0000)
  30 Li    -0.306617    2.978909   15.692364    ( 0.0000,  0.0000,  0.0000)
  31 Li     3.083296    3.281674   15.463394    ( 0.0000,  0.0000,  0.0000)
  32 Li     6.317962    3.339317   15.554765    ( 0.0000,  0.0000,  0.0000)
  33 Li     0.047401    6.349629   15.456412    ( 0.0000,  0.0000,  0.0000)
  34 Li     3.243164    6.476155   15.445516    ( 0.0000,  0.0000,  0.0000)
  35 Li     6.419280    6.599282   15.450366    ( 0.0000,  0.0000,  0.0000)
  36 O      7.889733    2.546118   19.227145    ( 0.0000,  0.0000,  0.0000)
  37 C      8.019871    1.225053   19.777046    ( 0.0000,  0.0000,  0.0000)
  38 C      8.194128    1.224624   21.291144    ( 0.0000,  0.0000,  0.0000)
  39 H      7.158765    0.607207   19.488571    ( 0.0000,  0.0000,  0.0000)
  40 H      8.900533    0.803761   19.287266    ( 0.0000,  0.0000,  0.0000)
  41 H      8.351629    0.205970   21.656047    ( 0.0000,  0.0000,  0.0000)
  42 H      9.054509    1.831614   21.579184    ( 0.0000,  0.0000,  0.0000)
  43 H      7.307673    1.625598   21.791123    ( 0.0000,  0.0000,  0.0000)
  44 H      7.057592    2.921030   19.540648    ( 0.0000,  0.0000,  0.0000)
  45 N      7.601001    2.027754   15.589970    ( 0.0000,  0.0000,  0.0000)
  46 N      8.503642    1.151394   15.588733    ( 0.0000,  0.0000,  0.0000)

Unit cell:
           periodic     x           y           z      points  spacing
  1. axis:    yes    9.702222    0.000000    0.000000    60     0.1617
  2. axis:    yes    0.000000    9.702222    0.000000    60     0.1617
  3. axis:    no     0.000000    0.000000   24.851111   156     0.1593

  Lengths:   9.702222   9.702222  24.851111
  Angles:   90.000000  90.000000  90.000000

Effective grid spacing dv^(1/3) = 0.1609

     iter     time        total  log10-change:
                         energy  eigst   dens
iter:   1 09:37:56  -309.948818  -1.67
iter:   2 09:38:30  -309.924608  -1.96  -2.03
iter:   3 09:39:01  -309.919116c -2.30  -2.10
iter:   4 09:39:44  -309.916012c -2.13  -2.40
Writing to output.gpw (mode='')

iter:   5 09:40:16  -309.915987c -2.93  -2.74
iter:   6 09:40:49  -309.915851c -2.26  -2.91
iter:   7 09:41:20  -309.915840c -2.90  -2.89
iter:   8 09:41:53  -309.915852c -3.34  -3.07
iter:   9 09:42:37  -309.915803c -3.53  -3.30
Writing to output.gpw (mode='')

iter:  10 09:43:10  -309.915795c -3.85  -3.38
iter:  11 09:43:55  -309.915833c -4.02  -3.53
iter:  12 09:44:38  -309.915826c -4.64  -3.71
iter:  13 09:45:10  -309.915826c -4.73  -3.80
iter:  14 09:45:46  -309.915828c -4.75  -3.92
Writing to output.gpw (mode='')

iter:  15 09:46:27  -309.915823c -4.83  -3.95
iter:  16 09:47:03  -309.915835c -5.03  -4.07c
iter:  17 09:47:46  -309.915837c -5.29  -4.25c
iter:  18 09:48:23  -309.915844c -5.26  -4.24c
iter:  19 09:48:52  -309.915846c -5.40  -4.33c
Writing to output.gpw (mode='')

iter:  20 09:49:24  -309.915848c -5.77  -4.41c
iter:  21 09:49:57  -309.915847c -5.65  -4.49c
iter:  22 09:50:30  -309.915847c -6.18  -4.66c
iter:  23 09:50:58  -309.915847c -6.23  -4.66c
iter:  24 09:51:31  -309.915845c -6.16  -4.70c
Writing to output.gpw (mode='')

iter:  25 09:52:12  -309.915845c -6.45  -4.84c
iter:  26 09:52:51  -309.915847c -6.12  -4.87c
iter:  27 09:53:23  -309.915847c -6.55  -4.83c
iter:  28 09:53:55  -309.915846c -6.60  -4.98c
iter:  29 09:54:28  -309.915846c -7.10  -5.08c
Writing to output.gpw (mode='')

iter:  30 09:55:01  -309.915847c -7.10  -5.11c
iter:  31 09:55:36  -309.915848c -7.39  -5.20c
iter:  32 09:56:10  -309.915848c -7.41c -5.33c

Converged after 32 iterations.

Dipole moment: (-0.423403, -6.422970, 0.233940) |e|*Ang

Energy contributions relative to reference atoms: (reference = -14434.854043)

Kinetic:       +146.344710
Potential:     -139.395407
External:        +0.000000
XC:            -317.558132
Entropy (-ST):   -0.162753
Local:           +0.774358
--------------------------
Free energy:   -309.997224
Extrapolated:  -309.915848

Dipole-layer corrected work functions: 3.395919, 2.946207 eV

Showing only first 2 kpts
 Kpt  Band  Eigenvalues  Occupancy
  0    31     -3.35867    1.95414
  0    32     -3.18537    1.14211
  0    33     -3.15660    0.85640
  0    34     -3.06814    0.22642

  1    31     -3.48098    1.99594
  1    32     -3.13236    0.63122
  1    33     -3.06650    0.21991
  1    34     -3.05578    0.18130


Fermi level: -3.17106

No gap
Writing to output.gpw (mode='')


Forces in eV/Ang:
  0 Li   -0.00785   -0.01042   -0.29580
  1 Li    0.00879    0.01212   -0.29501
  2 Li   -0.00020    0.00004   -0.25044
  3 Li    0.01496    0.01416   -0.28554
  4 Li   -0.00540    0.00715   -0.29397
  5 Li   -0.01078   -0.00776   -0.29477
  6 Li    0.00786   -0.00756   -0.29336
  7 Li   -0.01429   -0.01444   -0.28721
  8 Li    0.01108    0.00859   -0.29465
  9 Li   -0.02918    0.03306    0.32695
 10 Li    0.01187    0.03174    0.30441
 11 Li    0.03025    0.03487    0.26873
 12 Li   -0.03843   -0.02864    0.26471
 13 Li   -0.01409   -0.01628    0.29808
 14 Li    0.03030   -0.02730    0.31506
 15 Li   -0.02811   -0.01763    0.29537
 16 Li    0.00041   -0.01266    0.29685
 17 Li    0.01895    0.00486    0.29732
 18 Li   -0.00117   -0.00738   -0.00516
 19 Li   -0.00739   -0.00679   -0.00270
 20 Li    0.00300    0.00461   -0.01104
 21 Li    0.00304   -0.00213   -0.00485
 22 Li   -0.00447    0.00119   -0.00401
 23 Li    0.00360   -0.00180   -0.00286
 24 Li   -0.00022    0.00159    0.00993
 25 Li    0.00850    0.00049    0.00135
 26 Li    0.00233   -0.00872   -0.00946
 27 Li    0.00162   -0.01051    0.00256
 28 Li    0.00293   -0.00246   -0.00010
 29 Li   -0.00914    0.00294   -0.00101
 30 Li    0.00852    0.00126    0.01757
 31 Li   -0.01220    0.00628   -0.00401
 32 Li   -0.00438   -0.00015   -0.01172
 33 Li    0.00083   -0.01399   -0.00129
 34 Li   -0.00366   -0.00127    0.00171
 35 Li   -0.00415    0.00149   -0.00476
 36 O    -0.01637    0.00971   -0.01811
 37 C    -0.00304    0.00262   -0.01875
 38 C    -0.00612    0.00302   -0.01767
 39 H    -0.00847   -0.00386   -0.00552
 40 H     0.01130    0.00440   -0.00212
 41 H    -0.01712    0.00309   -0.01110
 42 H    -0.00693    0.00068   -0.00989
 43 H    -0.00066    0.00125   -0.01127
 44 H    -0.01365    0.01271   -0.00553
 45 N     0.07398   -0.08157   -0.01092
 46 N    -0.09078    0.06748    0.02260

System changes: positions 

Initializing position-dependent things.

Density initialized from wave functions
       .-----------------------.  
      /|                       |  
     / |                       |  
    /  |                       |  
   /   |                       |  
  /    |                       |  
 *     |                       |  
 |     |                       |  
 |     |                       |  
 |     |            H    H     |  
 |     |              H        |  
 |     |            H O        |  
 |     Li      Li  H  C H      |  
 |     |                       |  
 |   Li|     Li      Li        |  
 |     |  Li      Li      Li   |  
 |     |   Li      LiN    Li   |  
 |     |Li      LiLi   NLi     |  
 |     |                       |  
 |   LLi     LLi     LLi       |  
 |     |  Li      Li      Li   |  
 | Li  |   Li      Li          |  
 |     |Li      Li      Li     |  
 Li    | Li      Li            |  
 |    Li      Li      Li       |  
 |     |                       |  
 |     |                       |  
 |     |                       |  
 |     |                       |  
 |     |                       |  
 |     |                       |  
 |     .-----------------------.  
 |    /                       /   
 |   /                       /    
 |  /                       /     
 | /                       /      
 |/                       /       
 *-----------------------*        

Positions:
   0 Li     1.617037    1.617037   10.000000    ( 0.0000,  0.0000,  0.0000)
   1 Li     4.851111    1.617037   10.000000    ( 0.0000,  0.0000,  0.0000)
   2 Li     8.085185    1.617037   10.000000    ( 0.0000,  0.0000,  0.0000)
   3 Li     1.617037    4.851111   10.000000    ( 0.0000,  0.0000,  0.0000)
   4 Li     4.851111    4.851111   10.000000    ( 0.0000,  0.0000,  0.0000)
   5 Li     8.085185    4.851111   10.000000    ( 0.0000,  0.0000,  0.0000)
   6 Li     1.617037    8.085185   10.000000    ( 0.0000,  0.0000,  0.0000)
   7 Li     4.851111    8.085185   10.000000    ( 0.0000,  0.0000,  0.0000)
   8 Li     8.085185    8.085185   10.000000    ( 0.0000,  0.0000,  0.0000)
   9 Li     0.000000    0.000000   11.617037    ( 0.0000,  0.0000,  0.0000)
  10 Li     3.234074    0.000000   11.617037    ( 0.0000,  0.0000,  0.0000)
  11 Li     6.468148    0.000000   11.617037    ( 0.0000,  0.0000,  0.0000)
  12 Li     0.000000    3.234074   11.617037    ( 0.0000,  0.0000,  0.0000)
  13 Li     3.234074    3.234074   11.617037    ( 0.0000,  0.0000,  0.0000)
  14 Li     6.468148    3.234074   11.617037    ( 0.0000,  0.0000,  0.0000)
  15 Li     0.000000    6.468148   11.617037    ( 0.0000,  0.0000,  0.0000)
  16 Li     3.234074    6.468148   11.617037    ( 0.0000,  0.0000,  0.0000)
  17 Li     6.468148    6.468148   11.617037    ( 0.0000,  0.0000,  0.0000)
  18 Li     1.595370    1.594039   13.520971    ( 0.0000,  0.0000,  0.0000)
  19 Li     4.875597    1.669551   13.522994    ( 0.0000,  0.0000,  0.0000)
  20 Li     8.084684    1.619461   13.574850    ( 0.0000,  0.0000,  0.0000)
  21 Li     1.538168    4.787366   13.515263    ( 0.0000,  0.0000,  0.0000)
  22 Li     4.812890    4.878026   13.504110    ( 0.0000,  0.0000,  0.0000)
  23 Li     8.033466    4.828714   13.530188    ( 0.0000,  0.0000,  0.0000)
  24 Li     1.653418    8.047117   13.482295    ( 0.0000,  0.0000,  0.0000)
  25 Li     4.912249    8.143250   13.494338    ( 0.0000,  0.0000,  0.0000)
  26 Li     8.125876    8.099392   13.516031    ( 0.0000,  0.0000,  0.0000)
  27 Li     0.124595   -0.116622   15.486710    ( 0.0000,  0.0000,  0.0000)
  28 Li     3.370098   -0.045723   15.433839    ( 0.0000,  0.0000,  0.0000)
  29 Li     6.702281    0.206278   15.590508    ( 0.0000,  0.0000,  0.0000)
  30 Li    -0.306500    2.978938   15.692577    ( 0.0000,  0.0000,  0.0000)
  31 Li     3.083147    3.281749   15.463345    ( 0.0000,  0.0000,  0.0000)
  32 Li     6.317919    3.339304   15.554620    ( 0.0000,  0.0000,  0.0000)
  33 Li     0.047411    6.349459   15.456397    ( 0.0000,  0.0000,  0.0000)
  34 Li     3.243119    6.476140   15.445537    ( 0.0000,  0.0000,  0.0000)
  35 Li     6.419230    6.599301   15.450308    ( 0.0000,  0.0000,  0.0000)
  36 O      7.889533    2.546243   19.226919    ( 0.0000,  0.0000,  0.0000)
  37 C      8.019831    1.225079   19.776821    ( 0.0000,  0.0000,  0.0000)
  38 C      8.194055    1.224660   21.290925    ( 0.0000,  0.0000,  0.0000)
  39 H      7.158661    0.607160   19.488505    ( 0.0000,  0.0000,  0.0000)
  40 H      8.900675    0.803814   19.287240    ( 0.0000,  0.0000,  0.0000)
  41 H      8.351419    0.206008   21.655912    ( 0.0000,  0.0000,  0.0000)
  42 H      9.054423    1.831623   21.579064    ( 0.0000,  0.0000,  0.0000)
  43 H      7.307664    1.625614   21.790987    ( 0.0000,  0.0000,  0.0000)
  44 H      7.057425    2.921186   19.540580    ( 0.0000,  0.0000,  0.0000)
  45 N      7.601657    2.027003   15.589849    ( 0.0000,  0.0000,  0.0000)
  46 N      8.502769    1.151980   15.589019    ( 0.0000,  0.0000,  0.0000)

Unit cell:
           periodic     x           y           z      points  spacing
  1. axis:    yes    9.702222    0.000000    0.000000    60     0.1617
  2. axis:    yes    0.000000    9.702222    0.000000    60     0.1617
  3. axis:    no     0.000000    0.000000   24.851111   156     0.1593

  Lengths:   9.702222   9.702222  24.851111
  Angles:   90.000000  90.000000  90.000000

Effective grid spacing dv^(1/3) = 0.1609

     iter     time        total  log10-change:
                         energy  eigst   dens
iter:   1 09:56:55  -309.916855  -3.10
iter:   2 09:57:27  -309.916335  -3.44  -2.76
iter:   3 09:57:58  -309.916074c -3.72  -2.84
iter:   4 09:58:30  -309.916051c -3.71  -3.10
Writing to output.gpw (mode='')

iter:   5 09:59:00  -309.916050c -4.25  -3.40
iter:   6 09:59:34  -309.916105c -3.59  -3.57
iter:   7 10:00:07  -309.916055c -4.48  -3.43
iter:   8 10:00:49  -309.916028c -4.67  -3.81
iter:   9 10:01:18  -309.916036c -5.33  -3.96
Writing to output.gpw (mode='')

iter:  10 10:01:52  -309.916046c -5.31  -4.06c
iter:  11 10:02:25  -309.916038c -5.34  -4.09c
iter:  12 10:02:54  -309.916041c -6.03  -4.34c
iter:  13 10:03:23  -309.916041c -6.21  -4.49c
iter:  14 10:03:54  -309.916040c -6.30  -4.54c
Writing to output.gpw (mode='')

iter:  15 10:04:28  -309.916042c -6.21  -4.64c
iter:  16 10:04:58  -309.916041c -6.53  -4.73c
iter:  17 10:05:31  -309.916040c -6.62  -4.85c
iter:  18 10:06:00  -309.916040c -6.78  -4.94c
iter:  19 10:06:31  -309.916039c -6.88  -4.99c
Writing to output.gpw (mode='')

iter:  20 10:07:05  -309.916039c -7.14  -5.12c
iter:  21 10:07:37  -309.916040c -7.22  -5.21c
iter:  22 10:08:11  -309.916040c -7.29  -5.37c
iter:  23 10:08:38  -309.916040c -7.34  -5.48c
iter:  24 10:09:09  -309.916040c -7.61c -5.59c

Converged after 24 iterations.

Dipole moment: (-0.419822, -6.425858, 0.234489) |e|*Ang

Energy contributions relative to reference atoms: (reference = -14434.854043)

Kinetic:       +146.460224
Potential:     -139.492648
External:        +0.000000
XC:            -317.576395
Entropy (-ST):   -0.162758
Local:           +0.774158
--------------------------
Free energy:   -309.997419
Extrapolated:  -309.916040

Dipole-layer corrected work functions: 3.395751, 2.944982 eV

Showing only first 2 kpts
 Kpt  Band  Eigenvalues  Occupancy
  0    31     -3.35808    1.95424
  0    32     -3.18473    1.14263
  0    33     -3.15575    0.85486
  0    34     -3.06734    0.22598

  1    31     -3.48029    1.99594
  1    32     -3.13177    0.63214
  1    33     -3.06588    0.22020
  1    34     -3.05473    0.18016


Fermi level: -3.17037

No gap
Writing to output.gpw (mode='')


Forces in eV/Ang:
  0 Li   -0.00783   -0.01041   -0.29581
  1 Li    0.00878    0.01211   -0.29503
  2 Li   -0.00020    0.00004   -0.25050
  3 Li    0.01496    0.01416   -0.28550
  4 Li   -0.00539    0.00713   -0.29403
  5 Li   -0.01077   -0.00773   -0.29477
  6 Li    0.00783   -0.00752   -0.29340
  7 Li   -0.01428   -0.01444   -0.28718
  8 Li    0.01105    0.00857   -0.29468
  9 Li   -0.02921    0.03305    0.32720
 10 Li    0.01182    0.03165    0.30434
 11 Li    0.03039    0.03500    0.26905
 12 Li   -0.03851   -0.02875    0.26500
 13 Li   -0.01406   -0.01632    0.29800
 14 Li    0.03028   -0.02734    0.31530
 15 Li   -0.02803   -0.01760    0.29528
 16 Li    0.00038   -0.01259    0.29704
 17 Li    0.01895    0.00478    0.29725
 18 Li   -0.00094   -0.00729   -0.00518
 19 Li   -0.00762   -0.00671   -0.00289
 20 Li    0.00321    0.00444   -0.01539
 21 Li    0.00277   -0.00230   -0.00477
 22 Li   -0.00420    0.00097   -0.00385
 23 Li    0.00359   -0.00162   -0.00294
 24 Li   -0.00042    0.00173    0.00988
 25 Li    0.00850    0.00067    0.00135
 26 Li    0.00232   -0.00885   -0.00944
 27 Li   -0.00201   -0.00716    0.00243
 28 Li    0.00286   -0.00214    0.00002
 29 Li   -0.01308   -0.00124   -0.00179
 30 Li    0.01150    0.00431    0.01688
 31 Li   -0.01209    0.00588   -0.00393
 32 Li   -0.00143   -0.00316   -0.01234
 33 Li    0.00054   -0.01389   -0.00122
 34 Li   -0.00363   -0.00124    0.00167
 35 Li   -0.00379    0.00144   -0.00465
 36 O    -0.01637    0.00639   -0.01794
 37 C    -0.00400    0.00371   -0.01712
 38 C    -0.00611    0.00346   -0.01633
 39 H    -0.00656   -0.00299   -0.00644
 40 H     0.00913    0.00539   -0.00280
 41 H    -0.01640    0.00309   -0.01169
 42 H    -0.00665    0.00047   -0.01017
 43 H    -0.00167    0.00193   -0.01175
 44 H    -0.01222    0.01144   -0.00578
 45 N     0.00307   -0.01142   -0.00685
 46 N    -0.02021    0.00098    0.02138

Timing:                                      incl.     excl.
-------------------------------------------------------------------
Density initialized from wave functions:     5.453     5.452   0.1% |
 Symmetrize density:                         0.000     0.000   0.0% |
Forces:                                     12.431    12.431   0.2% |
Hamiltonian:                                86.763     0.001   0.0% |
 Atomic:                                     0.300     0.004   0.0% |
  XC Correction:                             0.296     0.296   0.0% |
 Calculate atomic Hamiltonians:              0.262     0.262   0.0% |
 Communicate:                                1.994     1.994   0.0% |
 Hartree integrate/restrict:                 0.229     0.229   0.0% |
 Initialize Hamiltonian:                     0.002     0.002   0.0% |
 Poisson:                                    5.624     2.858   0.0% |
  Communicate from 1D:                       0.319     0.319   0.0% |
  Communicate from 2D:                       0.603     0.603   0.0% |
  Communicate to 1D:                         0.107     0.107   0.0% |
  Communicate to 2D:                         0.655     0.655   0.0% |
  FFT 1D:                                    0.566     0.566   0.0% |
  FFT 2D:                                    0.515     0.515   0.0% |
 XC 3D grid:                                78.311    13.133   0.2% |
  VdW-DF integral:                          65.179     0.481   0.0% |
   Convolution:                              6.205     6.205   0.1% |
   FFT:                                      1.808     1.808   0.0% |
   gather:                                  32.406    32.406   0.5% |
   hmm1:                                     1.279     1.279   0.0% |
   hmm2:                                     1.550     1.550   0.0% |
   iFFT:                                     2.194     2.194   0.0% |
   potential:                               12.251     0.267   0.0% |
    collect:                                 1.143     1.143   0.0% |
    p1:                                      5.411     5.411   0.1% |
    p2:                                      2.991     2.991   0.0% |
    sum:                                     2.439     2.439   0.0% |
   splines:                                  7.005     7.005   0.1% |
 vbar:                                       0.040     0.040   0.0% |
LCAO initialization:                         5.174     0.395   0.0% |
 LCAO eigensolver:                           1.446     0.001   0.0% |
  Calculate projections:                     0.000     0.000   0.0% |
  DenseAtomicCorrection:                     0.000     0.000   0.0% |
  Distribute overlap matrix:                 1.409     1.409   0.0% |
  Orbital Layouts:                           0.036     0.036   0.0% |
  Potential matrix:                          0.001     0.001   0.0% |
  Sum over cells:                            0.001     0.001   0.0% |
 LCAO to grid:                               2.780     2.780   0.0% |
 Set positions (LCAO WFS):                   0.552     0.383   0.0% |
  Basic WFS set positions:                   0.003     0.003   0.0% |
  Basis functions set positions:             0.000     0.000   0.0% |
  P tci:                                     0.001     0.001   0.0% |
  ST tci:                                    0.097     0.097   0.0% |
  mktci:                                     0.068     0.068   0.0% |
Redistribute:                                0.003     0.003   0.0% |
SCF-cycle:                                6994.053   463.430   6.5% |--|
 Davidson:                                2297.928   875.244  12.3% |----|
  Apply hamiltonian:                       183.748   183.748   2.6% ||
  Subspace diag:                           356.907     0.072   0.0% |
   calc_h_matrix:                          229.771    35.616   0.5% |
    Apply hamiltonian:                     194.155   194.155   2.7% ||
   diagonalize:                             14.189    14.189   0.2% |
   rotate_psi:                             112.875   112.875   1.6% ||
  calc. matrices:                          696.732   280.206   3.9% |-|
   Apply hamiltonian:                      416.525   416.525   5.8% |-|
  diagonalize:                               1.506     1.506   0.0% |
  rotate_psi:                              183.791   183.791   2.6% ||
 Density:                                   48.217     0.008   0.0% |
  Atomic density matrices:                   6.287     6.287   0.1% |
  Mix:                                      22.411    22.411   0.3% |
  Multipole moments:                         0.236     0.236   0.0% |
  Pseudo density:                           19.274    19.265   0.3% |
   Symmetrize density:                       0.009     0.009   0.0% |
 Hamiltonian:                             4182.063     0.041   0.0% |
  Atomic:                                   16.341     0.174   0.0% |
   XC Correction:                           16.167    16.167   0.2% |
  Calculate atomic Hamiltonians:            11.650    11.650   0.2% |
  Communicate:                             103.886   103.886   1.5% ||
  Hartree integrate/restrict:               10.554    10.554   0.1% |
  Poisson:                                 295.510   151.545   2.1% ||
   Communicate from 1D:                     16.820    16.820   0.2% |
   Communicate from 2D:                     31.382    31.382   0.4% |
   Communicate to 1D:                        5.515     5.515   0.1% |
   Communicate to 2D:                       31.355    31.355   0.4% |
   FFT 1D:                                  29.563    29.563   0.4% |
   FFT 2D:                                  29.329    29.329   0.4% |
  XC 3D grid:                             3742.113   777.395  10.9% |---|
   VdW-DF integral:                       2964.718    23.599   0.3% |
    Convolution:                           319.026   319.026   4.5% |-|
    FFT:                                    96.829    96.829   1.4% ||
    gather:                               1578.137  1578.137  22.1% |--------|
    hmm1:                                   74.079    74.079   1.0% |
    hmm2:                                   86.135    86.135   1.2% |
    iFFT:                                  109.833   109.833   1.5% ||
    potential:                             677.077    12.559   0.2% |
     collect:                               59.340    59.340   0.8% |
     p1:                                   286.011   286.011   4.0% |-|
     p2:                                   143.339   143.339   2.0% ||
     sum:                                  175.827   175.827   2.5% ||
    splines:                                 0.002     0.002   0.0% |
  vbar:                                      1.968     1.968   0.0% |
 Orthonormalize:                             2.415     0.001   0.0% |
  calc_s_matrix:                             0.406     0.406   0.0% |
  inverse-cholesky:                          0.842     0.842   0.0% |
  projections:                               0.000     0.000   0.0% |
  rotate_psi_s:                              1.166     1.166   0.0% |
Set symmetry:                                0.002     0.002   0.0% |
Other:                                      23.828    23.828   0.3% |
-------------------------------------------------------------------
Total:                                              7127.706 100.0%

Memory usage: 1.41 GiB
Date: Wed Mar  1 10:09:13 2023
