
  ___ ___ ___ _ _ _  
 |   |   |_  | | | | 
 | | | | | . | | | | 
 |__ |  _|___|_____|  22.8.0
 |___|_|             

User:   vazumah@c19.hercules
Date:   Wed Mar  8 16:56:30 2023
Arch:   x86_64
Pid:    10753
CWD:    /home/vazumah/Python_projects/LiNRR/Li_adsorb_studies/proton_donors/on_pure_surface/Li_BCC100/adsorbates/methanol_z/bridge/0.0_1.617
Python: 3.10.8
gpaw:   /home/vazumah/.conda/envs/GPAW/lib/python3.10/site-packages/gpaw
_gpaw:  /home/vazumah/.conda/envs/GPAW/lib/python3.10/site-packages/
        _gpaw.cpython-310-x86_64-linux-gnu.so
ase:    /home/vazumah/.conda/envs/GPAW/lib/python3.10/site-packages/ase (version 3.22.1)
numpy:  /home/vazumah/.conda/envs/GPAW/lib/python3.10/site-packages/numpy (version 1.24.1)
scipy:  /home/vazumah/.conda/envs/GPAW/lib/python3.10/site-packages/scipy (version 1.10.0)
libxc:  5.2.3
units:  Angstrom and eV
cores: 24
OpenMP: True
OMP_NUM_THREADS: 1

Input parameters:
  h: 0.16
  kpts: {size: [4, 4, 1]}
  occupations: {name: fermi-dirac,
                width: 0.05}
  poissonsolver: {dipolelayer: xy}
  xc: BEEF-vdW

System changes: positions, numbers, cell, pbc, initial_charges, initial_magmoms 

Initialize ...

species:
  Li:
    name: Lithium
    id: 830b4218f175192f93f959cfc0aad614
    Z: 3.0
    valence: 1
    core: 2
    charge: 0.0
    file: /home/vazumah/.conda/envs/GPAW/share/gpaw/Li.PBE.gz
    compensation charges: {type: gauss,
                           rc: 0.33,
                           lmax: 2}
    cutoffs: {filter: 1.91,
              core: 2.55}
    valence states:
      #              energy  rcut
      - 2s(1.00)    -2.874   1.058
      - 2p(0.00)    -1.090   1.058
      -  s          24.337   1.058
  
    # Using partial waves for Li as LCAO basis

  O:
    name: Oxygen
    id: 32ecd46bf208036f09c70b0ec9a88b78
    Z: 8.0
    valence: 6
    core: 2
    charge: 0.0
    file: /home/vazumah/.conda/envs/GPAW/share/gpaw/O.PBE.gz
    compensation charges: {type: gauss,
                           rc: 0.21,
                           lmax: 2}
    cutoffs: {filter: 1.17,
              core: 0.83}
    valence states:
      #              energy  rcut
      - 2s(2.00)   -23.961   0.688
      - 2p(4.00)    -9.029   0.598
      -  s           3.251   0.688
      -  p          18.182   0.598
      -  d           0.000   0.619
  
    # Using partial waves for O as LCAO basis

  C:
    name: Carbon
    id: 4aa54d4b901d75f77cc0ea3eec22967b
    Z: 6.0
    valence: 4
    core: 2
    charge: 0.0
    file: /home/vazumah/.conda/envs/GPAW/share/gpaw/C.PBE.gz
    compensation charges: {type: gauss,
                           rc: 0.20,
                           lmax: 2}
    cutoffs: {filter: 1.14,
              core: 1.14}
    valence states:
      #              energy  rcut
      - 2s(2.00)   -13.751   0.635
      - 2p(2.00)    -5.284   0.635
      -  s          13.461   0.635
      -  p          21.927   0.635
      -  d           0.000   0.635
  
    # Using partial waves for C as LCAO basis

  H:
    name: Hydrogen
    id: d65de229564ff8ea4db303e23b6d1ecf
    Z: 1.0
    valence: 1
    core: 0
    charge: 0.0
    file: /home/vazumah/.conda/envs/GPAW/share/gpaw/H.PBE.gz
    compensation charges: {type: gauss,
                           rc: 0.15,
                           lmax: 2}
    cutoffs: {filter: 0.85,
              core: 0.53}
    valence states:
      #              energy  rcut
      - 1s(1.00)    -6.494   0.476
      -  s          20.717   0.476
      -  p           0.000   0.476
  
    # Using partial waves for H as LCAO basis

Reference energy: -10418.802594  # eV

Spin-paired calculation

Convergence criteria:
 Maximum [total energy] change in last 3 cyles: 0.0005 eV / electron
 Maximum integral of absolute [dens]ity change: 0.0001 electrons / valence electron
 Maximum integral of absolute [eigenst]ate change: 4e-08 eV^2 / valence electron
 Maximum number of scf [iter]ations: 333
 (Square brackets indicate name in SCF output, whereas a 'c' in
 the SCF output indicates the quantity has converged.)

Symmetries present (total): 1

  ( 1  0  0)
  ( 0  1  0)
  ( 0  0  1)

16 k-points: 4 x 4 x 1 Monkhorst-Pack grid
8 k-points in the irreducible part of the Brillouin zone
       k-points in crystal coordinates                weights
   0:     0.12500000   -0.37500000    0.00000000          2/16
   1:     0.12500000   -0.12500000    0.00000000          2/16
   2:     0.12500000    0.12500000    0.00000000          2/16
   3:     0.12500000    0.37500000    0.00000000          2/16
   4:     0.37500000   -0.37500000    0.00000000          2/16
   5:     0.37500000   -0.12500000    0.00000000          2/16
   6:     0.37500000    0.12500000    0.00000000          2/16
   7:     0.37500000    0.37500000    0.00000000          2/16

Wave functions: Uniform real-space grid
  Kinetic energy operator: 6*3+1=19 point O(h^6) finite-difference Laplacian
  ScaLapack parameters: grid=1x1, blocksize=None
  Wavefunction extrapolation:
    Improved wavefunction reuse through dual PAW basis 

Occupation numbers: Fermi-Dirac:
  width: 0.0500  # eV
 

Eigensolver
   Davidson(niter=2) 

Densities:
  Coarse grid: 60*60*156 grid
  Fine grid: 120*120*312 grid
  Total Charge: 0.000000 

Density mixing:
  Method: separate
  Backend: pulay
  Linear mixing parameter: 0.05
  old densities: 5
  Damping of long wavelength oscillations: 50 

Hamiltonian:
  XC and Coulomb potentials evaluated on a 120*120*312 grid
  Using the BEEF-vdW Exchange-Correlation functional
  Interpolation: tri-quintic (5. degree polynomial)
  Poisson solver: FastPoissonSolver using
    Stencil: 6*3+1=19 point O(h^6) finite-difference Laplacian
    FFT axes: [0, 1]
    FST axes: [2]

Dipole correction along z-axis 

XC parameters: BEEF-vdW with 2 nearest neighbor stencil

Memory estimate:
  Process memory now: 218.35 MiB
  Calculator: 353.93 MiB
    Density: 116.65 MiB
      Arrays: 36.75 MiB
      Localized functions: 65.89 MiB
      Mixer: 14.01 MiB
    Hamiltonian: 29.24 MiB
      Arrays: 24.03 MiB
      XC: 0.00 MiB
      Poisson: 0.00 MiB
      vbar: 5.20 MiB
    Wavefunctions: 208.04 MiB
      Arrays psit_nG: 95.25 MiB
      Eigensolver: 109.44 MiB
      Projections: 0.04 MiB
      Projectors: 3.32 MiB

Total number of cores used: 24
Parallelization over k-points: 8
Domain decomposition: 1 x 1 x 3

Number of atoms: 42
Number of atomic orbitals: 156
Number of bands in calculation: 34
Number of valence electrons: 50
Bands to converge: occupied

... initialized

Initializing position-dependent things.

Density initialized from atomic densities
Creating initial wave functions:
  34 bands from LCAO basis set

       .-----------------------.  
      /|                       |  
     / |                       |  
    /  |                       |  
   /   |                       |  
  /    |                       |  
 *     |                       |  
 |     |                       |  
 |     |                       |  
 |     |                       |  
 |     |                       |  
 | H   |                       |  
 | H   |               H  C    |  
 |     |                       |  
 |O  Li|     Li      Li        |  
 |     |  Li      Li     HLi   |  
 | Li  |   Li      Li          |  
 |     |Li      Li      Li     |  
 Li    | Li      Li            |  
 |   LLi     LLi     LLi       |  
 |     |  Li      Li      Li   |  
 | Li  |   Li      Li          |  
 |     |Li      Li      Li     |  
 Li    | Li      Li            |  
 |    Li      Li      Li       |  
 |     |                       |  
 |     |                       |  
 |     |                       |  
 |     |                       |  
 |     |                       |  
 |     |                       |  
 |     .-----------------------.  
 |    /                       /   
 |   /                       /    
 |  /                       /     
 | /                       /      
 |/                       /       
 *-----------------------*        

Positions:
   0 Li     1.617037    1.617037   10.000000    ( 0.0000,  0.0000,  0.0000)
   1 Li     4.851111    1.617037   10.000000    ( 0.0000,  0.0000,  0.0000)
   2 Li     8.085185    1.617037   10.000000    ( 0.0000,  0.0000,  0.0000)
   3 Li     1.617037    4.851111   10.000000    ( 0.0000,  0.0000,  0.0000)
   4 Li     4.851111    4.851111   10.000000    ( 0.0000,  0.0000,  0.0000)
   5 Li     8.085185    4.851111   10.000000    ( 0.0000,  0.0000,  0.0000)
   6 Li     1.617037    8.085185   10.000000    ( 0.0000,  0.0000,  0.0000)
   7 Li     4.851111    8.085185   10.000000    ( 0.0000,  0.0000,  0.0000)
   8 Li     8.085185    8.085185   10.000000    ( 0.0000,  0.0000,  0.0000)
   9 Li     0.000000    0.000000   11.617037    ( 0.0000,  0.0000,  0.0000)
  10 Li     3.234074    0.000000   11.617037    ( 0.0000,  0.0000,  0.0000)
  11 Li     6.468148    0.000000   11.617037    ( 0.0000,  0.0000,  0.0000)
  12 Li     0.000000    3.234074   11.617037    ( 0.0000,  0.0000,  0.0000)
  13 Li     3.234074    3.234074   11.617037    ( 0.0000,  0.0000,  0.0000)
  14 Li     6.468148    3.234074   11.617037    ( 0.0000,  0.0000,  0.0000)
  15 Li     0.000000    6.468148   11.617037    ( 0.0000,  0.0000,  0.0000)
  16 Li     3.234074    6.468148   11.617037    ( 0.0000,  0.0000,  0.0000)
  17 Li     6.468148    6.468148   11.617037    ( 0.0000,  0.0000,  0.0000)
  18 Li     1.617038    1.617038   13.469728    ( 0.0000,  0.0000,  0.0000)
  19 Li     4.851111    1.617038   13.469729    ( 0.0000,  0.0000,  0.0000)
  20 Li     8.085184    1.617038   13.469728    ( 0.0000,  0.0000,  0.0000)
  21 Li     1.617038    4.851111   13.469729    ( 0.0000,  0.0000,  0.0000)
  22 Li     4.851111    4.851111   13.469730    ( 0.0000,  0.0000,  0.0000)
  23 Li     8.085184    4.851111   13.469729    ( 0.0000,  0.0000,  0.0000)
  24 Li     1.617038    8.085184   13.469728    ( 0.0000,  0.0000,  0.0000)
  25 Li     4.851111    8.085184   13.469729    ( 0.0000,  0.0000,  0.0000)
  26 Li     8.085184    8.085184   13.469728    ( 0.0000,  0.0000,  0.0000)
  27 Li    -0.000000   -0.000000   15.445939    ( 0.0000,  0.0000,  0.0000)
  28 Li     3.234074    0.000000   15.445939    ( 0.0000,  0.0000,  0.0000)
  29 Li     6.468148    0.000000   15.445939    ( 0.0000,  0.0000,  0.0000)
  30 Li     0.000000    3.234074   15.445939    ( 0.0000,  0.0000,  0.0000)
  31 Li     3.234076    3.234076   15.445938    ( 0.0000,  0.0000,  0.0000)
  32 Li     6.468146    3.234076   15.445938    ( 0.0000,  0.0000,  0.0000)
  33 Li     0.000000    6.468148   15.445939    ( 0.0000,  0.0000,  0.0000)
  34 Li     3.234076    6.468146   15.445938    ( 0.0000,  0.0000,  0.0000)
  35 Li     6.468146    6.468146   15.445938    ( 0.0000,  0.0000,  0.0000)
  36 O      0.000000    1.617037   17.445939    ( 0.0000,  0.0000,  0.0000)
  37 C     -0.005499    1.601963   18.875902    ( 0.0000,  0.0000,  0.0000)
  38 H      0.681650    0.852010   19.280173    ( 0.0000,  0.0000,  0.0000)
  39 H     -1.007288    1.423554   19.279414    ( 0.0000,  0.0000,  0.0000)
  40 H      0.327429    2.587678   19.195346    ( 0.0000,  0.0000,  0.0000)
  41 H     -0.291005    0.753908   17.134284    ( 0.0000,  0.0000,  0.0000)

Unit cell:
           periodic     x           y           z      points  spacing
  1. axis:    yes    9.702222    0.000000    0.000000    60     0.1617
  2. axis:    yes    0.000000    9.702222    0.000000    60     0.1617
  3. axis:    no     0.000000    0.000000   24.851111   156     0.1593

  Lengths:   9.702222   9.702222  24.851111
  Angles:   90.000000  90.000000  90.000000

Effective grid spacing dv^(1/3) = 0.1609

     iter     time        total  log10-change:
                         energy  eigst   dens
iter:   1 16:57:32  -319.836636
iter:   2 16:58:09  -192.902408  +2.30  -0.14
iter:   3 16:58:46  -166.584303  +2.98  -0.32
iter:   4 16:59:22  -191.321477  +2.77  -0.40
Writing to output.gpw (mode='')

iter:   5 17:00:02  -210.969628  +2.55  -0.49
iter:   6 17:00:39  -230.570953  +2.39  -0.61
iter:   7 17:01:16  -236.682429  +1.88  -0.71
iter:   8 17:01:53  -238.648971  +1.60  -0.74
iter:   9 17:02:30  -238.466501  +1.42  -0.76
Writing to output.gpw (mode='')

iter:  10 17:03:09  -241.674838  +1.31  -0.79
iter:  11 17:03:46  -245.913663  +1.37  -0.81
iter:  12 17:04:23  -248.080460  +1.14  -0.80
iter:  13 17:05:00  -247.915207  +0.89  -0.82
iter:  14 17:05:37  -248.726106  +0.77  -0.95
Writing to output.gpw (mode='')

iter:  15 17:06:15  -249.161245  +0.40  -0.90
iter:  16 17:06:52  -249.632415  +0.15  -0.90
iter:  17 17:07:29  -249.888469  +0.87  -0.88
iter:  18 17:08:06  -247.437420  +0.44  -0.72
iter:  19 17:08:43  -247.127549  +0.52  -0.94
Writing to output.gpw (mode='')

iter:  20 17:09:23  -246.834791  +0.34  -1.00
iter:  21 17:10:00  -246.967298  +0.74  -1.23
iter:  22 17:10:37  -246.949154  +0.21  -1.29
iter:  23 17:11:13  -246.875297  -0.26  -1.32
iter:  24 17:11:50  -246.877644  -0.65  -1.38
Writing to output.gpw (mode='')

iter:  25 17:12:30  -246.849693  -0.67  -1.40
iter:  26 17:13:06  -246.774096  -0.36  -1.44
iter:  27 17:13:43  -246.791590  -0.99  -1.74
iter:  28 17:14:21  -246.791765c -1.05  -1.83
iter:  29 17:14:58  -246.794106c -1.11  -1.98
Writing to output.gpw (mode='')

iter:  30 17:15:37  -246.799814c -1.27  -2.03
iter:  31 17:16:14  -246.804361c -1.57  -2.20
iter:  32 17:16:51  -246.807496c -1.58  -2.28
iter:  33 17:17:28  -246.810658c -1.52  -2.39
iter:  34 17:18:06  -246.814149c -1.60  -2.46
Writing to output.gpw (mode='')

iter:  35 17:18:44  -246.815956c -2.00  -2.53
iter:  36 17:19:21  -246.817752c -1.89  -2.53
iter:  37 17:19:59  -246.818810c -2.23  -2.64
iter:  38 17:20:35  -246.819924c -2.06  -2.81
iter:  39 17:21:12  -246.820721c -2.45  -2.89
Writing to output.gpw (mode='')

iter:  40 17:21:53  -246.821522c -2.27  -2.89
iter:  41 17:22:30  -246.822471c -2.16  -2.88
iter:  42 17:23:07  -246.823120c -2.40  -2.98
iter:  43 17:23:44  -246.823770c -2.36  -3.07
iter:  44 17:24:21  -246.824192c -2.74  -3.15
Writing to output.gpw (mode='')

iter:  45 17:25:00  -246.824588c -2.61  -3.15
iter:  46 17:25:37  -246.824946c -2.66  -3.12
iter:  47 17:26:14  -246.825304c -2.55  -3.12
iter:  48 17:26:51  -246.825567c -2.81  -3.08
iter:  49 17:27:28  -246.825784c -2.94  -3.07
Writing to output.gpw (mode='')

iter:  50 17:28:07  -246.825957c -3.10  -3.04
iter:  51 17:28:44  -246.826139c -2.85  -3.02
iter:  52 17:29:21  -246.826360c -2.87  -3.01
iter:  53 17:29:58  -246.826497c -3.18  -2.99
iter:  54 17:30:35  -246.826611c -3.13  -2.98
Writing to output.gpw (mode='')

iter:  55 17:31:14  -246.826775c -3.02  -2.98
iter:  56 17:31:51  -246.826862c -3.36  -2.98
iter:  57 17:32:28  -246.826929c -3.45  -2.95
iter:  58 17:33:05  -246.826978c -3.68  -3.08
iter:  59 17:33:42  -246.827050c -3.51  -3.04
Writing to output.gpw (mode='')

iter:  60 17:34:21  -246.827106c -3.50  -3.27
iter:  61 17:34:58  -246.827125c -3.54  -3.24
iter:  62 17:35:35  -246.827149c -3.80  -3.34
iter:  63 17:36:13  -246.827172c -3.71  -3.30
iter:  64 17:36:49  -246.827193c -3.93  -3.33
Writing to output.gpw (mode='')

iter:  65 17:37:28  -246.827226c -3.62  -3.32
iter:  66 17:38:05  -246.827243c -3.65  -3.38
iter:  67 17:38:42  -246.827276c -3.47  -3.42
iter:  68 17:39:19  -246.827290c -3.80  -3.58
iter:  69 17:39:55  -246.827305c -3.97  -3.66
Writing to output.gpw (mode='')

iter:  70 17:40:35  -246.827321c -3.91  -3.75
iter:  71 17:41:12  -246.827329c -4.22  -3.98
iter:  72 17:41:48  -246.827335c -4.10  -4.05c
iter:  73 17:42:25  -246.827341c -4.08  -4.10c
iter:  74 17:43:02  -246.827347c -4.06  -4.17c
Writing to output.gpw (mode='')

iter:  75 17:43:41  -246.827352c -4.34  -4.25c
iter:  76 17:44:18  -246.827356c -4.41  -4.36c
iter:  77 17:44:55  -246.827358c -4.47  -4.54c
iter:  78 17:45:32  -246.827360c -4.46  -4.63c
iter:  79 17:46:09  -246.827362c -4.39  -4.65c
Writing to output.gpw (mode='')

iter:  80 17:46:47  -246.827363c -4.34  -4.77c
iter:  81 17:47:24  -246.827365c -4.57  -4.74c
iter:  82 17:48:01  -246.827365c -4.62  -4.98c
iter:  83 17:48:38  -246.827366c -4.65  -5.03c
iter:  84 17:49:15  -246.827367c -4.70  -5.07c
Writing to output.gpw (mode='')

iter:  85 17:49:53  -246.827367c -4.80  -5.04c
iter:  86 17:50:30  -246.827368c -4.81  -4.84c
iter:  87 17:51:07  -246.827368c -4.87  -4.88c
iter:  88 17:51:44  -246.827368c -4.87  -4.84c
iter:  89 17:52:21  -246.827368c -4.88  -4.79c
Writing to output.gpw (mode='')

iter:  90 17:53:00  -246.827368c -5.06  -4.67c
iter:  91 17:53:37  -246.827368c -5.13  -4.65c
iter:  92 17:54:14  -246.827368c -5.18  -4.57c
iter:  93 17:54:51  -246.827368c -5.11  -4.63c
iter:  94 17:55:28  -246.827368c -5.15  -4.68c
Writing to output.gpw (mode='')

iter:  95 17:56:06  -246.827368c -5.27  -4.61c
iter:  96 17:56:43  -246.827369c -5.35  -4.61c
iter:  97 17:57:20  -246.827369c -5.35  -4.80c
iter:  98 17:57:57  -246.827369c -5.53  -4.80c
iter:  99 17:58:34  -246.827369c -5.53  -4.74c
Writing to output.gpw (mode='')

iter: 100 17:59:13  -246.827369c -5.58  -4.86c
iter: 101 17:59:50  -246.827369c -5.58  -4.88c
iter: 102 18:00:27  -246.827369c -5.61  -5.05c
iter: 103 18:01:04  -246.827368c -5.54  -5.11c
iter: 104 18:01:41  -246.827368c -5.71  -5.26c
Writing to output.gpw (mode='')

iter: 105 18:02:21  -246.827368c -5.69  -5.33c
iter: 106 18:02:58  -246.827368c -5.85  -5.45c
iter: 107 18:03:34  -246.827368c -5.82  -5.55c
iter: 108 18:04:11  -246.827368c -5.96  -5.60c
iter: 109 18:04:48  -246.827368c -6.00  -5.80c
Writing to output.gpw (mode='')

iter: 110 18:05:27  -246.827368c -6.03  -5.88c
iter: 111 18:06:04  -246.827368c -6.00  -5.91c
iter: 112 18:06:41  -246.827367c -6.02  -5.92c
iter: 113 18:07:18  -246.827367c -5.98  -5.88c
iter: 114 18:07:55  -246.827367c -6.07  -5.79c
Writing to output.gpw (mode='')

iter: 115 18:08:33  -246.827367c -6.18  -5.76c
iter: 116 18:09:10  -246.827367c -6.21  -5.61c
iter: 117 18:09:47  -246.827367c -6.22  -5.63c
iter: 118 18:10:25  -246.827367c -6.36  -5.56c
iter: 119 18:11:02  -246.827367c -6.37  -5.55c
Writing to output.gpw (mode='')

iter: 120 18:11:40  -246.827367c -6.43  -5.61c
iter: 121 18:12:17  -246.827367c -6.47  -5.53c
iter: 122 18:12:54  -246.827367c -6.22  -5.49c
iter: 123 18:13:31  -246.827367c -6.57  -5.60c
iter: 124 18:14:08  -246.827367c -6.60  -5.61c
Writing to output.gpw (mode='')

iter: 125 18:14:46  -246.827366c -6.60  -5.35c
iter: 126 18:15:23  -246.827366c -6.71  -5.73c
iter: 127 18:15:59  -246.827366c -6.66  -5.60c
iter: 128 18:16:36  -246.827366c -6.65  -5.78c
iter: 129 18:17:13  -246.827366c -6.77  -5.80c
Writing to output.gpw (mode='')

iter: 130 18:17:52  -246.827366c -6.83  -5.74c
iter: 131 18:18:28  -246.827366c -6.84  -5.82c
iter: 132 18:19:05  -246.827366c -6.92  -5.83c
iter: 133 18:19:42  -246.827366c -6.91  -5.85c
iter: 134 18:20:19  -246.827366c -6.90  -5.89c
Writing to output.gpw (mode='')

iter: 135 18:20:58  -246.827366c -7.02  -6.16c
iter: 136 18:21:35  -246.827366c -7.04  -6.19c
iter: 137 18:22:11  -246.827366c -7.01  -6.33c
iter: 138 18:22:48  -246.827366c -7.07  -6.52c
iter: 139 18:23:25  -246.827366c -7.16  -6.58c
Writing to output.gpw (mode='')

iter: 140 18:24:04  -246.827366c -7.19  -6.59c
iter: 141 18:24:41  -246.827366c -7.22  -6.56c
iter: 142 18:25:18  -246.827366c -7.26  -6.45c
iter: 143 18:25:55  -246.827366c -7.29  -6.49c
iter: 144 18:26:32  -246.827366c -7.31  -6.45c
Writing to output.gpw (mode='')

iter: 145 18:27:11  -246.827366c -7.37  -6.45c
iter: 146 18:27:48  -246.827366c -7.40c -6.41c

Converged after 146 iterations.

Dipole moment: (-8.535201, -4.398608, 0.253722) |e|*Ang

Energy contributions relative to reference atoms: (reference = -10418.802594)

Kinetic:       +111.112986
Potential:     -101.470804
External:        +0.000000
XC:            -256.595039
Entropy (-ST):   -0.150674
Local:           +0.200828
--------------------------
Free energy:   -246.902703
Extrapolated:  -246.827366

Dipole-layer corrected work functions: 3.370432, 2.882691 eV

Showing only first 2 kpts
 Kpt  Band  Eigenvalues  Occupancy
  0    23     -3.38105    1.98776
  0    24     -3.28654    1.92163
  0    25     -2.96681    0.07871
  0    26     -2.87567    0.01315

  1    23     -3.17232    1.42813
  1    24     -3.12277    0.96206
  1    25     -3.08487    0.60563
  1    26     -3.05786    0.40397


Fermi level: -3.12656

No gap
Writing to output.gpw (mode='')


Forces in eV/Ang:
  0 Li    0.00720   -0.00032   -0.27695
  1 Li    0.00170    0.00296   -0.27053
  2 Li   -0.00852   -0.00398   -0.27581
  3 Li    0.00176    0.00531   -0.27129
  4 Li   -0.00297   -0.00510   -0.27075
  5 Li    0.00059    0.00322   -0.27035
  6 Li   -0.00336   -0.00534   -0.27304
  7 Li   -0.00056    0.00255   -0.27261
  8 Li    0.00380   -0.00025   -0.27163
  9 Li    0.00311    0.00307    0.27326
 10 Li    0.00485   -0.00168    0.26482
 11 Li   -0.00900   -0.00248    0.25673
 12 Li   -0.00211   -0.00940    0.28994
 13 Li    0.00984    0.00863    0.25443
 14 Li   -0.00796   -0.00125    0.25838
 15 Li   -0.00147    0.00778    0.25271
 16 Li   -0.00740   -0.00645    0.26091
 17 Li    0.00893    0.00460    0.27069
 18 Li    0.02264    0.00199   -0.05227
 19 Li   -0.00532    0.00174    0.05424
 20 Li   -0.01864   -0.00981   -0.01942
 21 Li   -0.01110   -0.01094    0.04656
 22 Li    0.00364    0.00466    0.04026
 23 Li    0.00828   -0.01015    0.03753
 24 Li   -0.00052    0.01134    0.04438
 25 Li   -0.00631   -0.00723    0.02439
 26 Li    0.00797    0.02342    0.06334
 27 Li    0.17022   -0.28086   -0.71213
 28 Li    0.03470   -0.02684   -0.03827
 29 Li   -0.00374   -0.02489   -0.02748
 30 Li   -0.00581   -0.12646    0.25986
 31 Li    0.04552    0.02389   -0.04313
 32 Li   -0.03571    0.00865   -0.03537
 33 Li   -0.00113    0.03354   -0.00463
 34 Li   -0.00980   -0.00007   -0.01854
 35 Li    0.01050    0.00585   -0.01208
 36 O     0.29795    0.72361   -0.26657
 37 C     0.02196    0.06306    0.47937
 38 H    -0.00479   -0.00715   -0.07859
 39 H    -0.00747   -0.00101   -0.08151
 40 H     0.01181    0.02394   -0.01731
 41 H    -0.53833   -0.41443    0.43362

System changes: positions 

Initializing position-dependent things.

Density initialized from wave functions
       .-----------------------.  
      /|                       |  
     / |                       |  
    /  |                       |  
   /   |                       |  
  /    |                       |  
 *     |                       |  
 |     |                       |  
 |     |                       |  
 |     |                       |  
 |     |                       |  
 | H   |                       |  
 | H   Li      Li      Hi C    |  
 |     |                       |  
 |O    |     Li      Li      Li|  
 |     |  Li      Li     HLi   |  
 |     |   Li      Li      Li  |  
 |     |Li      Li      Li     |  
 |     |                       |  
 |   LLi     LLi     LLi       |  
 |     |  Li      Li      Li   |  
 | Li  |   Li      Li          |  
 |     |Li      Li      Li     |  
 Li    | Li      Li            |  
 |    Li      Li      Li       |  
 |     |                       |  
 |     |                       |  
 |     |                       |  
 |     |                       |  
 |     |                       |  
 |     |                       |  
 |     .-----------------------.  
 |    /                       /   
 |   /                       /    
 |  /                       /     
 | /                       /      
 |/                       /       
 *-----------------------*        

Positions:
   0 Li     1.617037    1.617037   10.000000    ( 0.0000,  0.0000,  0.0000)
   1 Li     4.851111    1.617037   10.000000    ( 0.0000,  0.0000,  0.0000)
   2 Li     8.085185    1.617037   10.000000    ( 0.0000,  0.0000,  0.0000)
   3 Li     1.617037    4.851111   10.000000    ( 0.0000,  0.0000,  0.0000)
   4 Li     4.851111    4.851111   10.000000    ( 0.0000,  0.0000,  0.0000)
   5 Li     8.085185    4.851111   10.000000    ( 0.0000,  0.0000,  0.0000)
   6 Li     1.617037    8.085185   10.000000    ( 0.0000,  0.0000,  0.0000)
   7 Li     4.851111    8.085185   10.000000    ( 0.0000,  0.0000,  0.0000)
   8 Li     8.085185    8.085185   10.000000    ( 0.0000,  0.0000,  0.0000)
   9 Li     0.000000    0.000000   11.617037    ( 0.0000,  0.0000,  0.0000)
  10 Li     3.234074    0.000000   11.617037    ( 0.0000,  0.0000,  0.0000)
  11 Li     6.468148    0.000000   11.617037    ( 0.0000,  0.0000,  0.0000)
  12 Li     0.000000    3.234074   11.617037    ( 0.0000,  0.0000,  0.0000)
  13 Li     3.234074    3.234074   11.617037    ( 0.0000,  0.0000,  0.0000)
  14 Li     6.468148    3.234074   11.617037    ( 0.0000,  0.0000,  0.0000)
  15 Li     0.000000    6.468148   11.617037    ( 0.0000,  0.0000,  0.0000)
  16 Li     3.234074    6.468148   11.617037    ( 0.0000,  0.0000,  0.0000)
  17 Li     6.468148    6.468148   11.617037    ( 0.0000,  0.0000,  0.0000)
  18 Li     1.617362    1.617067   13.468981    ( 0.0000,  0.0000,  0.0000)
  19 Li     4.851035    1.617063   13.470504    ( 0.0000,  0.0000,  0.0000)
  20 Li     8.084918    1.616898   13.469450    ( 0.0000,  0.0000,  0.0000)
  21 Li     1.616880    4.850955   13.470395    ( 0.0000,  0.0000,  0.0000)
  22 Li     4.851163    4.851178   13.470305    ( 0.0000,  0.0000,  0.0000)
  23 Li     8.085302    4.850966   13.470266    ( 0.0000,  0.0000,  0.0000)
  24 Li     1.617031    8.085346   13.470362    ( 0.0000,  0.0000,  0.0000)
  25 Li     4.851021    8.085080   13.470078    ( 0.0000,  0.0000,  0.0000)
  26 Li     8.085298    8.085519   13.470633    ( 0.0000,  0.0000,  0.0000)
  27 Li     0.002432   -0.004012   15.435766    ( 0.0000,  0.0000,  0.0000)
  28 Li     3.234569   -0.000383   15.445392    ( 0.0000,  0.0000,  0.0000)
  29 Li     6.468095   -0.000356   15.445546    ( 0.0000,  0.0000,  0.0000)
  30 Li    -0.000083    3.232267   15.449651    ( 0.0000,  0.0000,  0.0000)
  31 Li     3.234727    3.234418   15.445322    ( 0.0000,  0.0000,  0.0000)
  32 Li     6.467635    3.234200   15.445433    ( 0.0000,  0.0000,  0.0000)
  33 Li    -0.000016    6.468627   15.445873    ( 0.0000,  0.0000,  0.0000)
  34 Li     3.233936    6.468145   15.445673    ( 0.0000,  0.0000,  0.0000)
  35 Li     6.468296    6.468229   15.445765    ( 0.0000,  0.0000,  0.0000)
  36 O      0.004256    1.627374   17.442131    ( 0.0000,  0.0000,  0.0000)
  37 C     -0.005186    1.602864   18.882750    ( 0.0000,  0.0000,  0.0000)
  38 H      0.681582    0.851908   19.279051    ( 0.0000,  0.0000,  0.0000)
  39 H     -1.007395    1.423540   19.278249    ( 0.0000,  0.0000,  0.0000)
  40 H      0.327598    2.588020   19.195098    ( 0.0000,  0.0000,  0.0000)
  41 H     -0.298695    0.747988   17.140479    ( 0.0000,  0.0000,  0.0000)

Unit cell:
           periodic     x           y           z      points  spacing
  1. axis:    yes    9.702222    0.000000    0.000000    60     0.1617
  2. axis:    yes    0.000000    9.702222    0.000000    60     0.1617
  3. axis:    no     0.000000    0.000000   24.851111   156     0.1593

  Lengths:   9.702222   9.702222  24.851111
  Angles:   90.000000  90.000000  90.000000

Effective grid spacing dv^(1/3) = 0.1609

     iter     time        total  log10-change:
                         energy  eigst   dens
iter:   1 18:28:41  -246.867714  -1.43
iter:   2 18:29:18  -246.861457  -2.02  -2.04
iter:   3 18:29:54  -246.859274c -2.72  -2.20
iter:   4 18:30:31  -246.857903c -1.53  -2.39
Writing to output.gpw (mode='')

iter:   5 18:31:09  -246.853290c -2.04  -2.20
iter:   6 18:31:46  -246.853516c -2.65  -2.59
iter:   7 18:32:23  -246.853487c -2.88  -2.61
iter:   8 18:32:59  -246.853696c -2.40  -2.53
iter:   9 18:33:36  -246.854455c -2.73  -2.69
Writing to output.gpw (mode='')

iter:  10 18:34:18  -246.854132c -3.56  -2.57
iter:  11 18:34:55  -246.852903c -3.14  -2.62
iter:  12 18:35:31  -246.852809c -2.56  -2.84
iter:  13 18:36:08  -246.852779c -3.35  -2.90
iter:  14 18:36:45  -246.852731c -3.48  -2.99
Writing to output.gpw (mode='')

iter:  15 18:37:24  -246.852731c -3.98  -3.30
iter:  16 18:38:00  -246.852736c -4.25  -3.37
iter:  17 18:38:37  -246.852749c -4.41  -3.41
iter:  18 18:39:14  -246.852746c -4.68  -3.59
iter:  19 18:39:50  -246.852746c -4.66  -3.65
Writing to output.gpw (mode='')

iter:  20 18:40:29  -246.852746c -5.14  -3.85
iter:  21 18:41:06  -246.852741c -5.49  -3.88
iter:  22 18:41:42  -246.852739c -5.37  -4.09c
iter:  23 18:42:19  -246.852739c -5.98  -4.17c
iter:  24 18:42:56  -246.852738c -6.12  -4.21c
Writing to output.gpw (mode='')

iter:  25 18:43:35  -246.852739c -6.16  -4.31c
iter:  26 18:44:11  -246.852739c -6.50  -4.42c
iter:  27 18:44:48  -246.852739c -6.68  -4.45c
iter:  28 18:45:25  -246.852739c -6.42  -4.67c
iter:  29 18:46:02  -246.852739c -6.93  -4.81c
Writing to output.gpw (mode='')

iter:  30 18:46:40  -246.852739c -7.04  -4.91c
iter:  31 18:47:17  -246.852739c -6.78  -4.95c
iter:  32 18:47:53  -246.852739c -7.14  -5.02c
iter:  33 18:48:30  -246.852739c -7.52c -5.13c

Converged after 33 iterations.

Dipole moment: (-9.000617, -4.342798, 0.255226) |e|*Ang

Energy contributions relative to reference atoms: (reference = -10418.802594)

Kinetic:       +110.360017
Potential:     -100.961694
External:        +0.000000
XC:            -256.375744
Entropy (-ST):   -0.150615
Local:           +0.199989
--------------------------
Free energy:   -246.928046
Extrapolated:  -246.852739

Dipole-layer corrected work functions: 3.369739, 2.879107 eV

Showing only first 2 kpts
 Kpt  Band  Eigenvalues  Occupancy
  0    23     -3.37906    1.98779
  0    24     -3.28420    1.92133
  0    25     -2.96473    0.07880
  0    26     -2.87367    0.01319

  1    23     -3.17086    1.43361
  1    24     -3.12070    0.96281
  1    25     -3.08254    0.60403
  1    26     -3.05514    0.40021


Fermi level: -3.12442

No gap
Writing to output.gpw (mode='')


Forces in eV/Ang:
  0 Li    0.00722   -0.00033   -0.27732
  1 Li    0.00169    0.00302   -0.27035
  2 Li   -0.00853   -0.00412   -0.27613
  3 Li    0.00179    0.00536   -0.27117
  4 Li   -0.00309   -0.00506   -0.27079
  5 Li    0.00061    0.00326   -0.27022
  6 Li   -0.00340   -0.00539   -0.27337
  7 Li   -0.00057    0.00253   -0.27234
  8 Li    0.00387   -0.00016   -0.27195
  9 Li    0.00319    0.00265    0.27463
 10 Li    0.00475   -0.00186    0.26561
 11 Li   -0.00908   -0.00265    0.25749
 12 Li   -0.00228   -0.00929    0.29038
 13 Li    0.01032    0.00927    0.25462
 14 Li   -0.00824   -0.00120    0.25883
 15 Li   -0.00158    0.00832    0.25352
 16 Li   -0.00718   -0.00693    0.26110
 17 Li    0.00883    0.00468    0.27142
 18 Li    0.02342    0.00381   -0.05422
 19 Li   -0.00521    0.00158    0.05288
 20 Li   -0.01877   -0.00853   -0.02094
 21 Li   -0.01174   -0.01130    0.04631
 22 Li    0.00375    0.00468    0.03931
 23 Li    0.00889   -0.01058    0.03728
 24 Li    0.00200    0.00856    0.03937
 25 Li   -0.00629   -0.00718    0.02355
 26 Li    0.00616    0.02118    0.05905
 27 Li    0.16332   -0.25998   -0.66773
 28 Li    0.03482   -0.02635   -0.03716
 29 Li   -0.00141   -0.02455   -0.02524
 30 Li   -0.00588   -0.13138    0.26671
 31 Li    0.04529    0.02362   -0.04221
 32 Li   -0.03581    0.00878   -0.03440
 33 Li   -0.00115    0.03249   -0.00399
 34 Li   -0.00941    0.00003   -0.01831
 35 Li    0.00996    0.00578   -0.01162
 36 O     0.07292    0.07048   -0.22243
 37 C     0.05000    0.14498    0.13255
 38 H     0.02935   -0.04394   -0.05130
 39 H    -0.05458   -0.00757   -0.05718
 40 H     0.03067    0.08005    0.06773
 41 H    -0.32915    0.18150    0.51783

System changes: positions 

Initializing position-dependent things.

Density initialized from wave functions
       .-----------------------.  
      /|                       |  
     / |                       |  
    /  |                       |  
   /   |                       |  
  /    |                       |  
 *     |                       |  
 |     |                       |  
 |     |                       |  
 |     |                       |  
 |     |                       |  
 | H   |                       |  
 | H   Li      Li      Hi C    |  
 |     |                       |  
 |O    |     Li      Li      Li|  
 |     |  Li      Li     HLi   |  
 |     |   Li      Li      Li  |  
 |     |Li      Li      Li     |  
 |     |                       |  
 |   LLi     LLi     LLi       |  
 |     |  Li      Li      Li   |  
 | Li  |   Li      Li          |  
 |     |Li      Li      Li     |  
 Li    | Li      Li            |  
 |    Li      Li      Li       |  
 |     |                       |  
 |     |                       |  
 |     |                       |  
 |     |                       |  
 |     |                       |  
 |     |                       |  
 |     .-----------------------.  
 |    /                       /   
 |   /                       /    
 |  /                       /     
 | /                       /      
 |/                       /       
 *-----------------------*        

Positions:
   0 Li     1.617037    1.617037   10.000000    ( 0.0000,  0.0000,  0.0000)
   1 Li     4.851111    1.617037   10.000000    ( 0.0000,  0.0000,  0.0000)
   2 Li     8.085185    1.617037   10.000000    ( 0.0000,  0.0000,  0.0000)
   3 Li     1.617037    4.851111   10.000000    ( 0.0000,  0.0000,  0.0000)
   4 Li     4.851111    4.851111   10.000000    ( 0.0000,  0.0000,  0.0000)
   5 Li     8.085185    4.851111   10.000000    ( 0.0000,  0.0000,  0.0000)
   6 Li     1.617037    8.085185   10.000000    ( 0.0000,  0.0000,  0.0000)
   7 Li     4.851111    8.085185   10.000000    ( 0.0000,  0.0000,  0.0000)
   8 Li     8.085185    8.085185   10.000000    ( 0.0000,  0.0000,  0.0000)
   9 Li     0.000000    0.000000   11.617037    ( 0.0000,  0.0000,  0.0000)
  10 Li     3.234074    0.000000   11.617037    ( 0.0000,  0.0000,  0.0000)
  11 Li     6.468148    0.000000   11.617037    ( 0.0000,  0.0000,  0.0000)
  12 Li     0.000000    3.234074   11.617037    ( 0.0000,  0.0000,  0.0000)
  13 Li     3.234074    3.234074   11.617037    ( 0.0000,  0.0000,  0.0000)
  14 Li     6.468148    3.234074   11.617037    ( 0.0000,  0.0000,  0.0000)
  15 Li     0.000000    6.468148   11.617037    ( 0.0000,  0.0000,  0.0000)
  16 Li     3.234074    6.468148   11.617037    ( 0.0000,  0.0000,  0.0000)
  17 Li     6.468148    6.468148   11.617037    ( 0.0000,  0.0000,  0.0000)
  18 Li     1.618426    1.617214   13.466520    ( 0.0000,  0.0000,  0.0000)
  19 Li     4.850794    1.617138   13.472954    ( 0.0000,  0.0000,  0.0000)
  20 Li     8.084057    1.616487   13.468512    ( 0.0000,  0.0000,  0.0000)
  21 Li     1.616350    4.850441   13.472526    ( 0.0000,  0.0000,  0.0000)
  22 Li     4.851334    4.851392   13.472125    ( 0.0000,  0.0000,  0.0000)
  23 Li     8.085701    4.850487   13.471982    ( 0.0000,  0.0000,  0.0000)
  24 Li     1.617084    8.085782   13.472246    ( 0.0000,  0.0000,  0.0000)
  25 Li     4.850732    8.084750   13.471172    ( 0.0000,  0.0000,  0.0000)
  26 Li     8.085608    8.086525   13.473410    ( 0.0000,  0.0000,  0.0000)
  27 Li     0.010039   -0.016272   15.404419    ( 0.0000,  0.0000,  0.0000)
  28 Li     3.236167   -0.001601   15.443668    ( 0.0000,  0.0000,  0.0000)
  29 Li     6.467995   -0.001488   15.444353    ( 0.0000,  0.0000,  0.0000)
  30 Li    -0.000352    3.226307   15.461798    ( 0.0000,  0.0000,  0.0000)
  31 Li     3.236811    3.235507   15.443369    ( 0.0000,  0.0000,  0.0000)
  32 Li     6.465992    3.234601   15.443838    ( 0.0000,  0.0000,  0.0000)
  33 Li    -0.000069    6.470136   15.445680    ( 0.0000,  0.0000,  0.0000)
  34 Li     3.233498    6.468144   15.444829    ( 0.0000,  0.0000,  0.0000)
  35 Li     6.468762    6.468496   15.445225    ( 0.0000,  0.0000,  0.0000)
  36 O      0.011028    1.640543   17.431243    ( 0.0000,  0.0000,  0.0000)
  37 C     -0.003315    1.608278   18.894113    ( 0.0000,  0.0000,  0.0000)
  38 H      0.682411    0.850449   19.276279    ( 0.0000,  0.0000,  0.0000)
  39 H     -1.009186    1.423292   19.275253    ( 0.0000,  0.0000,  0.0000)
  40 H      0.328720    2.590844   19.196916    ( 0.0000,  0.0000,  0.0000)
  41 H     -0.316995    0.747263   17.162984    ( 0.0000,  0.0000,  0.0000)

Unit cell:
           periodic     x           y           z      points  spacing
  1. axis:    yes    9.702222    0.000000    0.000000    60     0.1617
  2. axis:    yes    0.000000    9.702222    0.000000    60     0.1617
  3. axis:    no     0.000000    0.000000   24.851111   156     0.1593

  Lengths:   9.702222   9.702222  24.851111
  Angles:   90.000000  90.000000  90.000000

Effective grid spacing dv^(1/3) = 0.1609

     iter     time        total  log10-change:
                         energy  eigst   dens
iter:   1 18:49:21  -246.918500  -1.04
iter:   2 18:49:58  -246.910426  -1.68  -1.93
iter:   3 18:50:34  -246.906869c -2.29  -2.04
iter:   4 18:51:11  -246.903156c -1.08  -2.16
Writing to output.gpw (mode='')

iter:   5 18:51:50  -246.894304c -1.75  -2.05
iter:   6 18:52:27  -246.894755c -2.25  -2.49
iter:   7 18:53:04  -246.896244c -1.93  -2.52
iter:   8 18:53:40  -246.894967c -2.84  -2.38
iter:   9 18:54:17  -246.894940c -3.10  -2.48
Writing to output.gpw (mode='')

iter:  10 18:54:56  -246.892543c -2.37  -2.46
iter:  11 18:55:33  -246.892537c -2.59  -2.87
iter:  12 18:56:09  -246.892604c -3.03  -2.86
iter:  13 18:56:46  -246.892623c -3.95  -2.83
iter:  14 18:57:23  -246.892622c -3.05  -3.03
Writing to output.gpw (mode='')

iter:  15 18:58:03  -246.892505c -3.68  -2.97
iter:  16 18:58:40  -246.892495c -4.17  -3.27
iter:  17 18:59:17  -246.892497c -4.09  -3.38
iter:  18 18:59:53  -246.892503c -4.22  -3.62
iter:  19 19:00:30  -246.892499c -4.30  -3.61
Writing to output.gpw (mode='')

iter:  20 19:01:10  -246.892501c -5.14  -3.87
iter:  21 19:01:47  -246.892503c -5.28  -3.89
iter:  22 19:02:24  -246.892499c -4.88  -3.88
iter:  23 19:03:00  -246.892501c -5.54  -4.01c
iter:  24 19:03:37  -246.892500c -5.72  -4.15c
Writing to output.gpw (mode='')

iter:  25 19:04:19  -246.892502c -5.72  -4.18c
iter:  26 19:04:55  -246.892502c -5.97  -4.28c
iter:  27 19:05:32  -246.892503c -6.22  -4.33c
iter:  28 19:06:09  -246.892504c -6.21  -4.36c
iter:  29 19:06:46  -246.892504c -6.85  -4.46c
Writing to output.gpw (mode='')

iter:  30 19:07:29  -246.892504c -6.71  -4.52c
iter:  31 19:08:06  -246.892503c -6.32  -4.71c
iter:  32 19:08:43  -246.892503c -7.10  -4.86c
iter:  33 19:09:19  -246.892504c -7.11  -5.01c
iter:  34 19:09:56  -246.892503c -6.89  -5.14c
Writing to output.gpw (mode='')

iter:  35 19:10:34  -246.892503c -7.11  -5.24c
iter:  36 19:11:11  -246.892503c -7.39  -5.35c
iter:  37 19:11:47  -246.892503c -7.54c -5.48c

Converged after 37 iterations.

Dipole moment: (-9.913903, -4.150261, 0.263752) |e|*Ang

Energy contributions relative to reference atoms: (reference = -10418.802594)

Kinetic:       +109.390771
Potential:     -100.318519
External:        +0.000000
XC:            -256.086973
Entropy (-ST):   -0.150463
Local:           +0.197448
--------------------------
Free energy:   -246.967735
Extrapolated:  -246.892503

Dipole-layer corrected work functions: 3.368749, 2.861728 eV

Showing only first 2 kpts
 Kpt  Band  Eigenvalues  Occupancy
  0    23     -3.37026    1.98789
  0    24     -3.27494    1.92121
  0    25     -2.95500    0.07797
  0    26     -2.86482    0.01327

  1    23     -3.16204    1.43657
  1    24     -3.11174    0.96498
  1    25     -3.07325    0.60316
  1    26     -3.04526    0.39575


Fermi level: -3.11524

No gap
Writing to output.gpw (mode='')


Forces in eV/Ang:
  0 Li    0.00735   -0.00045   -0.27797
  1 Li    0.00173    0.00299   -0.27015
  2 Li   -0.00864   -0.00439   -0.27674
  3 Li    0.00162    0.00554   -0.27080
  4 Li   -0.00320   -0.00485   -0.27122
  5 Li    0.00070    0.00341   -0.27001
  6 Li   -0.00348   -0.00548   -0.27419
  7 Li   -0.00059    0.00271   -0.27194
  8 Li    0.00403   -0.00005   -0.27277
  9 Li    0.00321    0.00153    0.27831
 10 Li    0.00491   -0.00242    0.26742
 11 Li   -0.00960   -0.00323    0.25926
 12 Li   -0.00263   -0.00874    0.29077
 13 Li    0.01178    0.01085    0.25535
 14 Li   -0.00928   -0.00078    0.26001
 15 Li   -0.00171    0.00968    0.25568
 16 Li   -0.00719   -0.00805    0.26230
 17 Li    0.00902    0.00468    0.27349
 18 Li    0.02520    0.00903   -0.05691
 19 Li   -0.00460    0.00113    0.04804
 20 Li   -0.01892   -0.00462   -0.02321
 21 Li   -0.01359   -0.01273    0.04572
 22 Li    0.00382    0.00496    0.03549
 23 Li    0.01086   -0.01212    0.03718
 24 Li    0.00939    0.00023    0.02543
 25 Li   -0.00581   -0.00742    0.02069
 26 Li    0.00060    0.01431    0.04692
 27 Li    0.14017   -0.20767   -0.54282
 28 Li    0.03468   -0.02476   -0.03455
 29 Li    0.00151   -0.02357   -0.02281
 30 Li   -0.00605   -0.14298    0.27530
 31 Li    0.04434    0.02267   -0.04004
 32 Li   -0.03575    0.00881   -0.03234
 33 Li   -0.00106    0.02766   -0.00308
 34 Li   -0.00910    0.00067   -0.01693
 35 Li    0.00905    0.00581   -0.01021
 36 O    -0.16730   -0.52544    0.21765
 37 C     0.05115    0.11191   -0.38881
 38 H     0.03334   -0.02293   -0.03286
 39 H    -0.04084    0.01706   -0.04768
 40 H     0.07147    0.20038    0.18110
 41 H    -0.13738    0.57694    0.36300

System changes: positions 

Initializing position-dependent things.

Density initialized from wave functions
       .-----------------------.  
      /|                       |  
     / |                       |  
    /  |                       |  
   /   |                       |  
  /    |                       |  
 *     |                       |  
 |     |                       |  
 |     |                       |  
 |     |                       |  
 |     |                       |  
 | H   |                       |  
 | H   Li      Li      Hi C    |  
 |     |                       |  
 |O    |     Li      Li      Li|  
 |     |  Li      Li     HLi   |  
 |     |   Li      Li      Li  |  
 |     |Li      Li      Li     |  
 |     |                       |  
 |   LLi     LLi     LLi       |  
 |     |  Li      Li      Li   |  
 | Li  |   Li      Li          |  
 |     |Li      Li      Li     |  
 Li    | Li      Li            |  
 |    Li      Li      Li       |  
 |     |                       |  
 |     |                       |  
 |     |                       |  
 |     |                       |  
 |     |                       |  
 |     |                       |  
 |     .-----------------------.  
 |    /                       /   
 |   /                       /    
 |  /                       /     
 | /                       /      
 |/                       /       
 *-----------------------*        

Positions:
   0 Li     1.617037    1.617037   10.000000    ( 0.0000,  0.0000,  0.0000)
   1 Li     4.851111    1.617037   10.000000    ( 0.0000,  0.0000,  0.0000)
   2 Li     8.085185    1.617037   10.000000    ( 0.0000,  0.0000,  0.0000)
   3 Li     1.617037    4.851111   10.000000    ( 0.0000,  0.0000,  0.0000)
   4 Li     4.851111    4.851111   10.000000    ( 0.0000,  0.0000,  0.0000)
   5 Li     8.085185    4.851111   10.000000    ( 0.0000,  0.0000,  0.0000)
   6 Li     1.617037    8.085185   10.000000    ( 0.0000,  0.0000,  0.0000)
   7 Li     4.851111    8.085185   10.000000    ( 0.0000,  0.0000,  0.0000)
   8 Li     8.085185    8.085185   10.000000    ( 0.0000,  0.0000,  0.0000)
   9 Li     0.000000    0.000000   11.617037    ( 0.0000,  0.0000,  0.0000)
  10 Li     3.234074    0.000000   11.617037    ( 0.0000,  0.0000,  0.0000)
  11 Li     6.468148    0.000000   11.617037    ( 0.0000,  0.0000,  0.0000)
  12 Li     0.000000    3.234074   11.617037    ( 0.0000,  0.0000,  0.0000)
  13 Li     3.234074    3.234074   11.617037    ( 0.0000,  0.0000,  0.0000)
  14 Li     6.468148    3.234074   11.617037    ( 0.0000,  0.0000,  0.0000)
  15 Li     0.000000    6.468148   11.617037    ( 0.0000,  0.0000,  0.0000)
  16 Li     3.234074    6.468148   11.617037    ( 0.0000,  0.0000,  0.0000)
  17 Li     6.468148    6.468148   11.617037    ( 0.0000,  0.0000,  0.0000)
  18 Li     1.619773    1.617496   13.463434    ( 0.0000,  0.0000,  0.0000)
  19 Li     4.850508    1.617223   13.475886    ( 0.0000,  0.0000,  0.0000)
  20 Li     8.082992    1.616054   13.467312    ( 0.0000,  0.0000,  0.0000)
  21 Li     1.615661    4.849779   13.475147    ( 0.0000,  0.0000,  0.0000)
  22 Li     4.851545    4.851663   13.474299    ( 0.0000,  0.0000,  0.0000)
  23 Li     8.086232    4.849865   13.474100    ( 0.0000,  0.0000,  0.0000)
  24 Li     1.617292    8.086160   13.474308    ( 0.0000,  0.0000,  0.0000)
  25 Li     4.850384    8.084336   13.472468    ( 0.0000,  0.0000,  0.0000)
  26 Li     8.085885    8.087637   13.476609    ( 0.0000,  0.0000,  0.0000)
  27 Li     0.018986   -0.030423   15.368092    ( 0.0000,  0.0000,  0.0000)
  28 Li     3.238137   -0.003075   15.441589    ( 0.0000,  0.0000,  0.0000)
  29 Li     6.467921   -0.002869   15.442920    ( 0.0000,  0.0000,  0.0000)
  30 Li    -0.000687    3.218728   15.476948    ( 0.0000,  0.0000,  0.0000)
  31 Li     3.239366    3.236833   15.440998    ( 0.0000,  0.0000,  0.0000)
  32 Li     6.463964    3.235097   15.441906    ( 0.0000,  0.0000,  0.0000)
  33 Li    -0.000132    6.471904   15.445458    ( 0.0000,  0.0000,  0.0000)
  34 Li     3.232962    6.468157   15.443813    ( 0.0000,  0.0000,  0.0000)
  35 Li     6.469320    6.468826   15.444584    ( 0.0000,  0.0000,  0.0000)
  36 O      0.015365    1.647203   17.426660    ( 0.0000,  0.0000,  0.0000)
  37 C     -0.001095    1.613953   18.898835    ( 0.0000,  0.0000,  0.0000)
  38 H      0.683379    0.849227   19.273125    ( 0.0000,  0.0000,  0.0000)
  39 H     -1.010925    1.423518   19.271649    ( 0.0000,  0.0000,  0.0000)
  40 H      0.330868    2.596577   19.201147    ( 0.0000,  0.0000,  0.0000)
  41 H     -0.336502    0.752085   17.187258    ( 0.0000,  0.0000,  0.0000)

Unit cell:
           periodic     x           y           z      points  spacing
  1. axis:    yes    9.702222    0.000000    0.000000    60     0.1617
  2. axis:    yes    0.000000    9.702222    0.000000    60     0.1617
  3. axis:    no     0.000000    0.000000   24.851111   156     0.1593

  Lengths:   9.702222   9.702222  24.851111
  Angles:   90.000000  90.000000  90.000000

Effective grid spacing dv^(1/3) = 0.1609

     iter     time        total  log10-change:
                         energy  eigst   dens
iter:   1 19:12:38  -246.935749  -1.25
iter:   2 19:13:14  -246.933491  -1.96  -2.11
iter:   3 19:13:51  -246.932074c -2.51  -2.18
iter:   4 19:14:28  -246.927494c -1.72  -2.26
Writing to output.gpw (mode='')

iter:   5 19:15:06  -246.926996c -3.02  -2.39
iter:   6 19:15:43  -246.926124c -2.78  -2.64
iter:   7 19:16:20  -246.927307c -2.06  -2.78
iter:   8 19:16:56  -246.926550c -3.15  -2.52
iter:   9 19:17:33  -246.926272c -3.25  -2.64
Writing to output.gpw (mode='')

iter:  10 19:18:11  -246.926000c -3.24  -2.79
iter:  11 19:18:48  -246.925933c -2.99  -3.02
iter:  12 19:19:25  -246.925970c -3.99  -3.11
iter:  13 19:20:02  -246.926007c -3.59  -3.22
iter:  14 19:20:38  -246.925926c -4.07  -3.13
Writing to output.gpw (mode='')

iter:  15 19:21:17  -246.925913c -3.92  -3.48
iter:  16 19:21:54  -246.925924c -5.15  -3.62
iter:  17 19:22:30  -246.925922c -4.79  -3.71
iter:  18 19:23:07  -246.925915c -4.60  -3.90
iter:  19 19:23:44  -246.925916c -5.32  -3.94
Writing to output.gpw (mode='')

iter:  20 19:24:22  -246.925918c -5.90  -4.03c
iter:  21 19:24:59  -246.925920c -5.66  -4.22c
iter:  22 19:25:36  -246.925918c -6.08  -4.32c
iter:  23 19:26:12  -246.925919c -6.12  -4.45c
iter:  24 19:26:49  -246.925920c -6.12  -4.52c
Writing to output.gpw (mode='')

iter:  25 19:27:27  -246.925920c -6.58  -4.59c
iter:  26 19:28:04  -246.925920c -6.55  -4.59c
iter:  27 19:28:41  -246.925921c -6.77  -4.72c
iter:  28 19:29:17  -246.925921c -6.55  -4.79c
iter:  29 19:29:54  -246.925921c -7.23  -4.66c
Writing to output.gpw (mode='')

iter:  30 19:30:32  -246.925920c -6.65  -4.75c
iter:  31 19:31:09  -246.925920c -7.23  -4.83c
iter:  32 19:31:46  -246.925920c -7.09  -5.01c
iter:  33 19:32:23  -246.925920c -7.43c -5.19c

Converged after 33 iterations.

Dipole moment: (-10.653872, -3.910664, 0.267823) |e|*Ang

Energy contributions relative to reference atoms: (reference = -10418.802594)

Kinetic:       +108.907364
Potential:     -100.003945
External:        +0.000000
XC:            -255.951222
Entropy (-ST):   -0.150312
Local:           +0.197039
--------------------------
Free energy:   -247.001076
Extrapolated:  -246.925920

Dipole-layer corrected work functions: 3.368382, 2.853535 eV

Showing only first 2 kpts
 Kpt  Band  Eigenvalues  Occupancy
  0    23     -3.36635    1.98797
  0    24     -3.27072    1.92131
  0    25     -2.94984    0.07666
  0    26     -2.86083    0.01335

  1    23     -3.15761    1.43541
  1    24     -3.10745    0.96498
  1    25     -3.06915    0.60469
  1    26     -3.04062    0.39351


Fermi level: -3.11096

No gap
Writing to output.gpw (mode='')


Forces in eV/Ang:
  0 Li    0.00744   -0.00064   -0.27855
  1 Li    0.00181    0.00288   -0.27005
  2 Li   -0.00874   -0.00467   -0.27730
  3 Li    0.00133    0.00571   -0.27037
  4 Li   -0.00324   -0.00454   -0.27196
  5 Li    0.00078    0.00352   -0.26982
  6 Li   -0.00351   -0.00546   -0.27510
  7 Li   -0.00060    0.00299   -0.27166
  8 Li    0.00413    0.00010   -0.27372
  9 Li    0.00319    0.00024    0.28185
 10 Li    0.00523   -0.00314    0.26914
 11 Li   -0.01035   -0.00393    0.26095
 12 Li   -0.00300   -0.00802    0.29041
 13 Li    0.01353    0.01266    0.25604
 14 Li   -0.01058   -0.00016    0.26115
 15 Li   -0.00182    0.01125    0.25819
 16 Li   -0.00746   -0.00935    0.26382
 17 Li    0.00951    0.00454    0.27578
 18 Li    0.02679    0.01504   -0.05744
 19 Li   -0.00381    0.00054    0.04179
 20 Li   -0.01860   -0.00011   -0.02347
 21 Li   -0.01571   -0.01451    0.04524
 22 Li    0.00382    0.00543    0.03065
 23 Li    0.01320   -0.01396    0.03746
 24 Li    0.01858   -0.01006    0.00907
 25 Li   -0.00506   -0.00782    0.01719
 26 Li   -0.00632    0.00596    0.03278
 27 Li    0.11505   -0.16169   -0.42371
 28 Li    0.03366   -0.02257   -0.03166
 29 Li    0.00444   -0.02196   -0.02114
 30 Li   -0.00599   -0.15274    0.27815
 31 Li    0.04257    0.02125   -0.03760
 32 Li   -0.03501    0.00850   -0.03008
 33 Li   -0.00087    0.02132   -0.00208
 34 Li   -0.00890    0.00150   -0.01509
 35 Li    0.00804    0.00573   -0.00853
 36 O    -0.29424   -0.76048    0.45336
 37 C     0.05876    0.12637   -0.51848
 38 H     0.00919    0.03490   -0.02567
 39 H     0.02587    0.05399   -0.05048
 40 H     0.06568    0.18094    0.20629
 41 H    -0.04770    0.67451    0.14349

System changes: positions 

Initializing position-dependent things.

Density initialized from wave functions
       .-----------------------.  
      /|                       |  
     / |                       |  
    /  |                       |  
   /   |                       |  
  /    |                       |  
 *     |                       |  
 |     |                       |  
 |     |                       |  
 |     |                       |  
 |     |                       |  
 | H   |                       |  
 |CH   Li      Li      Hi      |  
 |     |                       |  
 |O    |     Li      Li      Li|  
 |     |  Li      Li     HLi   |  
 |     |   Li      Li      Li  |  
 |     |Li      Li      Li     |  
 |     |                       |  
 |   LLi     LLi     LLi       |  
 |     |  Li      Li      Li   |  
 | Li  |   Li      Li          |  
 |     |Li      Li      Li     |  
 Li    | Li      Li            |  
 |    Li      Li      Li       |  
 |     |                       |  
 |     |                       |  
 |     |                       |  
 |     |                       |  
 |     |                       |  
 |     |                       |  
 |     .-----------------------.  
 |    /                       /   
 |   /                       /    
 |  /                       /     
 | /                       /      
 |/                       /       
 *-----------------------*        

Positions:
   0 Li     1.617037    1.617037   10.000000    ( 0.0000,  0.0000,  0.0000)
   1 Li     4.851111    1.617037   10.000000    ( 0.0000,  0.0000,  0.0000)
   2 Li     8.085185    1.617037   10.000000    ( 0.0000,  0.0000,  0.0000)
   3 Li     1.617037    4.851111   10.000000    ( 0.0000,  0.0000,  0.0000)
   4 Li     4.851111    4.851111   10.000000    ( 0.0000,  0.0000,  0.0000)
   5 Li     8.085185    4.851111   10.000000    ( 0.0000,  0.0000,  0.0000)
   6 Li     1.617037    8.085185   10.000000    ( 0.0000,  0.0000,  0.0000)
   7 Li     4.851111    8.085185   10.000000    ( 0.0000,  0.0000,  0.0000)
   8 Li     8.085185    8.085185   10.000000    ( 0.0000,  0.0000,  0.0000)
   9 Li     0.000000    0.000000   11.617037    ( 0.0000,  0.0000,  0.0000)
  10 Li     3.234074    0.000000   11.617037    ( 0.0000,  0.0000,  0.0000)
  11 Li     6.468148    0.000000   11.617037    ( 0.0000,  0.0000,  0.0000)
  12 Li     0.000000    3.234074   11.617037    ( 0.0000,  0.0000,  0.0000)
  13 Li     3.234074    3.234074   11.617037    ( 0.0000,  0.0000,  0.0000)
  14 Li     6.468148    3.234074   11.617037    ( 0.0000,  0.0000,  0.0000)
  15 Li     0.000000    6.468148   11.617037    ( 0.0000,  0.0000,  0.0000)
  16 Li     3.234074    6.468148   11.617037    ( 0.0000,  0.0000,  0.0000)
  17 Li     6.468148    6.468148   11.617037    ( 0.0000,  0.0000,  0.0000)
  18 Li     1.621239    1.617912   13.460132    ( 0.0000,  0.0000,  0.0000)
  19 Li     4.850219    1.617301   13.478887    ( 0.0000,  0.0000,  0.0000)
  20 Li     8.081864    1.615681   13.466024    ( 0.0000,  0.0000,  0.0000)
  21 Li     1.614886    4.849039   13.477927    ( 0.0000,  0.0000,  0.0000)
  22 Li     4.851771    4.851960   13.476520    ( 0.0000,  0.0000,  0.0000)
  23 Li     8.086843    4.849167   13.476361    ( 0.0000,  0.0000,  0.0000)
  24 Li     1.617690    8.086364   13.476186    ( 0.0000,  0.0000,  0.0000)
  25 Li     4.850028    8.083889   13.473781    ( 0.0000,  0.0000,  0.0000)
  26 Li     8.086046    8.088659   13.479741    ( 0.0000,  0.0000,  0.0000)
  27 Li     0.028020   -0.044565   15.331782    ( 0.0000,  0.0000,  0.0000)
  28 Li     3.240216   -0.004602   15.439431    ( 0.0000,  0.0000,  0.0000)
  29 Li     6.467900   -0.004308   15.441428    ( 0.0000,  0.0000,  0.0000)
  30 Li    -0.001044    3.210462   15.493147    ( 0.0000,  0.0000,  0.0000)
  31 Li     3.242053    3.238219   15.438521    ( 0.0000,  0.0000,  0.0000)
  32 Li     6.461818    3.235620   15.439894    ( 0.0000,  0.0000,  0.0000)
  33 Li    -0.000195    6.473664   15.445240    ( 0.0000,  0.0000,  0.0000)
  34 Li     3.232395    6.468186   15.442767    ( 0.0000,  0.0000,  0.0000)
  35 Li     6.469896    6.469176   15.443934    ( 0.0000,  0.0000,  0.0000)
  36 O      0.017268    1.648986   17.427057    ( 0.0000,  0.0000,  0.0000)
  37 C      0.001383    1.620089   18.900360    ( 0.0000,  0.0000,  0.0000)
  38 H      0.683986    0.848999   19.269925    ( 0.0000,  0.0000,  0.0000)
  39 H     -1.011567    1.424465   19.267776    ( 0.0000,  0.0000,  0.0000)
  40 H      0.333162    2.602664   19.206356    ( 0.0000,  0.0000,  0.0000)
  41 H     -0.355321    0.759633   17.208848    ( 0.0000,  0.0000,  0.0000)

Unit cell:
           periodic     x           y           z      points  spacing
  1. axis:    yes    9.702222    0.000000    0.000000    60     0.1617
  2. axis:    yes    0.000000    9.702222    0.000000    60     0.1617
  3. axis:    no     0.000000    0.000000   24.851111   156     0.1593

  Lengths:   9.702222   9.702222  24.851111
  Angles:   90.000000  90.000000  90.000000

Effective grid spacing dv^(1/3) = 0.1609

     iter     time        total  log10-change:
                         energy  eigst   dens
iter:   1 19:33:13  -246.961268  -1.38
iter:   2 19:33:50  -246.960766  -2.17  -2.21
iter:   3 19:34:26  -246.957642c -2.39  -2.28
iter:   4 19:35:03  -246.957424c -3.20  -2.55
Writing to output.gpw (mode='')

iter:   5 19:35:41  -246.957046c -2.54  -2.68
iter:   6 19:36:18  -246.957588c -2.31  -2.78
iter:   7 19:36:55  -246.956911c -3.58  -2.64
iter:   8 19:37:31  -246.956920c -2.93  -3.02
iter:   9 19:38:08  -246.957019c -3.29  -3.00
Writing to output.gpw (mode='')

iter:  10 19:38:47  -246.956871c -4.10  -3.00
iter:  11 19:39:24  -246.956867c -3.60  -3.24
iter:  12 19:40:01  -246.956864c -4.32  -3.30
iter:  13 19:40:37  -246.956873c -4.49  -3.54
iter:  14 19:41:14  -246.956869c -4.69  -3.66
Writing to output.gpw (mode='')

iter:  15 19:41:54  -246.956871c -5.05  -3.77
iter:  16 19:42:30  -246.956869c -5.30  -3.82
iter:  17 19:43:07  -246.956871c -5.11  -4.08c
iter:  18 19:43:44  -246.956869c -5.64  -3.98
iter:  19 19:44:21  -246.956868c -5.71  -4.32c
Writing to output.gpw (mode='')

iter:  20 19:45:00  -246.956868c -5.93  -4.40c
iter:  21 19:45:37  -246.956868c -6.15  -4.44c
iter:  22 19:46:14  -246.956868c -6.14  -4.60c
iter:  23 19:46:51  -246.956868c -6.38  -4.75c
iter:  24 19:47:28  -246.956868c -6.43  -4.80c
Writing to output.gpw (mode='')

iter:  25 19:48:10  -246.956869c -6.58  -4.90c
iter:  26 19:48:46  -246.956869c -6.85  -5.07c
iter:  27 19:49:23  -246.956869c -6.80  -5.10c
iter:  28 19:50:00  -246.956869c -6.70  -5.16c
iter:  29 19:50:37  -246.956869c -6.89  -5.31c
Writing to output.gpw (mode='')

iter:  30 19:51:16  -246.956869c -7.12  -5.38c
iter:  31 19:51:52  -246.956869c -7.14  -5.36c
iter:  32 19:52:29  -246.956869c -7.30  -5.27c
iter:  33 19:53:06  -246.956869c -7.41c -5.31c

Converged after 33 iterations.

Dipole moment: (-11.197502, -3.660122, 0.269621) |e|*Ang

Energy contributions relative to reference atoms: (reference = -10418.802594)

Kinetic:       +108.860216
Potential:      -99.990582
External:        +0.000000
XC:            -255.948396
Entropy (-ST):   -0.150179
Local:           +0.196982
--------------------------
Free energy:   -247.031958
Extrapolated:  -246.956869

Dipole-layer corrected work functions: 3.368352, 2.850047 eV

Showing only first 2 kpts
 Kpt  Band  Eigenvalues  Occupancy
  0    23     -3.36491    1.98805
  0    24     -3.26906    1.92146
  0    25     -2.94714    0.07529
  0    26     -2.85932    0.01342

  1    23     -3.15545    1.43214
  1    24     -3.10560    0.96398
  1    25     -3.06774    0.60766
  1    26     -3.03868    0.39233


Fermi level: -3.10920

No gap
Writing to output.gpw (mode='')


Forces in eV/Ang:
  0 Li    0.00750   -0.00087   -0.27901
  1 Li    0.00191    0.00273   -0.26998
  2 Li   -0.00882   -0.00493   -0.27775
  3 Li    0.00098    0.00587   -0.26985
  4 Li   -0.00323   -0.00419   -0.27277
  5 Li    0.00085    0.00360   -0.26957
  6 Li   -0.00351   -0.00539   -0.27598
  7 Li   -0.00062    0.00334   -0.27140
  8 Li    0.00421    0.00027   -0.27464
  9 Li    0.00313   -0.00107    0.28493
 10 Li    0.00562   -0.00389    0.27072
 11 Li   -0.01116   -0.00465    0.26250
 12 Li   -0.00337   -0.00723    0.28959
 13 Li    0.01536    0.01456    0.25668
 14 Li   -0.01194    0.00058    0.26224
 15 Li   -0.00193    0.01280    0.26079
 16 Li   -0.00778   -0.01078    0.26540
 17 Li    0.01010    0.00423    0.27805
 18 Li    0.02806    0.02104   -0.05646
 19 Li   -0.00298   -0.00009    0.03514
 20 Li   -0.01791    0.00432   -0.02236
 21 Li   -0.01781   -0.01636    0.04482
 22 Li    0.00377    0.00599    0.02546
 23 Li    0.01556   -0.01584    0.03790
 24 Li    0.02853   -0.02114   -0.00786
 25 Li   -0.00419   -0.00828    0.01354
 26 Li   -0.01375   -0.00279    0.01841
 27 Li    0.09235   -0.12605   -0.32529
 28 Li    0.03207   -0.02017   -0.02882
 29 Li    0.00714   -0.02008   -0.02015
 30 Li   -0.00569   -0.16045    0.27700
 31 Li    0.04040    0.01970   -0.03518
 32 Li   -0.03384    0.00801   -0.02783
 33 Li   -0.00064    0.01458   -0.00111
 34 Li   -0.00873    0.00234   -0.01311
 35 Li    0.00699    0.00556   -0.00685
 36 O    -0.31750   -0.72831    0.53923
 37 C     0.04947    0.09466   -0.49487
 38 H    -0.01306    0.09544   -0.01457
 39 H     0.08994    0.09123   -0.04321
 40 H     0.05670    0.14228    0.19727
 41 H    -0.02422    0.59743   -0.06152

System changes: positions 

Initializing position-dependent things.

Density initialized from wave functions
       .-----------------------.  
      /|                       |  
     / |                       |  
    /  |                       |  
   /   |                       |  
  /    |                       |  
 *     |                       |  
 |     |                       |  
 |     |                       |  
 |     |                       |  
 |     |                       |  
 | H   |                       |  
 |CH   Li      Li      Hi      |  
 |     |                       |  
 |O    |     Li      Li      Li|  
 |     |  Li      Li     HLi   |  
 |     |   Li      Li      Li  |  
 |     |Li      Li      Li     |  
 |     |                       |  
 |   LLi     LLi     LLi       |  
 |     |  Li      Li      Li   |  
 | Li  |   Li      Li          |  
 |     |Li      Li      Li     |  
 Li    | Li      Li            |  
 |    Li      Li      Li       |  
 |     |                       |  
 |     |                       |  
 |     |                       |  
 |     |                       |  
 |     |                       |  
 |     |                       |  
 |     .-----------------------.  
 |    /                       /   
 |   /                       /    
 |  /                       /     
 | /                       /      
 |/                       /       
 *-----------------------*        

Positions:
   0 Li     1.617037    1.617037   10.000000    ( 0.0000,  0.0000,  0.0000)
   1 Li     4.851111    1.617037   10.000000    ( 0.0000,  0.0000,  0.0000)
   2 Li     8.085185    1.617037   10.000000    ( 0.0000,  0.0000,  0.0000)
   3 Li     1.617037    4.851111   10.000000    ( 0.0000,  0.0000,  0.0000)
   4 Li     4.851111    4.851111   10.000000    ( 0.0000,  0.0000,  0.0000)
   5 Li     8.085185    4.851111   10.000000    ( 0.0000,  0.0000,  0.0000)
   6 Li     1.617037    8.085185   10.000000    ( 0.0000,  0.0000,  0.0000)
   7 Li     4.851111    8.085185   10.000000    ( 0.0000,  0.0000,  0.0000)
   8 Li     8.085185    8.085185   10.000000    ( 0.0000,  0.0000,  0.0000)
   9 Li     0.000000    0.000000   11.617037    ( 0.0000,  0.0000,  0.0000)
  10 Li     3.234074    0.000000   11.617037    ( 0.0000,  0.0000,  0.0000)
  11 Li     6.468148    0.000000   11.617037    ( 0.0000,  0.0000,  0.0000)
  12 Li     0.000000    3.234074   11.617037    ( 0.0000,  0.0000,  0.0000)
  13 Li     3.234074    3.234074   11.617037    ( 0.0000,  0.0000,  0.0000)
  14 Li     6.468148    3.234074   11.617037    ( 0.0000,  0.0000,  0.0000)
  15 Li     0.000000    6.468148   11.617037    ( 0.0000,  0.0000,  0.0000)
  16 Li     3.234074    6.468148   11.617037    ( 0.0000,  0.0000,  0.0000)
  17 Li     6.468148    6.468148   11.617037    ( 0.0000,  0.0000,  0.0000)
  18 Li     1.622839    1.618499   13.456611    ( 0.0000,  0.0000,  0.0000)
  19 Li     4.849930    1.617370   13.481941    ( 0.0000,  0.0000,  0.0000)
  20 Li     8.080670    1.615387   13.464660    ( 0.0000,  0.0000,  0.0000)
  21 Li     1.614008    4.848207   13.480887    ( 0.0000,  0.0000,  0.0000)
  22 Li     4.852011    4.852290   13.478773    ( 0.0000,  0.0000,  0.0000)
  23 Li     8.087550    4.848378   13.478783    ( 0.0000,  0.0000,  0.0000)
  24 Li     1.618343    8.086328   13.477797    ( 0.0000,  0.0000,  0.0000)
  25 Li     4.849668    8.083400   13.475099    ( 0.0000,  0.0000,  0.0000)
  26 Li     8.086048    8.089549   13.482749    ( 0.0000,  0.0000,  0.0000)
  27 Li     0.037120   -0.058732   15.295499    ( 0.0000,  0.0000,  0.0000)
  28 Li     3.242406   -0.006179   15.437193    ( 0.0000,  0.0000,  0.0000)
  29 Li     6.467946   -0.005805   15.439866    ( 0.0000,  0.0000,  0.0000)
  30 Li    -0.001420    3.201425   15.510474    ( 0.0000,  0.0000,  0.0000)
  31 Li     3.244877    3.239664   15.435933    ( 0.0000,  0.0000,  0.0000)
  32 Li     6.459548    3.236169   15.437798    ( 0.0000,  0.0000,  0.0000)
  33 Li    -0.000258    6.475392   15.445032    ( 0.0000,  0.0000,  0.0000)
  34 Li     3.231794    6.468237   15.441694    ( 0.0000,  0.0000,  0.0000)
  35 Li     6.470486    6.469547   15.443280    ( 0.0000,  0.0000,  0.0000)
  36 O      0.017576    1.648330   17.431003    ( 0.0000,  0.0000,  0.0000)
  37 C      0.003916    1.626102   18.900120    ( 0.0000,  0.0000,  0.0000)
  38 H      0.684223    0.850018   19.266813    ( 0.0000,  0.0000,  0.0000)
  39 H     -1.010938    1.426311   19.263819    ( 0.0000,  0.0000,  0.0000)
  40 H      0.335582    2.608846   19.212260    ( 0.0000,  0.0000,  0.0000)
  41 H     -0.373956    0.768432   17.227282    ( 0.0000,  0.0000,  0.0000)

Unit cell:
           periodic     x           y           z      points  spacing
  1. axis:    yes    9.702222    0.000000    0.000000    60     0.1617
  2. axis:    yes    0.000000    9.702222    0.000000    60     0.1617
  3. axis:    no     0.000000    0.000000   24.851111   156     0.1593

  Lengths:   9.702222   9.702222  24.851111
  Angles:   90.000000  90.000000  90.000000

Effective grid spacing dv^(1/3) = 0.1609

     iter     time        total  log10-change:
                         energy  eigst   dens
iter:   1 19:53:57  -246.990113  -1.39
iter:   2 19:54:34  -246.988902  -2.17  -2.17
iter:   3 19:55:11  -246.987784c -2.74  -2.29
iter:   4 19:55:48  -246.986574c -2.15  -2.37
Writing to output.gpw (mode='')

iter:   5 19:56:26  -246.986164c -3.06  -2.49
iter:   6 19:57:03  -246.985802c -2.50  -2.65
iter:   7 19:57:40  -246.985786c -2.90  -2.76
iter:   8 19:58:17  -246.985548c -3.48  -2.84
iter:   9 19:58:54  -246.985553c -3.87  -3.19
Writing to output.gpw (mode='')

iter:  10 19:59:32  -246.985528c -4.05  -3.22
iter:  11 20:00:09  -246.985517c -4.21  -3.37
iter:  12 20:00:46  -246.985524c -4.58  -3.61
iter:  13 20:01:23  -246.985528c -4.92  -3.69
iter:  14 20:02:00  -246.985530c -4.90  -3.73
Writing to output.gpw (mode='')

iter:  15 20:02:39  -246.985530c -5.10  -3.92
iter:  16 20:03:16  -246.985530c -5.21  -3.98
iter:  17 20:03:53  -246.985530c -5.47  -4.08c
iter:  18 20:04:30  -246.985529c -5.62  -4.16c
iter:  19 20:05:07  -246.985530c -5.89  -4.30c
Writing to output.gpw (mode='')

iter:  20 20:05:47  -246.985530c -5.94  -4.39c
iter:  21 20:06:24  -246.985530c -5.80  -4.44c
iter:  22 20:07:01  -246.985529c -5.96  -4.52c
iter:  23 20:07:38  -246.985530c -6.08  -4.62c
iter:  24 20:08:15  -246.985530c -6.45  -4.70c
Writing to output.gpw (mode='')

iter:  25 20:08:55  -246.985530c -6.34  -4.75c
iter:  26 20:09:32  -246.985530c -6.57  -4.89c
iter:  27 20:10:09  -246.985530c -6.93  -4.90c
iter:  28 20:10:46  -246.985530c -6.81  -4.97c
iter:  29 20:11:23  -246.985530c -6.95  -5.06c
Writing to output.gpw (mode='')

iter:  30 20:12:02  -246.985530c -7.01  -5.08c
iter:  31 20:12:39  -246.985530c -6.94  -5.15c
iter:  32 20:13:16  -246.985530c -7.31  -5.28c
iter:  33 20:13:53  -246.985530c -7.34  -5.30c
iter:  34 20:14:31  -246.985530c -7.44c -5.35c

Converged after 34 iterations.

Dipole moment: (-11.604757, -3.402269, 0.269623) |e|*Ang

Energy contributions relative to reference atoms: (reference = -10418.802594)

Kinetic:       +109.095573
Potential:     -100.173329
External:        +0.000000
XC:            -256.029639
Entropy (-ST):   -0.150060
Local:           +0.196895
--------------------------
Free energy:   -247.060560
Extrapolated:  -246.985530

Dipole-layer corrected work functions: 3.368574, 2.850266 eV

Showing only first 2 kpts
 Kpt  Band  Eigenvalues  Occupancy
  0    23     -3.36543    1.98812
  0    24     -3.26935    1.92157
  0    25     -2.94647    0.07400
  0    26     -2.85977    0.01348

  1    23     -3.15521    1.42835
  1    24     -3.10564    0.96227
  1    25     -3.06841    0.61142
  1    26     -3.03873    0.39128


Fermi level: -3.10942

No gap
Writing to output.gpw (mode='')


Forces in eV/Ang:
  0 Li    0.00754   -0.00110   -0.27948
  1 Li    0.00201    0.00260   -0.26996
  2 Li   -0.00887   -0.00518   -0.27819
  3 Li    0.00062    0.00601   -0.26933
  4 Li   -0.00323   -0.00383   -0.27371
  5 Li    0.00089    0.00364   -0.26934
  6 Li   -0.00347   -0.00529   -0.27693
  7 Li   -0.00065    0.00369   -0.27119
  8 Li    0.00426    0.00047   -0.27562
  9 Li    0.00307   -0.00241    0.28772
 10 Li    0.00601   -0.00463    0.27224
 11 Li   -0.01200   -0.00534    0.26396
 12 Li   -0.00375   -0.00640    0.28832
 13 Li    0.01731    0.01658    0.25722
 14 Li   -0.01336    0.00141    0.26329
 15 Li   -0.00204    0.01437    0.26353
 16 Li   -0.00807   -0.01243    0.26691
 17 Li    0.01069    0.00375    0.28027
 18 Li    0.02910    0.02692   -0.05441
 19 Li   -0.00213   -0.00076    0.02824
 20 Li   -0.01689    0.00857   -0.02024
 21 Li   -0.01982   -0.01818    0.04447
 22 Li    0.00368    0.00659    0.02008
 23 Li    0.01787   -0.01771    0.03848
 24 Li    0.03923   -0.03300   -0.02535
 25 Li   -0.00326   -0.00874    0.00992
 26 Li   -0.02157   -0.01190    0.00381
 27 Li    0.07129   -0.09523   -0.24139
 28 Li    0.03005   -0.01762   -0.02599
 29 Li    0.00992   -0.01797   -0.01932
 30 Li   -0.00511   -0.16671    0.27366
 31 Li    0.03788    0.01799   -0.03263
 32 Li   -0.03234    0.00736   -0.02549
 33 Li   -0.00038    0.00770   -0.00010
 34 Li   -0.00847    0.00320   -0.01108
 35 Li    0.00580    0.00527   -0.00516
 36 O    -0.28862   -0.58358    0.50694
 37 C     0.04554    0.07446   -0.38736
 38 H    -0.02024    0.13786    0.00595
 39 H     0.12834    0.12009   -0.01953
 40 H     0.03920    0.08091    0.16047
 41 H    -0.04751    0.46406   -0.21919

System changes: positions 

Initializing position-dependent things.

Density initialized from wave functions
       .-----------------------.  
      /|                       |  
     / |                       |  
    /  |                       |  
   /   |                       |  
  /    |                       |  
 *     |                       |  
 |     |                       |  
 |     |                       |  
 |     |                       |  
 |     |                       |  
 | H   |                       |  
 |CH   Li      Li      Hi      |  
 |     |                       |  
 |O    |     Li      Li      Li|  
 |     |  Li      Li     HLi   |  
 |     |   Li      Li      Li  |  
 |     |Li      Li      Li     |  
 |     |                       |  
 |   LLi     LLi     LLi       |  
 |     |  Li      Li      Li   |  
 | Li  |   Li      Li          |  
 |     |Li      Li      Li     |  
 Li    | Li      Li            |  
 |    Li      Li      Li       |  
 |     |                       |  
 |     |                       |  
 |     |                       |  
 |     |                       |  
 |     |                       |  
 |     |                       |  
 |     .-----------------------.  
 |    /                       /   
 |   /                       /    
 |  /                       /     
 | /                       /      
 |/                       /       
 *-----------------------*        

Positions:
   0 Li     1.617037    1.617037   10.000000    ( 0.0000,  0.0000,  0.0000)
   1 Li     4.851111    1.617037   10.000000    ( 0.0000,  0.0000,  0.0000)
   2 Li     8.085185    1.617037   10.000000    ( 0.0000,  0.0000,  0.0000)
   3 Li     1.617037    4.851111   10.000000    ( 0.0000,  0.0000,  0.0000)
   4 Li     4.851111    4.851111   10.000000    ( 0.0000,  0.0000,  0.0000)
   5 Li     8.085185    4.851111   10.000000    ( 0.0000,  0.0000,  0.0000)
   6 Li     1.617037    8.085185   10.000000    ( 0.0000,  0.0000,  0.0000)
   7 Li     4.851111    8.085185   10.000000    ( 0.0000,  0.0000,  0.0000)
   8 Li     8.085185    8.085185   10.000000    ( 0.0000,  0.0000,  0.0000)
   9 Li     0.000000    0.000000   11.617037    ( 0.0000,  0.0000,  0.0000)
  10 Li     3.234074    0.000000   11.617037    ( 0.0000,  0.0000,  0.0000)
  11 Li     6.468148    0.000000   11.617037    ( 0.0000,  0.0000,  0.0000)
  12 Li     0.000000    3.234074   11.617037    ( 0.0000,  0.0000,  0.0000)
  13 Li     3.234074    3.234074   11.617037    ( 0.0000,  0.0000,  0.0000)
  14 Li     6.468148    3.234074   11.617037    ( 0.0000,  0.0000,  0.0000)
  15 Li     0.000000    6.468148   11.617037    ( 0.0000,  0.0000,  0.0000)
  16 Li     3.234074    6.468148   11.617037    ( 0.0000,  0.0000,  0.0000)
  17 Li     6.468148    6.468148   11.617037    ( 0.0000,  0.0000,  0.0000)
  18 Li     1.624589    1.619291   13.452863    ( 0.0000,  0.0000,  0.0000)
  19 Li     4.849642    1.617426   13.485033    ( 0.0000,  0.0000,  0.0000)
  20 Li     8.079412    1.615191   13.463229    ( 0.0000,  0.0000,  0.0000)
  21 Li     1.613010    4.847264   13.484049    ( 0.0000,  0.0000,  0.0000)
  22 Li     4.852268    4.852658   13.481048    ( 0.0000,  0.0000,  0.0000)
  23 Li     8.088372    4.847481   13.481393    ( 0.0000,  0.0000,  0.0000)
  24 Li     1.619325    8.085977   13.479053    ( 0.0000,  0.0000,  0.0000)
  25 Li     4.849304    8.082865   13.476414    ( 0.0000,  0.0000,  0.0000)
  26 Li     8.085843    8.090260   13.485577    ( 0.0000,  0.0000,  0.0000)
  27 Li     0.046266   -0.072919   15.259235    ( 0.0000,  0.0000,  0.0000)
  28 Li     3.244708   -0.007803   15.434872    ( 0.0000,  0.0000,  0.0000)
  29 Li     6.468075   -0.007357   15.438227    ( 0.0000,  0.0000,  0.0000)
  30 Li    -0.001812    3.191526   15.529034    ( 0.0000,  0.0000,  0.0000)
  31 Li     3.247844    3.241170   15.433227    ( 0.0000,  0.0000,  0.0000)
  32 Li     6.457147    3.236743   15.435614    ( 0.0000,  0.0000,  0.0000)
  33 Li    -0.000319    6.477062   15.444837    ( 0.0000,  0.0000,  0.0000)
  34 Li     3.231157    6.468314   15.440597    ( 0.0000,  0.0000,  0.0000)
  35 Li     6.471086    6.469938   15.442624    ( 0.0000,  0.0000,  0.0000)
  36 O      0.016858    1.646680   17.436925    ( 0.0000,  0.0000,  0.0000)
  37 C      0.006615    1.632192   18.899335    ( 0.0000,  0.0000,  0.0000)
  38 H      0.684292    0.852225   19.264020    ( 0.0000,  0.0000,  0.0000)
  39 H     -1.009231    1.429099   19.260109    ( 0.0000,  0.0000,  0.0000)
  40 H      0.337965    2.614630   19.218455    ( 0.0000,  0.0000,  0.0000)
  41 H     -0.393064    0.777802   17.242615    ( 0.0000,  0.0000,  0.0000)

Unit cell:
           periodic     x           y           z      points  spacing
  1. axis:    yes    9.702222    0.000000    0.000000    60     0.1617
  2. axis:    yes    0.000000    9.702222    0.000000    60     0.1617
  3. axis:    no     0.000000    0.000000   24.851111   156     0.1593

  Lengths:   9.702222   9.702222  24.851111
  Angles:   90.000000  90.000000  90.000000

Effective grid spacing dv^(1/3) = 0.1609

     iter     time        total  log10-change:
                         energy  eigst   dens
iter:   1 20:15:22  -247.015035  -1.36
iter:   2 20:15:59  -247.013037  -2.15  -2.13
iter:   3 20:16:36  -247.012168c -2.70  -2.29
iter:   4 20:17:13  -247.010741c -2.13  -2.36
Writing to output.gpw (mode='')

iter:   5 20:17:52  -247.010334c -3.09  -2.48
iter:   6 20:18:29  -247.009834c -2.64  -2.65
iter:   7 20:19:06  -247.009916c -2.73  -2.78
iter:   8 20:19:43  -247.009678c -3.52  -2.85
iter:   9 20:20:20  -247.009642c -3.72  -3.13
Writing to output.gpw (mode='')

iter:  10 20:20:59  -247.009642c -4.25  -3.29
iter:  11 20:21:36  -247.009629c -4.33  -3.38
iter:  12 20:22:13  -247.009637c -4.49  -3.59
iter:  13 20:22:49  -247.009644c -4.83  -3.68
iter:  14 20:23:27  -247.009648c -4.93  -3.75
Writing to output.gpw (mode='')

iter:  15 20:24:05  -247.009647c -4.97  -3.79
iter:  16 20:24:42  -247.009642c -5.08  -3.84
iter:  17 20:25:19  -247.009642c -5.60  -4.07c
iter:  18 20:25:56  -247.009642c -5.48  -4.14c
iter:  19 20:26:33  -247.009641c -5.84  -4.22c
Writing to output.gpw (mode='')

iter:  20 20:27:16  -247.009641c -5.79  -4.42c
iter:  21 20:27:53  -247.009641c -6.16  -4.54c
iter:  22 20:28:29  -247.009642c -6.08  -4.56c
iter:  23 20:29:06  -247.009642c -6.24  -4.69c
iter:  24 20:29:43  -247.009642c -6.48  -4.79c
Writing to output.gpw (mode='')

iter:  25 20:30:26  -247.009642c -6.43  -4.87c
iter:  26 20:31:04  -247.009642c -6.50  -4.96c
iter:  27 20:31:40  -247.009642c -6.77  -4.98c
iter:  28 20:32:17  -247.009642c -6.96  -5.16c
iter:  29 20:32:54  -247.009642c -6.71  -5.30c
Writing to output.gpw (mode='')

iter:  30 20:33:33  -247.009642c -7.12  -5.38c
iter:  31 20:34:10  -247.009642c -7.18  -5.42c
iter:  32 20:34:47  -247.009642c -7.30  -5.46c
iter:  33 20:35:24  -247.009642c -7.30  -5.57c
iter:  34 20:36:01  -247.009642c -7.64c -5.69c

Converged after 34 iterations.

Dipole moment: (-11.934266, -3.140226, 0.268598) |e|*Ang

Energy contributions relative to reference atoms: (reference = -10418.802594)

Kinetic:       +109.495304
Potential:     -100.469615
External:        +0.000000
XC:            -256.157269
Entropy (-ST):   -0.149955
Local:           +0.196915
--------------------------
Free energy:   -247.084620
Extrapolated:  -247.009642

Dipole-layer corrected work functions: 3.368851, 2.852514 eV

Showing only first 2 kpts
 Kpt  Band  Eigenvalues  Occupancy
  0    23     -3.36700    1.98819
  0    24     -3.27062    1.92158
  0    25     -2.94693    0.07287
  0    26     -2.86127    0.01354

  1    23     -3.15605    1.42488
  1    24     -3.10671    0.96029
  1    25     -3.07015    0.61547
  1    26     -3.03976    0.38980


Fermi level: -3.11068

No gap
Writing to output.gpw (mode='')


Forces in eV/Ang:
  0 Li    0.00755   -0.00135   -0.27993
  1 Li    0.00210    0.00248   -0.26993
  2 Li   -0.00890   -0.00544   -0.27862
  3 Li    0.00025    0.00614   -0.26874
  4 Li   -0.00322   -0.00345   -0.27471
  5 Li    0.00091    0.00366   -0.26906
  6 Li   -0.00344   -0.00515   -0.27787
  7 Li   -0.00070    0.00405   -0.27092
  8 Li    0.00433    0.00071   -0.27662
  9 Li    0.00303   -0.00381    0.29019
 10 Li    0.00638   -0.00537    0.27374
 11 Li   -0.01286   -0.00602    0.26541
 12 Li   -0.00416   -0.00550    0.28678
 13 Li    0.01935    0.01881    0.25772
 14 Li   -0.01480    0.00233    0.26437
 15 Li   -0.00218    0.01589    0.26640
 16 Li   -0.00824   -0.01435    0.26833
 17 Li    0.01126    0.00308    0.28249
 18 Li    0.02990    0.03271   -0.05159
 19 Li   -0.00124   -0.00147    0.02109
 20 Li   -0.01555    0.01267   -0.01737
 21 Li   -0.02178   -0.01997    0.04402
 22 Li    0.00359    0.00724    0.01454
 23 Li    0.02013   -0.01956    0.03901
 24 Li    0.05069   -0.04566   -0.04345
 25 Li   -0.00229   -0.00919    0.00624
 26 Li   -0.02981   -0.02134   -0.01102
 27 Li    0.05232   -0.06767   -0.16759
 28 Li    0.02761   -0.01493   -0.02306
 29 Li    0.01292   -0.01570   -0.01845
 30 Li   -0.00432   -0.17293    0.27017
 31 Li    0.03507    0.01620   -0.02986
 32 Li   -0.03055    0.00664   -0.02297
 33 Li   -0.00012    0.00082    0.00106
 34 Li   -0.00803    0.00399   -0.00899
 35 Li    0.00441    0.00487   -0.00343
 36 O    -0.23775   -0.40441    0.40022
 37 C     0.03298    0.04059   -0.24738
 38 H    -0.01259    0.16145    0.03612
 39 H     0.14376    0.13927    0.02160
 40 H     0.03101    0.03524    0.11924
 41 H    -0.06825    0.32635   -0.34942

System changes: positions 

Initializing position-dependent things.

Density initialized from wave functions
       .-----------------------.  
      /|                       |  
     / |                       |  
    /  |                       |  
   /   |                       |  
  /    |                       |  
 *     |                       |  
 |     |                       |  
 |     |                       |  
 |     |                       |  
 |     |                       |  
 | H   |                       |  
 |CH   Li      Li      Hi      |  
 |     |                       |  
 |O    |     Li      Li      Li|  
 |     |  Li      Li    H Li   |  
 |     |   Li      Li      Li  |  
 |     |Li      Li      Li     |  
 |     |                       |  
 |   LLi     LLi     LLi       |  
 |     |  Li      Li      Li   |  
 | Li  |   Li      Li          |  
 |     |Li      Li      Li     |  
[...]
iter:  14 21:23:09  -247.411612c -6.24  -4.25c
Writing to output.gpw (mode='')

iter:  15 21:23:49  -247.411610c -6.24  -4.33c
iter:  16 21:24:26  -247.411609c -6.36  -4.54c
iter:  17 21:25:03  -247.411610c -6.76  -4.62c
iter:  18 21:25:40  -247.411609c -6.74  -4.67c
iter:  19 21:26:17  -247.411609c -7.09  -4.89c
Writing to output.gpw (mode='')

iter:  20 21:26:56  -247.411609c -7.01  -4.94c
iter:  21 21:27:34  -247.411609c -7.25  -5.07c
iter:  22 21:28:11  -247.411609c -7.52c -5.17c

Converged after 22 iterations.

Dipole moment: (-5.054379, -1.303267, 0.276611) |e|*Ang

Energy contributions relative to reference atoms: (reference = -10418.802594)

Kinetic:       +109.862023
Potential:     -100.976304
External:        +0.000000
XC:            -256.426792
Entropy (-ST):   -0.151281
Local:           +0.205103
--------------------------
Free energy:   -247.487250
Extrapolated:  -247.411609

Dipole-layer corrected work functions: 3.371051, 2.839309 eV

Showing only first 2 kpts
 Kpt  Band  Eigenvalues  Occupancy
  0    23     -3.34491    1.98359
  0    24     -3.26014    1.91371
  0    25     -2.94920    0.08461
  0    26     -2.83941    0.00978

  1    23     -3.16053    1.50311
  1    24     -3.09766    0.92492
  1    25     -3.06887    0.65206
  1    26     -3.03236    0.37803


Fermi level: -3.10518

No gap
Writing to output.gpw (mode='')


Forces in eV/Ang:
  0 Li    0.00185    0.00206   -0.26992
  1 Li    0.00382    0.00368   -0.27722
  2 Li   -0.00717   -0.00427   -0.27259
  3 Li    0.00481    0.00570   -0.26864
  4 Li   -0.00553    0.00165   -0.28125
  5 Li   -0.00001    0.00212   -0.26946
  6 Li   -0.00001   -0.00318   -0.28019
  7 Li   -0.00230   -0.00061   -0.26429
  8 Li    0.00215    0.00655   -0.27855
  9 Li    0.00632   -0.00232    0.29666
 10 Li   -0.00623    0.00938    0.27818
 11 Li    0.00989   -0.00556    0.27633
 12 Li   -0.00077   -0.02142    0.25374
 13 Li    0.00790    0.00753    0.27395
 14 Li    0.00468   -0.00425    0.29374
 15 Li    0.01348   -0.01618    0.28770
 16 Li   -0.03919   -0.04402    0.27672
 17 Li    0.03189   -0.02203    0.29114
 18 Li   -0.00094    0.00195    0.00203
 19 Li   -0.00176    0.01006   -0.00257
 20 Li   -0.00537    0.00502    0.00670
 21 Li   -0.00716    0.00243    0.00234
 22 Li    0.00202    0.00192    0.00169
 23 Li   -0.00093    0.00527    0.00291
 24 Li   -0.00357   -0.00082    0.00763
 25 Li   -0.00304   -0.00352   -0.00429
 26 Li    0.00348    0.00025   -0.00126
 27 Li   -0.00308   -0.00771   -0.02421
 28 Li   -0.00361   -0.00091   -0.01129
 29 Li   -0.00241   -0.00043   -0.01171
 30 Li   -0.00408    0.02040    0.01200
 31 Li   -0.00033    0.00360   -0.00760
 32 Li   -0.00414    0.00383    0.00347
 33 Li    0.00098    0.00670    0.00305
 34 Li   -0.00238   -0.00275   -0.00333
 35 Li    0.00286    0.00466   -0.00152
 36 O     0.01859   -0.01531   -0.05808
 37 C    -0.03295   -0.01869    0.00497
 38 H    -0.00797    0.04453   -0.03149
 39 H     0.01525    0.01762    0.02634
 40 H     0.02007   -0.00973    0.00592
 41 H     0.03815    0.02488    0.01290

System changes: positions 

Initializing position-dependent things.

Density initialized from wave functions
       .-----------------------.  
      /|                       |  
     / |                       |  
    /  |                       |  
   /   |                       |  
  /    |                       |  
 *     |                       |  
 |     |                       |  
 |     |                       |  
 |     |                       |  
 |     |                       |  
 |     |                       |  
 |C H  Li      Li      LH      |  
 | H   |                       |  
 |   Li|     Li      LiH O     |  
 | Li  |  Li      Li      Li   |  
 |     |   Li      Li          |  
 |     |Li      Li      Li     |  
 |     |                       |  
 |   LLi     LLi     LLi       |  
 |     |  Li      Li      Li   |  
 | Li  |   Li      Li          |  
 |     |Li      Li      Li     |  
 Li    | Li      Li            |  
 |    Li      Li      Li       |  
 |     |                       |  
 |     |                       |  
 |     |                       |  
 |     |                       |  
 |     |                       |  
 |     |                       |  
 |     .-----------------------.  
 |    /                       /   
 |   /                       /    
 |  /                       /     
 | /                       /      
 |/                       /       
 *-----------------------*        

Positions:
   0 Li     1.617037    1.617037   10.000000    ( 0.0000,  0.0000,  0.0000)
   1 Li     4.851111    1.617037   10.000000    ( 0.0000,  0.0000,  0.0000)
   2 Li     8.085185    1.617037   10.000000    ( 0.0000,  0.0000,  0.0000)
   3 Li     1.617037    4.851111   10.000000    ( 0.0000,  0.0000,  0.0000)
   4 Li     4.851111    4.851111   10.000000    ( 0.0000,  0.0000,  0.0000)
   5 Li     8.085185    4.851111   10.000000    ( 0.0000,  0.0000,  0.0000)
   6 Li     1.617037    8.085185   10.000000    ( 0.0000,  0.0000,  0.0000)
   7 Li     4.851111    8.085185   10.000000    ( 0.0000,  0.0000,  0.0000)
   8 Li     8.085185    8.085185   10.000000    ( 0.0000,  0.0000,  0.0000)
   9 Li     0.000000    0.000000   11.617037    ( 0.0000,  0.0000,  0.0000)
  10 Li     3.234074    0.000000   11.617037    ( 0.0000,  0.0000,  0.0000)
  11 Li     6.468148    0.000000   11.617037    ( 0.0000,  0.0000,  0.0000)
  12 Li     0.000000    3.234074   11.617037    ( 0.0000,  0.0000,  0.0000)
  13 Li     3.234074    3.234074   11.617037    ( 0.0000,  0.0000,  0.0000)
  14 Li     6.468148    3.234074   11.617037    ( 0.0000,  0.0000,  0.0000)
  15 Li     0.000000    6.468148   11.617037    ( 0.0000,  0.0000,  0.0000)
  16 Li     3.234074    6.468148   11.617037    ( 0.0000,  0.0000,  0.0000)
  17 Li     6.468148    6.468148   11.617037    ( 0.0000,  0.0000,  0.0000)
  18 Li     1.610433    1.632994   13.503444    ( 0.0000,  0.0000,  0.0000)
  19 Li     4.854510    1.592254   13.472857    ( 0.0000,  0.0000,  0.0000)
  20 Li     8.106804    1.615229   13.508814    ( 0.0000,  0.0000,  0.0000)
  21 Li     1.588303    4.790440   13.546488    ( 0.0000,  0.0000,  0.0000)
  22 Li     4.848837    4.866927   13.463339    ( 0.0000,  0.0000,  0.0000)
  23 Li     8.123715    4.799694   13.520672    ( 0.0000,  0.0000,  0.0000)
  24 Li     1.636538    8.071135   13.468899    ( 0.0000,  0.0000,  0.0000)
  25 Li     4.845028    8.073274   13.464145    ( 0.0000,  0.0000,  0.0000)
  26 Li     8.078559    8.062014   13.477431    ( 0.0000,  0.0000,  0.0000)
  27 Li     0.017363   -0.120596   15.370570    ( 0.0000,  0.0000,  0.0000)
  28 Li     3.252756   -0.014562   15.427634    ( 0.0000,  0.0000,  0.0000)
  29 Li     6.463071   -0.033534   15.419597    ( 0.0000,  0.0000,  0.0000)
  30 Li     0.056364    3.152424   15.824808    ( 0.0000,  0.0000,  0.0000)
  31 Li     3.303501    3.238017   15.423743    ( 0.0000,  0.0000,  0.0000)
  32 Li     6.400745    3.210112   15.391720    ( 0.0000,  0.0000,  0.0000)
  33 Li     0.012325    6.469507   15.432105    ( 0.0000,  0.0000,  0.0000)
  34 Li     3.231068    6.457186   15.439734    ( 0.0000,  0.0000,  0.0000)
  35 Li     6.450462    6.453807   15.420774    ( 0.0000,  0.0000,  0.0000)
  36 O     -0.549093    2.317737   17.471174    ( 0.0000,  0.0000,  0.0000)
  37 C      0.032584    1.947844   18.741897    ( 0.0000,  0.0000,  0.0000)
  38 H      0.575452    1.002109   18.660359    ( 0.0000,  0.0000,  0.0000)
  39 H     -0.743209    1.870051   19.505781    ( 0.0000,  0.0000,  0.0000)
  40 H      0.729765    2.739843   19.006876    ( 0.0000,  0.0000,  0.0000)
  41 H     -1.278720    1.703709   17.245973    ( 0.0000,  0.0000,  0.0000)

Unit cell:
           periodic     x           y           z      points  spacing
  1. axis:    yes    9.702222    0.000000    0.000000    60     0.1617
  2. axis:    yes    0.000000    9.702222    0.000000    60     0.1617
  3. axis:    no     0.000000    0.000000   24.851111   156     0.1593

  Lengths:   9.702222   9.702222  24.851111
  Angles:   90.000000  90.000000  90.000000

Effective grid spacing dv^(1/3) = 0.1609

     iter     time        total  log10-change:
                         energy  eigst   dens
iter:   1 21:29:06  -247.427642  -1.53
iter:   2 21:29:43  -247.415696  -2.21  -1.89
iter:   3 21:30:20  -247.414082c -3.01  -2.25
iter:   4 21:30:57  -247.412994c -2.81  -2.45
Writing to output.gpw (mode='')

iter:   5 21:31:36  -247.413171c -3.93  -2.82
iter:   6 21:32:13  -247.412929c -3.27  -2.69
iter:   7 21:32:50  -247.413027c -2.72  -2.89
iter:   8 21:33:27  -247.412853c -3.72  -3.04
iter:   9 21:34:05  -247.412869c -4.08  -3.23
Writing to output.gpw (mode='')

iter:  10 21:34:46  -247.412896c -3.94  -3.40
iter:  11 21:35:23  -247.412880c -4.65  -3.47
iter:  12 21:36:00  -247.412880c -4.61  -3.60
iter:  13 21:36:37  -247.412882c -4.97  -3.67
iter:  14 21:37:15  -247.412880c -4.92  -3.87
Writing to output.gpw (mode='')

iter:  15 21:37:54  -247.412877c -5.26  -3.96
iter:  16 21:38:31  -247.412873c -5.42  -3.99
iter:  17 21:39:08  -247.412871c -5.40  -4.03c
iter:  18 21:39:45  -247.412871c -5.86  -4.08c
iter:  19 21:40:22  -247.412875c -5.73  -4.28c
Writing to output.gpw (mode='')

iter:  20 21:41:01  -247.412875c -5.93  -4.55c
iter:  21 21:41:38  -247.412875c -6.23  -4.57c
iter:  22 21:42:15  -247.412873c -6.29  -4.58c
iter:  23 21:42:52  -247.412875c -6.21  -4.65c
iter:  24 21:43:29  -247.412875c -6.56  -4.74c
Writing to output.gpw (mode='')

iter:  25 21:44:08  -247.412874c -6.48  -4.85c
iter:  26 21:44:45  -247.412874c -6.82  -5.02c
iter:  27 21:45:22  -247.412875c -6.73  -5.05c
iter:  28 21:45:59  -247.412874c -6.91  -5.19c
iter:  29 21:46:36  -247.412874c -7.16  -5.28c
Writing to output.gpw (mode='')

iter:  30 21:47:15  -247.412874c -7.25  -5.34c
iter:  31 21:47:52  -247.412874c -7.23  -5.36c
iter:  32 21:48:29  -247.412874c -7.26  -5.42c
iter:  33 21:49:06  -247.412874c -7.42c -5.46c

Converged after 33 iterations.

Dipole moment: (-4.912265, -1.288877, 0.276241) |e|*Ang

Energy contributions relative to reference atoms: (reference = -10418.802594)

Kinetic:       +109.992687
Potential:     -101.070367
External:        +0.000000
XC:            -256.464521
Entropy (-ST):   -0.151162
Local:           +0.204908
--------------------------
Free energy:   -247.488455
Extrapolated:  -247.412874

Dipole-layer corrected work functions: 3.370963, 2.839932 eV

Showing only first 2 kpts
 Kpt  Band  Eigenvalues  Occupancy
  0    23     -3.34609    1.98388
  0    24     -3.26073    1.91424
  0    25     -2.94908    0.08398
  0    26     -2.84059    0.00996

  1    23     -3.16043    1.50037
  1    24     -3.09770    0.92273
  1    25     -3.06860    0.64731
  1    26     -3.03266    0.37824


Fermi level: -3.10545

No gap
Writing to output.gpw (mode='')


Forces in eV/Ang:
  0 Li    0.00204    0.00184   -0.27017
  1 Li    0.00409    0.00333   -0.27718
  2 Li   -0.00732   -0.00449   -0.27278
  3 Li    0.00514    0.00574   -0.26833
  4 Li   -0.00557    0.00143   -0.28159
  5 Li    0.00004    0.00225   -0.26905
  6 Li   -0.00046   -0.00315   -0.28063
  7 Li   -0.00209   -0.00072   -0.26331
  8 Li    0.00256    0.00638   -0.27918
  9 Li    0.00493   -0.00178    0.29754
 10 Li   -0.00729    0.01061    0.27656
 11 Li    0.01062   -0.00480    0.27434
 12 Li   -0.00102   -0.01942    0.25289
 13 Li    0.00788    0.00716    0.27491
 14 Li    0.00230   -0.00243    0.29317
 15 Li    0.01396   -0.01663    0.28795
 16 Li   -0.04149   -0.04157    0.27404
 17 Li    0.03248   -0.02039    0.28799
 18 Li    0.00143    0.00570    0.00176
 19 Li   -0.00451    0.01489   -0.00223
 20 Li   -0.00423    0.00303    0.00950
 21 Li   -0.01055    0.00604    0.00198
 22 Li    0.00317   -0.00833    0.00910
 23 Li    0.00209    0.00699    0.00360
 24 Li    0.00111   -0.00707    0.00466
 25 Li   -0.00423   -0.00502   -0.00154
 26 Li   -0.00115   -0.00056   -0.00330
 27 Li   -0.00472    0.00749   -0.01237
 28 Li    0.00049   -0.00443   -0.01008
 29 Li   -0.00395   -0.00309   -0.01288
 30 Li   -0.00485    0.01055    0.00863
 31 Li   -0.00099    0.00276   -0.01209
 32 Li    0.00023    0.00528    0.00212
 33 Li    0.00157   -0.00177   -0.00005
 34 Li   -0.00494    0.00222   -0.00392
 35 Li    0.00478    0.00522   -0.00088
 36 O    -0.01051   -0.02496   -0.03301
 37 C     0.00808    0.00194   -0.02036
 38 H    -0.01183   -0.00597    0.00079
 39 H     0.02238    0.00767    0.00022
 40 H     0.00146    0.01323    0.01200
 41 H     0.03984    0.02652    0.00070

Timing:                                      incl.     excl.
-------------------------------------------------------------------
Density initialized from wave functions:    56.759    56.757   0.1% |
 Symmetrize density:                         0.002     0.002   0.0% |
Forces:                                    333.651   333.651   0.3% |
Hamiltonian:                              1714.301     0.022   0.0% |
 Atomic:                                     8.248     0.105   0.0% |
  XC Correction:                             8.143     8.143   0.0% |
 Calculate atomic Hamiltonians:              7.501     7.501   0.0% |
 Communicate:                               13.787    13.787   0.0% |
 Hartree integrate/restrict:                 5.843     5.843   0.0% |
 Initialize Hamiltonian:                     0.001     0.001   0.0% |
 Poisson:                                  176.847    83.337   0.1% |
  Communicate from 1D:                      11.370    11.370   0.0% |
  Communicate from 2D:                      17.469    17.469   0.0% |
  Communicate to 1D:                         4.177     4.177   0.0% |
  Communicate to 2D:                        17.593    17.593   0.0% |
  FFT 1D:                                   18.486    18.486   0.0% |
  FFT 2D:                                   24.414    24.414   0.0% |
 XC 3D grid:                              1500.177   448.903   0.4% |
  VdW-DF integral:                        1051.274    14.005   0.0% |
   Convolution:                            214.834   214.834   0.2% |
   FFT:                                     67.147    67.147   0.1% |
   gather:                                 263.681   263.681   0.3% |
   hmm1:                                    39.562    39.562   0.0% |
   hmm2:                                    65.811    65.811   0.1% |
   iFFT:                                    66.362    66.362   0.1% |
   potential:                              311.602    10.463   0.0% |
    collect:                                24.686    24.686   0.0% |
    p1:                                    137.898   137.898   0.1% |
    p2:                                     96.531    96.531   0.1% |
    sum:                                    42.023    42.023   0.0% |
   splines:                                  8.270     8.270   0.0% |
 vbar:                                       1.875     1.875   0.0% |
LCAO initialization:                         6.346     0.313   0.0% |
 LCAO eigensolver:                           2.166     0.001   0.0% |
  Calculate projections:                     0.000     0.000   0.0% |
  DenseAtomicCorrection:                     0.000     0.000   0.0% |
  Distribute overlap matrix:                 2.075     2.075   0.0% |
  Orbital Layouts:                           0.041     0.041   0.0% |
  Potential matrix:                          0.047     0.047   0.0% |
  Sum over cells:                            0.002     0.002   0.0% |
 LCAO to grid:                               2.807     2.807   0.0% |
 Set positions (LCAO WFS):                   1.060     0.805   0.0% |
  Basic WFS set positions:                   0.004     0.004   0.0% |
  Basis functions set positions:             0.001     0.001   0.0% |
  P tci:                                     0.000     0.000   0.0% |
  ST tci:                                    0.160     0.160   0.0% |
  mktci:                                     0.091     0.091   0.0% |
Redistribute:                                0.071     0.071   0.0% |
SCF-cycle:                               101135.897  2242.601   2.2% ||
 Davidson:                               42420.696 15695.082  15.1% |-----|
  Apply hamiltonian:                      2599.362  2599.362   2.5% ||
  Subspace diag:                          6989.592     0.585   0.0% |
   calc_h_matrix:                         4051.132  1202.441   1.2% |
    Apply hamiltonian:                    2848.691  2848.691   2.7% ||
   diagonalize:                             82.391    82.391   0.1% |
   rotate_psi:                            2855.484  2855.484   2.7% ||
  calc. matrices:                        12480.658  7909.069   7.6% |--|
   Apply hamiltonian:                     4571.590  4571.590   4.4% |-|
  diagonalize:                              21.998    21.998   0.0% |
  rotate_psi:                             4634.003  4634.003   4.5% |-|
 Density:                                  820.657     0.195   0.0% |
  Atomic density matrices:                  23.564    23.564   0.0% |
  Mix:                                     473.153   473.153   0.5% |
  Multipole moments:                         4.679     4.679   0.0% |
  Pseudo density:                          319.066   318.921   0.3% |
   Symmetrize density:                       0.145     0.145   0.0% |
 Hamiltonian:                            55560.975     0.741   0.0% |
  Atomic:                                  269.888     3.537   0.0% |
   XC Correction:                          266.351   266.351   0.3% |
  Calculate atomic Hamiltonians:           243.826   243.826   0.2% |
  Communicate:                             458.153   458.153   0.4% |
  Hartree integrate/restrict:              191.602   191.602   0.2% |
  Poisson:                                5753.915  2707.320   2.6% ||
   Communicate from 1D:                    347.229   347.229   0.3% |
   Communicate from 2D:                    566.593   566.593   0.5% |
   Communicate to 1D:                      134.450   134.450   0.1% |
   Communicate to 2D:                      580.399   580.399   0.6% |
   FFT 1D:                                 600.781   600.781   0.6% |
   FFT 2D:                                 817.143   817.143   0.8% |
  XC 3D grid:                            48582.590 14614.392  14.1% |-----|
   VdW-DF integral:                      33968.198   456.250   0.4% |
    Convolution:                          6951.454  6951.454   6.7% |--|
    FFT:                                  2191.697  2191.697   2.1% ||
    gather:                               8614.203  8614.203   8.3% |--|
    hmm1:                                 1303.740  1303.740   1.3% ||
    hmm2:                                 2151.015  2151.015   2.1% ||
    iFFT:                                 2139.389  2139.389   2.1% ||
    potential:                           10160.408   345.865   0.3% |
     collect:                              823.206   823.206   0.8% |
     p1:                                  4488.480  4488.480   4.3% |-|
     p2:                                  3095.446  3095.446   3.0% ||
     sum:                                 1407.410  1407.410   1.4% ||
    splines:                                 0.042     0.042   0.0% |
  vbar:                                     60.262    60.262   0.1% |
 Orthonormalize:                            90.968     0.032   0.0% |
  calc_s_matrix:                            18.666    18.666   0.0% |
  inverse-cholesky:                          1.231     1.231   0.0% |
  projections:                              23.160    23.160   0.0% |
  rotate_psi_s:                             47.878    47.878   0.0% |
Set symmetry:                                0.003     0.003   0.0% |
Other:                                     718.938   718.938   0.7% |
-------------------------------------------------------------------
Total:                                             103965.965 100.0%

Memory usage: 1.49 GiB
Date: Thu Mar  9 21:49:16 2023
