
  ___ ___ ___ _ _ _  
 |   |   |_  | | | | 
 | | | | | . | | | | 
 |__ |  _|___|_____|  22.8.0
 |___|_|             

User:   vazumah@c22.hercules
Date:   Tue Mar  7 03:51:12 2023
Arch:   x86_64
Pid:    29604
CWD:    /home/vazumah/Python_projects/LiNRR/Li_adsorb_studies/proton_donors/N2_with_proton_donor/Li_BCC_100/adsorbates/BH3_retest/bridge/8.085_1.617/N2_x
Python: 3.10.8
gpaw:   /home/vazumah/.conda/envs/GPAW/lib/python3.10/site-packages/gpaw
_gpaw:  /home/vazumah/.conda/envs/GPAW/lib/python3.10/site-packages/
        _gpaw.cpython-310-x86_64-linux-gnu.so
ase:    /home/vazumah/.conda/envs/GPAW/lib/python3.10/site-packages/ase (version 3.22.1)
numpy:  /home/vazumah/.conda/envs/GPAW/lib/python3.10/site-packages/numpy (version 1.24.1)
scipy:  /home/vazumah/.conda/envs/GPAW/lib/python3.10/site-packages/scipy (version 1.10.0)
libxc:  5.2.3
units:  Angstrom and eV
cores: 24
OpenMP: True
OMP_NUM_THREADS: 1

Reading from output.gpw
Reading input parameters:
  h: 0.16
  kpts: {size: [4, 4, 1]}
  occupations: {name: fermi-dirac,
                width: 0.05}
  poissonsolver: {dipolelayer: xy}
  xc: BEEF-vdW

Initialize ...

species:
  Li:
    name: Lithium
    id: 830b4218f175192f93f959cfc0aad614
    Z: 3.0
    valence: 1
    core: 2
    charge: 0.0
    file: /home/vazumah/.conda/envs/GPAW/share/gpaw/Li.PBE.gz
    compensation charges: {type: gauss,
                           rc: 0.33,
                           lmax: 2}
    cutoffs: {filter: 1.91,
              core: 2.55}
    valence states:
      #              energy  rcut
      - 2s(1.00)    -2.874   1.058
      - 2p(0.00)    -1.090   1.058
      -  s          24.337   1.058
  
    # Using partial waves for Li as LCAO basis

  B:
    name: Boron
    id: 6e91439235a05fd7549e31636e8f777c
    Z: 5.0
    valence: 3
    core: 2
    charge: 0.0
    file: /home/vazumah/.conda/envs/GPAW/share/gpaw/B.PBE.gz
    compensation charges: {type: gauss,
                           rc: 0.20,
                           lmax: 2}
    cutoffs: {filter: 1.14,
              core: 1.38}
    valence states:
      #              energy  rcut
      - 2s(2.00)    -9.443   0.635
      - 2p(1.00)    -3.606   0.635
      -  s          17.768   0.635
      -  p          23.605   0.635
      -  d           0.000   0.635
  
    # Using partial waves for B as LCAO basis

  H:
    name: Hydrogen
    id: d65de229564ff8ea4db303e23b6d1ecf
    Z: 1.0
    valence: 1
    core: 0
    charge: 0.0
    file: /home/vazumah/.conda/envs/GPAW/share/gpaw/H.PBE.gz
    compensation charges: {type: gauss,
                           rc: 0.15,
                           lmax: 2}
    cutoffs: {filter: 0.85,
              core: 0.53}
    valence states:
      #              energy  rcut
      - 1s(1.00)    -6.494   0.476
      -  s          20.717   0.476
      -  p           0.000   0.476
  
    # Using partial waves for H as LCAO basis

  N:
    name: Nitrogen
    id: f7500608b86eaa90eef8b1d9a670dc53
    Z: 7.0
    valence: 5
    core: 2
    charge: 0.0
    file: /home/vazumah/.conda/envs/GPAW/share/gpaw/N.PBE.gz
    compensation charges: {type: gauss,
                           rc: 0.18,
                           lmax: 2}
    cutoffs: {filter: 1.11,
              core: 0.96}
    valence states:
      #              energy  rcut
      - 2s(2.00)   -18.583   0.603
      - 2p(3.00)    -7.089   0.529
      -  s           8.629   0.603
      -  p          20.123   0.529
      -  d           0.000   0.577
  
    # Using partial waves for N as LCAO basis

Reference energy: -10970.764591  # eV

Spin-paired calculation

Convergence criteria:
 Maximum [total energy] change in last 3 cyles: 0.0005 eV / electron
 Maximum integral of absolute [dens]ity change: 0.0001 electrons / valence electron
 Maximum integral of absolute [eigenst]ate change: 4e-08 eV^2 / valence electron
 Maximum number of scf [iter]ations: 333
 (Square brackets indicate name in SCF output, whereas a 'c' in
 the SCF output indicates the quantity has converged.)

Symmetries present (total): 1

  ( 1  0  0)
  ( 0  1  0)
  ( 0  0  1)

16 k-points: 4 x 4 x 1 Monkhorst-Pack grid
8 k-points in the irreducible part of the Brillouin zone
       k-points in crystal coordinates                weights
   0:     0.12500000   -0.37500000    0.00000000          2/16
   1:     0.12500000   -0.12500000    0.00000000          2/16
   2:     0.12500000    0.12500000    0.00000000          2/16
   3:     0.12500000    0.37500000    0.00000000          2/16
   4:     0.37500000   -0.37500000    0.00000000          2/16
   5:     0.37500000   -0.12500000    0.00000000          2/16
   6:     0.37500000    0.12500000    0.00000000          2/16
   7:     0.37500000    0.37500000    0.00000000          2/16

Wave functions: Uniform real-space grid
  Kinetic energy operator: 6*3+1=19 point O(h^6) finite-difference Laplacian
  ScaLapack parameters: grid=1x1, blocksize=None
  Wavefunction extrapolation:
    Improved wavefunction reuse through dual PAW basis 

Occupation numbers: Fermi-Dirac:
  width: 0.0500  # eV
 

Eigensolver
   Davidson(niter=2) 

Densities:
  Coarse grid: 60*60*164 grid
  Fine grid: 120*120*328 grid
  Total Charge: 0.000000 

Density mixing:
  Method: separate
  Backend: pulay
  Linear mixing parameter: 0.05
  old densities: 5
  Damping of long wavelength oscillations: 50 

Hamiltonian:
  XC and Coulomb potentials evaluated on a 120*120*328 grid
  Using the BEEF-vdW Exchange-Correlation functional
  Interpolation: tri-quintic (5. degree polynomial)
  Poisson solver: FastPoissonSolver using
    Stencil: 6*3+1=19 point O(h^6) finite-difference Laplacian
    FFT axes: [0, 1]
    FST axes: [2]

Dipole correction along z-axis 

XC parameters: BEEF-vdW with 2 nearest neighbor stencil

Memory estimate:
  Process memory now: 225.15 MiB
  Calculator: 381.63 MiB
    Density: 119.06 MiB
      Arrays: 38.89 MiB
      Localized functions: 65.34 MiB
      Mixer: 14.83 MiB
    Hamiltonian: 30.60 MiB
      Arrays: 25.43 MiB
      XC: 0.00 MiB
      Poisson: 0.00 MiB
      vbar: 5.17 MiB
    Wavefunctions: 231.97 MiB
      Arrays psit_nG: 106.79 MiB
      Eigensolver: 121.82 MiB
      Projections: 0.04 MiB
      Projectors: 3.32 MiB

Total number of cores used: 24
Parallelization over k-points: 8
Domain decomposition: 1 x 1 x 3

Number of atoms: 42
Number of atomic orbitals: 159
Number of bands in calculation: 36
Number of valence electrons: 52
Bands to converge: occupied

... initialized

Initializing position-dependent things.

Creating initial wave functions:
  36 bands from LCAO basis set

       .-----------------------.  
      /|                       |  
     / |                       |  
    /  |                       |  
   /   |                       |  
  /    |                       |  
 *     |                       |  
 |     |                       |  
 |     |                       |  
 |     |                       |  
 |     |                       |  
 |     |                       |  
 |     |                       |  
 |     |       Li      Li      |  
 |     |            H          |  
 |     |     Li      LB  H   Li|  
 |     |                  Li   |  
 |     |  LLi     LLiN    Li   |  
 |     |Li            N        |  
 |     |        Li      Li     |  
 |   LLi     Li      LLi       |  
 |     |  Li  Li  Li      Li   |  
 | Li  |   Li      Li          |  
 |     |Li      Li      Li     |  
 Li    | Li      Li            |  
 |    Li      Li      Li       |  
 |     |                       |  
 |     |                       |  
 |     |                       |  
 |     |                       |  
 |     |                       |  
 |     |                       |  
 |     .-----------------------.  
 |    /                       /   
 |   /                       /    
 |  /                       /     
 | /                       /      
 |/                       /       
 *-----------------------*        

Positions:
   0 Li     1.617037    1.617037   10.000000    ( 0.0000,  0.0000,  0.0000)
   1 Li     4.851111    1.617037   10.000000    ( 0.0000,  0.0000,  0.0000)
   2 Li     8.085185    1.617037   10.000000    ( 0.0000,  0.0000,  0.0000)
   3 Li     1.617037    4.851111   10.000000    ( 0.0000,  0.0000,  0.0000)
   4 Li     4.851111    4.851111   10.000000    ( 0.0000,  0.0000,  0.0000)
   5 Li     8.085185    4.851111   10.000000    ( 0.0000,  0.0000,  0.0000)
   6 Li     1.617037    8.085185   10.000000    ( 0.0000,  0.0000,  0.0000)
   7 Li     4.851111    8.085185   10.000000    ( 0.0000,  0.0000,  0.0000)
   8 Li     8.085185    8.085185   10.000000    ( 0.0000,  0.0000,  0.0000)
   9 Li     0.000000    0.000000   11.617037    ( 0.0000,  0.0000,  0.0000)
  10 Li     3.234074    0.000000   11.617037    ( 0.0000,  0.0000,  0.0000)
  11 Li     6.468148    0.000000   11.617037    ( 0.0000,  0.0000,  0.0000)
  12 Li     0.000000    3.234074   11.617037    ( 0.0000,  0.0000,  0.0000)
  13 Li     3.234074    3.234074   11.617037    ( 0.0000,  0.0000,  0.0000)
  14 Li     6.468148    3.234074   11.617037    ( 0.0000,  0.0000,  0.0000)
  15 Li     0.000000    6.468148   11.617037    ( 0.0000,  0.0000,  0.0000)
  16 Li     3.234074    6.468148   11.617037    ( 0.0000,  0.0000,  0.0000)
  17 Li     6.468148    6.468148   11.617037    ( 0.0000,  0.0000,  0.0000)
  18 Li     1.664627    1.664053   13.576509    ( 0.0000,  0.0000,  0.0000)
  19 Li     4.815721    1.562373   13.589050    ( 0.0000,  0.0000,  0.0000)
  20 Li     8.181762    1.801892   13.543615    ( 0.0000,  0.0000,  0.0000)
  21 Li     1.511070    4.798361   13.644442    ( 0.0000,  0.0000,  0.0000)
  22 Li     4.807643    4.709795   13.560770    ( 0.0000,  0.0000,  0.0000)
  23 Li     8.098447    4.759636   13.577634    ( 0.0000,  0.0000,  0.0000)
  24 Li     1.551998    8.087624   13.536268    ( 0.0000,  0.0000,  0.0000)
  25 Li     4.827807    8.037955   13.605610    ( 0.0000,  0.0000,  0.0000)
  26 Li     7.992885    7.890613   13.470022    ( 0.0000,  0.0000,  0.0000)
  27 Li    -0.485819    0.031062   15.490807    ( 0.0000,  0.0000,  0.0000)
  28 Li     3.051878   -0.048519   15.589774    ( 0.0000,  0.0000,  0.0000)
  29 Li     6.465442   -0.360414   15.951358    ( 0.0000,  0.0000,  0.0000)
  30 Li    -0.434810    3.008761   16.231389    ( 0.0000,  0.0000,  0.0000)
  31 Li     3.168592    3.317204   15.631421    ( 0.0000,  0.0000,  0.0000)
  32 Li     6.423211    2.696981   15.903771    ( 0.0000,  0.0000,  0.0000)
  33 Li    -0.009285    6.567205   15.536815    ( 0.0000,  0.0000,  0.0000)
  34 Li     3.233043    6.484588   15.506976    ( 0.0000,  0.0000,  0.0000)
  35 Li     6.402939    6.158047   15.522406    ( 0.0000,  0.0000,  0.0000)
  36 B      7.882594    1.996594   17.691690    ( 0.0000,  0.0000,  0.0000)
  37 H      9.113233    2.065779   17.945245    ( 0.0000,  0.0000,  0.0000)
  38 H      7.611469    3.156696   17.286406    ( 0.0000,  0.0000,  0.0000)
  39 H      7.214887    1.782501   18.657304    ( 0.0000,  0.0000,  0.0000)
  40 N      7.642767    1.071443   16.474934    ( 0.0000,  0.0000,  0.0000)
  41 N      8.053133    1.577914   15.315014    ( 0.0000,  0.0000,  0.0000)

Unit cell:
           periodic     x           y           z      points  spacing
  1. axis:    yes    9.702222    0.000000    0.000000    60     0.1617
  2. axis:    yes    0.000000    9.702222    0.000000    60     0.1617
  3. axis:    no     0.000000    0.000000   26.351111   164     0.1607

  Lengths:   9.702222   9.702222  26.351111
  Angles:   90.000000  90.000000  90.000000

Effective grid spacing dv^(1/3) = 0.1614

     iter     time        total  log10-change:
                         energy  eigst   dens
iter:   1 03:52:30  -256.831854  +0.97
iter:   2 03:53:09  -257.276716  +0.37  -1.72
iter:   3 03:53:49  -257.401843  -0.10  -1.99
iter:   4 03:54:28  -257.450054  -0.50  -2.24
Writing to output.gpw (mode='')

iter:   5 03:55:09  -257.470830  -0.86  -2.52
iter:   6 03:55:48  -257.480370  -1.20  -2.75
iter:   7 03:56:28  -257.484265c -1.54  -2.80
iter:   8 03:57:07  -257.486804c -1.79  -3.02
iter:   9 03:57:47  -257.488462c -2.00  -3.19
Writing to output.gpw (mode='')

iter:  10 03:58:28  -257.489402c -2.21  -3.12
iter:  11 03:59:07  -257.489958c -2.37  -3.07
iter:  12 03:59:47  -257.490401c -2.55  -3.14
iter:  13 04:00:26  -257.490738c -2.70  -3.07
iter:  14 04:01:06  -257.491014c -2.80  -3.03
Writing to output.gpw (mode='')

iter:  15 04:01:48  -257.491213c -2.92  -2.90
iter:  16 04:02:27  -257.491376c -3.01  -2.83
iter:  17 04:03:06  -257.491317c -3.19  -2.77
iter:  18 04:03:46  -257.491269c -3.24  -2.96
iter:  19 04:04:25  -257.491274c -3.34  -3.21
Writing to output.gpw (mode='')

iter:  20 04:05:09  -257.491314c -3.54  -3.36
iter:  21 04:05:49  -257.491337c -3.68  -3.42
iter:  22 04:06:28  -257.491377c -3.82  -3.69
iter:  23 04:07:08  -257.491396c -3.97  -3.76
iter:  24 04:07:48  -257.491401c -4.11  -3.78
Writing to output.gpw (mode='')

iter:  25 04:08:29  -257.491406c -4.24  -3.89
iter:  26 04:09:08  -257.491411c -4.40  -3.98
iter:  27 04:09:48  -257.491414c -4.53  -4.09c
iter:  28 04:10:27  -257.491416c -4.62  -4.12c
iter:  29 04:11:07  -257.491419c -4.74  -4.16c
Writing to output.gpw (mode='')

iter:  30 04:11:48  -257.491424c -4.84  -4.22c
iter:  31 04:12:28  -257.491426c -4.93  -4.36c
iter:  32 04:13:07  -257.491431c -4.86  -4.38c
iter:  33 04:13:47  -257.491435c -5.07  -4.47c
iter:  34 04:14:27  -257.491437c -5.26  -4.58c
Writing to output.gpw (mode='')

iter:  35 04:15:08  -257.491438c -5.38  -4.76c
iter:  36 04:15:47  -257.491438c -5.40  -4.78c
iter:  37 04:16:27  -257.491438c -5.48  -4.78c
iter:  38 04:17:07  -257.491439c -5.43  -4.80c
iter:  39 04:17:46  -257.491440c -5.62  -4.86c
Writing to output.gpw (mode='')

iter:  40 04:18:28  -257.491441c -5.77  -4.94c
iter:  41 04:19:07  -257.491441c -5.82  -4.99c
iter:  42 04:19:47  -257.491441c -5.95  -4.97c
iter:  43 04:20:26  -257.491441c -6.04  -4.96c
iter:  44 04:21:06  -257.491441c -5.99  -4.91c
Writing to output.gpw (mode='')

iter:  45 04:21:48  -257.491440c -6.06  -4.79c
iter:  46 04:22:27  -257.491441c -6.25  -4.69c
iter:  47 04:23:07  -257.491441c -6.31  -4.80c
iter:  48 04:23:46  -257.491442c -6.44  -4.80c
iter:  49 04:24:26  -257.491441c -6.42  -4.80c
Writing to output.gpw (mode='')

iter:  50 04:25:06  -257.491442c -6.40  -4.62c
iter:  51 04:25:46  -257.491442c -6.79  -4.84c
iter:  52 04:26:26  -257.491443c -6.83  -4.82c
iter:  53 04:27:05  -257.491443c -6.93  -4.83c
iter:  54 04:27:45  -257.491443c -6.88  -4.80c
Writing to output.gpw (mode='')

iter:  55 04:28:25  -257.491443c -6.98  -4.82c
iter:  56 04:29:05  -257.491443c -7.05  -4.86c
iter:  57 04:29:45  -257.491443c -7.17  -4.92c
iter:  58 04:30:24  -257.491442c -7.28  -5.01c
iter:  59 04:31:04  -257.491442c -7.29  -5.09c
Writing to output.gpw (mode='')

iter:  60 04:31:45  -257.491443c -7.32  -5.14c
iter:  61 04:32:25  -257.491443c -7.43c -5.22c

Converged after 61 iterations.

Dipole moment: (4.706908, 1.829919, -0.279773) |e|*Ang

Energy contributions relative to reference atoms: (reference = -10970.764591)

Kinetic:       +109.323695
Potential:      -98.663850
External:        +0.000000
XC:            -268.425978
Entropy (-ST):   -0.160006
Local:           +0.354694
--------------------------
Free energy:   -257.571446
Extrapolated:  -257.491443

Dipole-layer corrected work functions: 3.425766, 3.963586 eV

Showing only first 2 kpts
 Kpt  Band  Eigenvalues  Occupancy
  0    24     -3.88235    1.95420
  0    25     -3.74206    1.44129
  0    26     -3.62714    0.41152
  0    27     -3.51686    0.05550

  1    24     -3.92156    1.97883
  1    25     -3.78768    1.73059
  1    26     -3.61788    0.35428
  1    27     -3.53179    0.07410


Fermi level: -3.69468

Gap: 0.026 eV
Transition (v -> c):
  (s=0, k=7, n=25, [0.38, 0.38, 0.00]) -> (s=0, k=4, n=26, [0.38, -0.38, 0.00])
Writing to output.gpw (mode='')


Forces in eV/Ang:
  0 Li   -0.00175    0.01234   -0.28133
  1 Li   -0.01407    0.01139   -0.28007
  2 Li    0.00770    0.02036   -0.25716
  3 Li    0.02329    0.01690   -0.29574
  4 Li   -0.00162    0.02010   -0.29904
  5 Li    0.01364    0.00300   -0.26924
  6 Li    0.02325   -0.00064   -0.28874
  7 Li    0.00592   -0.00127   -0.27862
  8 Li    0.00746   -0.01046   -0.27684
  9 Li   -0.02787    0.02159    0.34968
 10 Li    0.01002   -0.02027    0.32037
 11 Li    0.02682    0.02980    0.33304
 12 Li    0.06389    0.01813    0.15315
 13 Li   -0.03274   -0.03326    0.27826
 14 Li   -0.00927   -0.01922    0.26336
 15 Li   -0.01918   -0.06399    0.29140
 16 Li   -0.02919   -0.05423    0.36405
 17 Li   -0.08631   -0.09945    0.27663
 18 Li   -0.08027   -0.02729    0.02484
 19 Li   -0.00331   -0.01115    0.00850
 20 Li    0.05409   -0.04205   -0.16435
 21 Li    0.03919    0.02904   -0.04432
 22 Li   -0.00889    0.00743    0.00349
 23 Li   -0.02583    0.00998    0.01288
 24 Li   -0.01286    0.00314    0.00481
 25 Li    0.00894    0.00502   -0.00877
 26 Li    0.00255    0.05948    0.05722
 27 Li    0.07022   -0.09049    0.04306
 28 Li    0.04179    0.00820   -0.02224
 29 Li   -0.01305    0.02387   -0.08462
 30 Li   -0.05869    0.03667   -0.13460
 31 Li    0.00690   -0.02024   -0.01167
 32 Li    0.19091    0.00411    0.00762
 33 Li    0.03243    0.00448    0.01051
 34 Li   -0.00222   -0.00167    0.00650
 35 Li   -0.00880    0.05230    0.00679
 36 B     0.13666    0.08573   -0.01881
 37 H    -0.12259   -0.04300   -0.07410
 38 H    -0.06402    0.38342   -0.06188
 39 H     0.00939   -0.26825    0.24018
 40 N    -0.12411    0.07972    0.43173
 41 N    -0.01821   -0.11473   -0.27996

System changes: positions 

Initializing position-dependent things.

Density initialized from wave functions
       .-----------------------.  
      /|                       |  
     / |                       |  
    /  |                       |  
   /   |                       |  
  /    |                       |  
 *     |                       |  
 |     |                       |  
 |     |                       |  
 |     |                       |  
 |     |                       |  
 |     |                       |  
 |     |                       |  
 |     |       Li      Li      |  
 |     |            H          |  
 |     |     Li      LB  H   Li|  
 |     |          Li      Li   |  
 |     |  LLi      LiN    Li   |  
 |     |Li            N        |  
 |     |        Li      Li     |  
 |   LLi     Li      LLi       |  
 |     |  Li  Li  Li      Li   |  
 | Li  |   Li      Li          |  
 |     |Li      Li      Li     |  
 Li    | Li      Li            |  
 |    Li      Li      Li       |  
 |     |                       |  
 |     |                       |  
 |     |                       |  
 |     |                       |  
 |     |                       |  
 |     |                       |  
 |     .-----------------------.  
 |    /                       /   
 |   /                       /    
 |  /                       /     
 | /                       /      
 |/                       /       
 *-----------------------*        

Positions:
   0 Li     1.617037    1.617037   10.000000    ( 0.0000,  0.0000,  0.0000)
   1 Li     4.851111    1.617037   10.000000    ( 0.0000,  0.0000,  0.0000)
   2 Li     8.085185    1.617037   10.000000    ( 0.0000,  0.0000,  0.0000)
   3 Li     1.617037    4.851111   10.000000    ( 0.0000,  0.0000,  0.0000)
   4 Li     4.851111    4.851111   10.000000    ( 0.0000,  0.0000,  0.0000)
   5 Li     8.085185    4.851111   10.000000    ( 0.0000,  0.0000,  0.0000)
   6 Li     1.617037    8.085185   10.000000    ( 0.0000,  0.0000,  0.0000)
   7 Li     4.851111    8.085185   10.000000    ( 0.0000,  0.0000,  0.0000)
   8 Li     8.085185    8.085185   10.000000    ( 0.0000,  0.0000,  0.0000)
   9 Li     0.000000    0.000000   11.617037    ( 0.0000,  0.0000,  0.0000)
  10 Li     3.234074    0.000000   11.617037    ( 0.0000,  0.0000,  0.0000)
  11 Li     6.468148    0.000000   11.617037    ( 0.0000,  0.0000,  0.0000)
  12 Li     0.000000    3.234074   11.617037    ( 0.0000,  0.0000,  0.0000)
  13 Li     3.234074    3.234074   11.617037    ( 0.0000,  0.0000,  0.0000)
  14 Li     6.468148    3.234074   11.617037    ( 0.0000,  0.0000,  0.0000)
  15 Li     0.000000    6.468148   11.617037    ( 0.0000,  0.0000,  0.0000)
  16 Li     3.234074    6.468148   11.617037    ( 0.0000,  0.0000,  0.0000)
  17 Li     6.468148    6.468148   11.617037    ( 0.0000,  0.0000,  0.0000)
  18 Li     1.664960    1.658830   13.573967    ( 0.0000,  0.0000,  0.0000)
  19 Li     4.810081    1.561866   13.590902    ( 0.0000,  0.0000,  0.0000)
  20 Li     8.182445    1.802721   13.543528    ( 0.0000,  0.0000,  0.0000)
  21 Li     1.516712    4.806497   13.638058    ( 0.0000,  0.0000,  0.0000)
  22 Li     4.809007    4.710907   13.562602    ( 0.0000,  0.0000,  0.0000)
  23 Li     8.095381    4.759493   13.568896    ( 0.0000,  0.0000,  0.0000)
  24 Li     1.548464    8.087928   13.530545    ( 0.0000,  0.0000,  0.0000)
  25 Li     4.836757    8.045649   13.609643    ( 0.0000,  0.0000,  0.0000)
  26 Li     7.986918    7.870546   13.452101    ( 0.0000,  0.0000,  0.0000)
  27 Li    -0.472661    0.036899   15.471773    ( 0.0000,  0.0000,  0.0000)
  28 Li     3.057215   -0.051093   15.589163    ( 0.0000,  0.0000,  0.0000)
  29 Li     6.478289   -0.361224   15.950984    ( 0.0000,  0.0000,  0.0000)
  30 Li    -0.431988    3.014135   16.216425    ( 0.0000,  0.0000,  0.0000)
  31 Li     3.169205    3.320475   15.631837    ( 0.0000,  0.0000,  0.0000)
  32 Li     6.455398    2.704224   15.914429    ( 0.0000,  0.0000,  0.0000)
  33 Li    -0.006888    6.569792   15.539235    ( 0.0000,  0.0000,  0.0000)
  34 Li     3.228177    6.480364   15.509698    ( 0.0000,  0.0000,  0.0000)
  35 Li     6.404691    6.167885   15.522539    ( 0.0000,  0.0000,  0.0000)
  36 B      7.876954    1.995145   17.704906    ( 0.0000,  0.0000,  0.0000)
  37 H      9.105146    2.057313   17.947697    ( 0.0000,  0.0000,  0.0000)
  38 H      7.596341    3.162662   17.309850    ( 0.0000,  0.0000,  0.0000)
  39 H      7.210851    1.774899   18.668431    ( 0.0000,  0.0000,  0.0000)
  40 N      7.642584    1.073622   16.485506    ( 0.0000,  0.0000,  0.0000)
  41 N      8.062389    1.576442   15.323888    ( 0.0000,  0.0000,  0.0000)

Unit cell:
           periodic     x           y           z      points  spacing
  1. axis:    yes    9.702222    0.000000    0.000000    60     0.1617
  2. axis:    yes    0.000000    9.702222    0.000000    60     0.1617
  3. axis:    no     0.000000    0.000000   26.351111   164     0.1607

  Lengths:   9.702222   9.702222  26.351111
  Angles:   90.000000  90.000000  90.000000

Effective grid spacing dv^(1/3) = 0.1614

     iter     time        total  log10-change:
                         energy  eigst   dens
iter:   1 04:33:18  -257.565639  -0.92
iter:   2 04:33:58  -257.515020  -1.51  -1.61
iter:   3 04:34:38  -257.505428  -2.32  -1.91
iter:   4 04:35:17  -257.503299c -2.64  -2.26
Writing to output.gpw (mode='')

iter:   5 04:35:59  -257.502758c -2.84  -2.43
iter:   6 04:36:38  -257.502271c -2.44  -2.56
iter:   7 04:37:18  -257.501939c -2.80  -2.73
iter:   8 04:37:58  -257.501945c -3.08  -2.96
iter:   9 04:38:37  -257.501945c -3.58  -3.01
Writing to output.gpw (mode='')

iter:  10 04:39:18  -257.501841c -3.64  -3.05
iter:  11 04:39:58  -257.501856c -4.11  -3.18
iter:  12 04:40:37  -257.501953c -3.65  -3.25
iter:  13 04:41:17  -257.501899c -4.29  -3.40
iter:  14 04:41:57  -257.501892c -4.43  -3.57
Writing to output.gpw (mode='')

iter:  15 04:42:41  -257.501913c -4.59  -3.64
iter:  16 04:43:21  -257.501907c -4.99  -3.82
iter:  17 04:44:00  -257.501900c -5.04  -3.87
iter:  18 04:44:40  -257.501898c -5.22  -4.08c
iter:  19 04:45:19  -257.501905c -5.32  -4.13c
Writing to output.gpw (mode='')

iter:  20 04:46:00  -257.501903c -5.55  -4.18c
iter:  21 04:46:40  -257.501903c -5.59  -4.26c
iter:  22 04:47:19  -257.501905c -5.87  -4.43c
iter:  23 04:47:59  -257.501906c -5.85  -4.49c
iter:  24 04:48:39  -257.501906c -5.89  -4.61c
Writing to output.gpw (mode='')

iter:  25 04:49:26  -257.501906c -6.15  -4.72c
iter:  26 04:50:05  -257.501906c -6.37  -4.77c
iter:  27 04:50:45  -257.501906c -6.53  -4.82c
iter:  28 04:51:24  -257.501907c -6.47  -4.92c
iter:  29 04:52:04  -257.501907c -6.79  -4.97c
Writing to output.gpw (mode='')

iter:  30 04:52:45  -257.501907c -6.87  -4.95c
iter:  31 04:53:24  -257.501907c -6.86  -4.95c
iter:  32 04:54:04  -257.501906c -6.95  -4.90c
iter:  33 04:54:43  -257.501906c -7.02  -5.05c
iter:  34 04:55:22  -257.501906c -7.24  -5.20c
Writing to output.gpw (mode='')

iter:  35 04:56:04  -257.501906c -7.30  -5.35c
iter:  36 04:56:43  -257.501906c -7.37  -5.46c
iter:  37 04:57:23  -257.501906c -7.43c -5.60c

Converged after 37 iterations.

Dipole moment: (4.645640, 1.789551, -0.285442) |e|*Ang

Energy contributions relative to reference atoms: (reference = -10970.764591)

Kinetic:       +109.241659
Potential:      -98.602892
External:        +0.000000
XC:            -268.415441
Entropy (-ST):   -0.159474
Local:           +0.354504
--------------------------
Free energy:   -257.581643
Extrapolated:  -257.501906

Dipole-layer corrected work functions: 3.426479, 3.975197 eV

Showing only first 2 kpts
 Kpt  Band  Eigenvalues  Occupancy
  0    24     -3.88877    1.95443
  0    25     -3.74876    1.44561
  0    26     -3.63247    0.40612
  0    27     -3.52387    0.05643

  1    24     -3.92799    1.97894
  1    25     -3.79303    1.72680
  1    26     -3.62354    0.35136
  1    27     -3.53588    0.07120


Fermi level: -3.70084

Gap: 0.025 eV
Transition (v -> c):
  (s=0, k=7, n=25, [0.38, 0.38, 0.00]) -> (s=0, k=4, n=26, [0.38, -0.38, 0.00])
Writing to output.gpw (mode='')


Forces in eV/Ang:
  0 Li   -0.00227    0.01178   -0.28088
  1 Li   -0.01404    0.01102   -0.27956
  2 Li    0.00792    0.02117   -0.25696
  3 Li    0.02366    0.01718   -0.29461
  4 Li   -0.00203    0.01979   -0.29957
  5 Li    0.01338    0.00389   -0.26714
  6 Li    0.02312   -0.00088   -0.28842
  7 Li    0.00657   -0.00127   -0.27828
  8 Li    0.00727   -0.01067   -0.27601
  9 Li   -0.03107    0.02097    0.34817
 10 Li    0.01194   -0.02197    0.31915
 11 Li    0.02706    0.03166    0.33271
 12 Li    0.06617    0.01738    0.15354
 13 Li   -0.03088   -0.03191    0.27895
 14 Li   -0.01243   -0.02122    0.26190
 15 Li   -0.01410   -0.06815    0.28007
 16 Li   -0.02373   -0.05011    0.36401
 17 Li   -0.09960   -0.10728    0.26134
 18 Li   -0.07453   -0.01659    0.02660
 19 Li    0.00854   -0.00432    0.01123
 20 Li    0.04350   -0.05576   -0.10404
 21 Li    0.03239    0.01888   -0.03812
 22 Li   -0.00522    0.01128    0.00124
 23 Li   -0.02173    0.01409    0.02300
 24 Li   -0.00358    0.00229    0.01073
 25 Li   -0.00538   -0.00672   -0.01256
 26 Li    0.01777    0.08454    0.08788
 27 Li    0.05743   -0.10615    0.05879
 28 Li    0.03544    0.00595   -0.02196
 29 Li   -0.01489    0.02662   -0.08993
 30 Li   -0.07033    0.02349   -0.07592
 31 Li    0.00438   -0.02547   -0.01297
 32 Li    0.10986    0.02154   -0.01489
 33 Li    0.02632    0.00220    0.00249
 34 Li    0.00392    0.00719    0.00057
 35 Li   -0.00879    0.04098    0.00474
 36 B     0.13386    0.14499   -0.11702
 37 H    -0.06228    0.01004   -0.03403
 38 H     0.00009    0.31177   -0.06555
 39 H    -0.00516   -0.27866    0.26637
 40 N    -0.10253    0.05272    0.28703
 41 N    -0.06497   -0.10753   -0.25515

System changes: positions 

Initializing position-dependent things.

Density initialized from wave functions
       .-----------------------.  
      /|                       |  
     / |                       |  
    /  |                       |  
   /   |                       |  
  /    |                       |  
 *     |                       |  
 |     |                       |  
 |     |                       |  
 |     |                       |  
 |     |                       |  
 |     |                       |  
 |     |                       |  
 |     |       Li      Li      |  
 |     |            H          |  
 |     |     Li      LB  H   Li|  
 |     |          Li      Li   |  
 |     |  LLi      LiN    Li   |  
 |     |Li            N        |  
 |     |        Li      Li     |  
 |   LLi     Li      LLi       |  
 |     |  Li  Li  Li      Li   |  
 | Li  |   Li      Li          |  
 |     |Li      Li      Li     |  
 Li    | Li      Li            |  
 |    Li      Li      Li       |  
 |     |                       |  
 |     |                       |  
 |     |                       |  
 |     |                       |  
 |     |                       |  
 |     |                       |  
 |     .-----------------------.  
 |    /                       /   
 |   /                       /    
 |  /                       /     
 | /                       /      
 |/                       /       
 *-----------------------*        

Positions:
   0 Li     1.617037    1.617037   10.000000    ( 0.0000,  0.0000,  0.0000)
   1 Li     4.851111    1.617037   10.000000    ( 0.0000,  0.0000,  0.0000)
   2 Li     8.085185    1.617037   10.000000    ( 0.0000,  0.0000,  0.0000)
   3 Li     1.617037    4.851111   10.000000    ( 0.0000,  0.0000,  0.0000)
   4 Li     4.851111    4.851111   10.000000    ( 0.0000,  0.0000,  0.0000)
   5 Li     8.085185    4.851111   10.000000    ( 0.0000,  0.0000,  0.0000)
   6 Li     1.617037    8.085185   10.000000    ( 0.0000,  0.0000,  0.0000)
   7 Li     4.851111    8.085185   10.000000    ( 0.0000,  0.0000,  0.0000)
   8 Li     8.085185    8.085185   10.000000    ( 0.0000,  0.0000,  0.0000)
   9 Li     0.000000    0.000000   11.617037    ( 0.0000,  0.0000,  0.0000)
  10 Li     3.234074    0.000000   11.617037    ( 0.0000,  0.0000,  0.0000)
  11 Li     6.468148    0.000000   11.617037    ( 0.0000,  0.0000,  0.0000)
  12 Li     0.000000    3.234074   11.617037    ( 0.0000,  0.0000,  0.0000)
  13 Li     3.234074    3.234074   11.617037    ( 0.0000,  0.0000,  0.0000)
  14 Li     6.468148    3.234074   11.617037    ( 0.0000,  0.0000,  0.0000)
  15 Li     0.000000    6.468148   11.617037    ( 0.0000,  0.0000,  0.0000)
  16 Li     3.234074    6.468148   11.617037    ( 0.0000,  0.0000,  0.0000)
  17 Li     6.468148    6.468148   11.617037    ( 0.0000,  0.0000,  0.0000)
  18 Li     1.660668    1.657761   13.575580    ( 0.0000,  0.0000,  0.0000)
  19 Li     4.806259    1.561684   13.594417    ( 0.0000,  0.0000,  0.0000)
  20 Li     8.185084    1.800073   13.537973    ( 0.0000,  0.0000,  0.0000)
  21 Li     1.518325    4.810653   13.635924    ( 0.0000,  0.0000,  0.0000)
  22 Li     4.807824    4.711544   13.562951    ( 0.0000,  0.0000,  0.0000)
  23 Li     8.093656    4.759571   13.565742    ( 0.0000,  0.0000,  0.0000)
  24 Li     1.547497    8.086093   13.527269    ( 0.0000,  0.0000,  0.0000)
  25 Li     4.838865    8.047890   13.611417    ( 0.0000,  0.0000,  0.0000)
  26 Li     7.983413    7.861213   13.446589    ( 0.0000,  0.0000,  0.0000)
  27 Li    -0.476762    0.033786   15.458111    ( 0.0000,  0.0000,  0.0000)
  28 Li     3.057694   -0.053273   15.590261    ( 0.0000,  0.0000,  0.0000)
  29 Li     6.484554   -0.367500   15.946464    ( 0.0000,  0.0000,  0.0000)
  30 Li    -0.437297    3.016041   16.208780    ( 0.0000,  0.0000,  0.0000)
  31 Li     3.165986    3.322584   15.634099    ( 0.0000,  0.0000,  0.0000)
  32 Li     6.470047    2.706130   15.910327    ( 0.0000,  0.0000,  0.0000)
  33 Li    -0.005555    6.571675   15.542192    ( 0.0000,  0.0000,  0.0000)
  34 Li     3.226287    6.479190   15.512064    ( 0.0000,  0.0000,  0.0000)
  35 Li     6.404841    6.169928   15.522402    ( 0.0000,  0.0000,  0.0000)
  36 B      7.874675    2.000125   17.711607    ( 0.0000,  0.0000,  0.0000)
  37 H      9.098160    2.056373   17.950232    ( 0.0000,  0.0000,  0.0000)
  38 H      7.600882    3.173781   17.307131    ( 0.0000,  0.0000,  0.0000)
  39 H      7.206682    1.773671   18.678911    ( 0.0000,  0.0000,  0.0000)
  40 N      7.641688    1.075622   16.491583    ( 0.0000,  0.0000,  0.0000)
  41 N      8.061861    1.576287   15.325070    ( 0.0000,  0.0000,  0.0000)

Unit cell:
           periodic     x           y           z      points  spacing
  1. axis:    yes    9.702222    0.000000    0.000000    60     0.1617
  2. axis:    yes    0.000000    9.702222    0.000000    60     0.1617
  3. axis:    no     0.000000    0.000000   26.351111   164     0.1607

  Lengths:   9.702222   9.702222  26.351111
  Angles:   90.000000  90.000000  90.000000

Effective grid spacing dv^(1/3) = 0.1614

     iter     time        total  log10-change:
                         energy  eigst   dens
iter:   1 04:58:17  -257.531750  -1.43
iter:   2 04:58:56  -257.515472  -1.97  -1.87
iter:   3 04:59:36  -257.511786c -2.82  -2.11
iter:   4 05:00:15  -257.510244c -2.83  -2.40
Writing to output.gpw (mode='')

iter:   5 05:00:57  -257.510111c -3.17  -2.65
iter:   6 05:01:36  -257.510012c -2.82  -2.78
iter:   7 05:02:16  -257.509895c -3.40  -2.90
iter:   8 05:02:55  -257.509907c -3.36  -3.09
iter:   9 05:03:35  -257.509901c -3.81  -3.20
Writing to output.gpw (mode='')

iter:  10 05:04:16  -257.509862c -4.01  -3.28
iter:  11 05:04:56  -257.509876c -4.26  -3.48
iter:  12 05:05:35  -257.509876c -4.71  -3.56
iter:  13 05:06:15  -257.509878c -4.74  -3.63
iter:  14 05:06:55  -257.509881c -4.85  -3.66
Writing to output.gpw (mode='')

iter:  15 05:07:36  -257.509885c -5.06  -3.86
iter:  16 05:08:16  -257.509884c -5.40  -3.89
iter:  17 05:08:56  -257.509881c -5.26  -3.95
iter:  18 05:09:35  -257.509881c -5.52  -4.25c
iter:  19 05:10:15  -257.509882c -5.75  -4.27c
Writing to output.gpw (mode='')

iter:  20 05:10:56  -257.509884c -5.67  -4.28c
iter:  21 05:11:35  -257.509884c -5.96  -4.43c
iter:  22 05:12:15  -257.509884c -6.21  -4.61c
iter:  23 05:12:54  -257.509884c -6.08  -4.61c
iter:  24 05:13:34  -257.509884c -6.21  -4.68c
Writing to output.gpw (mode='')

iter:  25 05:14:15  -257.509884c -6.44  -4.68c
iter:  26 05:14:54  -257.509884c -6.70  -4.68c
iter:  27 05:15:34  -257.509884c -6.75  -4.64c
iter:  28 05:16:13  -257.509884c -6.92  -4.71c
iter:  29 05:16:53  -257.509883c -6.98  -4.74c
Writing to output.gpw (mode='')

iter:  30 05:17:34  -257.509883c -7.24  -4.98c
iter:  31 05:18:13  -257.509883c -7.27  -5.02c
iter:  32 05:18:53  -257.509884c -7.48c -5.11c

Converged after 32 iterations.

Dipole moment: (4.593909, 1.873921, -0.288196) |e|*Ang

Energy contributions relative to reference atoms: (reference = -10970.764591)

Kinetic:       +108.775583
Potential:      -98.250625
External:        +0.000000
XC:            -268.309323
Entropy (-ST):   -0.159241
Local:           +0.354103
--------------------------
Free energy:   -257.589504
Extrapolated:  -257.509884

Dipole-layer corrected work functions: 3.426810, 3.980822 eV

Showing only first 2 kpts
 Kpt  Band  Eigenvalues  Occupancy
  0    24     -3.89201    1.95466
  0    25     -3.75229    1.45004
  0    26     -3.63474    0.40155
  0    27     -3.52680    0.05638

  1    24     -3.93075    1.97885
  1    25     -3.79561    1.72493
  1    26     -3.62667    0.35223
  1    27     -3.53850    0.07071


Fermi level: -3.70382

Gap: 0.024 eV
Transition (v -> c):
  (s=0, k=7, n=25, [0.38, 0.38, 0.00]) -> (s=0, k=4, n=26, [0.38, -0.38, 0.00])
Writing to output.gpw (mode='')


Forces in eV/Ang:
  0 Li   -0.00287    0.01155   -0.28079
  1 Li   -0.01378    0.01088   -0.27963
  2 Li    0.00829    0.02143   -0.25689
  3 Li    0.02398    0.01740   -0.29406
  4 Li   -0.00222    0.01972   -0.29992
  5 Li    0.01337    0.00435   -0.26615
  6 Li    0.02314   -0.00112   -0.28856
  7 Li    0.00697   -0.00131   -0.27813
  8 Li    0.00723   -0.01049   -0.27571
  9 Li   -0.03138    0.01849    0.34671
 10 Li    0.01188   -0.02129    0.32038
 11 Li    0.02606    0.03165    0.33378
 12 Li    0.06822    0.01874    0.15232
 13 Li   -0.03145   -0.03264    0.28034
 14 Li   -0.01489   -0.02208    0.26256
 15 Li   -0.01277   -0.06985    0.27500
 16 Li   -0.02181   -0.04888    0.36256
 17 Li   -0.10575   -0.11088    0.25491
 18 Li   -0.06768   -0.01377    0.02492
 19 Li    0.01240   -0.00272    0.00772
 20 Li    0.02905   -0.06374   -0.05015
 21 Li    0.02980    0.01443   -0.03557
 22 Li   -0.00381    0.01275    0.00081
 23 Li   -0.01899    0.01363    0.02543
 24 Li   -0.00126    0.00415    0.01476
 25 Li   -0.01028   -0.01149   -0.01475
 26 Li    0.02388    0.09117    0.09499
 27 Li    0.05537   -0.09761    0.07133
 28 Li    0.03183    0.00509   -0.02275
 29 Li   -0.00176    0.05820   -0.07683
 30 Li   -0.05893    0.01875   -0.05868
 31 Li    0.00511   -0.02688   -0.01416
 32 Li    0.06607    0.03852   -0.00907
 33 Li    0.02312    0.00058   -0.00179
 34 Li    0.00672    0.01000   -0.00235
 35 Li   -0.00850    0.03705    0.00436
 36 B     0.03036    0.14209   -0.14199
 37 H     0.02313    0.03279   -0.00280
 38 H    -0.00556    0.21485   -0.00998
 39 H     0.04821   -0.21602    0.16363
 40 N    -0.09613    0.06395    0.18355
 41 N    -0.08170   -0.14782   -0.18004

System changes: positions 

Initializing position-dependent things.

Density initialized from wave functions
       .-----------------------.  
      /|                       |  
     / |                       |  
    /  |                       |  
   /   |                       |  
  /    |                       |  
 *     |                       |  
 |     |                       |  
 |     |                       |  
 |     |                       |  
 |     |                       |  
 |     |                       |  
 |     |                       |  
 |     |       Li      Li      |  
 |     |            H          |  
 |     |     Li      LB  H   Li|  
 |     |          Li      Li   |  
 |     |  LLi      LiN    Li   |  
 |     |Li            N        |  
 |     |        Li      Li     |  
 |   LLi     Li      LLi       |  
 |     |  Li  Li  Li      Li   |  
 | Li  |   Li      Li          |  
 |     |Li      Li      Li     |  
 Li    | Li      Li            |  
 |    Li      Li      Li       |  
 |     |                       |  
 |     |                       |  
 |     |                       |  
 |     |                       |  
 |     |                       |  
 |     |                       |  
 |     .-----------------------.  
 |    /                       /   
 |   /                       /    
 |  /                       /     
 | /                       /      
 |/                       /       
 *-----------------------*        

Positions:
   0 Li     1.617037    1.617037   10.000000    ( 0.0000,  0.0000,  0.0000)
   1 Li     4.851111    1.617037   10.000000    ( 0.0000,  0.0000,  0.0000)
   2 Li     8.085185    1.617037   10.000000    ( 0.0000,  0.0000,  0.0000)
   3 Li     1.617037    4.851111   10.000000    ( 0.0000,  0.0000,  0.0000)
   4 Li     4.851111    4.851111   10.000000    ( 0.0000,  0.0000,  0.0000)
   5 Li     8.085185    4.851111   10.000000    ( 0.0000,  0.0000,  0.0000)
   6 Li     1.617037    8.085185   10.000000    ( 0.0000,  0.0000,  0.0000)
   7 Li     4.851111    8.085185   10.000000    ( 0.0000,  0.0000,  0.0000)
   8 Li     8.085185    8.085185   10.000000    ( 0.0000,  0.0000,  0.0000)
   9 Li     0.000000    0.000000   11.617037    ( 0.0000,  0.0000,  0.0000)
  10 Li     3.234074    0.000000   11.617037    ( 0.0000,  0.0000,  0.0000)
  11 Li     6.468148    0.000000   11.617037    ( 0.0000,  0.0000,  0.0000)
  12 Li     0.000000    3.234074   11.617037    ( 0.0000,  0.0000,  0.0000)
  13 Li     3.234074    3.234074   11.617037    ( 0.0000,  0.0000,  0.0000)
  14 Li     6.468148    3.234074   11.617037    ( 0.0000,  0.0000,  0.0000)
  15 Li     0.000000    6.468148   11.617037    ( 0.0000,  0.0000,  0.0000)
  16 Li     3.234074    6.468148   11.617037    ( 0.0000,  0.0000,  0.0000)
  17 Li     6.468148    6.468148   11.617037    ( 0.0000,  0.0000,  0.0000)
  18 Li     1.656170    1.656634   13.576846    ( 0.0000,  0.0000,  0.0000)
  19 Li     4.805712    1.561465   13.596343    ( 0.0000,  0.0000,  0.0000)
  20 Li     8.189292    1.795674   13.533013    ( 0.0000,  0.0000,  0.0000)
  21 Li     1.521160    4.813335   13.632354    ( 0.0000,  0.0000,  0.0000)
  22 Li     4.807856    4.712517   13.563210    ( 0.0000,  0.0000,  0.0000)
  23 Li     8.091896    4.760777   13.565606    ( 0.0000,  0.0000,  0.0000)
  24 Li     1.547819    8.085161   13.525960    ( 0.0000,  0.0000,  0.0000)
  25 Li     4.840107    8.048910   13.611424    ( 0.0000,  0.0000,  0.0000)
  26 Li     7.982914    7.862974   13.448954    ( 0.0000,  0.0000,  0.0000)
  27 Li    -0.477451    0.031893   15.458764    ( 0.0000,  0.0000,  0.0000)
  28 Li     3.061011   -0.053555   15.589320    ( 0.0000,  0.0000,  0.0000)
  29 Li     6.485515   -0.370404   15.939993    ( 0.0000,  0.0000,  0.0000)
  30 Li    -0.439342    3.017484   16.199254    ( 0.0000,  0.0000,  0.0000)
  31 Li     3.165852    3.321762   15.633758    ( 0.0000,  0.0000,  0.0000)
  32 Li     6.485007    2.707516   15.910865    ( 0.0000,  0.0000,  0.0000)
  33 Li    -0.003580    6.571976   15.542970    ( 0.0000,  0.0000,  0.0000)
  34 Li     3.225335    6.479023   15.512745    ( 0.0000,  0.0000,  0.0000)
  35 Li     6.404624    6.173979   15.522590    ( 0.0000,  0.0000,  0.0000)
  36 B      7.873553    2.006684   17.719627    ( 0.0000,  0.0000,  0.0000)
  37 H      9.091574    2.058456   17.955004    ( 0.0000,  0.0000,  0.0000)
  38 H      7.608141    3.179687   17.302187    ( 0.0000,  0.0000,  0.0000)
  39 H      7.211618    1.763746   18.691262    ( 0.0000,  0.0000,  0.0000)
  40 N      7.638615    1.080852   16.498663    ( 0.0000,  0.0000,  0.0000)
  41 N      8.058213    1.577660   15.326193    ( 0.0000,  0.0000,  0.0000)

Unit cell:
           periodic     x           y           z      points  spacing
  1. axis:    yes    9.702222    0.000000    0.000000    60     0.1617
  2. axis:    yes    0.000000    9.702222    0.000000    60     0.1617
  3. axis:    no     0.000000    0.000000   26.351111   164     0.1607

  Lengths:   9.702222   9.702222  26.351111
  Angles:   90.000000  90.000000  90.000000

Effective grid spacing dv^(1/3) = 0.1614

     iter     time        total  log10-change:
                         energy  eigst   dens
iter:   1 05:19:49  -257.522933  -1.55
iter:   2 05:20:28  -257.519976  -2.21  -2.21
iter:   3 05:21:08  -257.519255c -2.83  -2.34
iter:   4 05:21:47  -257.518549c -2.97  -2.53
Writing to output.gpw (mode='')

iter:   5 05:22:29  -257.518114c -3.06  -2.70
iter:   6 05:23:08  -257.518053c -2.80  -2.87
iter:   7 05:23:47  -257.517978c -3.68  -2.88
iter:   8 05:24:27  -257.517956c -3.61  -3.11
iter:   9 05:25:06  -257.517945c -3.75  -3.16
Writing to output.gpw (mode='')

iter:  10 05:25:47  -257.517932c -4.19  -3.33
iter:  11 05:26:27  -257.517932c -4.50  -3.51
iter:  12 05:27:06  -257.517927c -4.92  -3.58
iter:  13 05:27:46  -257.517929c -4.97  -3.67
iter:  14 05:28:26  -257.517921c -4.99  -3.75
Writing to output.gpw (mode='')

iter:  15 05:29:11  -257.517924c -5.46  -3.89
iter:  16 05:29:50  -257.517924c -5.59  -4.00
iter:  17 05:30:30  -257.517924c -5.62  -4.06c
iter:  18 05:31:09  -257.517927c -5.74  -4.16c
iter:  19 05:31:49  -257.517927c -6.19  -4.42c
Writing to output.gpw (mode='')

iter:  20 05:32:30  -257.517927c -6.38  -4.45c
iter:  21 05:33:10  -257.517927c -6.21  -4.57c
iter:  22 05:33:49  -257.517927c -6.61  -4.73c
iter:  23 05:34:29  -257.517926c -6.67  -4.77c
iter:  24 05:35:09  -257.517926c -6.70  -4.86c
Writing to output.gpw (mode='')

iter:  25 05:35:50  -257.517927c -7.11  -5.03c
iter:  26 05:36:30  -257.517927c -7.16  -5.05c
iter:  27 05:37:09  -257.517927c -7.22  -5.17c
iter:  28 05:37:50  -257.517927c -7.27  -5.29c
iter:  29 05:38:30  -257.517927c -7.63c -5.30c

Converged after 29 iterations.

Dipole moment: (4.547607, 1.920476, -0.290842) |e|*Ang

Energy contributions relative to reference atoms: (reference = -10970.764591)

Kinetic:       +108.441517
Potential:      -97.994815
External:        +0.000000
XC:            -268.238883
Entropy (-ST):   -0.159239
Local:           +0.353873
--------------------------
Free energy:   -257.597546
Extrapolated:  -257.517927

Dipole-layer corrected work functions: 3.427174, 3.986272 eV

Showing only first 2 kpts
 Kpt  Band  Eigenvalues  Occupancy
  0    24     -3.89530    1.95501
  0    25     -3.75537    1.45143
  0    26     -3.63707    0.39786
  0    27     -3.53040    0.05714

  1    24     -3.93367    1.97886
  1    25     -3.79798    1.72235
  1    26     -3.62930    0.35064
  1    27     -3.54151    0.07085


Fermi level: -3.70672

Gap: 0.024 eV
Transition (v -> c):
  (s=0, k=7, n=25, [0.38, 0.38, 0.00]) -> (s=0, k=4, n=26, [0.38, -0.38, 0.00])
Writing to output.gpw (mode='')


Forces in eV/Ang:
  0 Li   -0.00330    0.01133   -0.28064
  1 Li   -0.01369    0.01065   -0.27992
  2 Li    0.00862    0.02122   -0.25646
  3 Li    0.02401    0.01747   -0.29374
  4 Li   -0.00219    0.01977   -0.29966
  5 Li    0.01327    0.00441   -0.26624
  6 Li    0.02316   -0.00127   -0.28864
  7 Li    0.00709   -0.00136   -0.27837
  8 Li    0.00718   -0.01028   -0.27562
  9 Li   -0.03023    0.01636    0.34350
 10 Li    0.01191   -0.02024    0.32157
 11 Li    0.02536    0.03128    0.33336
 12 Li    0.06885    0.02037    0.15192
 13 Li   -0.03109   -0.03409    0.28193
 14 Li   -0.01529   -0.02256    0.26296
 15 Li   -0.01424   -0.06895    0.27479
 16 Li   -0.02068   -0.04766    0.36099
 17 Li   -0.10490   -0.10966    0.25545
 18 Li   -0.06092   -0.01225    0.02404
 19 Li    0.01540   -0.00129    0.00576
 20 Li    0.01362   -0.07018   -0.00014
 21 Li    0.02734    0.01096   -0.03182
 22 Li   -0.00355    0.01374    0.00010
 23 Li   -0.01615    0.01248    0.02481
 24 Li   -0.00158    0.00649    0.01700
 25 Li   -0.01310   -0.01457   -0.01644
 26 Li    0.02522    0.08809    0.09007
 27 Li    0.03952   -0.07262    0.07910
 28 Li    0.02750    0.00333   -0.02259
 29 Li    0.02272    0.10091   -0.05908
 30 Li   -0.05046    0.01122   -0.04000
 31 Li    0.00433   -0.02573   -0.01451
 32 Li    0.00617    0.06677   -0.01054
 33 Li    0.02080   -0.00106   -0.00331
 34 Li    0.00861    0.01100   -0.00361
 35 Li   -0.00761    0.03404    0.00464
 36 B    -0.03850    0.07405   -0.19087
 37 H     0.13471    0.04204    0.00204
 38 H    -0.03354    0.20815    0.06256
 39 H     0.05892   -0.12783    0.08634
 40 N    -0.06919    0.00369    0.05598
 41 N    -0.08462   -0.20407   -0.09321

System changes: positions 

Initializing position-dependent things.

Density initialized from wave functions
       .-----------------------.  
      /|                       |  
     / |                       |  
    /  |                       |  
   /   |                       |  
  /    |                       |  
 *     |                       |  
 |     |                       |  
 |     |                       |  
 |     |                       |  
 |     |                       |  
 |     |                       |  
 |     |                       |  
 |     |       Li      Li      |  
 |     |            H          |  
 |     |     Li      LB  H   Li|  
 |     |          Li      Li   |  
 |     |  LLi      LiN    Li   |  
 |     |Li            N        |  
 |     |        Li      Li     |  
 |   LLi     Li      LLi       |  
 |     |  Li  Li  Li      Li   |  
 | Li  |   Li      Li          |  
 |     |Li      Li      Li     |  
 Li    | Li      Li            |  
 |    Li      Li      Li       |  
 |     |                       |  
 |     |                       |  
 |     |                       |  
 |     |                       |  
 |     |                       |  
 |     |                       |  
 |     .-----------------------.  
 |    /                       /   
 |   /                       /    
 |  /                       /     
 | /                       /      
 |/                       /       
 *-----------------------*        

Positions:
   0 Li     1.617037    1.617037   10.000000    ( 0.0000,  0.0000,  0.0000)
   1 Li     4.851111    1.617037   10.000000    ( 0.0000,  0.0000,  0.0000)
   2 Li     8.085185    1.617037   10.000000    ( 0.0000,  0.0000,  0.0000)
   3 Li     1.617037    4.851111   10.000000    ( 0.0000,  0.0000,  0.0000)
   4 Li     4.851111    4.851111   10.000000    ( 0.0000,  0.0000,  0.0000)
   5 Li     8.085185    4.851111   10.000000    ( 0.0000,  0.0000,  0.0000)
   6 Li     1.617037    8.085185   10.000000    ( 0.0000,  0.0000,  0.0000)
   7 Li     4.851111    8.085185   10.000000    ( 0.0000,  0.0000,  0.0000)
   8 Li     8.085185    8.085185   10.000000    ( 0.0000,  0.0000,  0.0000)
   9 Li     0.000000    0.000000   11.617037    ( 0.0000,  0.0000,  0.0000)
  10 Li     3.234074    0.000000   11.617037    ( 0.0000,  0.0000,  0.0000)
  11 Li     6.468148    0.000000   11.617037    ( 0.0000,  0.0000,  0.0000)
  12 Li     0.000000    3.234074   11.617037    ( 0.0000,  0.0000,  0.0000)
  13 Li     3.234074    3.234074   11.617037    ( 0.0000,  0.0000,  0.0000)
  14 Li     6.468148    3.234074   11.617037    ( 0.0000,  0.0000,  0.0000)
  15 Li     0.000000    6.468148   11.617037    ( 0.0000,  0.0000,  0.0000)
  16 Li     3.234074    6.468148   11.617037    ( 0.0000,  0.0000,  0.0000)
  17 Li     6.468148    6.468148   11.617037    ( 0.0000,  0.0000,  0.0000)
  18 Li     1.652099    1.655360   13.577674    ( 0.0000,  0.0000,  0.0000)
  19 Li     4.806826    1.560298   13.594927    ( 0.0000,  0.0000,  0.0000)
  20 Li     8.192103    1.791895   13.530496    ( 0.0000,  0.0000,  0.0000)
  21 Li     1.523363    4.813282   13.629505    ( 0.0000,  0.0000,  0.0000)
  22 Li     4.807506    4.712336   13.563703    ( 0.0000,  0.0000,  0.0000)
  23 Li     8.090771    4.761324   13.568823    ( 0.0000,  0.0000,  0.0000)
  24 Li     1.548075    8.085777   13.527927    ( 0.0000,  0.0000,  0.0000)
  25 Li     4.839689    8.047987   13.609772    ( 0.0000,  0.0000,  0.0000)
  26 Li     7.984906    7.874189   13.457717    ( 0.0000,  0.0000,  0.0000)
  27 Li    -0.474797    0.033019   15.476232    ( 0.0000,  0.0000,  0.0000)
  28 Li     3.064261   -0.051093   15.587064    ( 0.0000,  0.0000,  0.0000)
  29 Li     6.477946   -0.367110   15.933325    ( 0.0000,  0.0000,  0.0000)
  30 Li    -0.446127    3.014663   16.199310    ( 0.0000,  0.0000,  0.0000)
  31 Li     3.167170    3.317968   15.631831    ( 0.0000,  0.0000,  0.0000)
  32 Li     6.490970    2.705620   15.914951    ( 0.0000,  0.0000,  0.0000)
  33 Li    -0.001595    6.570492   15.542249    ( 0.0000,  0.0000,  0.0000)
  34 Li     3.225766    6.479747   15.512194    ( 0.0000,  0.0000,  0.0000)
  35 Li     6.403857    6.177756   15.523714    ( 0.0000,  0.0000,  0.0000)
  36 B      7.874785    2.017162   17.723952    ( 0.0000,  0.0000,  0.0000)
  37 H      9.092957    2.062235   17.953200    ( 0.0000,  0.0000,  0.0000)
  38 H      7.624715    3.187869   17.291849    ( 0.0000,  0.0000,  0.0000)
  39 H      7.219553    1.764731   18.699371    ( 0.0000,  0.0000,  0.0000)
  40 N      7.630352    1.085717   16.505573    ( 0.0000,  0.0000,  0.0000)
  41 N      8.049739    1.574192   15.328082    ( 0.0000,  0.0000,  0.0000)

Unit cell:
           periodic     x           y           z      points  spacing
  1. axis:    yes    9.702222    0.000000    0.000000    60     0.1617
  2. axis:    yes    0.000000    9.702222    0.000000    60     0.1617
  3. axis:    no     0.000000    0.000000   26.351111   164     0.1607

  Lengths:   9.702222   9.702222  26.351111
  Angles:   90.000000  90.000000  90.000000

Effective grid spacing dv^(1/3) = 0.1614

     iter     time        total  log10-change:
                         energy  eigst   dens
iter:   1 05:39:25  -257.530913  -1.43
iter:   2 05:40:04  -257.528638  -2.11  -2.12
iter:   3 05:40:44  -257.527602c -2.67  -2.29
iter:   4 05:41:24  -257.526655c -3.09  -2.41
Writing to output.gpw (mode='')

iter:   5 05:42:05  -257.525321c -2.64  -2.52
iter:   6 05:42:45  -257.525063c -2.68  -2.79
iter:   7 05:43:25  -257.525100c -2.87  -3.01
iter:   8 05:44:05  -257.525197c -3.69  -3.03
iter:   9 05:44:44  -257.525141c -3.81  -3.12
Writing to output.gpw (mode='')

iter:  10 05:45:26  -257.525123c -3.83  -3.34
iter:  11 05:46:05  -257.525116c -4.39  -3.39
iter:  12 05:46:45  -257.525086c -4.24  -3.43
iter:  13 05:47:25  -257.525075c -4.44  -3.48
iter:  14 05:48:05  -257.525091c -4.88  -3.61
Writing to output.gpw (mode='')

iter:  15 05:48:46  -257.525089c -5.37  -3.72
iter:  16 05:49:25  -257.525100c -5.09  -3.83
iter:  17 05:50:05  -257.525099c -5.53  -3.89
iter:  18 05:50:45  -257.525100c -5.63  -4.08c
iter:  19 05:51:24  -257.525098c -5.87  -4.12c
Writing to output.gpw (mode='')

iter:  20 05:52:05  -257.525099c -5.73  -4.18c
iter:  21 05:52:45  -257.525103c -6.00  -4.18c
iter:  22 05:53:25  -257.525107c -6.14  -4.50c
iter:  23 05:54:04  -257.525107c -6.42  -4.53c
iter:  24 05:54:44  -257.525106c -6.67  -4.55c
Writing to output.gpw (mode='')

iter:  25 05:55:26  -257.525105c -6.86  -4.65c
iter:  26 05:56:05  -257.525104c -6.96  -4.74c
iter:  27 05:56:45  -257.525105c -7.10  -4.83c
iter:  28 05:57:25  -257.525105c -7.34  -4.94c
iter:  29 05:58:04  -257.525104c -7.25  -4.95c
Writing to output.gpw (mode='')

iter:  30 05:58:45  -257.525104c -7.33  -5.09c
iter:  31 05:59:24  -257.525104c -7.65c -5.32c

Converged after 31 iterations.

Dipole moment: (4.536468, 1.875939, -0.289829) |e|*Ang

Energy contributions relative to reference atoms: (reference = -10970.764591)

Kinetic:       +108.228995
Potential:      -97.832201
External:        +0.000000
XC:            -268.195754
Entropy (-ST):   -0.159425
Local:           +0.353568
--------------------------
Free energy:   -257.604817
Extrapolated:  -257.525104

Dipole-layer corrected work functions: 3.427349, 3.984500 eV

Showing only first 2 kpts
 Kpt  Band  Eigenvalues  Occupancy
  0    24     -3.89501    1.95545
  0    25     -3.75442    1.45018
  0    26     -3.63584    0.39508
  0    27     -3.53097    0.05868

  1    24     -3.93305    1.97893
  1    25     -3.79747    1.72375
  1    26     -3.62824    0.34911
  1    27     -3.54131    0.07167


Fermi level: -3.70592

Gap: 0.024 eV
Transition (v -> c):
  (s=0, k=7, n=25, [0.38, 0.38, 0.00]) -> (s=0, k=4, n=26, [0.38, -0.38, 0.00])
Writing to output.gpw (mode='')


Forces in eV/Ang:
  0 Li   -0.00321    0.01121   -0.28064
  1 Li   -0.01381    0.01048   -0.28034
  2 Li    0.00891    0.02070   -0.25579
  3 Li    0.02379    0.01748   -0.29400
  4 Li   -0.00193    0.01996   -0.29880
  5 Li    0.01327    0.00422   -0.26758
  6 Li    0.02314   -0.00128   -0.28855
  7 Li    0.00702   -0.00140   -0.27882
  8 Li    0.00726   -0.01034   -0.27567
  9 Li   -0.02859    0.01549    0.33953
 10 Li    0.01097   -0.02000    0.32210
 11 Li    0.02506    0.03055    0.33155
 12 Li    0.06766    0.02132    0.15238
 13 Li   -0.03117   -0.03595    0.28291
 14 Li   -0.01414   -0.02236    0.26304
 15 Li   -0.01803   -0.06614    0.27958
 16 Li   -0.02137   -0.04683    0.36017
 17 Li   -0.09809   -0.10513    0.26262
 18 Li   -0.05717   -0.01198    0.02371
 19 Li    0.01677    0.00048    0.00709
 20 Li    0.00197   -0.07984    0.05098
 21 Li    0.02630    0.01040   -0.02951
 22 Li   -0.00322    0.01449    0.00006
 23 Li   -0.01492    0.01309    0.02147
 24 Li   -0.00327    0.00772    0.01639
 25 Li   -0.01347   -0.01506   -0.01711
 26 Li    0.02271    0.07902    0.07826
 27 Li    0.02432   -0.05658    0.07799
 28 Li    0.02467    0.00022   -0.02141
 29 Li    0.04540    0.12886   -0.04772
 30 Li   -0.02686    0.01325   -0.05351
 31 Li    0.00281   -0.02273   -0.01371
 32 Li   -0.03911    0.09728   -0.01806
 33 Li    0.02004   -0.00186   -0.00186
 34 Li    0.00888    0.01061   -0.00299
 35 Li   -0.00660    0.03314    0.00474
 36 B    -0.03533   -0.03102   -0.23660
 37 H     0.16154    0.03115    0.01047
 38 H    -0.08869    0.22700    0.12890
 39 H     0.05872   -0.05335    0.05352
 40 N    -0.10382   -0.00586    0.05603
 41 N    -0.04776   -0.22253   -0.12990

System changes: positions 

Initializing position-dependent things.

Density initialized from wave functions
       .-----------------------.  
      /|                       |  
     / |                       |  
    /  |                       |  
   /   |                       |  
  /    |                       |  
 *     |                       |  
 |     |                       |  
 |     |                       |  
 |     |                       |  
 |     |                       |  
 |     |                       |  
 |     |                       |  
 |     |       Li      Li      |  
 |     |            H          |  
 |   Li|     Li      LB  H     |  
 |     |          Li      Li   |  
 |     |  LLi      LiN    Li   |  
 |     |Li            N        |  
 |     |        Li      Li     |  
 |   LLi     Li      LLi       |  
 |     |  Li  Li  Li      Li   |  
 | Li  |   Li      Li          |  
 |     |Li      Li      Li     |  
 Li    | Li      Li            |  
 |    Li      Li      Li       |  
 |     |                       |  
 |     |                       |  
 |     |                       |  
 |     |                       |  
 |     |                       |  
 |     |                       |  
 |     .-----------------------.  
 |    /                       /   
 |   /                       /    
 |  /                       /     
 | /                       /      
 |/                       /       
 *-----------------------*        

Positions:
   0 Li     1.617037    1.617037   10.000000    ( 0.0000,  0.0000,  0.0000)
   1 Li     4.851111    1.617037   10.000000    ( 0.0000,  0.0000,  0.0000)
   2 Li     8.085185    1.617037   10.000000    ( 0.0000,  0.0000,  0.0000)
   3 Li     1.617037    4.851111   10.000000    ( 0.0000,  0.0000,  0.0000)
   4 Li     4.851111    4.851111   10.000000    ( 0.0000,  0.0000,  0.0000)
   5 Li     8.085185    4.851111   10.000000    ( 0.0000,  0.0000,  0.0000)
   6 Li     1.617037    8.085185   10.000000    ( 0.0000,  0.0000,  0.0000)
   7 Li     4.851111    8.085185   10.000000    ( 0.0000,  0.0000,  0.0000)
   8 Li     8.085185    8.085185   10.000000    ( 0.0000,  0.0000,  0.0000)
   9 Li     0.000000    0.000000   11.617037    ( 0.0000,  0.0000,  0.0000)
  10 Li     3.234074    0.000000   11.617037    ( 0.0000,  0.0000,  0.0000)
  11 Li     6.468148    0.000000   11.617037    ( 0.0000,  0.0000,  0.0000)
  12 Li     0.000000    3.234074   11.617037    ( 0.0000,  0.0000,  0.0000)
  13 Li     3.234074    3.234074   11.617037    ( 0.0000,  0.0000,  0.0000)
  14 Li     6.468148    3.234074   11.617037    ( 0.0000,  0.0000,  0.0000)
  15 Li     0.000000    6.468148   11.617037    ( 0.0000,  0.0000,  0.0000)
  16 Li     3.234074    6.468148   11.617037    ( 0.0000,  0.0000,  0.0000)
  17 Li     6.468148    6.468148   11.617037    ( 0.0000,  0.0000,  0.0000)
  18 Li     1.646906    1.651213   13.575185    ( 0.0000,  0.0000,  0.0000)
  19 Li     4.807795    1.557624   13.589280    ( 0.0000,  0.0000,  0.0000)
  20 Li     8.195304    1.785909   13.534258    ( 0.0000,  0.0000,  0.0000)
  21 Li     1.528265    4.813555   13.622515    ( 0.0000,  0.0000,  0.0000)
  22 Li     4.807675    4.711385   13.565707    ( 0.0000,  0.0000,  0.0000)
  23 Li     8.088741    4.761948   13.573048    ( 0.0000,  0.0000,  0.0000)
  24 Li     1.548133    8.087839   13.531836    ( 0.0000,  0.0000,  0.0000)
  25 Li     4.841128    8.047759   13.606651    ( 0.0000,  0.0000,  0.0000)
  26 Li     7.988544    7.894448   13.470520    ( 0.0000,  0.0000,  0.0000)
  27 Li    -0.459919    0.040625   15.512575    ( 0.0000,  0.0000,  0.0000)
  28 Li     3.072643   -0.045501   15.581253    ( 0.0000,  0.0000,  0.0000)
  29 Li     6.464486   -0.349404   15.925740    ( 0.0000,  0.0000,  0.0000)
  30 Li    -0.455542    3.008537   16.201900    ( 0.0000,  0.0000,  0.0000)
  31 Li     3.171435    3.310428   15.626529    ( 0.0000,  0.0000,  0.0000)
  32 Li     6.497060    2.703189   15.925975    ( 0.0000,  0.0000,  0.0000)
  33 Li     0.001896    6.566127   15.539362    ( 0.0000,  0.0000,  0.0000)
  34 Li     3.225562    6.480115   15.510691    ( 0.0000,  0.0000,  0.0000)
  35 Li     6.403290    6.188106   15.525600    ( 0.0000,  0.0000,  0.0000)
  36 B      7.881176    2.030786   17.730916    ( 0.0000,  0.0000,  0.0000)
  37 H      9.100828    2.067018   17.954316    ( 0.0000,  0.0000,  0.0000)
  38 H      7.650729    3.197472   17.283451    ( 0.0000,  0.0000,  0.0000)
  39 H      7.234316    1.775284   18.712890    ( 0.0000,  0.0000,  0.0000)
  40 N      7.612203    1.095982   16.519865    ( 0.0000,  0.0000,  0.0000)
  41 N      8.036908    1.565097   15.333386    ( 0.0000,  0.0000,  0.0000)

Unit cell:
           periodic     x           y           z      points  spacing
  1. axis:    yes    9.702222    0.000000    0.000000    60     0.1617
  2. axis:    yes    0.000000    9.702222    0.000000    60     0.1617
  3. axis:    no     0.000000    0.000000   26.351111   164     0.1607

  Lengths:   9.702222   9.702222  26.351111
  Angles:   90.000000  90.000000  90.000000

Effective grid spacing dv^(1/3) = 0.1614

     iter     time        total  log10-change:
                         energy  eigst   dens
iter:   1 06:00:20  -257.547467  -0.90
iter:   2 06:01:00  -257.543165  -1.60  -1.93
iter:   3 06:01:39  -257.540907c -2.10  -2.03
iter:   4 06:02:18  -257.535786c -2.35  -2.13
Writing to output.gpw (mode='')

iter:   5 06:02:59  -257.534743c -2.48  -2.38
iter:   6 06:03:39  -257.533538c -2.25  -2.48
iter:   7 06:04:18  -257.533625c -2.58  -2.75
iter:   8 06:04:57  -257.533687c -3.03  -2.85
iter:   9 06:05:37  -257.533762c -3.19  -2.99
Writing to output.gpw (mode='')

iter:  10 06:06:17  -257.533711c -3.40  -2.97
iter:  11 06:06:57  -257.533726c -3.64  -3.24
iter:  12 06:07:36  -257.533694c -4.09  -3.25
iter:  13 06:08:16  -257.533664c -4.04  -3.42
iter:  14 06:08:55  -257.533706c -4.33  -3.41
Writing to output.gpw (mode='')

iter:  15 06:09:36  -257.533710c -4.47  -3.60
iter:  16 06:10:16  -257.533705c -4.71  -3.71
iter:  17 06:10:56  -257.533707c -5.01  -3.77
iter:  18 06:11:36  -257.533714c -5.07  -3.80
iter:  19 06:12:15  -257.533723c -5.07  -3.98
Writing to output.gpw (mode='')

iter:  20 06:12:57  -257.533722c -5.51  -4.12c
iter:  21 06:13:36  -257.533718c -5.60  -4.15c
iter:  22 06:14:16  -257.533719c -5.53  -4.20c
iter:  23 06:14:56  -257.533719c -5.76  -4.25c
iter:  24 06:15:35  -257.533721c -5.93  -4.27c
Writing to output.gpw (mode='')

iter:  25 06:16:18  -257.533720c -6.07  -4.42c
iter:  26 06:16:57  -257.533717c -6.02  -4.52c
iter:  27 06:17:37  -257.533717c -6.31  -4.56c
iter:  28 06:18:16  -257.533721c -6.32  -4.55c
iter:  29 06:18:56  -257.533721c -6.44  -4.74c
Writing to output.gpw (mode='')

iter:  30 06:19:37  -257.533720c -6.43  -4.79c
iter:  31 06:20:17  -257.533720c -6.81  -4.86c
iter:  32 06:20:57  -257.533720c -6.94  -4.97c
iter:  33 06:21:36  -257.533720c -7.13  -5.19c
iter:  34 06:22:16  -257.533720c -7.06  -5.27c
Writing to output.gpw (mode='')

iter:  35 06:22:57  -257.533721c -7.07  -5.27c
iter:  36 06:23:36  -257.533720c -7.36  -5.30c
iter:  37 06:24:16  -257.533720c -7.56c -5.59c

Converged after 37 iterations.

Dipole moment: (4.530387, 1.683726, -0.291258) |e|*Ang

Energy contributions relative to reference atoms: (reference = -10970.764591)

Kinetic:       +108.075749
Potential:      -97.703782
External:        +0.000000
XC:            -268.179386
Entropy (-ST):   -0.159682
Local:           +0.353540
--------------------------
Free energy:   -257.613561
Extrapolated:  -257.533720

Dipole-layer corrected work functions: 3.427871, 3.987770 eV

Showing only first 2 kpts
 Kpt  Band  Eigenvalues  Occupancy
  0    24     -3.89806    1.95644
  0    25     -3.75550    1.44365
  0    26     -3.63702    0.39057
  0    27     -3.53735    0.06401

  1    24     -3.93540    1.97912
  1    25     -3.79982    1.72591
  1    26     -3.62937    0.34474
  1    27     -3.54353    0.07212


Fermi level: -3.70782

Gap: 0.022 eV
Transition (v -> c):
  (s=0, k=7, n=25, [0.38, 0.38, 0.00]) -> (s=0, k=4, n=26, [0.38, -0.38, 0.00])
Writing to output.gpw (mode='')


Forces in eV/Ang:
  0 Li   -0.00251    0.01101   -0.28059
  1 Li   -0.01429    0.01025   -0.28080
  2 Li    0.00938    0.01975   -0.25461
  3 Li    0.02327    0.01748   -0.29433
  4 Li   -0.00147    0.02019   -0.29696
  5 Li    0.01320    0.00399   -0.27035
  6 Li    0.02294   -0.00118   -0.28809
  7 Li    0.00684   -0.00125   -0.27943
  8 Li    0.00738   -0.01074   -0.27580
  9 Li   -0.02728    0.01569    0.33241
 10 Li    0.00972   -0.02169    0.32102
 11 Li    0.02554    0.03045    0.32695
 12 Li    0.06310    0.02033    0.15509
 13 Li   -0.03051   -0.03814    0.28342
 14 Li   -0.01105   -0.02305    0.26330
 15 Li   -0.02422   -0.06112    0.28771
 16 Li   -0.02144   -0.04445    0.35911
 17 Li   -0.08689   -0.09760    0.27431
 18 Li   -0.05237   -0.00924    0.02688
 19 Li    0.02130    0.00534    0.01234
 20 Li   -0.01086   -0.08991    0.09364
 21 Li    0.02458    0.00870   -0.02457
 22 Li   -0.00195    0.01729   -0.00116
 23 Li   -0.01378    0.01515    0.01854
 24 Li   -0.00464    0.00884    0.01488
 25 Li   -0.01633   -0.01727   -0.01736
 26 Li    0.02096    0.07014    0.06652
 27 Li   -0.01022   -0.03891    0.07402
 28 Li    0.01936   -0.00587   -0.01858
 29 Li    0.06580    0.14085   -0.04807
 30 Li    0.00879    0.01675   -0.08059
 31 Li   -0.00212   -0.01829   -0.01222
 32 Li   -0.09589    0.14503   -0.03294
 33 Li    0.01917   -0.00237    0.00090
 34 Li    0.00986    0.01137   -0.00217
 35 Li   -0.00534    0.03016    0.00535
 36 B    -0.04437   -0.14903   -0.23178
 37 H     0.16426    0.00374   -0.01122
 38 H    -0.14648    0.28302    0.17847
 39 H     0.05812    0.01882    0.01561
 40 N    -0.00070   -0.03728    0.03115
 41 N    -0.03001   -0.25960   -0.10573

System changes: positions 

Initializing position-dependent things.

Density initialized from wave functions
       .-----------------------.  
      /|                       |  
     / |                       |  
    /  |                       |  
   /   |                       |  
  /    |                       |  
 *     |                       |  
 |     |                       |  
 |     |                       |  
 |     |                       |  
 |     |                       |  
 |     |                       |  
 |     |                       |  
 |     |       Li      Li      |  
 |     |            H          |  
 |   Li|     Li      LB  H     |  
 |     |                  Li   |  
 |     |  LLi     LLN     Li   |  
 |     |Li            N        |  
 |     |        Li      Li     |  
 |   Li|     Li      LLi       |  
 |    Li  Li  Li  Li      Li   |  
 | Li  |   Li      Li          |  
 |     |Li      Li      Li     |  
 Li    | Li      Li            |  
 |    Li      Li      Li       |  
 |     |                       |  
 |     |                       |  
 |     |                       |  
 |     |                       |  
 |     |                       |  
 |     |                       |  
 |     .-----------------------.  
 |    /                       /   
 |   /                       /    
 |  /                       /     
 | /                       /      
 |/                       /       
 *-----------------------*        

Positions:
   0 Li     1.617037    1.617037   10.000000    ( 0.0000,  0.0000,  0.0000)
   1 Li     4.851111    1.617037   10.000000    ( 0.0000,  0.0000,  0.0000)
   2 Li     8.085185    1.617037   10.000000    ( 0.0000,  0.0000,  0.0000)
   3 Li     1.617037    4.851111   10.000000    ( 0.0000,  0.0000,  0.0000)
   4 Li     4.851111    4.851111   10.000000    ( 0.0000,  0.0000,  0.0000)
   5 Li     8.085185    4.851111   10.000000    ( 0.0000,  0.0000,  0.0000)
   6 Li     1.617037    8.085185   10.000000    ( 0.0000,  0.0000,  0.0000)
   7 Li     4.851111    8.085185   10.000000    ( 0.0000,  0.0000,  0.0000)
   8 Li     8.085185    8.085185   10.000000    ( 0.0000,  0.0000,  0.0000)
   9 Li     0.000000    0.000000   11.617037    ( 0.0000,  0.0000,  0.0000)
  10 Li     3.234074    0.000000   11.617037    ( 0.0000,  0.0000,  0.0000)
  11 Li     6.468148    0.000000   11.617037    ( 0.0000,  0.0000,  0.0000)
  12 Li     0.000000    3.234074   11.617037    ( 0.0000,  0.0000,  0.0000)
  13 Li     3.234074    3.234074   11.617037    ( 0.0000,  0.0000,  0.0000)
  14 Li     6.468148    3.234074   11.617037    ( 0.0000,  0.0000,  0.0000)
  15 Li     0.000000    6.468148   11.617037    ( 0.0000,  0.0000,  0.0000)
  16 Li     3.234074    6.468148   11.617037    ( 0.0000,  0.0000,  0.0000)
  17 Li     6.468148    6.468148   11.617037    ( 0.0000,  0.0000,  0.0000)
  18 Li     1.643642    1.647218   13.571894    ( 0.0000,  0.0000,  0.0000)
  19 Li     4.809644    1.555621   13.582947    ( 0.0000,  0.0000,  0.0000)
  20 Li     8.196195    1.780620   13.539893    ( 0.0000,  0.0000,  0.0000)
  21 Li     1.532898    4.813249   13.616075    ( 0.0000,  0.0000,  0.0000)
  22 Li     4.808517    4.711025   13.567386    ( 0.0000,  0.0000,  0.0000)
  23 Li     8.087130    4.762721   13.576785    ( 0.0000,  0.0000,  0.0000)
  24 Li     1.548066    8.090585   13.535968    ( 0.0000,  0.0000,  0.0000)
  25 Li     4.842367    8.047415   13.603323    ( 0.0000,  0.0000,  0.0000)
  26 Li     7.992987    7.914273   13.482246    ( 0.0000,  0.0000,  0.0000)
  27 Li    -0.442756    0.047965   15.547952    ( 0.0000,  0.0000,  0.0000)
  28 Li     3.080778   -0.040251   15.575171    ( 0.0000,  0.0000,  0.0000)
  29 Li     6.453165   -0.328334   15.919394    ( 0.0000,  0.0000,  0.0000)
  30 Li    -0.459573    3.004570   16.202835    ( 0.0000,  0.0000,  0.0000)
  31 Li     3.176435    3.303148   15.620536    ( 0.0000,  0.0000,  0.0000)
  32 Li     6.497503    2.705270   15.935659    ( 0.0000,  0.0000,  0.0000)
  33 Li     0.004782    6.561708   15.535722    ( 0.0000,  0.0000,  0.0000)
  34 Li     3.225703    6.480536   15.508596    ( 0.0000,  0.0000,  0.0000)
  35 Li     6.403103    6.198419   15.527130    ( 0.0000,  0.0000,  0.0000)
  36 B      7.887366    2.037261   17.737556    ( 0.0000,  0.0000,  0.0000)
  37 H      9.110933    2.073574   17.954886    ( 0.0000,  0.0000,  0.0000)
  38 H      7.669160    3.201312   17.286575    ( 0.0000,  0.0000,  0.0000)
  39 H      7.247590    1.781345   18.721913    ( 0.0000,  0.0000,  0.0000)
  40 N      7.598584    1.104098   16.531747    ( 0.0000,  0.0000,  0.0000)
  41 N      8.029948    1.554487   15.341024    ( 0.0000,  0.0000,  0.0000)

Unit cell:
           periodic     x           y           z      points  spacing
  1. axis:    yes    9.702222    0.000000    0.000000    60     0.1617
  2. axis:    yes    0.000000    9.702222    0.000000    60     0.1617
  3. axis:    no     0.000000    0.000000   26.351111   164     0.1607

  Lengths:   9.702222   9.702222  26.351111
  Angles:   90.000000  90.000000  90.000000

Effective grid spacing dv^(1/3) = 0.1614

     iter     time        total  log10-change:
                         energy  eigst   dens
iter:   1 06:25:11  -257.555811  -1.00
iter:   2 06:25:51  -257.549461  -1.67  -1.91
iter:   3 06:26:31  -257.546045c -2.20  -2.04
iter:   4 06:27:11  -257.542039c -2.39  -2.19
Writing to output.gpw (mode='')

iter:   5 06:27:52  -257.541572c -2.63  -2.46
iter:   6 06:28:32  -257.541212c -2.54  -2.57
iter:   7 06:29:11  -257.541131c -2.73  -2.75
iter:   8 06:29:51  -257.541238c -2.79  -2.92
iter:   9 06:30:31  -257.541242c -3.52  -2.94
Writing to output.gpw (mode='')

iter:  10 06:31:12  -257.541295c -3.50  -3.04
iter:  11 06:31:52  -257.541269c -3.81  -3.12
iter:  12 06:32:31  -257.541254c -3.55  -3.30
iter:  13 06:33:11  -257.541260c -4.22  -3.34
iter:  14 06:33:51  -257.541248c -4.19  -3.38
Writing to output.gpw (mode='')

iter:  15 06:34:32  -257.541220c -4.16  -3.44
iter:  16 06:35:12  -257.541228c -4.81  -3.59
iter:  17 06:35:52  -257.541248c -4.89  -3.70
iter:  18 06:36:32  -257.541251c -5.05  -3.94
iter:  19 06:37:11  -257.541252c -5.27  -3.99
Writing to output.gpw (mode='')

iter:  20 06:37:52  -257.541255c -5.40  -4.06c
iter:  21 06:38:32  -257.541254c -5.56  -4.14c
iter:  22 06:39:12  -257.541252c -5.67  -4.26c
iter:  23 06:39:51  -257.541252c -5.99  -4.33c
iter:  24 06:40:31  -257.541253c -5.93  -4.38c
Writing to output.gpw (mode='')

iter:  25 06:41:12  -257.541253c -6.42  -4.62c
iter:  26 06:41:52  -257.541253c -6.37  -4.75c
iter:  27 06:42:32  -257.541253c -6.38  -4.83c
iter:  28 06:43:11  -257.541253c -6.53  -4.91c
iter:  29 06:43:51  -257.541253c -6.66  -4.93c
Writing to output.gpw (mode='')

iter:  30 06:44:32  -257.541253c -6.77  -5.01c
iter:  31 06:45:11  -257.541253c -6.81  -5.12c
iter:  32 06:45:51  -257.541253c -7.08  -5.16c
iter:  33 06:46:30  -257.541253c -7.10  -5.23c
iter:  34 06:47:10  -257.541253c -7.13  -5.31c
Writing to output.gpw (mode='')

iter:  35 06:47:51  -257.541253c -7.43c -5.52c

Converged after 35 iterations.

Dipole moment: (4.536556, 1.466215, -0.293173) |e|*Ang

Energy contributions relative to reference atoms: (reference = -10970.764591)

Kinetic:       +108.086680
Potential:      -97.713373
External:        +0.000000
XC:            -268.188351
Entropy (-ST):   -0.159942
Local:           +0.353761
--------------------------
Free energy:   -257.621224
Extrapolated:  -257.541253

Dipole-layer corrected work functions: 3.428366, 3.991944 eV

Showing only first 2 kpts
 Kpt  Band  Eigenvalues  Occupancy
  0    24     -3.90153    1.95740
  0    25     -3.75669    1.43441
  0    26     -3.63944    0.39110
  0    27     -3.54369    0.06915

  1    24     -3.93879    1.97955
  1    25     -3.80135    1.72207
  1    26     -3.63103    0.34086
  1    27     -3.54540    0.07148


Fermi level: -3.71015

Gap: 0.021 eV
Transition (v -> c):
  (s=0, k=7, n=25, [0.38, 0.38, 0.00]) -> (s=0, k=4, n=26, [0.38, -0.38, 0.00])

Forces in eV/Ang:
  0 Li   -0.00171    0.01075   -0.28053
  1 Li   -0.01478    0.01006   -0.28111
  2 Li    0.00965    0.01884   -0.25353
  3 Li    0.02264    0.01750   -0.29473
  4 Li   -0.00102    0.02037   -0.29520
  5 Li    0.01307    0.00385   -0.27294
  6 Li    0.02268   -0.00106   -0.28770
  7 Li    0.00654   -0.00108   -0.28010
  8 Li    0.00760   -0.01121   -0.27610
  9 Li   -0.02645    0.01669    0.32622
 10 Li    0.00876   -0.02353    0.31924
 11 Li    0.02628    0.03027    0.32261
 12 Li    0.05800    0.01856    0.15884
 13 Li   -0.02947   -0.03946    0.28326
 14 Li   -0.00763   -0.02358    0.26382
 15 Li   -0.02958   -0.05630    0.29526
 16 Li   -0.02161   -0.04227    0.35864
 17 Li   -0.07620   -0.09015    0.28475
 18 Li   -0.04975   -0.00661    0.03051
 19 Li    0.02334    0.00945    0.01734
 20 Li   -0.01685   -0.09848    0.12791
 21 Li    0.02281    0.00776   -0.02022
 22 Li   -0.00026    0.01880   -0.00193
 23 Li   -0.01341    0.01741    0.01614
 24 Li   -0.00542    0.00878    0.01245
 25 Li   -0.01757   -0.01757   -0.01676
 26 Li    0.01837    0.06279    0.05668
 27 Li   -0.03354   -0.03539    0.06612
 28 Li    0.01576   -0.01033   -0.01564
 29 Li    0.07288    0.13104   -0.05854
 30 Li    0.02705    0.01850   -0.09621
 31 Li   -0.00695   -0.01454   -0.01074
 32 Li   -0.10653    0.16435   -0.04149
 33 Li    0.01895   -0.00355    0.00413
 34 Li    0.00976    0.01145   -0.00087
 35 Li   -0.00384    0.02761    0.00601
 36 B     0.01467   -0.17961   -0.23343
 37 H     0.13454   -0.03103   -0.03377
 38 H    -0.19719    0.35033    0.16268
 39 H     0.04468    0.04286    0.04466
 40 N     0.05223   -0.12648    0.03007
 41 N     0.02088   -0.15550   -0.17344

System changes: positions 

Initializing position-dependent things.

Density initialized from wave functions
       .-----------------------.  
      /|                       |  
     / |                       |  
    /  |                       |  
   /   |                       |  
  /    |                       |  
 *     |                       |  
 |     |                       |  
 |     |                       |  
 |     |                       |  
 |     |                       |  
 |     |                       |  
 |     |                       |  
 |     |       Li      Li      |  
 |     |            H          |  
 |   Li|     Li      LB  H     |  
 |     |                  Li   |  
 |     |  LLi     LLN     Li   |  
 |     |Li            N        |  
 |     |        Li      Li     |  
 |   Li|     Li      LLi       |  
 |    Li  Li  Li  Li      Li   |  
 | Li  |   Li      Li          |  
 |     |Li      Li      Li     |  
 Li    | Li      Li            |  
 |    Li      Li      Li       |  
 |     |                       |  
 |     |                       |  
 |     |                       |  
 |     |                       |  
 |     |                       |  
 |     |                       |  
 |     .-----------------------.  
 |    /                       /   
 |   /                       /    
 |  /                       /     
 | /                       /      
 |/                       /       
 *-----------------------*        

Positions:
   0 Li     1.617037    1.617037   10.000000    ( 0.0000,  0.0000,  0.0000)
   1 Li     4.851111    1.617037   10.000000    ( 0.0000,  0.0000,  0.0000)
   2 Li     8.085185    1.617037   10.000000    ( 0.0000,  0.0000,  0.0000)
   3 Li     1.617037    4.851111   10.000000    ( 0.0000,  0.0000,  0.0000)
   4 Li     4.851111    4.851111   10.000000    ( 0.0000,  0.0000,  0.0000)
   5 Li     8.085185    4.851111   10.000000    ( 0.0000,  0.0000,  0.0000)
   6 Li     1.617037    8.085185   10.000000    ( 0.0000,  0.0000,  0.0000)
   7 Li     4.851111    8.085185   10.000000    ( 0.0000,  0.0000,  0.0000)
   8 Li     8.085185    8.085185   10.000000    ( 0.0000,  0.0000,  0.0000)
   9 Li     0.000000    0.000000   11.617037    ( 0.0000,  0.0000,  0.0000)
  10 Li     3.234074    0.000000   11.617037    ( 0.0000,  0.0000,  0.0000)
  11 Li     6.468148    0.000000   11.617037    ( 0.0000,  0.0000,  0.0000)
  12 Li     0.000000    3.234074   11.617037    ( 0.0000,  0.0000,  0.0000)
  13 Li     3.234074    3.234074   11.617037    ( 0.0000,  0.0000,  0.0000)
  14 Li     6.468148    3.234074   11.617037    ( 0.0000,  0.0000,  0.0000)
  15 Li     0.000000    6.468148   11.617037    ( 0.0000,  0.0000,  0.0000)
  16 Li     3.234074    6.468148   11.617037    ( 0.0000,  0.0000,  0.0000)
  17 Li     6.468148    6.468148   11.617037    ( 0.0000,  0.0000,  0.0000)
  18 Li     1.639932    1.643894   13.569844    ( 0.0000,  0.0000,  0.0000)
  19 Li     4.813196    1.554255   13.576703    ( 0.0000,  0.0000,  0.0000)
  20 Li     8.195863    1.773013   13.548192    ( 0.0000,  0.0000,  0.0000)
  21 Li     1.537611    4.812333   13.610126    ( 0.0000,  0.0000,  0.0000)
  22 Li     4.809829    4.711932   13.567902    ( 0.0000,  0.0000,  0.0000)
  23 Li     8.085814    4.764528   13.580984    ( 0.0000,  0.0000,  0.0000)
  24 Li     1.548251    8.093729   13.540363    ( 0.0000,  0.0000,  0.0000)
  25 Li     4.842667    8.046427   13.599106    ( 0.0000,  0.0000,  0.0000)
  26 Li     7.998253    7.935880   13.494957    ( 0.0000,  0.0000,  0.0000)
  27 Li    -0.427458    0.054728   15.584287    ( 0.0000,  0.0000,  0.0000)
  28 Li     3.089009   -0.035407   15.568641    ( 0.0000,  0.0000,  0.0000)
  29 Li     6.444029   -0.305408   15.911350    ( 0.0000,  0.0000,  0.0000)
  30 Li    -0.458681    3.003807   16.199634    ( 0.0000,  0.0000,  0.0000)
  31 Li     3.182364    3.295689   15.613650    ( 0.0000,  0.0000,  0.0000)
  32 Li     6.495210    2.713905   15.944910    ( 0.0000,  0.0000,  0.0000)
  33 Li     0.007816    6.557166   15.531822    ( 0.0000,  0.0000,  0.0000)
  34 Li     3.226796    6.481466   15.505752    ( 0.0000,  0.0000,  0.0000)
  35 Li     6.402997    6.208792   15.528438    ( 0.0000,  0.0000,  0.0000)
  36 B      7.894883    2.033797   17.743112    ( 0.0000,  0.0000,  0.0000)
  37 H      9.123181    2.083938   17.958820    ( 0.0000,  0.0000,  0.0000)
  38 H      7.679086    3.198655   17.300372    ( 0.0000,  0.0000,  0.0000)
  39 H      7.262361    1.778729   18.728388    ( 0.0000,  0.0000,  0.0000)
  40 N      7.591090    1.107450   16.538559    ( 0.0000,  0.0000,  0.0000)
[...]
iter:   4 20:22:03  -257.841432c -3.90  -2.93
Writing to output.gpw (mode='')

iter:   5 20:22:44  -257.841420c -4.32  -3.25
iter:   6 20:23:24  -257.841399c -4.31  -3.32
iter:   7 20:24:04  -257.841392c -4.33  -3.45
iter:   8 20:24:43  -257.841389c -4.37  -3.64
iter:   9 20:25:24  -257.841390c -4.81  -3.74
Writing to output.gpw (mode='')

iter:  10 20:26:05  -257.841394c -5.16  -3.83
iter:  11 20:26:45  -257.841398c -5.21  -4.02c
iter:  12 20:27:24  -257.841397c -5.65  -4.10c
iter:  13 20:28:04  -257.841392c -5.78  -4.12c
iter:  14 20:28:44  -257.841393c -5.99  -4.31c
Writing to output.gpw (mode='')

iter:  15 20:29:28  -257.841393c -5.86  -4.38c
iter:  16 20:30:08  -257.841392c -6.07  -4.38c
iter:  17 20:30:48  -257.841393c -6.42  -4.43c
iter:  18 20:31:27  -257.841393c -6.78  -4.59c
iter:  19 20:32:07  -257.841395c -6.81  -4.67c
Writing to output.gpw (mode='')

iter:  20 20:32:48  -257.841394c -7.14  -4.82c
iter:  21 20:33:28  -257.841394c -6.97  -4.88c
iter:  22 20:34:07  -257.841394c -7.27  -5.02c
iter:  23 20:34:47  -257.841394c -7.49c -5.12c

Converged after 23 iterations.

Dipole moment: (0.647534, -4.508438, -0.245778) |e|*Ang

Energy contributions relative to reference atoms: (reference = -10970.764591)

Kinetic:       +108.376037
Potential:      -97.632695
External:        +0.000000
XC:            -268.854958
Entropy (-ST):   -0.163037
Local:           +0.351741
--------------------------
Free energy:   -257.922912
Extrapolated:  -257.841394

Dipole-layer corrected work functions: 3.435940, 3.908410 eV

Showing only first 2 kpts
 Kpt  Band  Eigenvalues  Occupancy
  0    24     -3.84175    1.93488
  0    25     -3.72015    1.44605
  0    26     -3.61988    0.52007
  0    27     -3.54004    0.13288

  1    24     -3.91127    1.98338
  1    25     -3.67930    1.07111
  1    26     -3.58934    0.32043
  1    27     -3.45733    0.02686


Fermi level: -3.67217

No gap
Writing to output.gpw (mode='')


Forces in eV/Ang:
  0 Li    0.00161   -0.00071   -0.28688
  1 Li   -0.00609    0.00846   -0.27800
  2 Li    0.00499    0.00380   -0.24444
  3 Li    0.01640    0.01536   -0.29715
  4 Li    0.00032    0.01625   -0.27599
  5 Li   -0.00055    0.00152   -0.28749
  6 Li    0.01756   -0.00227   -0.27459
  7 Li   -0.00229   -0.00540   -0.29986
  8 Li    0.00920   -0.00840   -0.27716
  9 Li   -0.00724    0.01629    0.21262
 10 Li    0.00530    0.00189    0.33041
 11 Li   -0.00398    0.00703    0.25255
 12 Li   -0.00274    0.00903    0.27281
 13 Li    0.00210   -0.03479    0.32977
 14 Li    0.00301    0.01316    0.20938
 15 Li   -0.04674    0.00629    0.32027
 16 Li   -0.00280   -0.00163    0.32270
 17 Li   -0.01129    0.01707    0.32358
 18 Li    0.00392    0.00288    0.00443
 19 Li   -0.01218   -0.00400   -0.00096
 20 Li    0.01426   -0.00902   -0.00045
 21 Li    0.00383   -0.00256    0.00002
 22 Li   -0.00784   -0.00347   -0.00011
 23 Li   -0.00210    0.00981   -0.00988
 24 Li   -0.00017   -0.00467   -0.00313
 25 Li   -0.00493   -0.00156    0.00282
 26 Li    0.00274    0.00378    0.00698
 27 Li    0.00743   -0.00004   -0.00088
 28 Li    0.00586    0.00550    0.00463
 29 Li   -0.00037    0.00409   -0.00438
 30 Li    0.00543   -0.01095    0.00752
 31 Li    0.00209    0.00558    0.00118
 32 Li   -0.00631   -0.00783    0.00389
 33 Li    0.00384   -0.00514    0.01365
 34 Li   -0.00211   -0.00350    0.00548
 35 Li    0.00487   -0.01304   -0.00212
 36 B     0.01596    0.00214   -0.02900
 37 H     0.00565   -0.00447    0.00053
 38 H    -0.01842    0.02582    0.01176
 39 H     0.00319   -0.01928    0.01105
 40 N     0.00535   -0.03621    0.01939
 41 N    -0.00390    0.00034   -0.05517

System changes: positions 

Initializing position-dependent things.

Density initialized from wave functions
       .-----------------------.  
      /|                       |  
     / |                       |  
    /  |                       |  
   /   |                       |  
  /    |                       |  
 *     |                       |  
 |     |                       |  
 |     |                       |  
 |     |                       |  
 |     |                       |  
 |     |                       |  
 |     |                       |  
 |     |       Li              |  
 |     |               H       |  
 |   Li|     Li      Li B      |  
 |H    |                       |  
 |     |  LLi     LiLN    Li   |  
 |     |              N  Li    |  
 |     |Li      LLi     Li     |  
 |   Li|     Li      Li        |  
 |    Li  Li  Li  Li  Li  Li   |  
 | Li  |   Li      Li          |  
 |     |Li      Li      Li     |  
 Li    | Li      Li            |  
 |    Li      Li      Li       |  
 |     |                       |  
 |     |                       |  
 |     |                       |  
 |     |                       |  
 |     |                       |  
 |     |                       |  
 |     .-----------------------.  
 |    /                       /   
 |   /                       /    
 |  /                       /     
 | /                       /      
 |/                       /       
 *-----------------------*        

Positions:
   0 Li     1.617037    1.617037   10.000000    ( 0.0000,  0.0000,  0.0000)
   1 Li     4.851111    1.617037   10.000000    ( 0.0000,  0.0000,  0.0000)
   2 Li     8.085185    1.617037   10.000000    ( 0.0000,  0.0000,  0.0000)
   3 Li     1.617037    4.851111   10.000000    ( 0.0000,  0.0000,  0.0000)
   4 Li     4.851111    4.851111   10.000000    ( 0.0000,  0.0000,  0.0000)
   5 Li     8.085185    4.851111   10.000000    ( 0.0000,  0.0000,  0.0000)
   6 Li     1.617037    8.085185   10.000000    ( 0.0000,  0.0000,  0.0000)
   7 Li     4.851111    8.085185   10.000000    ( 0.0000,  0.0000,  0.0000)
   8 Li     8.085185    8.085185   10.000000    ( 0.0000,  0.0000,  0.0000)
   9 Li     0.000000    0.000000   11.617037    ( 0.0000,  0.0000,  0.0000)
  10 Li     3.234074    0.000000   11.617037    ( 0.0000,  0.0000,  0.0000)
  11 Li     6.468148    0.000000   11.617037    ( 0.0000,  0.0000,  0.0000)
  12 Li     0.000000    3.234074   11.617037    ( 0.0000,  0.0000,  0.0000)
  13 Li     3.234074    3.234074   11.617037    ( 0.0000,  0.0000,  0.0000)
  14 Li     6.468148    3.234074   11.617037    ( 0.0000,  0.0000,  0.0000)
  15 Li     0.000000    6.468148   11.617037    ( 0.0000,  0.0000,  0.0000)
  16 Li     3.234074    6.468148   11.617037    ( 0.0000,  0.0000,  0.0000)
  17 Li     6.468148    6.468148   11.617037    ( 0.0000,  0.0000,  0.0000)
  18 Li     1.607472    1.584973   13.549615    ( 0.0000,  0.0000,  0.0000)
  19 Li     4.870917    1.633611   13.569194    ( 0.0000,  0.0000,  0.0000)
  20 Li     8.084551    1.651891   13.490871    ( 0.0000,  0.0000,  0.0000)
  21 Li     1.589966    4.844126   13.522239    ( 0.0000,  0.0000,  0.0000)
  22 Li     4.867450    4.794498   13.588200    ( 0.0000,  0.0000,  0.0000)
  23 Li     8.040566    4.875752   13.554106    ( 0.0000,  0.0000,  0.0000)
  24 Li     1.543464    8.099184   13.571276    ( 0.0000,  0.0000,  0.0000)
  25 Li     4.841032    8.092301   13.536473    ( 0.0000,  0.0000,  0.0000)
  26 Li     8.079935    8.116516   13.562052    ( 0.0000,  0.0000,  0.0000)
  27 Li    -0.299468    0.401601   16.101749    ( 0.0000,  0.0000,  0.0000)
  28 Li     3.193024   -0.091941   15.514618    ( 0.0000,  0.0000,  0.0000)
  29 Li     6.544874    0.159346   15.657173    ( 0.0000,  0.0000,  0.0000)
  30 Li    -0.251858    3.059353   15.552501    ( 0.0000,  0.0000,  0.0000)
  31 Li     3.171923    3.271303   15.535740    ( 0.0000,  0.0000,  0.0000)
  32 Li     6.773908    3.072525   16.049773    ( 0.0000,  0.0000,  0.0000)
  33 Li     0.030391    6.473365   15.526289    ( 0.0000,  0.0000,  0.0000)
  34 Li     3.224381    6.459501   15.469210    ( 0.0000,  0.0000,  0.0000)
  35 Li     6.375404    6.516974   15.527336    ( 0.0000,  0.0000,  0.0000)
  36 B      8.544334    2.221830   17.506483    ( 0.0000,  0.0000,  0.0000)
  37 H      9.775749    2.024262   17.186123    ( 0.0000,  0.0000,  0.0000)
  38 H      8.394206    3.443539   17.133074    ( 0.0000,  0.0000,  0.0000)
  39 H      8.376654    2.108755   18.690332    ( 0.0000,  0.0000,  0.0000)
  40 N      7.685550    1.352554   16.598319    ( 0.0000,  0.0000,  0.0000)
  41 N      7.948851    1.586104   15.271915    ( 0.0000,  0.0000,  0.0000)

Unit cell:
           periodic     x           y           z      points  spacing
  1. axis:    yes    9.702222    0.000000    0.000000    60     0.1617
  2. axis:    yes    0.000000    9.702222    0.000000    60     0.1617
  3. axis:    no     0.000000    0.000000   26.351111   164     0.1607

  Lengths:   9.702222   9.702222  26.351111
  Angles:   90.000000  90.000000  90.000000

Effective grid spacing dv^(1/3) = 0.1614

     iter     time        total  log10-change:
                         energy  eigst   dens
iter:   1 20:35:43  -257.842137  -2.49
iter:   2 20:36:23  -257.841964  -3.26  -2.69
iter:   3 20:37:02  -257.841675c -3.56  -2.81
iter:   4 20:37:42  -257.841701c -4.24  -3.19
Writing to output.gpw (mode='')

iter:   5 20:38:23  -257.841639c -4.15  -3.15
iter:   6 20:39:03  -257.841627c -4.20  -3.35
iter:   7 20:39:43  -257.841625c -4.50  -3.43
iter:   8 20:40:22  -257.841612c -4.32  -3.56
iter:   9 20:41:02  -257.841614c -4.99  -3.69
Writing to output.gpw (mode='')

iter:  10 20:41:43  -257.841622c -4.94  -3.74
iter:  11 20:42:23  -257.841618c -5.40  -3.88
iter:  12 20:43:02  -257.841612c -5.09  -4.04c
iter:  13 20:43:42  -257.841614c -5.53  -4.07c
iter:  14 20:44:21  -257.841614c -5.96  -4.25c
Writing to output.gpw (mode='')

iter:  15 20:45:03  -257.841614c -6.10  -4.30c
iter:  16 20:45:42  -257.841615c -6.25  -4.50c
iter:  17 20:46:22  -257.841616c -6.60  -4.56c
iter:  18 20:47:02  -257.841616c -6.76  -4.65c
iter:  19 20:47:41  -257.841617c -6.71  -4.81c
Writing to output.gpw (mode='')

iter:  20 20:48:24  -257.841616c -7.10  -4.93c
iter:  21 20:49:04  -257.841615c -7.16  -5.10c
iter:  22 20:49:44  -257.841615c -7.28  -5.22c
iter:  23 20:50:24  -257.841615c -7.50c -5.26c

Converged after 23 iterations.

Dipole moment: (0.629440, -4.490797, -0.245692) |e|*Ang

Energy contributions relative to reference atoms: (reference = -10970.764591)

Kinetic:       +108.347384
Potential:      -97.607120
External:        +0.000000
XC:            -268.852066
Entropy (-ST):   -0.162993
Local:           +0.351683
--------------------------
Free energy:   -257.923112
Extrapolated:  -257.841615

Dipole-layer corrected work functions: 3.435856, 3.908161 eV

Showing only first 2 kpts
 Kpt  Band  Eigenvalues  Occupancy
  0    24     -3.84149    1.93476
  0    25     -3.72013    1.44724
  0    26     -3.61936    0.51734
  0    27     -3.53974    0.13255

  1    24     -3.91079    1.98328
  1    25     -3.67921    1.07194
  1    26     -3.58931    0.32112
  1    27     -3.45732    0.02694


Fermi level: -3.67201

No gap
Writing to output.gpw (mode='')


Forces in eV/Ang:
  0 Li    0.00147   -0.00063   -0.28689
  1 Li   -0.00609    0.00858   -0.27790
  2 Li    0.00501    0.00380   -0.24453
  3 Li    0.01647    0.01543   -0.29712
  4 Li    0.00032    0.01627   -0.27599
  5 Li   -0.00053    0.00150   -0.28731
  6 Li    0.01758   -0.00225   -0.27450
  7 Li   -0.00237   -0.00542   -0.29997
  8 Li    0.00917   -0.00845   -0.27701
  9 Li   -0.00627    0.01549    0.21308
 10 Li    0.00571    0.00176    0.33138
 11 Li   -0.00409    0.00683    0.25354
 12 Li   -0.00201    0.00941    0.27217
 13 Li    0.00210   -0.03534    0.32973
 14 Li    0.00279    0.01331    0.20933
 15 Li   -0.04626    0.00659    0.31900
 16 Li   -0.00253   -0.00190    0.32227
 17 Li   -0.01204    0.01734    0.32322
 18 Li    0.00448    0.00251    0.00398
 19 Li   -0.01191   -0.00483   -0.00168
 20 Li    0.01123   -0.00980    0.00194
 21 Li    0.00441   -0.00280    0.00053
 22 Li   -0.00807   -0.00270   -0.00023
 23 Li   -0.00201    0.00824   -0.00912
 24 Li   -0.00070   -0.00273   -0.00348
 25 Li   -0.00541   -0.00090    0.00227
 26 Li    0.00281    0.00397    0.00669
 27 Li    0.00641    0.00290   -0.00436
 28 Li    0.00653    0.00580    0.00343
 29 Li   -0.00054    0.00536   -0.00255
 30 Li    0.00665   -0.01292    0.00686
 31 Li    0.00166    0.00470    0.00057
 32 Li   -0.00755   -0.00494    0.00577
 33 Li    0.00301   -0.00466    0.01301
 34 Li   -0.00126   -0.00385    0.00558
 35 Li    0.00532   -0.01157   -0.00161
 36 B     0.01408    0.00206   -0.02286
 37 H     0.00311    0.00251    0.00221
 38 H    -0.01339    0.02599    0.01255
 39 H     0.00710   -0.01924    0.00747
 40 N     0.00261   -0.02524   -0.00030
 41 N     0.00308   -0.01329   -0.03540

Timing:                                      incl.     excl.
-------------------------------------------------------------------
Density initialized from wave functions:   112.128   112.122   0.1% |
 Symmetrize density:                         0.006     0.006   0.0% |
Forces:                                    539.497   539.497   0.4% |
Hamiltonian:                              2612.170     0.031   0.0% |
 Atomic:                                    11.593     0.150   0.0% |
  XC Correction:                            11.442    11.442   0.0% |
 Calculate atomic Hamiltonians:             10.788    10.788   0.0% |
 Communicate:                               18.274    18.274   0.0% |
 Hartree integrate/restrict:                 8.826     8.826   0.0% |
 Poisson:                                  279.094   130.535   0.1% |
  Communicate from 1D:                      15.554    15.554   0.0% |
  Communicate from 2D:                      26.584    26.584   0.0% |
  Communicate to 1D:                         6.354     6.354   0.0% |
  Communicate to 2D:                        27.792    27.792   0.0% |
  FFT 1D:                                   34.361    34.361   0.0% |
  FFT 2D:                                   37.915    37.915   0.0% |
 XC 3D grid:                              2280.294   698.459   0.5% |
  VdW-DF integral:                        1581.836    20.593   0.0% |
   Convolution:                            302.172   302.172   0.2% |
   FFT:                                     96.915    96.915   0.1% |
   gather:                                 409.239   409.239   0.3% |
   hmm1:                                    63.491    63.491   0.0% |
   hmm2:                                    98.561    98.561   0.1% |
   iFFT:                                    94.037    94.037   0.1% |
   potential:                              487.948    14.216   0.0% |
    collect:                                42.268    42.268   0.0% |
    p1:                                    208.581   208.581   0.1% |
    p2:                                    141.338   141.338   0.1% |
    sum:                                    81.545    81.545   0.1% |
   splines:                                  8.880     8.880   0.0% |
 vbar:                                       3.271     3.271   0.0% |
LCAO initialization:                         6.692     0.313   0.0% |
 LCAO eigensolver:                           2.266     0.000   0.0% |
  Calculate projections:                     0.000     0.000   0.0% |
  DenseAtomicCorrection:                     0.000     0.000   0.0% |
  Distribute overlap matrix:                 2.131     2.131   0.0% |
  Orbital Layouts:                           0.044     0.044   0.0% |
  Potential matrix:                          0.089     0.089   0.0% |
  Sum over cells:                            0.002     0.002   0.0% |
 LCAO to grid:                               3.017     3.017   0.0% |
 Set positions (LCAO WFS):                   1.096     0.832   0.0% |
  Basic WFS set positions:                   0.003     0.003   0.0% |
  Basis functions set positions:             0.001     0.001   0.0% |
  P tci:                                     0.000     0.000   0.0% |
  ST tci:                                    0.161     0.161   0.0% |
  mktci:                                     0.098     0.098   0.0% |
Redistribute:                                0.105     0.105   0.0% |
SCF-cycle:                               143163.819  2904.297   2.0% ||
 Davidson:                               63367.704 22996.743  15.6% |-----|
  Apply hamiltonian:                      3826.954  3826.954   2.6% ||
  Subspace diag:                         10576.946     0.840   0.0% |
   calc_h_matrix:                         6022.284  1840.014   1.2% |
    Apply hamiltonian:                    4182.271  4182.271   2.8% ||
   diagonalize:                            119.579   119.579   0.1% |
   rotate_psi:                            4434.244  4434.244   3.0% ||
  calc. matrices:                        18682.074 12095.181   8.2% |--|
   Apply hamiltonian:                     6586.894  6586.894   4.5% |-|
  diagonalize:                              31.939    31.939   0.0% |
  rotate_psi:                             7253.047  7253.047   4.9% |-|
 Density:                                 1167.656     0.261   0.0% |
  Atomic density matrices:                  30.167    30.167   0.0% |
  Mix:                                     658.523   658.523   0.4% |
  Multipole moments:                         6.820     6.820   0.0% |
  Pseudo density:                          471.886   471.649   0.3% |
   Symmetrize density:                       0.237     0.237   0.0% |
 Hamiltonian:                            75569.231     0.886   0.0% |
  Atomic:                                  338.041     4.620   0.0% |
   XC Correction:                          333.421   333.421   0.2% |
  Calculate atomic Hamiltonians:           319.529   319.529   0.2% |
  Communicate:                             547.473   547.473   0.4% |
  Hartree integrate/restrict:              257.348   257.348   0.2% |
  Poisson:                                8069.061  3775.172   2.6% ||
   Communicate from 1D:                    440.346   440.346   0.3% |
   Communicate from 2D:                    766.263   766.263   0.5% |
   Communicate to 1D:                      183.393   183.393   0.1% |
   Communicate to 2D:                      803.637   803.637   0.5% |
   FFT 1D:                                 995.685   995.685   0.7% |
   FFT 2D:                                1104.565  1104.565   0.7% |
  XC 3D grid:                            65943.280 20281.152  13.7% |----|
   VdW-DF integral:                      45662.128   597.887   0.4% |
    Convolution:                          8818.643  8818.643   6.0% |-|
    FFT:                                  2830.665  2830.665   1.9% ||
    gather:                              11814.578 11814.578   8.0% |--|
    hmm1:                                 1835.172  1835.172   1.2% |
    hmm2:                                 2876.366  2876.366   1.9% ||
    iFFT:                                 2743.531  2743.531   1.9% ||
    potential:                           14145.227   423.450   0.3% |
     collect:                             1214.198  1214.198   0.8% |
     p1:                                  6090.580  6090.580   4.1% |-|
     p2:                                  4115.778  4115.778   2.8% ||
     sum:                                 2301.220  2301.220   1.6% ||
    splines:                                 0.058     0.058   0.0% |
  vbar:                                     93.613    93.613   0.1% |
 Orthonormalize:                           154.931     0.052   0.0% |
  calc_s_matrix:                            32.383    32.383   0.0% |
  inverse-cholesky:                          1.607     1.607   0.0% |
  projections:                              38.669    38.669   0.0% |
  rotate_psi_s:                             82.221    82.221   0.1% |
Set symmetry:                                0.004     0.004   0.0% |
Other:                                    1123.893  1123.893   0.8% |
-------------------------------------------------------------------
Total:                                             147558.308 100.0%

Memory usage: 1.58 GiB
Date: Wed Mar  8 20:50:30 2023
