
  ___ ___ ___ _ _ _  
 |   |   |_  | | | | 
 | | | | | . | | | | 
 |__ |  _|___|_____|  22.8.0
 |___|_|             

User:   vazumah@c06.hercules
Date:   Mon Feb 27 10:27:54 2023
Arch:   x86_64
Pid:    32182
CWD:    /home/vazumah/Python_projects/LiNRR/Li_adsorb_studies/proton_donors/N2_with_proton_donor/Li_BCC_100/adsorbates/BH3_retest/bridge/8.085_1.617/N2_x
Python: 3.10.8
gpaw:   /home/vazumah/.conda/envs/GPAW/lib/python3.10/site-packages/gpaw
_gpaw:  /home/vazumah/.conda/envs/GPAW/lib/python3.10/site-packages/
        _gpaw.cpython-310-x86_64-linux-gnu.so
ase:    /home/vazumah/.conda/envs/GPAW/lib/python3.10/site-packages/ase (version 3.22.1)
numpy:  /home/vazumah/.conda/envs/GPAW/lib/python3.10/site-packages/numpy (version 1.24.1)
scipy:  /home/vazumah/.conda/envs/GPAW/lib/python3.10/site-packages/scipy (version 1.10.0)
libxc:  5.2.3
units:  Angstrom and eV
cores: 24
OpenMP: True
OMP_NUM_THREADS: 1

Input parameters:
  h: 0.16
  kpts: {size: [4, 4, 1]}
  occupations: {name: fermi-dirac,
                width: 0.05}
  poissonsolver: {dipolelayer: xy}
  xc: BEEF-vdW

System changes: positions, numbers, cell, pbc, initial_charges, initial_magmoms 

Initialize ...

species:
  Li:
    name: Lithium
    id: 830b4218f175192f93f959cfc0aad614
    Z: 3.0
    valence: 1
    core: 2
    charge: 0.0
    file: /home/vazumah/.conda/envs/GPAW/share/gpaw/Li.PBE.gz
    compensation charges: {type: gauss,
                           rc: 0.33,
                           lmax: 2}
    cutoffs: {filter: 1.91,
              core: 2.55}
    valence states:
      #              energy  rcut
      - 2s(1.00)    -2.874   1.058
      - 2p(0.00)    -1.090   1.058
      -  s          24.337   1.058
  
    # Using partial waves for Li as LCAO basis

  B:
    name: Boron
    id: 6e91439235a05fd7549e31636e8f777c
    Z: 5.0
    valence: 3
    core: 2
    charge: 0.0
    file: /home/vazumah/.conda/envs/GPAW/share/gpaw/B.PBE.gz
    compensation charges: {type: gauss,
                           rc: 0.20,
                           lmax: 2}
    cutoffs: {filter: 1.14,
              core: 1.38}
    valence states:
      #              energy  rcut
      - 2s(2.00)    -9.443   0.635
      - 2p(1.00)    -3.606   0.635
      -  s          17.768   0.635
      -  p          23.605   0.635
      -  d           0.000   0.635
  
    # Using partial waves for B as LCAO basis

  H:
    name: Hydrogen
    id: d65de229564ff8ea4db303e23b6d1ecf
    Z: 1.0
    valence: 1
    core: 0
    charge: 0.0
    file: /home/vazumah/.conda/envs/GPAW/share/gpaw/H.PBE.gz
    compensation charges: {type: gauss,
                           rc: 0.15,
                           lmax: 2}
    cutoffs: {filter: 0.85,
              core: 0.53}
    valence states:
      #              energy  rcut
      - 1s(1.00)    -6.494   0.476
      -  s          20.717   0.476
      -  p           0.000   0.476
  
    # Using partial waves for H as LCAO basis

  N:
    name: Nitrogen
    id: f7500608b86eaa90eef8b1d9a670dc53
    Z: 7.0
    valence: 5
    core: 2
    charge: 0.0
    file: /home/vazumah/.conda/envs/GPAW/share/gpaw/N.PBE.gz
    compensation charges: {type: gauss,
                           rc: 0.18,
                           lmax: 2}
    cutoffs: {filter: 1.11,
              core: 0.96}
    valence states:
      #              energy  rcut
      - 2s(2.00)   -18.583   0.603
      - 2p(3.00)    -7.089   0.529
      -  s           8.629   0.603
      -  p          20.123   0.529
      -  d           0.000   0.577
  
    # Using partial waves for N as LCAO basis

Reference energy: -10970.764591  # eV

Spin-paired calculation

Convergence criteria:
 Maximum [total energy] change in last 3 cyles: 0.0005 eV / electron
 Maximum integral of absolute [dens]ity change: 0.0001 electrons / valence electron
 Maximum integral of absolute [eigenst]ate change: 4e-08 eV^2 / valence electron
 Maximum number of scf [iter]ations: 333
 (Square brackets indicate name in SCF output, whereas a 'c' in
 the SCF output indicates the quantity has converged.)

Symmetries present (total): 1

  ( 1  0  0)
  ( 0  1  0)
  ( 0  0  1)

16 k-points: 4 x 4 x 1 Monkhorst-Pack grid
8 k-points in the irreducible part of the Brillouin zone
       k-points in crystal coordinates                weights
   0:     0.12500000   -0.37500000    0.00000000          2/16
   1:     0.12500000   -0.12500000    0.00000000          2/16
   2:     0.12500000    0.12500000    0.00000000          2/16
   3:     0.12500000    0.37500000    0.00000000          2/16
   4:     0.37500000   -0.37500000    0.00000000          2/16
   5:     0.37500000   -0.12500000    0.00000000          2/16
   6:     0.37500000    0.12500000    0.00000000          2/16
   7:     0.37500000    0.37500000    0.00000000          2/16

Wave functions: Uniform real-space grid
  Kinetic energy operator: 6*3+1=19 point O(h^6) finite-difference Laplacian
  ScaLapack parameters: grid=1x1, blocksize=None
  Wavefunction extrapolation:
    Improved wavefunction reuse through dual PAW basis 

Occupation numbers: Fermi-Dirac:
  width: 0.0500  # eV
 

Eigensolver
   Davidson(niter=2) 

Densities:
  Coarse grid: 60*60*164 grid
  Fine grid: 120*120*328 grid
  Total Charge: 0.000000 

Density mixing:
  Method: separate
  Backend: pulay
  Linear mixing parameter: 0.05
  old densities: 5
  Damping of long wavelength oscillations: 50 

Hamiltonian:
  XC and Coulomb potentials evaluated on a 120*120*328 grid
  Using the BEEF-vdW Exchange-Correlation functional
  Interpolation: tri-quintic (5. degree polynomial)
  Poisson solver: FastPoissonSolver using
    Stencil: 6*3+1=19 point O(h^6) finite-difference Laplacian
    FFT axes: [0, 1]
    FST axes: [2]

Dipole correction along z-axis 

XC parameters: BEEF-vdW with 2 nearest neighbor stencil

Memory estimate:
  Process memory now: 225.30 MiB
  Calculator: 381.63 MiB
    Density: 119.06 MiB
      Arrays: 38.89 MiB
      Localized functions: 65.34 MiB
      Mixer: 14.83 MiB
    Hamiltonian: 30.60 MiB
      Arrays: 25.43 MiB
      XC: 0.00 MiB
      Poisson: 0.00 MiB
      vbar: 5.17 MiB
    Wavefunctions: 231.97 MiB
      Arrays psit_nG: 106.79 MiB
      Eigensolver: 121.82 MiB
      Projections: 0.04 MiB
      Projectors: 3.32 MiB

Total number of cores used: 24
Parallelization over k-points: 8
Domain decomposition: 1 x 1 x 3

Number of atoms: 42
Number of atomic orbitals: 159
Number of bands in calculation: 36
Number of valence electrons: 52
Bands to converge: occupied

... initialized

Initializing position-dependent things.

Density initialized from atomic densities
Creating initial wave functions:
  36 bands from LCAO basis set

       .-----------------------.  
      /|                       |  
     / |                       |  
    /  |                       |  
   /   |                       |  
  /    |                       |  
 *     |                       |  
 |     |                       |  
 |     |                       |  
 |     |                       |  
 |     |                       |  
 |     |                       |  
 |     |                       |  
 |     |                       |  
 |     |            H    H     |  
 |   Li|     Li      HB        |  
 |     |              N  N     |  
 | Li  |  LLi     LLi     Li   |  
 |     |                       |  
 Li    |LLi     LLi     Li     |  
 |   Li|     Li      Li        |  
 |    Li  Li  Li  Li  Li  Li   |  
 | Li  |   Li      Li          |  
 |     |Li      Li      Li     |  
 Li    | Li      Li            |  
 |    Li      Li      Li       |  
 |     |                       |  
 |     |                       |  
 |     |                       |  
 |     |                       |  
 |     |                       |  
 |     |                       |  
 |     .-----------------------.  
 |    /                       /   
 |   /                       /    
 |  /                       /     
 | /                       /      
 |/                       /       
 *-----------------------*        

Positions:
   0 Li     1.617037    1.617037   10.000000    ( 0.0000,  0.0000,  0.0000)
   1 Li     4.851111    1.617037   10.000000    ( 0.0000,  0.0000,  0.0000)
   2 Li     8.085185    1.617037   10.000000    ( 0.0000,  0.0000,  0.0000)
   3 Li     1.617037    4.851111   10.000000    ( 0.0000,  0.0000,  0.0000)
   4 Li     4.851111    4.851111   10.000000    ( 0.0000,  0.0000,  0.0000)
   5 Li     8.085185    4.851111   10.000000    ( 0.0000,  0.0000,  0.0000)
   6 Li     1.617037    8.085185   10.000000    ( 0.0000,  0.0000,  0.0000)
   7 Li     4.851111    8.085185   10.000000    ( 0.0000,  0.0000,  0.0000)
   8 Li     8.085185    8.085185   10.000000    ( 0.0000,  0.0000,  0.0000)
   9 Li     0.000000    0.000000   11.617037    ( 0.0000,  0.0000,  0.0000)
  10 Li     3.234074    0.000000   11.617037    ( 0.0000,  0.0000,  0.0000)
  11 Li     6.468148    0.000000   11.617037    ( 0.0000,  0.0000,  0.0000)
  12 Li     0.000000    3.234074   11.617037    ( 0.0000,  0.0000,  0.0000)
  13 Li     3.234074    3.234074   11.617037    ( 0.0000,  0.0000,  0.0000)
  14 Li     6.468148    3.234074   11.617037    ( 0.0000,  0.0000,  0.0000)
  15 Li     0.000000    6.468148   11.617037    ( 0.0000,  0.0000,  0.0000)
  16 Li     3.234074    6.468148   11.617037    ( 0.0000,  0.0000,  0.0000)
  17 Li     6.468148    6.468148   11.617037    ( 0.0000,  0.0000,  0.0000)
  18 Li     1.617038    1.617038   13.469728    ( 0.0000,  0.0000,  0.0000)
  19 Li     4.851111    1.617038   13.469729    ( 0.0000,  0.0000,  0.0000)
  20 Li     8.085184    1.617038   13.469728    ( 0.0000,  0.0000,  0.0000)
  21 Li     1.617038    4.851111   13.469729    ( 0.0000,  0.0000,  0.0000)
  22 Li     4.851111    4.851111   13.469730    ( 0.0000,  0.0000,  0.0000)
  23 Li     8.085184    4.851111   13.469729    ( 0.0000,  0.0000,  0.0000)
  24 Li     1.617038    8.085184   13.469728    ( 0.0000,  0.0000,  0.0000)
  25 Li     4.851111    8.085184   13.469729    ( 0.0000,  0.0000,  0.0000)
  26 Li     8.085184    8.085184   13.469728    ( 0.0000,  0.0000,  0.0000)
  27 Li    -0.000000   -0.000000   15.445939    ( 0.0000,  0.0000,  0.0000)
  28 Li     3.234074    0.000000   15.445939    ( 0.0000,  0.0000,  0.0000)
  29 Li     6.468148    0.000000   15.445939    ( 0.0000,  0.0000,  0.0000)
  30 Li     0.000000    3.234074   15.445939    ( 0.0000,  0.0000,  0.0000)
  31 Li     3.234076    3.234076   15.445938    ( 0.0000,  0.0000,  0.0000)
  32 Li     6.468146    3.234076   15.445938    ( 0.0000,  0.0000,  0.0000)
  33 Li     0.000000    6.468148   15.445939    ( 0.0000,  0.0000,  0.0000)
  34 Li     3.234076    6.468146   15.445938    ( 0.0000,  0.0000,  0.0000)
  35 Li     6.468146    6.468146   15.445938    ( 0.0000,  0.0000,  0.0000)
  36 B      8.085185    1.617037   18.445939    ( 0.0000,  0.0000,  0.0000)
  37 H      9.117754    2.209323   18.445939    ( 0.0000,  0.0000,  0.0000)
  38 H      7.055276    2.213996   18.445939    ( 0.0000,  0.0000,  0.0000)
  39 H      8.085271    0.428437   18.445939    ( 0.0000,  0.0000,  0.0000)
  40 N      8.085000    1.617000   16.945939    ( 0.0000,  0.0000,  0.0000)
  41 N      9.181622    1.617000   16.945939    ( 0.0000,  0.0000,  0.0000)

Unit cell:
           periodic     x           y           z      points  spacing
  1. axis:    yes    9.702222    0.000000    0.000000    60     0.1617
  2. axis:    yes    0.000000    9.702222    0.000000    60     0.1617
  3. axis:    no     0.000000    0.000000   26.351111   164     0.1607

  Lengths:   9.702222   9.702222  26.351111
  Angles:   90.000000  90.000000  90.000000

Effective grid spacing dv^(1/3) = 0.1614

     iter     time        total  log10-change:
                         energy  eigst   dens
iter:   1 10:31:13  -328.149999
iter:   2 10:33:49  -219.933657  +2.22  -0.14
iter:   3 10:36:10  -189.828421  +2.58  -0.36
iter:   4 10:38:43  -210.960535  +2.81  -0.40
Writing to output.gpw (mode='')

iter:   5 10:41:18  -226.546707  +2.28  -0.46
iter:   6 10:43:53  -241.225922  +2.07  -0.63
iter:   7 10:46:17  -280.606967  +2.50  -0.72
iter:   8 10:48:51  -266.201287  +1.62  -0.40
iter:   9 10:51:22  -270.682783  +1.44  -0.50
Writing to output.gpw (mode='')

iter:  10 10:54:08  -254.234040  +1.21  -0.46
iter:  11 10:56:36  -256.928719  +0.83  -0.80
iter:  12 10:59:07  -254.963317  +0.88  -0.83
iter:  13 11:01:49  -256.536693  +0.82  -0.82
iter:  14 11:04:22  -256.698171  +1.22  -0.76
Writing to output.gpw (mode='')

iter:  15 11:06:54  -254.532557  +0.42  -0.81
iter:  16 11:09:26  -253.365812  +0.11  -0.86
iter:  17 11:12:03  -254.670490  +0.06  -0.92
iter:  18 11:14:36  -254.263895  +0.07  -0.89
iter:  19 11:17:10  -253.530470  +0.27  -0.98
Writing to output.gpw (mode='')

iter:  20 11:19:55  -252.604297  +0.66  -1.05
iter:  21 11:22:27  -252.445516  -0.09  -1.02
iter:  22 11:24:56  -252.323158  +0.32  -1.10
iter:  23 11:27:21  -252.132476  -0.33  -1.27
iter:  24 11:29:54  -252.114221  -0.42  -1.44
Writing to output.gpw (mode='')

iter:  25 11:32:38  -252.107803c -0.63  -1.51
iter:  26 11:35:02  -252.115392c -0.83  -1.60
iter:  27 11:37:30  -252.139769  -0.58  -1.69
iter:  28 11:39:55  -252.114412c -1.00  -1.66
iter:  29 11:42:21  -252.112371  -1.19  -1.87
Writing to output.gpw (mode='')

iter:  30 11:44:57  -252.111346c -1.45  -1.99
iter:  31 11:47:25  -252.114067c -1.43  -2.20
iter:  32 11:50:02  -252.115791c -1.83  -2.22
iter:  33 11:52:26  -252.116681c -2.00  -2.26
iter:  34 11:54:56  -252.118005c -2.06  -2.37
Writing to output.gpw (mode='')

iter:  35 11:57:30  -252.118576c -2.25  -2.48
iter:  36 11:59:55  -252.119509c -2.22  -2.51
iter:  37 12:02:24  -252.120157c -2.11  -2.47
iter:  38 12:04:51  -252.120834c -2.45  -2.54
iter:  39 12:07:16  -252.121280c -2.41  -2.52
Writing to output.gpw (mode='')

iter:  40 12:09:53  -252.122175c -1.99  -2.63
iter:  41 12:12:18  -252.122769c -2.49  -2.73
iter:  42 12:14:44  -252.123150c -2.60  -2.69
iter:  43 12:17:05  -252.124377c -2.24  -2.69
iter:  44 12:19:30  -252.124667c -2.59  -2.53
Writing to output.gpw (mode='')

iter:  45 12:22:05  -252.124985c -2.45  -2.53
iter:  46 12:24:30  -252.125471c -2.56  -2.56
iter:  47 12:26:56  -252.125846c -2.63  -2.49
iter:  48 12:29:22  -252.126737c -2.71  -2.48
iter:  49 12:31:51  -252.126207c -2.31  -2.36
Writing to output.gpw (mode='')

iter:  50 12:34:30  -252.126612c -2.59  -2.51
iter:  51 12:36:51  -252.127045c -2.53  -2.47
iter:  52 12:39:11  -252.128072c -2.30  -2.43
iter:  53 12:41:39  -252.127319c -2.58  -2.33
iter:  54 12:44:12  -252.129778c -2.39  -2.45
Writing to output.gpw (mode='')

iter:  55 12:46:51  -252.128367c -2.28  -2.21
iter:  56 12:49:17  -252.128484c -2.69  -2.28
iter:  57 12:51:42  -252.127994c -2.78  -2.28
iter:  58 12:54:09  -252.128573c -2.69  -2.34
iter:  59 12:56:35  -252.127328c -2.58  -2.29
Writing to output.gpw (mode='')

iter:  60 12:59:21  -252.127516c -3.11  -2.47
iter:  61 13:01:59  -252.127549c -3.20  -2.46
iter:  62 13:04:30  -252.128682c -2.50  -2.46
iter:  63 13:07:10  -252.128111c -3.00  -2.59
iter:  64 13:09:41  -252.127824c -3.15  -2.69
Writing to output.gpw (mode='')

iter:  65 13:12:32  -252.127875c -3.26  -2.73
iter:  66 13:15:05  -252.127575c -2.96  -2.80
iter:  67 13:17:30  -252.127589c -3.42  -2.89
iter:  68 13:20:09  -252.127589c -3.38  -3.03
iter:  69 13:22:39  -252.127824c -3.42  -3.04
Writing to output.gpw (mode='')

iter:  70 13:25:20  -252.127692c -3.88  -3.24
iter:  71 13:27:50  -252.127727c -3.60  -3.26
iter:  72 13:30:22  -252.127777c -3.73  -3.29
iter:  73 13:32:46  -252.127769c -3.67  -3.32
iter:  74 13:35:24  -252.127782c -3.79  -3.41
Writing to output.gpw (mode='')

iter:  75 13:37:59  -252.127815c -3.65  -3.48
iter:  76 13:40:27  -252.127839c -3.94  -3.61
iter:  77 13:42:53  -252.127840c -4.09  -3.65
iter:  78 13:45:19  -252.127873c -4.02  -3.76
iter:  79 13:47:57  -252.127880c -4.04  -3.84
Writing to output.gpw (mode='')

iter:  80 13:50:28  -252.127889c -3.87  -4.02c
iter:  81 13:52:50  -252.127895c -4.12  -4.03c
iter:  82 13:55:22  -252.127889c -4.17  -4.03c
iter:  83 13:57:54  -252.127898c -4.53  -3.84
iter:  84 14:00:16  -252.127906c -3.95  -3.86
Writing to output.gpw (mode='')

iter:  85 14:02:42  -252.127907c -4.43  -3.82
iter:  86 14:05:04  -252.127918c -4.53  -3.83
iter:  87 14:07:24  -252.127915c -4.33  -3.86
iter:  88 14:09:53  -252.127910c -4.41  -3.74
iter:  89 14:12:29  -252.127916c -4.41  -3.80
Writing to output.gpw (mode='')

iter:  90 14:14:59  -252.127939c -4.21  -3.81
iter:  91 14:17:23  -252.127946c -4.72  -3.78
iter:  92 14:19:48  -252.127959c -4.71  -3.78
iter:  93 14:22:09  -252.127980c -4.71  -3.71
iter:  94 14:24:40  -252.127957c -4.54  -3.74
Writing to output.gpw (mode='')

iter:  95 14:27:12  -252.127985c -4.97  -3.97
iter:  96 14:29:42  -252.127980c -4.74  -4.03c
iter:  97 14:32:08  -252.127988c -4.97  -4.03c
iter:  98 14:34:38  -252.127999c -4.75  -4.08c
iter:  99 14:37:03  -252.127991c -4.94  -4.14c
Writing to output.gpw (mode='')

iter: 100 14:39:41  -252.127996c -5.06  -4.30c
iter: 101 14:42:00  -252.128000c -4.88  -4.39c
iter: 102 14:44:22  -252.127996c -5.23  -4.49c
iter: 103 14:46:48  -252.128000c -5.02  -4.56c
iter: 104 14:49:14  -252.128001c -5.16  -4.72c
Writing to output.gpw (mode='')

iter: 105 14:51:54  -252.128001c -5.12  -4.75c
iter: 106 14:54:22  -252.128001c -5.22  -4.83c
iter: 107 14:56:49  -252.128002c -5.28  -4.86c
iter: 108 14:59:19  -252.128002c -5.30  -4.90c
iter: 109 15:01:56  -252.128000c -5.23  -4.88c
Writing to output.gpw (mode='')

iter: 110 15:04:37  -252.127997c -5.33  -4.84c
iter: 111 15:06:59  -252.127999c -5.57  -4.73c
iter: 112 15:09:26  -252.128001c -5.52  -4.77c
iter: 113 15:11:54  -252.127999c -5.56  -4.79c
iter: 114 15:14:28  -252.127995c -5.38  -4.73c
Writing to output.gpw (mode='')

iter: 115 15:17:06  -252.128002c -5.54  -4.61c
iter: 116 15:19:42  -252.128003c -5.80  -4.80c
iter: 117 15:22:16  -252.128004c -5.59  -4.80c
iter: 118 15:24:51  -252.128004c -5.81  -4.82c
iter: 119 15:27:19  -252.128009c -5.61  -4.80c
Writing to output.gpw (mode='')

iter: 120 15:29:58  -252.128007c -5.73  -4.93c
iter: 121 15:32:28  -252.128008c -5.86  -4.89c
iter: 122 15:34:51  -252.128009c -5.76  -4.91c
iter: 123 15:37:14  -252.128011c -5.77  -4.96c
iter: 124 15:39:43  -252.128008c -6.10  -5.17c
Writing to output.gpw (mode='')

iter: 125 15:42:28  -252.128010c -6.09  -5.22c
iter: 126 15:44:48  -252.128010c -6.12  -5.26c
iter: 127 15:47:12  -252.128010c -6.03  -5.30c
iter: 128 15:49:36  -252.128009c -6.02  -5.36c
iter: 129 15:51:59  -252.128010c -6.17  -5.40c
Writing to output.gpw (mode='')

iter: 130 15:54:33  -252.128010c -6.38  -5.65c
iter: 131 15:57:02  -252.128010c -6.40  -5.69c
iter: 132 15:59:34  -252.128010c -6.16  -5.71c
iter: 133 16:01:58  -252.128010c -6.38  -5.79c
iter: 134 16:04:23  -252.128010c -6.47  -5.80c
Writing to output.gpw (mode='')

iter: 135 16:06:55  -252.128010c -6.30  -5.82c
iter: 136 16:09:16  -252.128010c -6.37  -5.96c
iter: 137 16:11:39  -252.128010c -6.32  -6.03c
iter: 138 16:14:04  -252.128010c -6.49  -6.16c
iter: 139 16:16:29  -252.128010c -6.51  -6.14c
Writing to output.gpw (mode='')

iter: 140 16:19:02  -252.128010c -6.42  -6.12c
iter: 141 16:21:22  -252.128010c -6.53  -5.97c
iter: 142 16:23:39  -252.128010c -6.65  -6.02c
iter: 143 16:26:05  -252.128010c -6.49  -5.99c
iter: 144 16:28:37  -252.128010c -6.56  -5.88c
Writing to output.gpw (mode='')

iter: 145 16:31:13  -252.128009c -6.80  -5.79c
iter: 146 16:33:36  -252.128010c -6.78  -5.72c
iter: 147 16:36:11  -252.128009c -6.95  -5.83c
iter: 148 16:38:41  -252.128010c -6.94  -5.76c
iter: 149 16:41:13  -252.128010c -6.94  -5.78c
Writing to output.gpw (mode='')

iter: 150 16:43:44  -252.128010c -6.88  -5.80c
iter: 151 16:46:17  -252.128010c -6.92  -5.95c
iter: 152 16:48:47  -252.128010c -6.86  -6.22c
iter: 153 16:51:16  -252.128010c -6.88  -6.31c
iter: 154 16:53:48  -252.128010c -7.11  -6.41c
Writing to output.gpw (mode='')

iter: 155 16:56:33  -252.128010c -7.16  -6.48c
iter: 156 16:59:00  -252.128010c -7.15  -6.42c
iter: 157 17:01:26  -252.128010c -7.16  -6.20c
iter: 158 17:03:55  -252.128010c -7.18  -6.30c
iter: 159 17:06:25  -252.128010c -7.35  -6.47c
Writing to output.gpw (mode='')

iter: 160 17:09:20  -252.128010c -7.26  -6.51c
iter: 161 17:11:47  -252.128010c -7.30  -6.61c
iter: 162 17:14:11  -252.128010c -7.27  -6.74c
iter: 163 17:16:43  -252.128010c -7.26  -6.80c
iter: 164 17:19:15  -252.128010c -7.24  -6.91c
Writing to output.gpw (mode='')

iter: 165 17:21:54  -252.128010c -7.25  -6.98c
iter: 166 17:24:21  -252.128010c -7.21  -7.04c
iter: 167 17:26:52  -252.128010c -7.30  -7.10c
iter: 168 17:29:20  -252.128010c -7.44c -7.14c

Converged after 168 iterations.

Dipole moment: (5.102032, -4.112440, -0.296091) |e|*Ang

Energy contributions relative to reference atoms: (reference = -10970.764591)

Kinetic:       +136.782909
Potential:     -119.782576
External:        +0.000000
XC:            -269.366356
Entropy (-ST):   -0.162193
Local:           +0.319110
--------------------------
Free energy:   -252.209106
Extrapolated:  -252.128010

Dipole-layer corrected work functions: 3.413010, 3.982199 eV

Showing only first 2 kpts
 Kpt  Band  Eigenvalues  Occupancy
  0    24     -3.94212    1.98507
  0    25     -3.80403    1.78728
  0    26     -3.62144    0.35796
  0    27     -3.48197    0.02644

  1    24     -3.76676    1.59897
  1    25     -3.68837    0.90791
  1    26     -3.66144    0.65337
  1    27     -3.57428    0.15650


Fermi level: -3.69760

No gap
Writing to output.gpw (mode='')


Forces in eV/Ang:
  0 Li    0.02741   -0.00012   -0.26593
  1 Li   -0.02016    0.00088   -0.27393
  2 Li   -0.00682    0.00192   -0.28247
  3 Li   -0.00093    0.00975   -0.27632
  4 Li    0.00158   -0.00024   -0.27993
  5 Li    0.00373    0.03086   -0.27794
  6 Li    0.00021   -0.00930   -0.27782
  7 Li    0.00033    0.00070   -0.27921
  8 Li    0.00523   -0.03293   -0.27593
  9 Li   -0.00242    0.00498    0.31153
 10 Li    0.00248    0.00847    0.24793
 11 Li   -0.00041    0.00480    0.29282
 12 Li   -0.00168   -0.00249    0.30686
 13 Li    0.00737   -0.01273    0.24896
 14 Li   -0.00065   -0.00417    0.29137
 15 Li   -0.00581   -0.00034    0.22946
 16 Li   -0.00650    0.00193    0.25307
 17 Li    0.00505   -0.00130    0.23903
 18 Li   -0.00814    0.00143   -0.00015
 19 Li   -0.01000   -0.00218    0.03009
 20 Li   -0.00077    0.00020   -0.17999
 21 Li   -0.01871   -0.02155    0.05323
 22 Li    0.00498   -0.00106    0.03879
 23 Li    0.00240   -0.00088    0.03533
 24 Li   -0.02093    0.01872    0.05314
 25 Li    0.01540    0.00514    0.04831
 26 Li    0.00106   -0.00121    0.03045
 27 Li    0.14408   -0.03574    0.01817
 28 Li    0.03155   -0.02068   -0.02772
 29 Li   -0.05167    0.03847    0.05716
 30 Li    0.07815   -0.00035    0.02355
 31 Li    0.02460    0.01903   -0.02619
 32 Li   -0.08057   -0.01229    0.05887
 33 Li   -0.00601    0.00539   -0.02311
 34 Li   -0.01428    0.00140   -0.01510
 35 Li    0.02468    0.00035   -0.01783
 36 B    -1.15110   -0.52238    2.09441
 37 H     0.57538    0.74320    3.49759
 38 H    -0.33435    0.74542    1.36400
 39 H    -0.37521   -0.47136    1.79174
 40 N    -9.76254   -0.94843   -5.17110
 41 N    10.87683    0.45456   -3.63183

System changes: positions 

Initializing position-dependent things.

Density initialized from wave functions
       .-----------------------.  
      /|                       |  
     / |                       |  
    /  |                       |  
   /   |                       |  
  /    |                       |  
 *     |                       |  
 |     |                       |  
 |     |                       |  
 |     |                       |  
 |     |                       |  
 |     |                       |  
 |     |                       |  
 |     Li      Li              |  
 |     |            H    H     |  
 |     |     Li      HB      Li|  
 |     |              N  N     |  
 | Li  |  LLi     LLi     Li   |  
 |     |                       |  
 |     |Li      LLi     Li     |  
 |   Li|     Li      Li        |  
 |    Li  Li  Li  Li  Li  Li   |  
 | Li  |   Li      Li          |  
 |     |Li      Li      Li     |  
 Li    | Li      Li            |  
 |    Li      Li      Li       |  
 |     |                       |  
 |     |                       |  
 |     |                       |  
 |     |                       |  
 |     |                       |  
 |     |                       |  
 |     .-----------------------.  
 |    /                       /   
 |   /                       /    
 |  /                       /     
 | /                       /      
 |/                       /       
 *-----------------------*        

Positions:
   0 Li     1.617037    1.617037   10.000000    ( 0.0000,  0.0000,  0.0000)
   1 Li     4.851111    1.617037   10.000000    ( 0.0000,  0.0000,  0.0000)
   2 Li     8.085185    1.617037   10.000000    ( 0.0000,  0.0000,  0.0000)
   3 Li     1.617037    4.851111   10.000000    ( 0.0000,  0.0000,  0.0000)
   4 Li     4.851111    4.851111   10.000000    ( 0.0000,  0.0000,  0.0000)
   5 Li     8.085185    4.851111   10.000000    ( 0.0000,  0.0000,  0.0000)
   6 Li     1.617037    8.085185   10.000000    ( 0.0000,  0.0000,  0.0000)
   7 Li     4.851111    8.085185   10.000000    ( 0.0000,  0.0000,  0.0000)
   8 Li     8.085185    8.085185   10.000000    ( 0.0000,  0.0000,  0.0000)
   9 Li     0.000000    0.000000   11.617037    ( 0.0000,  0.0000,  0.0000)
  10 Li     3.234074    0.000000   11.617037    ( 0.0000,  0.0000,  0.0000)
  11 Li     6.468148    0.000000   11.617037    ( 0.0000,  0.0000,  0.0000)
  12 Li     0.000000    3.234074   11.617037    ( 0.0000,  0.0000,  0.0000)
  13 Li     3.234074    3.234074   11.617037    ( 0.0000,  0.0000,  0.0000)
  14 Li     6.468148    3.234074   11.617037    ( 0.0000,  0.0000,  0.0000)
  15 Li     0.000000    6.468148   11.617037    ( 0.0000,  0.0000,  0.0000)
  16 Li     3.234074    6.468148   11.617037    ( 0.0000,  0.0000,  0.0000)
  17 Li     6.468148    6.468148   11.617037    ( 0.0000,  0.0000,  0.0000)
  18 Li     1.617010    1.617043   13.469727    ( 0.0000,  0.0000,  0.0000)
  19 Li     4.851076    1.617031   13.469834    ( 0.0000,  0.0000,  0.0000)
  20 Li     8.085181    1.617039   13.469100    ( 0.0000,  0.0000,  0.0000)
  21 Li     1.616973    4.851036   13.469915    ( 0.0000,  0.0000,  0.0000)
  22 Li     4.851128    4.851107   13.469865    ( 0.0000,  0.0000,  0.0000)
  23 Li     8.085192    4.851108   13.469853    ( 0.0000,  0.0000,  0.0000)
  24 Li     1.616965    8.085249   13.469913    ( 0.0000,  0.0000,  0.0000)
  25 Li     4.851165    8.085201   13.469898    ( 0.0000,  0.0000,  0.0000)
  26 Li     8.085188    8.085180   13.469834    ( 0.0000,  0.0000,  0.0000)
  27 Li     0.000502   -0.000125   15.446003    ( 0.0000,  0.0000,  0.0000)
  28 Li     3.234184   -0.000072   15.445842    ( 0.0000,  0.0000,  0.0000)
  29 Li     6.467968    0.000134   15.446138    ( 0.0000,  0.0000,  0.0000)
  30 Li     0.000272    3.234073   15.446021    ( 0.0000,  0.0000,  0.0000)
  31 Li     3.234162    3.234143   15.445847    ( 0.0000,  0.0000,  0.0000)
  32 Li     6.467865    3.234034   15.446143    ( 0.0000,  0.0000,  0.0000)
  33 Li    -0.000021    6.468167   15.445858    ( 0.0000,  0.0000,  0.0000)
  34 Li     3.234027    6.468150   15.445885    ( 0.0000,  0.0000,  0.0000)
  35 Li     6.468232    6.468147   15.445876    ( 0.0000,  0.0000,  0.0000)
  36 B      8.081173    1.615216   18.453239    ( 0.0000,  0.0000,  0.0000)
  37 H      9.119760    2.211913   18.458130    ( 0.0000,  0.0000,  0.0000)
  38 H      7.054111    2.216594   18.450694    ( 0.0000,  0.0000,  0.0000)
  39 H      8.083963    0.426795   18.452184    ( 0.0000,  0.0000,  0.0000)
  40 N      8.050973    1.613694   16.927916    ( 0.0000,  0.0000,  0.0000)
  41 N      9.219533    1.618584   16.933281    ( 0.0000,  0.0000,  0.0000)

Unit cell:
           periodic     x           y           z      points  spacing
  1. axis:    yes    9.702222    0.000000    0.000000    60     0.1617
  2. axis:    yes    0.000000    9.702222    0.000000    60     0.1617
  3. axis:    no     0.000000    0.000000   26.351111   164     0.1607

  Lengths:   9.702222   9.702222  26.351111
  Angles:   90.000000  90.000000  90.000000

Effective grid spacing dv^(1/3) = 0.1614

     iter     time        total  log10-change:
                         energy  eigst   dens
iter:   1 17:32:35  -258.400432  +0.29
iter:   2 17:35:03  -254.121691  +0.53  -0.84
iter:   3 17:37:27  -253.227125  -0.35  -0.97
iter:   4 17:39:46  -253.180408  -0.77  -1.15
Writing to output.gpw (mode='')

iter:   5 17:42:25  -253.914530  -0.98  -1.18
iter:   6 17:44:46  -253.908510  -1.41  -1.02
iter:   7 17:47:11  -253.028233  -1.26  -1.02
iter:   8 17:49:30  -253.146095  -1.54  -1.33
iter:   9 17:51:58  -252.930688  -0.69  -1.20
Writing to output.gpw (mode='')

iter:  10 17:54:33  -252.841095  -1.15  -1.39
iter:  11 17:56:59  -252.823335  -1.06  -1.56
iter:  12 17:59:29  -252.797534  -0.85  -1.67
iter:  13 18:01:57  -252.800713c -1.17  -2.04
iter:  14 18:04:20  -252.797481c -1.88  -2.06
Writing to output.gpw (mode='')

iter:  15 18:06:54  -252.795961c -1.76  -2.04
iter:  16 18:09:13  -252.796258c -1.64  -2.13
iter:  17 18:11:40  -252.790983c -2.25  -2.05
iter:  18 18:14:04  -252.791816c -1.75  -2.26
iter:  19 18:16:23  -252.791771c -2.57  -2.57
Writing to output.gpw (mode='')

iter:  20 18:18:53  -252.791755c -2.79  -2.64
iter:  21 18:21:20  -252.791628c -2.91  -2.73
iter:  22 18:23:44  -252.791677c -3.06  -2.83
iter:  23 18:26:19  -252.791487c -3.21  -2.87
iter:  24 18:28:48  -252.791597c -3.59  -3.01
Writing to output.gpw (mode='')

iter:  25 18:31:30  -252.791758c -3.37  -3.06
iter:  26 18:33:58  -252.791705c -3.51  -3.27
iter:  27 18:36:27  -252.791830c -3.59  -3.23
iter:  28 18:38:44  -252.791734c -3.67  -3.27
iter:  29 18:41:07  -252.791775c -3.80  -3.35
Writing to output.gpw (mode='')

iter:  30 18:43:48  -252.791854c -3.97  -3.52
iter:  31 18:46:14  -252.791896c -4.11  -3.64
iter:  32 18:48:51  -252.791845c -4.10  -3.73
iter:  33 18:51:17  -252.791885c -4.52  -3.81
iter:  34 18:53:43  -252.791875c -4.23  -3.89
Writing to output.gpw (mode='')

iter:  35 18:56:21  -252.791861c -4.56  -4.05c
iter:  36 18:58:55  -252.791865c -4.78  -4.04c
iter:  37 19:01:27  -252.791872c -4.71  -4.16c
iter:  38 19:03:52  -252.791868c -4.88  -4.21c
iter:  39 19:06:16  -252.791866c -4.71  -4.23c
Writing to output.gpw (mode='')

iter:  40 19:08:51  -252.791872c -4.84  -4.25c
iter:  41 19:11:21  -252.791875c -5.14  -4.26c
iter:  42 19:13:47  -252.791861c -5.30  -4.32c
iter:  43 19:16:16  -252.791865c -5.22  -4.48c
iter:  44 19:18:44  -252.791865c -5.61  -4.59c
Writing to output.gpw (mode='')

iter:  45 19:21:22  -252.791861c -5.20  -4.64c
iter:  46 19:23:51  -252.791864c -5.63  -4.75c
iter:  47 19:26:28  -252.791864c -5.81  -4.82c
iter:  48 19:28:54  -252.791863c -5.80  -4.90c
iter:  49 19:31:22  -252.791862c -5.88  -5.03c
Writing to output.gpw (mode='')

iter:  50 19:34:00  -252.791863c -5.82  -5.09c
iter:  51 19:36:28  -252.791863c -6.00  -5.13c
iter:  52 19:39:00  -252.791863c -6.17  -5.10c
iter:  53 19:41:32  -252.791864c -5.94  -5.02c
iter:  54 19:44:04  -252.791865c -6.34  -5.01c
Writing to output.gpw (mode='')

iter:  55 19:46:42  -252.791862c -6.28  -4.91c
iter:  56 19:49:07  -252.791863c -6.53  -4.99c
iter:  57 19:51:35  -252.791863c -6.37  -4.95c
iter:  58 19:54:02  -252.791863c -6.67  -4.95c
iter:  59 19:56:24  -252.791863c -6.40  -4.91c
Writing to output.gpw (mode='')

iter:  60 19:58:49  -252.791866c -6.53  -4.90c
iter:  61 20:01:11  -252.791865c -6.81  -4.78c
iter:  62 20:03:38  -252.791863c -6.71  -4.84c
iter:  63 20:06:03  -252.791860c -6.81  -4.92c
iter:  64 20:08:34  -252.791861c -6.66  -5.06c
Writing to output.gpw (mode='')

iter:  65 20:11:13  -252.791859c -7.13  -5.10c
iter:  66 20:13:41  -252.791860c -7.17  -5.30c
iter:  67 20:16:12  -252.791859c -7.13  -5.25c
iter:  68 20:18:46  -252.791859c -7.06  -5.37c
iter:  69 20:21:14  -252.791859c -6.98  -5.44c
Writing to output.gpw (mode='')

iter:  70 20:23:48  -252.791859c -7.40c -5.47c

Converged after 70 iterations.

Dipole moment: (5.951851, -3.913555, -0.351523) |e|*Ang

Energy contributions relative to reference atoms: (reference = -10970.764591)

Kinetic:       +125.327157
Potential:     -110.950561
External:        +0.000000
XC:            -267.400299
Entropy (-ST):   -0.173534
Local:           +0.318611
--------------------------
Free energy:   -252.878625
Extrapolated:  -252.791859

Dipole-layer corrected work functions: 3.417429, 4.093176 eV

Showing only first 2 kpts
 Kpt  Band  Eigenvalues  Occupancy
  0    24     -3.99660    1.98409
  0    25     -3.85026    1.73960
  0    26     -3.69793    0.48188
  0    27     -3.56057    0.03989

  1    24     -3.81868    1.56063
  1    25     -3.74391    0.88660
  1    26     -3.71860    0.64859
  1    27     -3.63357    0.16112


Fermi level: -3.75530

No gap

Forces in eV/Ang:
  0 Li    0.02633   -0.00009   -0.26725
  1 Li   -0.01989    0.00100   -0.27569
  2 Li   -0.00588    0.00197   -0.28375
  3 Li    0.00045    0.01095   -0.27784
  4 Li    0.00080    0.00113   -0.28079
  5 Li    0.00346    0.03068   -0.27899
  6 Li    0.00107   -0.01063   -0.27923
  7 Li   -0.00049   -0.00087   -0.27993
  8 Li    0.00485   -0.03245   -0.27728
  9 Li   -0.00296    0.00355    0.31446
 10 Li    0.00060    0.00822    0.24795
 11 Li    0.00218    0.00736    0.29878
 12 Li   -0.00181   -0.00141    0.30997
 13 Li    0.00497   -0.01337    0.24934
 14 Li    0.00157   -0.00568    0.29711
 15 Li   -0.00632   -0.00009    0.23077
 16 Li   -0.00352    0.00286    0.25203
 17 Li    0.00281   -0.00250    0.23630
 18 Li   -0.00490    0.00063   -0.01109
 19 Li   -0.01923   -0.00187    0.01819
 20 Li    0.00520    0.00013   -0.16472
 21 Li   -0.01954   -0.01978    0.04836
 22 Li    0.00662   -0.00537    0.04164
 23 Li    0.00046    0.00691    0.02195
 24 Li   -0.02098    0.01779    0.04930
 25 Li    0.01857    0.00971    0.05069
 26 Li   -0.00093   -0.00973    0.01664
 27 Li    0.08401    0.03477    0.13852
 28 Li    0.02904   -0.02598   -0.02560
 29 Li    0.00504    0.08993    0.12675
 30 Li    0.01143   -0.08368    0.15182
 31 Li    0.02319    0.02420   -0.02480
 32 Li   -0.02345   -0.06251    0.12633
 33 Li   -0.00028    0.00611   -0.02677
 34 Li   -0.01255    0.00090   -0.01541
 35 Li    0.01707    0.00088   -0.02123
 36 B    -0.80683   -0.60979    1.01116
 37 H     0.49449    0.63594    3.06636
 38 H    -0.34563    0.78338    1.35296
 39 H    -0.34400   -0.48150    1.77224
 40 N    -2.45679   -0.79794   -4.54284
 41 N     3.37581    0.47895   -3.07323

System changes: positions 

Initializing position-dependent things.

Density initialized from wave functions
       .-----------------------.  
      /|                       |  
     / |                       |  
    /  |                       |  
   /   |                       |  
  /    |                       |  
 *     |                       |  
 |     |                       |  
 |     |                       |  
 |     |                       |  
 |     |                       |  
 |     |                       |  
 |     |                       |  
 |     |       Li              |  
 |     |            H    H     |  
 |     |     Li      HB      Li|  
 |     |              N  N     |  
 | Li  |  LLi     LLi     Li   |  
 |     |                       |  
 Li    |Li      LLi     Li     |  
 |   Li|     Li      Li        |  
 |    Li  Li  Li  Li  Li  Li   |  
 | Li  |   Li      Li          |  
 |     |Li      Li      Li     |  
 Li    | Li      Li            |  
 |    Li      Li      Li       |  
 |     |                       |  
 |     |                       |  
 |     |                       |  
 |     |                       |  
 |     |                       |  
 |     |                       |  
 |     .-----------------------.  
 |    /                       /   
 |   /                       /    
 |  /                       /     
 | /                       /      
 |/                       /       
 *-----------------------*        

Positions:
   0 Li     1.617037    1.617037   10.000000    ( 0.0000,  0.0000,  0.0000)
   1 Li     4.851111    1.617037   10.000000    ( 0.0000,  0.0000,  0.0000)
   2 Li     8.085185    1.617037   10.000000    ( 0.0000,  0.0000,  0.0000)
   3 Li     1.617037    4.851111   10.000000    ( 0.0000,  0.0000,  0.0000)
   4 Li     4.851111    4.851111   10.000000    ( 0.0000,  0.0000,  0.0000)
   5 Li     8.085185    4.851111   10.000000    ( 0.0000,  0.0000,  0.0000)
   6 Li     1.617037    8.085185   10.000000    ( 0.0000,  0.0000,  0.0000)
   7 Li     4.851111    8.085185   10.000000    ( 0.0000,  0.0000,  0.0000)
   8 Li     8.085185    8.085185   10.000000    ( 0.0000,  0.0000,  0.0000)
   9 Li     0.000000    0.000000   11.617037    ( 0.0000,  0.0000,  0.0000)
  10 Li     3.234074    0.000000   11.617037    ( 0.0000,  0.0000,  0.0000)
  11 Li     6.468148    0.000000   11.617037    ( 0.0000,  0.0000,  0.0000)
  12 Li     0.000000    3.234074   11.617037    ( 0.0000,  0.0000,  0.0000)
  13 Li     3.234074    3.234074   11.617037    ( 0.0000,  0.0000,  0.0000)
  14 Li     6.468148    3.234074   11.617037    ( 0.0000,  0.0000,  0.0000)
  15 Li     0.000000    6.468148   11.617037    ( 0.0000,  0.0000,  0.0000)
  16 Li     3.234074    6.468148   11.617037    ( 0.0000,  0.0000,  0.0000)
  17 Li     6.468148    6.468148   11.617037    ( 0.0000,  0.0000,  0.0000)
  18 Li     1.616974    1.617047   13.469602    ( 0.0000,  0.0000,  0.0000)
  19 Li     4.850882    1.617015   13.469969    ( 0.0000,  0.0000,  0.0000)
  20 Li     8.085242    1.617040   13.467663    ( 0.0000,  0.0000,  0.0000)
  21 Li     1.616796    4.850863   13.470336    ( 0.0000,  0.0000,  0.0000)
  22 Li     4.851191    4.851049   13.470245    ( 0.0000,  0.0000,  0.0000)
  23 Li     8.085192    4.851188   13.470017    ( 0.0000,  0.0000,  0.0000)
  24 Li     1.616777    8.085406   13.470345    ( 0.0000,  0.0000,  0.0000)
  25 Li     4.851338    8.085299   13.470357    ( 0.0000,  0.0000,  0.0000)
  26 Li     8.085175    8.085073   13.469950    ( 0.0000,  0.0000,  0.0000)
  27 Li     0.001111    0.000353   15.447526    ( 0.0000,  0.0000,  0.0000)
  28 Li     3.234438   -0.000317   15.445618    ( 0.0000,  0.0000,  0.0000)
  29 Li     6.468147    0.001060   15.447436    ( 0.0000,  0.0000,  0.0000)
  30 Li     0.000217    3.233127   15.447682    ( 0.0000,  0.0000,  0.0000)
  31 Li     3.234366    3.234372   15.445628    ( 0.0000,  0.0000,  0.0000)
  32 Li     6.467790    3.233356   15.447433    ( 0.0000,  0.0000,  0.0000)
  33 Li    -0.000010    6.468223   15.445610    ( 0.0000,  0.0000,  0.0000)
  34 Li     3.233919    6.468157   15.445747    ( 0.0000,  0.0000,  0.0000)
  35 Li     6.468366    6.468156   15.445678    ( 0.0000,  0.0000,  0.0000)
  36 B      8.074772    1.609555   18.459719    ( 0.0000,  0.0000,  0.0000)
  37 H      9.123991    2.217347   18.484534    ( 0.0000,  0.0000,  0.0000)
  38 H      7.050993    2.223690   18.462768    ( 0.0000,  0.0000,  0.0000)
  39 H      8.080960    0.422464   18.467989    ( 0.0000,  0.0000,  0.0000)
  40 N      8.046294    1.606914   16.888773    ( 0.0000,  0.0000,  0.0000)
  41 N      9.231969    1.622926   16.907117    ( 0.0000,  0.0000,  0.0000)

Unit cell:
           periodic     x           y           z      points  spacing
  1. axis:    yes    9.702222    0.000000    0.000000    60     0.1617
  2. axis:    yes    0.000000    9.702222    0.000000    60     0.1617
  3. axis:    no     0.000000    0.000000   26.351111   164     0.1607

  Lengths:   9.702222   9.702222  26.351111
  Angles:   90.000000  90.000000  90.000000

Effective grid spacing dv^(1/3) = 0.1614

     iter     time        total  log10-change:
                         energy  eigst   dens
iter:   1 20:26:54  -253.797430  -0.56
iter:   2 20:29:24  -254.202918  -0.05  -1.11
iter:   3 20:31:56  -253.220449  -0.53  -1.07
iter:   4 20:34:35  -253.210076  -0.89  -1.74
Writing to output.gpw (mode='')

iter:   5 20:37:06  -253.208500c -0.83  -1.90
iter:   6 20:39:37  -253.220136c -1.13  -2.10
iter:   7 20:42:09  -253.213921c -1.24  -2.04
iter:   8 20:44:31  -253.212442c -1.81  -2.18
iter:   9 20:46:56  -253.212875c -2.11  -2.36
Writing to output.gpw (mode='')

iter:  10 20:49:33  -253.212894c -2.28  -2.55
iter:  11 20:51:58  -253.213179c -2.56  -2.62
iter:  12 20:54:27  -253.213525c -2.80  -2.64
iter:  13 20:56:59  -253.213154c -3.10  -2.74
iter:  14 20:59:28  -253.213605c -3.13  -2.87
Writing to output.gpw (mode='')

iter:  15 21:02:11  -253.213984c -3.08  -2.84
iter:  16 21:04:48  -253.213553c -3.58  -2.70
iter:  17 21:07:19  -253.213904c -3.16  -2.91
iter:  18 21:09:55  -253.213872c -3.54  -2.88
iter:  19 21:12:22  -253.213468c -3.38  -3.00
Writing to output.gpw (mode='')

iter:  20 21:14:53  -253.213744c -3.86  -3.03
iter:  21 21:17:22  -253.213737c -4.05  -3.33
iter:  22 21:19:53  -253.213668c -3.86  -3.40
iter:  23 21:22:16  -253.213608c -4.17  -3.50
iter:  24 21:24:44  -253.213618c -4.35  -3.48
Writing to output.gpw (mode='')

iter:  25 21:27:14  -253.213665c -4.41  -3.52
iter:  26 21:29:51  -253.213680c -4.54  -3.82
iter:  27 21:32:18  -253.213722c -4.63  -3.91
iter:  28 21:34:43  -253.213721c -4.61  -4.04c
iter:  29 21:37:11  -253.213717c -4.72  -4.07c
Writing to output.gpw (mode='')

iter:  30 21:39:48  -253.213715c -4.91  -4.14c
iter:  31 21:42:19  -253.213714c -5.35  -4.12c
iter:  32 21:44:46  -253.213720c -5.20  -4.16c
iter:  33 21:47:09  -253.213713c -5.26  -4.22c
iter:  34 21:49:31  -253.213713c -5.60  -4.21c
Writing to output.gpw (mode='')

iter:  35 21:51:59  -253.213718c -5.33  -4.25c
iter:  36 21:54:26  -253.213717c -5.55  -4.31c
iter:  37 21:56:57  -253.213717c -5.72  -4.33c
iter:  38 21:59:18  -253.213718c -5.85  -4.35c
iter:  39 22:01:37  -253.213718c -6.15  -4.37c
Writing to output.gpw (mode='')

iter:  40 22:04:03  -253.213722c -6.10  -4.38c
iter:  41 22:06:35  -253.213716c -6.04  -4.44c
iter:  42 22:08:58  -253.213718c -6.21  -4.59c
iter:  43 22:11:22  -253.213723c -6.19  -4.65c
iter:  44 22:13:40  -253.213724c -6.20  -4.66c
Writing to output.gpw (mode='')

iter:  45 22:16:07  -253.213725c -6.52  -4.70c
iter:  46 22:18:38  -253.213726c -6.45  -4.84c
iter:  47 22:21:05  -253.213723c -6.60  -4.89c
iter:  48 22:23:41  -253.213724c -6.63  -5.03c
iter:  49 22:26:15  -253.213725c -6.69  -5.28c
Writing to output.gpw (mode='')

iter:  50 22:28:43  -253.213726c -6.82  -5.38c
iter:  51 22:31:22  -253.213726c -6.81  -5.41c
iter:  52 22:33:49  -253.213726c -7.13  -5.47c
iter:  53 22:36:14  -253.213726c -7.14  -5.48c
iter:  54 22:38:37  -253.213726c -7.10  -5.49c
Writing to output.gpw (mode='')

iter:  55 22:41:02  -253.213726c -7.27  -5.69c
iter:  56 22:43:29  -253.213726c -7.28  -5.82c
iter:  57 22:45:45  -253.213726c -7.28  -5.84c
iter:  58 22:48:12  -253.213726c -7.50c -5.83c

Converged after 58 iterations.

Dipole moment: (6.275925, -3.894081, -0.360723) |e|*Ang

Energy contributions relative to reference atoms: (reference = -10970.764591)

Kinetic:       +120.941781
Potential:     -107.825857
External:        +0.000000
XC:            -266.559245
Entropy (-ST):   -0.177491
Local:           +0.318340
--------------------------
Free energy:   -253.302471
Extrapolated:  -253.213726

Dipole-layer corrected work functions: 3.417998, 4.111431 eV

Showing only first 2 kpts
 Kpt  Band  Eigenvalues  Occupancy
  0    24     -4.00461    1.98364
  0    25     -3.85164    1.70102
  0    26     -3.71276    0.52268
  0    27     -3.57350    0.04273

  1    24     -3.82872    1.56493
  1    25     -3.75212    0.87470
  1    26     -3.72858    0.65359
  1    27     -3.64415    0.16464


Fermi level: -3.76471

No gap
Writing to output.gpw (mode='')


Forces in eV/Ang:
  0 Li    0.02603   -0.00031   -0.26840
  1 Li   -0.01978    0.00084   -0.27584
  2 Li   -0.00615    0.00178   -0.28397
  3 Li    0.00169    0.01142   -0.27821
  4 Li    0.00084    0.00176   -0.28147
  5 Li    0.00357    0.03072   -0.27928
  6 Li    0.00206   -0.01138   -0.27942
  7 Li   -0.00041   -0.00176   -0.28058
  8 Li    0.00475   -0.03202   -0.27801
  9 Li   -0.00365    0.00438    0.31778
 10 Li    0.00221    0.00782    0.24769
 11 Li    0.00280    0.00775    0.29936
 12 Li   -0.00221   -0.00261    0.31305
 13 Li    0.00587   -0.01279    0.24930
 14 Li    0.00196   -0.00572    0.29733
 15 Li   -0.00638   -0.00018    0.23060
 16 Li   -0.00498    0.00340    0.25118
 17 Li    0.00259   -0.00335    0.23671
 18 Li   -0.00138    0.00005   -0.01623
 19 Li   -0.02024   -0.00137    0.01490
 20 Li    0.00356    0.00018   -0.15289
 21 Li   -0.02153   -0.01953    0.04743
 22 Li    0.00686   -0.00608    0.04269
 23 Li    0.00031    0.00818    0.01809
 24 Li   -0.02239    0.01876    0.04887
 25 Li    0.01844    0.01061    0.05034
 26 Li   -0.00070   -0.01146    0.01346
 27 Li    0.06086    0.04796    0.16556
 28 Li    0.02614   -0.02785   -0.02563
 29 Li    0.01973    0.10291    0.14407
 30 Li   -0.00492   -0.09198    0.17451
 31 Li    0.02171    0.02573   -0.02504
 32 Li   -0.00964   -0.07287    0.14085
 33 Li    0.00168    0.00618   -0.02793
 34 Li   -0.01126    0.00056   -0.01559
 35 Li    0.01480    0.00198   -0.02184
 36 B    -0.47634   -0.37890    0.31315
 37 H     0.11568    0.37370    2.65704
 38 H    -0.25484    0.64819    1.17691
 39 H    -0.28153   -0.42944    1.61868
 40 N    -1.07264   -0.60814   -3.54424
 41 N     1.89477    0.38976   -2.73552

System changes: positions 

Initializing position-dependent things.

Density initialized from wave functions
       .-----------------------.  
      /|                       |  
     / |                       |  
    /  |                       |  
   /   |                       |  
  /    |                       |  
 *     |                       |  
 |     |                       |  
 |     |                       |  
 |     |                       |  
 |     |                       |  
 |     |                       |  
 |     |                       |  
 |     |       Li              |  
 |     |            H    H     |  
 |   Li|     Li      HB        |  
 |     |                       |  
 | Li  |  LLi     LLi N  NLi   |  
 |     |                       |  
 Li    |Li      LLi     Li     |  
 |   Li|     Li      Li        |  
 |    Li  Li  Li  Li  Li  Li   |  
 | Li  |   Li      Li          |  
 |     |Li      Li      Li     |  
 Li    | Li      Li            |  
 |    Li      Li      Li       |  
 |     |                       |  
 |     |                       |  
 |     |                       |  
 |     |                       |  
 |     |                       |  
 |     |                       |  
 |     .-----------------------.  
 |    /                       /   
 |   /                       /    
 |  /                       /     
 | /                       /      
 |/                       /       
 *-----------------------*        

Positions:
   0 Li     1.617037    1.617037   10.000000    ( 0.0000,  0.0000,  0.0000)
   1 Li     4.851111    1.617037   10.000000    ( 0.0000,  0.0000,  0.0000)
   2 Li     8.085185    1.617037   10.000000    ( 0.0000,  0.0000,  0.0000)
   3 Li     1.617037    4.851111   10.000000    ( 0.0000,  0.0000,  0.0000)
   4 Li     4.851111    4.851111   10.000000    ( 0.0000,  0.0000,  0.0000)
   5 Li     8.085185    4.851111   10.000000    ( 0.0000,  0.0000,  0.0000)
   6 Li     1.617037    8.085185   10.000000    ( 0.0000,  0.0000,  0.0000)
   7 Li     4.851111    8.085185   10.000000    ( 0.0000,  0.0000,  0.0000)
   8 Li     8.085185    8.085185   10.000000    ( 0.0000,  0.0000,  0.0000)
   9 Li     0.000000    0.000000   11.617037    ( 0.0000,  0.0000,  0.0000)
  10 Li     3.234074    0.000000   11.617037    ( 0.0000,  0.0000,  0.0000)
  11 Li     6.468148    0.000000   11.617037    ( 0.0000,  0.0000,  0.0000)
  12 Li     0.000000    3.234074   11.617037    ( 0.0000,  0.0000,  0.0000)
  13 Li     3.234074    3.234074   11.617037    ( 0.0000,  0.0000,  0.0000)
  14 Li     6.468148    3.234074   11.617037    ( 0.0000,  0.0000,  0.0000)
  15 Li     0.000000    6.468148   11.617037    ( 0.0000,  0.0000,  0.0000)
  16 Li     3.234074    6.468148   11.617037    ( 0.0000,  0.0000,  0.0000)
  17 Li     6.468148    6.468148   11.617037    ( 0.0000,  0.0000,  0.0000)
  18 Li     1.616973    1.617044   13.469372    ( 0.0000,  0.0000,  0.0000)
  19 Li     4.850619    1.617000   13.470128    ( 0.0000,  0.0000,  0.0000)
  20 Li     8.085286    1.617042   13.465837    ( 0.0000,  0.0000,  0.0000)
  21 Li     1.616523    4.850625   13.470912    ( 0.0000,  0.0000,  0.0000)
  22 Li     4.851279    4.850967   13.470778    ( 0.0000,  0.0000,  0.0000)
  23 Li     8.085193    4.851302   13.470212    ( 0.0000,  0.0000,  0.0000)
  24 Li     1.616496    8.085640   13.470942    ( 0.0000,  0.0000,  0.0000)
  25 Li     4.851569    8.085438   13.470979    ( 0.0000,  0.0000,  0.0000)
  26 Li     8.085165    8.084916   13.470089    ( 0.0000,  0.0000,  0.0000)
  27 Li     0.001712    0.001070   15.449798    ( 0.0000,  0.0000,  0.0000)
  28 Li     3.234747   -0.000673   15.445304    ( 0.0000,  0.0000,  0.0000)
  29 Li     6.468506    0.002433   15.449352    ( 0.0000,  0.0000,  0.0000)
  30 Li     0.000023    3.231870   15.450058    ( 0.0000,  0.0000,  0.0000)
  31 Li     3.234627    3.234700   15.445320    ( 0.0000,  0.0000,  0.0000)
  32 Li     6.467784    3.232364   15.449296    ( 0.0000,  0.0000,  0.0000)
  33 Li     0.000024    6.468301   15.445258    ( 0.0000,  0.0000,  0.0000)
  34 Li     3.233786    6.468162   15.445554    ( 0.0000,  0.0000,  0.0000)
  35 Li     6.468532    6.468185   15.445403    ( 0.0000,  0.0000,  0.0000)
  36 B      8.070460    1.605609   18.459886    ( 0.0000,  0.0000,  0.0000)
  37 H      9.123977    2.220901   18.515357    ( 0.0000,  0.0000,  0.0000)
  38 H      7.048161    2.231243   18.476640    ( 0.0000,  0.0000,  0.0000)
  39 H      8.077746    0.417343   18.487378    ( 0.0000,  0.0000,  0.0000)
  40 N      8.046138    1.600260   16.849331    ( 0.0000,  0.0000,  0.0000)
  41 N      9.241699    1.627441   16.875213    ( 0.0000,  0.0000,  0.0000)

Unit cell:
           periodic     x           y           z      points  spacing
  1. axis:    yes    9.702222    0.000000    0.000000    60     0.1617
  2. axis:    yes    0.000000    9.702222    0.000000    60     0.1617
  3. axis:    no     0.000000    0.000000   26.351111   164     0.1607

  Lengths:   9.702222   9.702222  26.351111
  Angles:   90.000000  90.000000  90.000000

Effective grid spacing dv^(1/3) = 0.1614

     iter     time        total  log10-change:
                         energy  eigst   dens
iter:   1 22:51:23  -253.728671  -0.81
iter:   2 22:53:51  -253.956018  -0.86  -1.36
iter:   3 22:56:15  -253.570276  -0.83  -1.24
iter:   4 22:58:50  -253.572249  -1.21  -1.92
Writing to output.gpw (mode='')

iter:   5 23:01:30  -253.572927c -1.11  -1.99
iter:   6 23:04:00  -253.571446c -1.51  -2.06
iter:   7 23:06:34  -253.574352c -1.95  -2.08
iter:   8 23:09:07  -253.572708c -1.70  -2.19
iter:   9 23:11:35  -253.572202c -2.28  -2.38
Writing to output.gpw (mode='')

iter:  10 23:14:15  -253.571988c -2.52  -2.51
iter:  11 23:16:40  -253.572468c -2.58  -2.65
iter:  12 23:19:02  -253.572433c -2.87  -2.76
iter:  13 23:21:38  -253.572375c -2.71  -2.76
iter:  14 23:24:05  -253.572309c -3.09  -2.82
Writing to output.gpw (mode='')

iter:  15 23:26:45  -253.572421c -3.21  -3.00
iter:  16 23:29:12  -253.572405c -3.69  -3.12
iter:  17 23:31:41  -253.572371c -3.63  -3.19
iter:  18 23:34:09  -253.572488c -3.59  -3.28
iter:  19 23:36:45  -253.572627c -4.09  -3.35
Writing to output.gpw (mode='')

iter:  20 23:39:25  -253.572595c -4.05  -3.32
iter:  21 23:41:47  -253.572528c -4.32  -3.55
iter:  22 23:44:14  -253.572578c -4.27  -3.67
iter:  23 23:46:33  -253.572567c -4.06  -3.78
iter:  24 23:48:58  -253.572579c -4.22  -3.84
Writing to output.gpw (mode='')

iter:  25 23:51:29  -253.572603c -4.68  -3.94
iter:  26 23:53:55  -253.572571c -4.76  -4.03c
iter:  27 23:56:22  -253.572579c -4.87  -4.17c
iter:  28 23:58:53  -253.572596c -4.96  -4.23c
iter:  29 00:01:31  -253.572609c -4.94  -4.31c
Writing to output.gpw (mode='')

iter:  30 00:04:08  -253.572612c -5.14  -4.38c
iter:  31 00:06:30  -253.572601c -5.27  -4.54c
iter:  32 00:08:54  -253.572611c -5.38  -4.64c
iter:  33 00:11:23  -253.572612c -5.30  -4.74c
iter:  34 00:13:54  -253.572612c -5.25  -4.75c
Writing to output.gpw (mode='')

iter:  35 00:16:41  -253.572612c -5.49  -4.75c
iter:  36 00:19:09  -253.572608c -5.68  -4.66c
iter:  37 00:21:36  -253.572612c -5.79  -4.60c
iter:  38 00:24:06  -253.572615c -5.79  -4.79c
iter:  39 00:26:34  -253.572615c -5.82  -4.89c
Writing to output.gpw (mode='')

iter:  40 00:29:18  -253.572619c -5.79  -4.88c
iter:  41 00:31:47  -253.572618c -6.08  -4.87c
iter:  42 00:34:14  -253.572615c -6.05  -4.85c
iter:  43 00:36:38  -253.572617c -6.13  -4.80c
iter:  44 00:39:02  -253.572616c -6.40  -4.81c
Writing to output.gpw (mode='')

iter:  45 00:41:39  -253.572615c -6.37  -4.80c
iter:  46 00:44:03  -253.572621c -6.32  -4.75c
iter:  47 00:46:34  -253.572620c -6.62  -4.87c
iter:  48 00:49:06  -253.572617c -6.62  -4.82c
iter:  49 00:51:34  -253.572619c -6.75  -4.78c
Writing to output.gpw (mode='')

iter:  50 00:54:20  -253.572619c -6.67  -4.93c
iter:  51 00:56:51  -253.572619c -6.70  -4.96c
iter:  52 00:59:16  -253.572620c -6.96  -5.02c
iter:  53 01:01:52  -253.572620c -7.09  -5.19c
iter:  54 01:04:15  -253.572619c -6.88  -5.23c
Writing to output.gpw (mode='')

iter:  55 01:06:59  -253.572619c -7.08  -5.30c
iter:  56 01:09:19  -253.572619c -7.03  -5.28c
iter:  57 01:11:42  -253.572619c -7.20  -5.18c
iter:  58 01:14:16  -253.572619c -7.34  -5.31c
iter:  59 01:16:44  -253.572619c -7.39  -5.29c
Writing to output.gpw (mode='')

iter:  60 01:19:18  -253.572619c -7.36  -5.36c
iter:  61 01:21:55  -253.572621c -7.53c -5.27c

Converged after 61 iterations.

Dipole moment: (6.517850, -3.898622, -0.370887) |e|*Ang

Energy contributions relative to reference atoms: (reference = -10970.764591)

Kinetic:       +117.944769
Potential:     -105.744032
External:        +0.000000
XC:            -266.000955
Entropy (-ST):   -0.179999
Local:           +0.317596
--------------------------
Free energy:   -253.662620
Extrapolated:  -253.572621

Dipole-layer corrected work functions: 3.418287, 4.131259 eV

Showing only first 2 kpts
 Kpt  Band  Eigenvalues  Occupancy
  0    24     -4.01349    1.98325
  0    25     -3.85488    1.66465
  0    26     -3.72570    0.54521
  0    27     -3.58715    0.04585

  1    24     -3.84338    1.59548
  1    25     -3.75970    0.85041
  1    26     -3.73861    0.65335
  1    27     -3.65380    0.16340


Fermi level: -3.77477

No gap
Writing to output.gpw (mode='')


Forces in eV/Ang:
  0 Li    0.02559   -0.00056   -0.26931
  1 Li   -0.01952    0.00064   -0.27577
  2 Li   -0.00636    0.00154   -0.28391
  3 Li    0.00272    0.01190   -0.27852
  4 Li    0.00095    0.00231   -0.28194
  5 Li    0.00384    0.03072   -0.27957
  6 Li    0.00292   -0.01211   -0.27949
  7 Li   -0.00025   -0.00258   -0.28104
  8 Li    0.00484   -0.03152   -0.27868
  9 Li   -0.00410    0.00503    0.32011
 10 Li    0.00379    0.00743    0.24779
 11 Li    0.00321    0.00797    0.29942
 12 Li   -0.00249   -0.00368    0.31539
 13 Li    0.00672   -0.01202    0.24955
 14 Li    0.00222   -0.00574    0.29714
 15 Li   -0.00645   -0.00029    0.23034
 16 Li   -0.00643    0.00382    0.25030
 17 Li    0.00220   -0.00399    0.23752
 18 Li    0.00112   -0.00050   -0.02009
 19 Li   -0.02019   -0.00089    0.01276
 20 Li    0.00213   -0.00004   -0.13891
 21 Li   -0.02336   -0.01906    0.04659
 22 Li    0.00720   -0.00630    0.04337
 23 Li    0.00019    0.00872    0.01527
 24 Li   -0.02367    0.01942    0.04824
 25 Li    0.01796    0.01098    0.04948
 26 Li   -0.00042   -0.01218    0.01156
 27 Li    0.04343    0.05563    0.17757
 28 Li    0.02419   -0.02983   -0.02564
 29 Li    0.02958    0.11184    0.15533
 30 Li   -0.01095   -0.09066    0.17904
 31 Li    0.02164    0.02732   -0.02521
 32 Li   -0.00203   -0.07906    0.14892
 33 Li    0.00326    0.00600   -0.02848
 34 Li   -0.01024    0.00033   -0.01544
 35 Li    0.01316    0.00302   -0.02175
 36 B    -0.31234   -0.19824   -0.05305
 37 H    -0.17727    0.17984    2.28339
 38 H    -0.16482    0.49989    1.00352
 39 H    -0.23223   -0.32749    1.42881
 40 N    -0.28005   -0.45119   -2.70914
 41 N     1.09795    0.32323   -2.49547

System changes: positions 

Initializing position-dependent things.

Density initialized from wave functions
       .-----------------------.  
      /|                       |  
     / |                       |  
    /  |                       |  
   /   |                       |  
  /    |                       |  
 *     |                       |  
 |     |                       |  
 |     |                       |  
 |     |                       |  
 |     |                       |  
 |     |                       |  
 |     |                       |  
 |     |       Li              |  
 |     |            H    H     |  
 |   Li|     Li      HB        |  
 |     |                       |  
 |     |  LLi     LLi N  NLLi  |  
 |     |                       |  
 Li    |Li      LLi     Li     |  
 |   Li|     Li      Li        |  
 |    Li  Li  Li  Li  Li  Li   |  
 | Li  |   Li      Li          |  
 |     |Li      Li      Li     |  
 Li    | Li      Li            |  
 |    Li      Li      Li       |  
 |     |                       |  
 |     |                       |  
 |     |                       |  
 |     |                       |  
 |     |                       |  
 |     |                       |  
 |     .-----------------------.  
 |    /                       /   
 |   /                       /    
 |  /                       /     
 | /                       /      
 |/                       /       
 *-----------------------*        

Positions:
   0 Li     1.617037    1.617037   10.000000    ( 0.0000,  0.0000,  0.0000)
   1 Li     4.851111    1.617037   10.000000    ( 0.0000,  0.0000,  0.0000)
   2 Li     8.085185    1.617037   10.000000    ( 0.0000,  0.0000,  0.0000)
   3 Li     1.617037    4.851111   10.000000    ( 0.0000,  0.0000,  0.0000)
   4 Li     4.851111    4.851111   10.000000    ( 0.0000,  0.0000,  0.0000)
   5 Li     8.085185    4.851111   10.000000    ( 0.0000,  0.0000,  0.0000)
   6 Li     1.617037    8.085185   10.000000    ( 0.0000,  0.0000,  0.0000)
   7 Li     4.851111    8.085185   10.000000    ( 0.0000,  0.0000,  0.0000)
   8 Li     8.085185    8.085185   10.000000    ( 0.0000,  0.0000,  0.0000)
   9 Li     0.000000    0.000000   11.617037    ( 0.0000,  0.0000,  0.0000)
  10 Li     3.234074    0.000000   11.617037    ( 0.0000,  0.0000,  0.0000)
  11 Li     6.468148    0.000000   11.617037    ( 0.0000,  0.0000,  0.0000)
  12 Li     0.000000    3.234074   11.617037    ( 0.0000,  0.0000,  0.0000)
  13 Li     3.234074    3.234074   11.617037    ( 0.0000,  0.0000,  0.0000)
  14 Li     6.468148    3.234074   11.617037    ( 0.0000,  0.0000,  0.0000)
  15 Li     0.000000    6.468148   11.617037    ( 0.0000,  0.0000,  0.0000)
  16 Li     3.234074    6.468148   11.617037    ( 0.0000,  0.0000,  0.0000)
  17 Li     6.468148    6.468148   11.617037    ( 0.0000,  0.0000,  0.0000)
  18 Li     1.617003    1.617034   13.469032    ( 0.0000,  0.0000,  0.0000)
  19 Li     4.850292    1.616988   13.470314    ( 0.0000,  0.0000,  0.0000)
  20 Li     8.085318    1.617041   13.463687    ( 0.0000,  0.0000,  0.0000)
  21 Li     1.616146    4.850325   13.471645    ( 0.0000,  0.0000,  0.0000)
  22 Li     4.851394    4.850863   13.471470    ( 0.0000,  0.0000,  0.0000)
  23 Li     8.085194    4.851448   13.470435    ( 0.0000,  0.0000,  0.0000)
  24 Li     1.616117    8.085950   13.471702    ( 0.0000,  0.0000,  0.0000)
  25 Li     4.851854    8.085617   13.471762    ( 0.0000,  0.0000,  0.0000)
  26 Li     8.085158    8.084714   13.470256    ( 0.0000,  0.0000,  0.0000)
  27 Li     0.002298    0.002025   15.452746    ( 0.0000,  0.0000,  0.0000)
  28 Li     3.235120   -0.001154   15.444899    ( 0.0000,  0.0000,  0.0000)
  29 Li     6.469047    0.004269   15.451899    ( 0.0000,  0.0000,  0.0000)
  30 Li    -0.000228    3.230376   15.453015    ( 0.0000,  0.0000,  0.0000)
  31 Li     3.234966    3.235141   15.444921    ( 0.0000,  0.0000,  0.0000)
  32 Li     6.467820    3.231057   15.451731    ( 0.0000,  0.0000,  0.0000)
  33 Li     0.000085    6.468396   15.444801    ( 0.0000,  0.0000,  0.0000)
  34 Li     3.233629    6.468166   15.445309    ( 0.0000,  0.0000,  0.0000)
  35 Li     6.468730    6.468236   15.445055    ( 0.0000,  0.0000,  0.0000)
  36 B      8.066650    1.603173   18.456455    ( 0.0000,  0.0000,  0.0000)
  37 H      9.119911    2.222863   18.549954    ( 0.0000,  0.0000,  0.0000)
  38 H      7.045856    2.238703   18.491929    ( 0.0000,  0.0000,  0.0000)
  39 H      8.074284    0.412377   18.509441    ( 0.0000,  0.0000,  0.0000)
  40 N      8.049331    1.593804   16.809985    ( 0.0000,  0.0000,  0.0000)
  41 N      9.251127    1.632288   16.837011    ( 0.0000,  0.0000,  0.0000)

Unit cell:
           periodic     x           y           z      points  spacing
  1. axis:    yes    9.702222    0.000000    0.000000    60     0.1617
  2. axis:    yes    0.000000    9.702222    0.000000    60     0.1617
  3. axis:    no     0.000000    0.000000   26.351111   164     0.1607

  Lengths:   9.702222   9.702222  26.351111
  Angles:   90.000000  90.000000  90.000000

Effective grid spacing dv^(1/3) = 0.1614

     iter     time        total  log10-change:
                         energy  eigst   dens
iter:   1 01:24:58  -253.942161  -0.82
iter:   2 01:27:28  -253.993547  -0.89  -1.66
iter:   3 01:30:09  -253.909333  -1.77  -1.53
iter:   4 01:32:48  -253.905750  -2.28  -1.99
Writing to output.gpw (mode='')

iter:   5 01:35:17  -253.899963c -1.67  -2.11
iter:   6 01:37:52  -253.896167c -1.95  -2.14
iter:   7 01:40:22  -253.897004c -2.65  -2.33
iter:   8 01:42:58  -253.895891c -2.27  -2.40
iter:   9 01:45:28  -253.895087c -2.88  -2.64
Writing to output.gpw (mode='')

iter:  10 01:48:05  -253.895000c -3.22  -2.80
iter:  11 01:50:35  -253.895182c -3.10  -2.86
iter:  12 01:53:09  -253.894943c -3.51  -3.03
iter:  13 01:55:33  -253.895115c -3.62  -3.13
iter:  14 01:58:00  -253.895206c -3.79  -3.20
Writing to output.gpw (mode='')

iter:  15 02:00:32  -253.895084c -3.91  -3.21
iter:  16 02:02:53  -253.895221c -4.14  -3.40
iter:  17 02:05:29  -253.895219c -4.58  -3.57
iter:  18 02:08:00  -253.895274c -4.57  -3.59
iter:  19 02:10:27  -253.895245c -4.74  -3.69
Writing to output.gpw (mode='')

iter:  20 02:13:02  -253.895210c -4.97  -3.85
iter:  21 02:15:27  -253.895209c -4.95  -3.90
iter:  22 02:17:52  -253.895222c -5.01  -4.03c
iter:  23 02:20:26  -253.895227c -5.26  -4.06c
iter:  24 02:22:52  -253.895226c -5.35  -4.15c
Writing to output.gpw (mode='')

iter:  25 02:25:24  -253.895218c -5.78  -4.25c
iter:  26 02:27:55  -253.895234c -5.69  -4.29c
iter:  27 02:30:21  -253.895236c -5.78  -4.27c
iter:  28 02:32:49  -253.895237c -5.70  -4.33c
iter:  29 02:35:28  -253.895237c -6.08  -4.35c
Writing to output.gpw (mode='')

iter:  30 02:38:00  -253.895237c -6.20  -4.43c
iter:  31 02:40:31  -253.895240c -6.27  -4.64c
iter:  32 02:43:03  -253.895238c -6.44  -4.62c
iter:  33 02:45:31  -253.895236c -6.47  -4.63c
iter:  34 02:48:00  -253.895233c -6.67  -4.61c
Writing to output.gpw (mode='')

iter:  35 02:50:38  -253.895233c -6.40  -4.63c
iter:  36 02:53:09  -253.895235c -6.89  -4.80c
iter:  37 02:55:46  -253.895236c -6.63  -4.92c
iter:  38 02:58:16  -253.895237c -6.86  -5.11c
iter:  39 03:00:49  -253.895237c -7.15  -5.20c
Writing to output.gpw (mode='')

iter:  40 03:03:21  -253.895235c -7.25  -5.24c
iter:  41 03:05:50  -253.895236c -7.17  -5.26c
iter:  42 03:08:21  -253.895235c -7.12  -5.32c
iter:  43 03:10:56  -253.895235c -7.31  -5.38c
iter:  44 03:13:23  -253.895236c -7.29  -5.45c
Writing to output.gpw (mode='')

iter:  45 03:15:59  -253.895236c -7.65c -5.55c

Converged after 45 iterations.

Dipole moment: (6.736250, -3.914581, -0.384780) |e|*Ang

Energy contributions relative to reference atoms: (reference = -10970.764591)

Kinetic:       +115.732819
Potential:     -104.237447
External:        +0.000000
XC:            -265.616958
Entropy (-ST):   -0.181716
Local:           +0.317208
--------------------------
Free energy:   -253.986094
Extrapolated:  -253.895236

Dipole-layer corrected work functions: 3.418617, 4.158296 eV

Showing only first 2 kpts
 Kpt  Band  Eigenvalues  Occupancy
  0    24     -4.02611    1.98290
  0    25     -3.86253    1.62957
  0    26     -3.74017    0.55150
  0    27     -3.60673    0.05143

  1    24     -3.86552    1.64727
  1    25     -3.76932    0.81094
  1    26     -3.75170    0.64812
  1    27     -3.66585    0.15856


Fermi level: -3.78846

No gap

Forces in eV/Ang:
  0 Li    0.02509   -0.00084   -0.27014
  1 Li   -0.01909    0.00040   -0.27578
  2 Li   -0.00650    0.00123   -0.28373
  3 Li    0.00364    0.01248   -0.27898
  4 Li    0.00103    0.00284   -0.28229
  5 Li    0.00425    0.03068   -0.27998
  6 Li    0.00374   -0.01290   -0.27965
  7 Li   -0.00009   -0.00336   -0.28148
  8 Li    0.00509   -0.03095   -0.27944
  9 Li   -0.00440    0.00534    0.32158
 10 Li    0.00520    0.00705    0.24821
 11 Li    0.00349    0.00811    0.29927
 12 Li   -0.00264   -0.00445    0.31715
 13 Li    0.00728   -0.01110    0.25009
 14 Li    0.00248   -0.00582    0.29689
 15 Li   -0.00661   -0.00045    0.23004
 16 Li   -0.00768    0.00409    0.24934
 17 Li    0.00152   -0.00441    0.23855
 18 Li    0.00254   -0.00107   -0.02310
 19 Li   -0.01970   -0.00042    0.01135
 20 Li    0.00124   -0.00054   -0.12210
 21 Li   -0.02497   -0.01821    0.04556
 22 Li    0.00778   -0.00633    0.04392
 23 Li   -0.00004    0.00895    0.01295
 24 Li   -0.02486    0.01972    0.04731
 25 Li    0.01725    0.01097    0.04830
 26 Li   -0.00027   -0.01238    0.01025
 27 Li    0.02923    0.05930    0.17830
 28 Li    0.02334   -0.03218   -0.02558
 29 Li    0.03730    0.11902    0.16330
 30 Li   -0.00835   -0.08111    0.16983
 31 Li    0.02315    0.02931   -0.02530
 32 Li    0.00190   -0.08322    0.15333
 33 Li    0.00474    0.00562   -0.02864
 34 Li   -0.00941    0.00017   -0.01504
 35 Li    0.01176    0.00389   -0.02122
 36 B    -0.23984   -0.06220   -0.22352
 37 H    -0.36372    0.01958    1.92012
 38 H    -0.10147    0.35397    0.83229
 39 H    -0.19514   -0.19686    1.21328
 40 N     0.22736   -0.36155   -1.99813
 41 N     0.59959    0.20274   -2.34617

System changes: positions 

Initializing position-dependent things.

Density initialized from wave functions
       .-----------------------.  
      /|                       |  
     / |                       |  
    /  |                       |  
   /   |                       |  
  /    |                       |  
 *     |                       |  
 |     |                       |  
 |     |                       |  
 |     |                       |  
 |     |                       |  
 |     |                       |  
 |     |                       |  
 |     |       Li              |  
 |     |            H    H     |  
 |   Li|     Li      HB        |  
 |     |                       |  
 |     |  LLi     LLi N  NLLi  |  
 |     |                       |  
 Li    |Li      LLi     Li     |  
 |   Li|     Li      Li        |  
 |    Li  Li  Li  Li  Li  Li   |  
 | Li  |   Li      Li          |  
 |     |Li      Li      Li     |  
 Li    | Li      Li            |  
 |    Li      Li      Li       |  
 |     |                       |  
 |     |                       |  
 |     |                       |  
 |     |                       |  
 |     |                       |  
 |     |                       |  
 |     .-----------------------.  
 |    /                       /   
 |   /                       /    
 |  /                       /     
 | /                       /      
 |/                       /       
 *-----------------------*        

Positions:
   0 Li     1.617037    1.617037   10.000000    ( 0.0000,  0.0000,  0.0000)
   1 Li     4.851111    1.617037   10.000000    ( 0.0000,  0.0000,  0.0000)
   2 Li     8.085185    1.617037   10.000000    ( 0.0000,  0.0000,  0.0000)
   3 Li     1.617037    4.851111   10.000000    ( 0.0000,  0.0000,  0.0000)
   4 Li     4.851111    4.851111   10.000000    ( 0.0000,  0.0000,  0.0000)
   5 Li     8.085185    4.851111   10.000000    ( 0.0000,  0.0000,  0.0000)
   6 Li     1.617037    8.085185   10.000000    ( 0.0000,  0.0000,  0.0000)
   7 Li     4.851111    8.085185   10.000000    ( 0.0000,  0.0000,  0.0000)
   8 Li     8.085185    8.085185   10.000000    ( 0.0000,  0.0000,  0.0000)
   9 Li     0.000000    0.000000   11.617037    ( 0.0000,  0.0000,  0.0000)
  10 Li     3.234074    0.000000   11.617037    ( 0.0000,  0.0000,  0.0000)
  11 Li     6.468148    0.000000   11.617037    ( 0.0000,  0.0000,  0.0000)
  12 Li     0.000000    3.234074   11.617037    ( 0.0000,  0.0000,  0.0000)
  13 Li     3.234074    3.234074   11.617037    ( 0.0000,  0.0000,  0.0000)
  14 Li     6.468148    3.234074   11.617037    ( 0.0000,  0.0000,  0.0000)
  15 Li     0.000000    6.468148   11.617037    ( 0.0000,  0.0000,  0.0000)
  16 Li     3.234074    6.468148   11.617037    ( 0.0000,  0.0000,  0.0000)
  17 Li     6.468148    6.468148   11.617037    ( 0.0000,  0.0000,  0.0000)
  18 Li     1.617048    1.617017   13.468644    ( 0.0000,  0.0000,  0.0000)
  19 Li     4.849960    1.616981   13.470501    ( 0.0000,  0.0000,  0.0000)
  20 Li     8.085338    1.617033   13.461632    ( 0.0000,  0.0000,  0.0000)
  21 Li     1.615729    4.850020   13.472406    ( 0.0000,  0.0000,  0.0000)
  22 Li     4.851523    4.850756   13.472204    ( 0.0000,  0.0000,  0.0000)
  23 Li     8.085194    4.851599   13.470649    ( 0.0000,  0.0000,  0.0000)
  24 Li     1.615702    8.086280   13.472493    ( 0.0000,  0.0000,  0.0000)
  25 Li     4.852143    8.085802   13.472571    ( 0.0000,  0.0000,  0.0000)
  26 Li     8.085153    8.084504   13.470425    ( 0.0000,  0.0000,  0.0000)
  27 Li     0.002777    0.003031   15.455770    ( 0.0000,  0.0000,  0.0000)
  28 Li     3.235507   -0.001690   15.444472    ( 0.0000,  0.0000,  0.0000)
  29 Li     6.469679    0.006265   15.454640    ( 0.0000,  0.0000,  0.0000)
  30 Li    -0.000401    3.228985   15.455911    ( 0.0000,  0.0000,  0.0000)
  31 Li     3.235347    3.235629   15.444498    ( 0.0000,  0.0000,  0.0000)
  32 Li     6.467868    3.229657   15.454308    ( 0.0000,  0.0000,  0.0000)
  33 Li     0.000164    6.468491   15.444321    ( 0.0000,  0.0000,  0.0000)
  34 Li     3.233472    6.468169   15.445056    ( 0.0000,  0.0000,  0.0000)
  35 Li     6.468925    6.468301   15.444698    ( 0.0000,  0.0000,  0.0000)
  36 B      8.063013    1.602203   18.451960    ( 0.0000,  0.0000,  0.0000)
  37 H      9.113636    2.223116   18.582121    ( 0.0000,  0.0000,  0.0000)
  38 H      7.044171    2.244708   18.505911    ( 0.0000,  0.0000,  0.0000)
  39 H      8.071046    0.408902   18.529910    ( 0.0000,  0.0000,  0.0000)
  40 N      8.054545    1.587881   16.776710    ( 0.0000,  0.0000,  0.0000)
  41 N      9.259552    1.635791   16.798065    ( 0.0000,  0.0000,  0.0000)

Unit cell:
           periodic     x           y           z      points  spacing
  1. axis:    yes    9.702222    0.000000    0.000000    60     0.1617
  2. axis:    yes    0.000000    9.702222    0.000000    60     0.1617
  3. axis:    no     0.000000    0.000000   26.351111   164     0.1607

  Lengths:   9.702222   9.702222  26.351111
  Angles:   90.000000  90.000000  90.000000

Effective grid spacing dv^(1/3) = 0.1614

     iter     time        total  log10-change:
                         energy  eigst   dens
iter:   1 03:19:11  -254.166825  -0.89
iter:   2 03:21:38  -254.163688  -1.68  -1.94
iter:   3 03:24:08  -254.158476c -2.10  -2.01
iter:   4 03:26:36  -254.158433c -2.16  -2.12
Writing to output.gpw (mode='')

iter:   5 03:29:16  -254.149852c -1.99  -2.14
iter:   6 03:31:42  -254.148852c -2.26  -2.42
iter:   7 03:34:09  -254.148785c -2.61  -2.50
iter:   8 03:36:38  -254.148550c -3.20  -2.77
iter:   9 03:39:04  -254.148403c -3.53  -2.84
Writing to output.gpw (mode='')

iter:  10 03:41:41  -254.148666c -3.36  -3.09
iter:  11 03:44:03  -254.148490c -3.66  -3.08
iter:  12 03:46:35  -254.148532c -4.20  -3.18
iter:  13 03:49:05  -254.148504c -4.17  -3.22
iter:  14 03:51:36  -254.148535c -4.45  -3.27
Writing to output.gpw (mode='')

iter:  15 03:54:13  -254.148550c -4.52  -3.32
iter:  16 03:57:01  -254.148533c -4.98  -3.43
iter:  17 03:59:43  -254.148470c -4.48  -3.51
iter:  18 04:02:07  -254.148571c -5.08  -3.75
iter:  19 04:04:32  -254.148512c -5.15  -3.71
Writing to output.gpw (mode='')

iter:  20 04:07:06  -254.148507c -5.19  -3.88
iter:  21 04:09:43  -254.148518c -5.54  -4.14c
iter:  22 04:12:09  -254.148527c -5.70  -4.27c
iter:  23 04:14:37  -254.148517c -5.85  -4.34c
iter:  24 04:17:05  -254.148521c -5.87  -4.37c
Writing to output.gpw (mode='')

iter:  25 04:19:39  -254.148524c -6.01  -4.58c
iter:  26 04:22:00  -254.148526c -6.19  -4.62c
iter:  27 04:24:23  -254.148526c -6.16  -4.61c
iter:  28 04:26:53  -254.148526c -6.33  -4.71c
iter:  29 04:29:12  -254.148529c -6.44  -4.75c
Writing to output.gpw (mode='')

iter:  30 04:31:49  -254.148528c -6.55  -4.78c
iter:  31 04:34:23  -254.148527c -6.56  -4.81c
iter:  32 04:36:48  -254.148526c -6.56  -4.82c
iter:  33 04:39:21  -254.148528c -6.94  -4.88c
iter:  34 04:41:47  -254.148528c -6.99  -5.02c
Writing to output.gpw (mode='')

iter:  35 04:44:20  -254.148525c -7.08  -5.10c
iter:  36 04:46:52  -254.148525c -7.13  -5.20c
iter:  37 04:49:09  -254.148525c -7.10  -5.24c
iter:  38 04:51:35  -254.148526c -7.13  -5.32c
iter:  39 04:53:58  -254.148525c -7.29  -5.45c
Writing to output.gpw (mode='')

iter:  40 04:56:32  -254.148525c -7.34  -5.56c
iter:  41 04:59:11  -254.148525c -7.37  -5.61c
iter:  42 05:01:39  -254.148525c -7.61c -5.78c

Converged after 42 iterations.

Dipole moment: (6.919620, -3.933214, -0.400669) |e|*Ang

Energy contributions relative to reference atoms: (reference = -10970.764591)

Kinetic:       +114.298440
Potential:     -103.272304
External:        +0.000000
XC:            -265.400431
Entropy (-ST):   -0.182700
Local:           +0.317119
--------------------------
Free energy:   -254.239875
Extrapolated:  -254.148525

Dipole-layer corrected work functions: 3.418805, 4.189028 eV

Showing only first 2 kpts
 Kpt  Band  Eigenvalues  Occupancy
  0    24     -4.04072    1.98261
  0    25     -3.87332    1.60056
  0    26     -3.75493    0.54593
  0    27     -3.62927    0.05902

  1    24     -3.89140    1.70380
  1    25     -3.77966    0.76211
  1    26     -3.76628    0.64042
  1    27     -3.67883    0.15148


Fermi level: -3.80392

No gap
Writing to output.gpw (mode='')


Forces in eV/Ang:
  0 Li    0.02467   -0.00109   -0.27070
  1 Li   -0.01855    0.00016   -0.27584
  2 Li   -0.00660    0.00090   -0.28338
  3 Li    0.00431    0.01312   -0.27945
  4 Li    0.00099    0.00331   -0.28237
  5 Li    0.00472    0.03062   -0.28031
  6 Li    0.00442   -0.01368   -0.27982
  7 Li   -0.00003   -0.00399   -0.28172
  8 Li    0.00544   -0.03040   -0.28011
  9 Li   -0.00461    0.00528    0.32219
 10 Li    0.00619    0.00675    0.24881
 11 Li    0.00365    0.00820    0.29906
 12 Li   -0.00270   -0.00476    0.31821
 13 Li    0.00741   -0.01020    0.25076
 14 Li    0.00277   -0.00601    0.29679
 15 Li   -0.00682   -0.00063    0.22974
 16 Li   -0.00846    0.00418    0.24853
 17 Li    0.00062   -0.00456    0.23960
 18 Li    0.00275   -0.00158   -0.02525
 19 Li   -0.01913   -0.00005    0.01072
 20 Li    0.00116   -0.00116   -0.10501
 21 Li   -0.02603   -0.01710    0.04436
 22 Li    0.00855   -0.00624    0.04418
 23 Li   -0.00037    0.00900    0.01122
 24 Li   -0.02576    0.01960    0.04613
 25 Li    0.01653    0.01064    0.04703
 26 Li   -0.00034   -0.01236    0.00923
 27 Li    0.02010    0.05737    0.16880
 28 Li    0.02391   -0.03466   -0.02540
 29 Li    0.04301    0.12448    0.16830
 30 Li    0.00150   -0.06540    0.15105
 31 Li    0.02604    0.03153   -0.02519
 32 Li    0.00278   -0.08557    0.15502
 33 Li    0.00602    0.00507   -0.02835
 34 Li   -0.00891    0.00010   -0.01435
 35 Li    0.01063    0.00439   -0.02034
 36 B    -0.21438    0.03023   -0.26747
 37 H    -0.49316   -0.09472    1.59796
 38 H    -0.07942    0.23975    0.70145
 39 H    -0.17803   -0.08463    1.02366
 40 N     0.51620   -0.27470   -1.32307
 41 N     0.36188    0.17011   -2.24062

System changes: positions 

Initializing position-dependent things.

Density initialized from wave functions
       .-----------------------.  
      /|                       |  
     / |                       |  
    /  |                       |  
   /   |                       |  
  /    |                       |  
 *     |                       |  
 |     |                       |  
 |     |                       |  
 |     |                       |  
 |     |                       |  
 |     |                       |  
 |     |                       |  
 |     |       Li              |  
 |     |            H    H     |  
 |   Li|     Li      HB        |  
 |     |                       |  
 |     |  LLi     LLi N  NLLi  |  
 |     |                       |  
 Li    |Li      LLi     Li     |  
 |   Li|     Li      Li        |  
 |    Li  Li  Li  Li  Li  Li   |  
 | Li  |   Li      Li          |  
 |     |Li      Li      Li     |  
 Li    | Li      Li            |  
 |    Li      Li      Li       |  
 |     |                       |  
 |     |                       |  
 |     |                       |  
 |     |                       |  
 |     |                       |  
 |     |                       |  
 |     .-----------------------.  
 |    /                       /   
 |   /                       /    
 |  /                       /     
 | /                       /      
 |/                       /       
 *-----------------------*        

Positions:
   0 Li     1.617037    1.617037   10.000000    ( 0.0000,  0.0000,  0.0000)
   1 Li     4.851111    1.617037   10.000000    ( 0.0000,  0.0000,  0.0000)
   2 Li     8.085185    1.617037   10.000000    ( 0.0000,  0.0000,  0.0000)
   3 Li     1.617037    4.851111   10.000000    ( 0.0000,  0.0000,  0.0000)
   4 Li     4.851111    4.851111   10.000000    ( 0.0000,  0.0000,  0.0000)
   5 Li     8.085185    4.851111   10.000000    ( 0.0000,  0.0000,  0.0000)
   6 Li     1.617037    8.085185   10.000000    ( 0.0000,  0.0000,  0.0000)
   7 Li     4.851111    8.085185   10.000000    ( 0.0000,  0.0000,  0.0000)
   8 Li     8.085185    8.085185   10.000000    ( 0.0000,  0.0000,  0.0000)
   9 Li     0.000000    0.000000   11.617037    ( 0.0000,  0.0000,  0.0000)
  10 Li     3.234074    0.000000   11.617037    ( 0.0000,  0.0000,  0.0000)
  11 Li     6.468148    0.000000   11.617037    ( 0.0000,  0.0000,  0.0000)
  12 Li     0.000000    3.234074   11.617037    ( 0.0000,  0.0000,  0.0000)
  13 Li     3.234074    3.234074   11.617037    ( 0.0000,  0.0000,  0.0000)
  14 Li     6.468148    3.234074   11.617037    ( 0.0000,  0.0000,  0.0000)
  15 Li     0.000000    6.468148   11.617037    ( 0.0000,  0.0000,  0.0000)
  16 Li     3.234074    6.468148   11.617037    ( 0.0000,  0.0000,  0.0000)
  17 Li     6.468148    6.468148   11.617037    ( 0.0000,  0.0000,  0.0000)
  18 Li     1.617092    1.616992   13.468225    ( 0.0000,  0.0000,  0.0000)
  19 Li     4.849630    1.616978   13.470690    ( 0.0000,  0.0000,  0.0000)
  20 Li     8.085359    1.617017   13.459740    ( 0.0000,  0.0000,  0.0000)
  21 Li     1.615290    4.849721   13.473172    ( 0.0000,  0.0000,  0.0000)
  22 Li     4.851666    4.850649   13.472959    ( 0.0000,  0.0000,  0.0000)
  23 Li     8.085189    4.851752   13.470853    ( 0.0000,  0.0000,  0.0000)
  24 Li     1.615266    8.086616   13.473290    ( 0.0000,  0.0000,  0.0000)
[...]
iter:   2 19:40:48  -257.380790  -1.69  -1.81
iter:   3 19:43:12  -257.374911c -2.38  -2.03
iter:   4 19:45:42  -257.374002c -2.82  -2.34
Writing to output.gpw (mode='')

iter:   5 19:48:17  -257.372368c -2.51  -2.43
iter:   6 19:50:42  -257.371965c -2.49  -2.64
iter:   7 19:53:17  -257.371949c -2.91  -2.84
iter:   8 19:55:52  -257.372014c -3.45  -2.95
iter:   9 19:58:18  -257.372087c -3.62  -3.05
Writing to output.gpw (mode='')

iter:  10 20:00:48  -257.372095c -3.78  -3.18
iter:  11 20:03:19  -257.372090c -4.23  -3.29
iter:  12 20:05:49  -257.372044c -4.40  -3.33
iter:  13 20:08:29  -257.372037c -4.54  -3.50
iter:  14 20:10:58  -257.372038c -4.86  -3.68
Writing to output.gpw (mode='')

iter:  15 20:13:25  -257.372035c -4.96  -3.69
iter:  16 20:15:52  -257.372037c -5.09  -3.84
iter:  17 20:18:20  -257.372044c -5.43  -3.91
iter:  18 20:20:49  -257.372052c -5.48  -4.04c
iter:  19 20:23:35  -257.372055c -5.54  -4.23c
Writing to output.gpw (mode='')

iter:  20 20:26:20  -257.372050c -6.07  -4.22c
iter:  21 20:28:48  -257.372049c -6.18  -4.40c
iter:  22 20:31:21  -257.372047c -6.13  -4.48c
iter:  23 20:33:59  -257.372047c -6.33  -4.63c
iter:  24 20:36:27  -257.372046c -6.54  -4.73c
Writing to output.gpw (mode='')

iter:  25 20:39:02  -257.372047c -6.72  -4.78c
iter:  26 20:41:40  -257.372047c -6.84  -4.87c
iter:  27 20:44:15  -257.372047c -7.00  -5.08c
iter:  28 20:46:43  -257.372048c -6.89  -5.12c
iter:  29 20:49:13  -257.372048c -7.11  -5.21c
Writing to output.gpw (mode='')

iter:  30 20:51:40  -257.372048c -7.19  -5.24c
iter:  31 20:54:11  -257.372048c -7.46c -5.30c

Converged after 31 iterations.

Dipole moment: (4.025436, 2.902423, -0.328357) |e|*Ang

Energy contributions relative to reference atoms: (reference = -10970.764591)

Kinetic:       +109.007769
Potential:      -98.514493
External:        +0.000000
XC:            -268.137603
Entropy (-ST):   -0.159742
Local:           +0.352149
--------------------------
Free energy:   -257.451919
Extrapolated:  -257.372048

Dipole-layer corrected work functions: 3.427086, 4.058302 eV

Showing only first 2 kpts
 Kpt  Band  Eigenvalues  Occupancy
  0    24     -3.92640    1.95051
  0    25     -3.79559    1.48458
  0    26     -3.68249    0.46152
  0    27     -3.54857    0.04037

  1    24     -3.97625    1.98145
  1    25     -3.80778    1.57226
  1    26     -3.65951    0.31855
  1    27     -3.57160    0.06324


Fermi level: -3.74269

Gap: 0.033 eV
Transition (v -> c):
  (s=0, k=2, n=25, [0.12, 0.12, 0.00]) -> (s=0, k=4, n=26, [0.38, -0.38, 0.00])
Writing to output.gpw (mode='')


Forces in eV/Ang:
  0 Li   -0.00906    0.01054   -0.27779
  1 Li   -0.01140    0.00972   -0.28014
  2 Li    0.00577    0.01975   -0.25703
  3 Li    0.02311    0.01742   -0.29365
  4 Li   -0.00364    0.02056   -0.30103
  5 Li    0.01076    0.00238   -0.26217
  6 Li    0.02395   -0.00348   -0.29169
  7 Li    0.00277   -0.00426   -0.28192
  8 Li    0.00733   -0.00604   -0.27772
  9 Li   -0.01088    0.00607    0.35220
 10 Li    0.02198    0.00684    0.33442
 11 Li    0.01927    0.01855    0.34456
 12 Li    0.08177    0.04137    0.15098
 13 Li   -0.01895   -0.03342    0.29042
 14 Li   -0.00690   -0.01446    0.27044
 15 Li   -0.01446   -0.05991    0.28224
 16 Li   -0.02546   -0.05791    0.35577
 17 Li   -0.07662   -0.07889    0.26789
 18 Li   -0.04881   -0.04640   -0.00626
 19 Li   -0.03740   -0.03724   -0.03951
 20 Li    0.01168   -0.02719    0.12839
 21 Li    0.02566    0.02320   -0.03323
 22 Li   -0.01852   -0.02067    0.00754
 23 Li   -0.00961   -0.01080   -0.01229
 24 Li   -0.03085    0.01502    0.00959
 25 Li    0.03829    0.02581   -0.01141
 26 Li   -0.03583   -0.02090   -0.05956
 27 Li    0.16164    0.06235    0.04005
 28 Li    0.03689    0.03219   -0.02593
 29 Li   -0.00205    0.19237    0.04664
 30 Li   -0.14257   -0.03930    0.14338
 31 Li    0.02045   -0.01243   -0.01474
 32 Li    0.13464   -0.07229    0.09377
 33 Li    0.02771   -0.01972    0.01215
 34 Li   -0.00986   -0.02312    0.00859
 35 Li    0.00083    0.05172    0.01307
 36 B     0.28489   -0.00856   -0.53001
 37 H     0.16928   -0.15931   -0.08422
 38 H    -0.33557    0.46301    0.14148
 39 H    -0.12444   -0.03745    0.25985
 40 N    -0.18305    0.01618    0.37946
 41 N     0.01045   -0.20415   -0.57451

System changes: positions 

Initializing position-dependent things.

Density initialized from wave functions
       .-----------------------.  
      /|                       |  
     / |                       |  
    /  |                       |  
   /   |                       |  
  /    |                       |  
 *     |                       |  
 |     |                       |  
 |     |                       |  
 |     |                       |  
 |     |                       |  
 |     |                       |  
 |     |                       |  
 |     |       Li      Li     Li  
 |     |            H          |  
 |     |     Li      HB  H   Li|  
 |     |                       |  
 |     |  LLi     LLiN    Li   |  
 |     |Li            N        |  
 |     |        Li      Li     |  
 |   LLi     LLi     Li        |  
 |     |  Li      Li  Li  Li   |  
 | Li  |   Li      Li          |  
 |     |Li      Li      Li     |  
 Li    | Li      Li            |  
 |    Li      Li      Li       |  
 |     |                       |  
 |     |                       |  
 |     |                       |  
 |     |                       |  
 |     |                       |  
 |     |                       |  
 |     .-----------------------.  
 |    /                       /   
 |   /                       /    
 |  /                       /     
 | /                       /      
 |/                       /       
 *-----------------------*        

Positions:
   0 Li     1.617037    1.617037   10.000000    ( 0.0000,  0.0000,  0.0000)
   1 Li     4.851111    1.617037   10.000000    ( 0.0000,  0.0000,  0.0000)
   2 Li     8.085185    1.617037   10.000000    ( 0.0000,  0.0000,  0.0000)
   3 Li     1.617037    4.851111   10.000000    ( 0.0000,  0.0000,  0.0000)
   4 Li     4.851111    4.851111   10.000000    ( 0.0000,  0.0000,  0.0000)
   5 Li     8.085185    4.851111   10.000000    ( 0.0000,  0.0000,  0.0000)
   6 Li     1.617037    8.085185   10.000000    ( 0.0000,  0.0000,  0.0000)
   7 Li     4.851111    8.085185   10.000000    ( 0.0000,  0.0000,  0.0000)
   8 Li     8.085185    8.085185   10.000000    ( 0.0000,  0.0000,  0.0000)
   9 Li     0.000000    0.000000   11.617037    ( 0.0000,  0.0000,  0.0000)
  10 Li     3.234074    0.000000   11.617037    ( 0.0000,  0.0000,  0.0000)
  11 Li     6.468148    0.000000   11.617037    ( 0.0000,  0.0000,  0.0000)
  12 Li     0.000000    3.234074   11.617037    ( 0.0000,  0.0000,  0.0000)
  13 Li     3.234074    3.234074   11.617037    ( 0.0000,  0.0000,  0.0000)
  14 Li     6.468148    3.234074   11.617037    ( 0.0000,  0.0000,  0.0000)
  15 Li     0.000000    6.468148   11.617037    ( 0.0000,  0.0000,  0.0000)
  16 Li     3.234074    6.468148   11.617037    ( 0.0000,  0.0000,  0.0000)
  17 Li     6.468148    6.468148   11.617037    ( 0.0000,  0.0000,  0.0000)
  18 Li     1.661772    1.682506   13.601022    ( 0.0000,  0.0000,  0.0000)
  19 Li     4.852695    1.583989   13.623288    ( 0.0000,  0.0000,  0.0000)
  20 Li     8.201495    1.775356   13.485382    ( 0.0000,  0.0000,  0.0000)
  21 Li     1.519683    4.801311   13.642990    ( 0.0000,  0.0000,  0.0000)
  22 Li     4.825339    4.738434   13.541770    ( 0.0000,  0.0000,  0.0000)
  23 Li     8.097561    4.783994   13.580842    ( 0.0000,  0.0000,  0.0000)
  24 Li     1.569846    8.080254   13.521422    ( 0.0000,  0.0000,  0.0000)
  25 Li     4.815703    8.032549   13.600734    ( 0.0000,  0.0000,  0.0000)
  26 Li     8.006713    7.904383   13.497035    ( 0.0000,  0.0000,  0.0000)
  27 Li    -0.544562   -0.026571   15.411546    ( 0.0000,  0.0000,  0.0000)
  28 Li     3.059301   -0.069528   15.592329    ( 0.0000,  0.0000,  0.0000)
  29 Li     6.528673   -0.437706   15.914867    ( 0.0000,  0.0000,  0.0000)
  30 Li    -0.306187    3.083129   16.069566    ( 0.0000,  0.0000,  0.0000)
  31 Li     3.180673    3.326101   15.626085    ( 0.0000,  0.0000,  0.0000)
  32 Li     6.491228    2.772554   15.861833    ( 0.0000,  0.0000,  0.0000)
  33 Li    -0.009220    6.581167   15.533180    ( 0.0000,  0.0000,  0.0000)
  34 Li     3.241429    6.493952   15.498447    ( 0.0000,  0.0000,  0.0000)
  35 Li     6.402930    6.152859   15.511834    ( 0.0000,  0.0000,  0.0000)
  36 B      7.848152    1.905249   17.740437    ( 0.0000,  0.0000,  0.0000)
  37 H      9.042102    2.133127   18.004338    ( 0.0000,  0.0000,  0.0000)
  38 H      7.465998    3.035805   17.394286    ( 0.0000,  0.0000,  0.0000)
  39 H      7.257220    1.433430   18.660487    ( 0.0000,  0.0000,  0.0000)
  40 N      7.739213    1.052490   16.434545    ( 0.0000,  0.0000,  0.0000)
  41 N      8.130855    1.662008   15.334338    ( 0.0000,  0.0000,  0.0000)

Unit cell:
           periodic     x           y           z      points  spacing
  1. axis:    yes    9.702222    0.000000    0.000000    60     0.1617
  2. axis:    yes    0.000000    9.702222    0.000000    60     0.1617
  3. axis:    no     0.000000    0.000000   26.351111   164     0.1607

  Lengths:   9.702222   9.702222  26.351111
  Angles:   90.000000  90.000000  90.000000

Effective grid spacing dv^(1/3) = 0.1614

     iter     time        total  log10-change:
                         energy  eigst   dens
iter:   1 20:57:17  -257.401846  -1.06
iter:   2 20:59:45  -257.387563  -1.67  -1.79
iter:   3 21:02:13  -257.381301c -2.37  -2.01
iter:   4 21:04:39  -257.380046c -2.82  -2.32
Writing to output.gpw (mode='')

iter:   5 21:07:05  -257.378403c -2.51  -2.43
iter:   6 21:09:39  -257.377929c -2.45  -2.62
iter:   7 21:12:00  -257.377904c -2.90  -2.83
iter:   8 21:14:31  -257.377972c -3.36  -2.95
iter:   9 21:16:53  -257.378028c -3.57  -3.03
Writing to output.gpw (mode='')

iter:  10 21:19:25  -257.378065c -3.72  -3.12
iter:  11 21:21:50  -257.378048c -4.29  -3.25
iter:  12 21:24:15  -257.377960c -4.13  -3.30
iter:  13 21:26:48  -257.377970c -4.72  -3.46
iter:  14 21:29:16  -257.378011c -4.76  -3.58
Writing to output.gpw (mode='')

iter:  15 21:31:43  -257.378000c -5.13  -3.73
iter:  16 21:34:08  -257.378000c -5.26  -3.71
iter:  17 21:36:39  -257.377996c -5.33  -3.76
iter:  18 21:39:10  -257.377992c -5.29  -3.80
iter:  19 21:41:36  -257.378007c -5.23  -3.97
Writing to output.gpw (mode='')

iter:  20 21:44:06  -257.378005c -5.78  -4.04c
iter:  21 21:46:42  -257.378003c -5.81  -4.11c
iter:  22 21:49:13  -257.378008c -5.92  -4.33c
iter:  23 21:51:40  -257.378005c -6.46  -4.38c
iter:  24 21:54:05  -257.378001c -6.26  -4.49c
Writing to output.gpw (mode='')

iter:  25 21:56:40  -257.378002c -6.49  -4.58c
iter:  26 21:59:08  -257.378005c -6.65  -4.66c
iter:  27 22:01:36  -257.378001c -6.57  -4.74c
iter:  28 22:04:12  -257.378003c -7.20  -4.93c
iter:  29 22:06:45  -257.378003c -7.04  -5.04c
Writing to output.gpw (mode='')

iter:  30 22:09:07  -257.378003c -6.98  -5.09c
iter:  31 22:11:36  -257.378003c -7.33  -5.19c
iter:  32 22:14:07  -257.378003c -7.40c -5.23c

Converged after 32 iterations.

Dipole moment: (4.139081, 2.908426, -0.321435) |e|*Ang

Energy contributions relative to reference atoms: (reference = -10970.764591)

Kinetic:       +108.940904
Potential:      -98.459446
External:        +0.000000
XC:            -268.131751
Entropy (-ST):   -0.159997
Local:           +0.352288
--------------------------
Free energy:   -257.458002
Extrapolated:  -257.378003

Dipole-layer corrected work functions: 3.426854, 4.044762 eV

Showing only first 2 kpts
 Kpt  Band  Eigenvalues  Occupancy
  0    24     -3.91951    1.95051
  0    25     -3.78763    1.47629
  0    26     -3.67526    0.45907
  0    27     -3.54243    0.04096

  1    24     -3.96859    1.98116
  1    25     -3.80331    1.58827
  1    26     -3.65333    0.32234
  1    27     -3.56598    0.06480


Fermi level: -3.73581

Gap: 0.036 eV
Transition (v -> c):
  (s=0, k=2, n=25, [0.12, 0.12, 0.00]) -> (s=0, k=4, n=26, [0.38, -0.38, 0.00])
Writing to output.gpw (mode='')


Forces in eV/Ang:
  0 Li   -0.00850    0.01091   -0.27820
  1 Li   -0.01144    0.01004   -0.28049
  2 Li    0.00593    0.01944   -0.25704
  3 Li    0.02316    0.01737   -0.29409
  4 Li   -0.00326    0.02073   -0.30086
  5 Li    0.01117    0.00210   -0.26340
  6 Li    0.02412   -0.00320   -0.29184
  7 Li    0.00284   -0.00409   -0.28182
  8 Li    0.00750   -0.00607   -0.27810
  9 Li   -0.01014    0.00614    0.35225
 10 Li    0.01970    0.00638    0.33475
 11 Li    0.01898    0.01813    0.34468
 12 Li    0.08038    0.04088    0.14992
 13 Li   -0.02153   -0.03473    0.28959
 14 Li   -0.00670   -0.01379    0.27117
 15 Li   -0.01722   -0.05856    0.28733
 16 Li   -0.02875   -0.06003    0.35559
 17 Li   -0.07246   -0.07768    0.27472
 18 Li   -0.05153   -0.05005   -0.00575
 19 Li   -0.04215   -0.03967   -0.04070
 20 Li    0.01209   -0.02690    0.11730
 21 Li    0.02921    0.02780   -0.03632
 22 Li   -0.01929   -0.02048    0.00837
 23 Li   -0.01171   -0.01219   -0.01540
 24 Li   -0.03463    0.01551    0.00727
 25 Li    0.04341    0.02998   -0.00968
 26 Li   -0.04013   -0.03081   -0.07018
 27 Li    0.17062    0.06243    0.03462
 28 Li    0.04019    0.03181   -0.02632
 29 Li    0.00217    0.19215    0.04484
 30 Li   -0.15533   -0.03888    0.14248
 31 Li    0.02115   -0.01096   -0.01420
 32 Li    0.16891   -0.06936    0.10750
 33 Li    0.03065   -0.01776    0.01487
 34 Li   -0.01198   -0.02581    0.01080
 35 Li    0.00075    0.05731    0.01418
 36 B     0.30870   -0.02287   -0.53435
 37 H     0.15220   -0.17169   -0.09746
 38 H    -0.33002    0.46979    0.14000
 39 H    -0.13330   -0.03608    0.27690
 40 N    -0.21388    0.03594    0.41656
 41 N     0.06164   -0.24522   -0.62449

System changes: positions 

Initializing position-dependent things.

Density initialized from wave functions
       .-----------------------.  
      /|                       |  
     / |                       |  
    /  |                       |  
   /   |                       |  
  /    |                       |  
 *     |                       |  
 |     |                       |  
 |     |                       |  
 |     |                       |  
 |     |                       |  
 |     |                       |  
 |     |                       |  
 |     |       Li      Li     Li  
 |     |            H          |  
 |     |     Li      HB  H   Li|  
 |     |                       |  
 |     |  LLi     LLiN    Li   |  
 |     |Li            N        |  
 |     |        Li      Li     |  
 |   LLi     LLi     Li        |  
 |     |  Li      Li  Li  Li   |  
 | Li  |   Li      Li          |  
 |     |Li      Li      Li     |  
 Li    | Li      Li            |  
 |    Li      Li      Li       |  
 |     |                       |  
 |     |                       |  
 |     |                       |  
 |     |                       |  
 |     |                       |  
 |     |                       |  
 |     .-----------------------.  
 |    /                       /   
 |   /                       /    
 |  /                       /     
 | /                       /      
 |/                       /       
 *-----------------------*        

Positions:
   0 Li     1.617037    1.617037   10.000000    ( 0.0000,  0.0000,  0.0000)
   1 Li     4.851111    1.617037   10.000000    ( 0.0000,  0.0000,  0.0000)
   2 Li     8.085185    1.617037   10.000000    ( 0.0000,  0.0000,  0.0000)
   3 Li     1.617037    4.851111   10.000000    ( 0.0000,  0.0000,  0.0000)
   4 Li     4.851111    4.851111   10.000000    ( 0.0000,  0.0000,  0.0000)
   5 Li     8.085185    4.851111   10.000000    ( 0.0000,  0.0000,  0.0000)
   6 Li     1.617037    8.085185   10.000000    ( 0.0000,  0.0000,  0.0000)
   7 Li     4.851111    8.085185   10.000000    ( 0.0000,  0.0000,  0.0000)
   8 Li     8.085185    8.085185   10.000000    ( 0.0000,  0.0000,  0.0000)
   9 Li     0.000000    0.000000   11.617037    ( 0.0000,  0.0000,  0.0000)
  10 Li     3.234074    0.000000   11.617037    ( 0.0000,  0.0000,  0.0000)
  11 Li     6.468148    0.000000   11.617037    ( 0.0000,  0.0000,  0.0000)
  12 Li     0.000000    3.234074   11.617037    ( 0.0000,  0.0000,  0.0000)
  13 Li     3.234074    3.234074   11.617037    ( 0.0000,  0.0000,  0.0000)
  14 Li     6.468148    3.234074   11.617037    ( 0.0000,  0.0000,  0.0000)
  15 Li     0.000000    6.468148   11.617037    ( 0.0000,  0.0000,  0.0000)
  16 Li     3.234074    6.468148   11.617037    ( 0.0000,  0.0000,  0.0000)
  17 Li     6.468148    6.468148   11.617037    ( 0.0000,  0.0000,  0.0000)
  18 Li     1.659305    1.684103   13.601929    ( 0.0000,  0.0000,  0.0000)
  19 Li     4.850981    1.582483   13.621265    ( 0.0000,  0.0000,  0.0000)
  20 Li     8.200309    1.776021   13.485948    ( 0.0000,  0.0000,  0.0000)
  21 Li     1.515543    4.797733   13.646839    ( 0.0000,  0.0000,  0.0000)
  22 Li     4.821816    4.735549   13.542134    ( 0.0000,  0.0000,  0.0000)
  23 Li     8.098896    4.781810   13.584616    ( 0.0000,  0.0000,  0.0000)
  24 Li     1.570005    8.079560   13.524700    ( 0.0000,  0.0000,  0.0000)
  25 Li     4.811383    8.028786   13.599399    ( 0.0000,  0.0000,  0.0000)
  26 Li     8.007481    7.910631   13.503374    ( 0.0000,  0.0000,  0.0000)
  27 Li    -0.551672   -0.028361   15.421650    ( 0.0000,  0.0000,  0.0000)
  28 Li     3.054291   -0.067338   15.593526    ( 0.0000,  0.0000,  0.0000)
  29 Li     6.518409   -0.434513   15.915306    ( 0.0000,  0.0000,  0.0000)
  30 Li    -0.323541    3.073497   16.090006    ( 0.0000,  0.0000,  0.0000)
  31 Li     3.176642    3.324573   15.627953    ( 0.0000,  0.0000,  0.0000)
  32 Li     6.469793    2.762261   15.853538    ( 0.0000,  0.0000,  0.0000)
  33 Li    -0.010355    6.579503   15.533859    ( 0.0000,  0.0000,  0.0000)
  34 Li     3.243117    6.495393   15.498840    ( 0.0000,  0.0000,  0.0000)
  35 Li     6.401813    6.146894   15.512521    ( 0.0000,  0.0000,  0.0000)
  36 B      7.851747    1.916806   17.731294    ( 0.0000,  0.0000,  0.0000)
  37 H      9.049790    2.131871   17.996617    ( 0.0000,  0.0000,  0.0000)
  38 H      7.491702    3.051024   17.367683    ( 0.0000,  0.0000,  0.0000)
  39 H      7.253987    1.468109   18.657279    ( 0.0000,  0.0000,  0.0000)
  40 N      7.731944    1.053151   16.434745    ( 0.0000,  0.0000,  0.0000)
  41 N      8.119457    1.655652   15.328653    ( 0.0000,  0.0000,  0.0000)

Unit cell:
           periodic     x           y           z      points  spacing
  1. axis:    yes    9.702222    0.000000    0.000000    60     0.1617
  2. axis:    yes    0.000000    9.702222    0.000000    60     0.1617
  3. axis:    no     0.000000    0.000000   26.351111   164     0.1607

  Lengths:   9.702222   9.702222  26.351111
  Angles:   90.000000  90.000000  90.000000

Effective grid spacing dv^(1/3) = 0.1614

     iter     time        total  log10-change:
                         energy  eigst   dens
iter:   1 22:17:07  -257.406034  -1.06
iter:   2 22:19:36  -257.393398  -1.68  -1.82
iter:   3 22:22:05  -257.387799c -2.36  -2.03
iter:   4 22:24:45  -257.386580c -2.80  -2.32
Writing to output.gpw (mode='')

iter:   5 22:27:18  -257.384874c -2.49  -2.43
iter:   6 22:29:48  -257.384448c -2.44  -2.63
iter:   7 22:32:22  -257.384408c -2.96  -2.81
iter:   8 22:34:44  -257.384470c -3.32  -2.95
iter:   9 22:37:16  -257.384513c -3.54  -3.02
Writing to output.gpw (mode='')

iter:  10 22:39:43  -257.384575c -3.71  -3.11
iter:  11 22:42:14  -257.384545c -4.30  -3.20
iter:  12 22:44:45  -257.384444c -3.95  -3.27
iter:  13 22:47:15  -257.384453c -4.55  -3.46
iter:  14 22:49:49  -257.384498c -4.73  -3.53
Writing to output.gpw (mode='')

iter:  15 22:52:18  -257.384482c -5.29  -3.70
iter:  16 22:54:42  -257.384475c -4.96  -3.72
iter:  17 22:57:13  -257.384505c -5.01  -3.81
iter:  18 22:59:39  -257.384501c -5.66  -4.00c
iter:  19 23:02:10  -257.384489c -5.55  -4.09c
