
  ___ ___ ___ _ _ _  
 |   |   |_  | | | | 
 | | | | | . | | | | 
 |__ |  _|___|_____|  22.8.0
 |___|_|             

User:   vazumah@c11.hercules
Date:   Wed Jan 18 02:41:01 2023
Arch:   x86_64
Pid:    8004
CWD:    /home/vazumah/Python_projects/LiNRR/Li_adsorb_studies/autocat/close_proximity_proton_donors/adsorbates/HF/bridge/8.085_1.617
Python: 3.10.8
gpaw:   /home/vazumah/.conda/envs/GPAW/lib/python3.10/site-packages/gpaw
_gpaw:  /home/vazumah/.conda/envs/GPAW/lib/python3.10/site-packages/
        _gpaw.cpython-310-x86_64-linux-gnu.so
ase:    /home/vazumah/.conda/envs/GPAW/lib/python3.10/site-packages/ase (version 3.22.1)
numpy:  /home/vazumah/.conda/envs/GPAW/lib/python3.10/site-packages/numpy (version 1.24.1)
scipy:  /home/vazumah/.conda/envs/GPAW/lib/python3.10/site-packages/scipy (version 1.10.0)
libxc:  5.2.3
units:  Angstrom and eV
cores: 24
OpenMP: True
OMP_NUM_THREADS: 1

Input parameters:
  h: 0.16
  kpts: {size: [4, 4, 1]}
  occupations: {name: fermi-dirac,
                width: 0.05}
  poissonsolver: {dipolelayer: xy}
  xc: BEEF-vdW

System changes: positions, numbers, cell, pbc, initial_charges, initial_magmoms 

Initialize ...

species:
  Li:
    name: Lithium
    id: 830b4218f175192f93f959cfc0aad614
    Z: 3.0
    valence: 1
    core: 2
    charge: 0.0
    file: /home/vazumah/.conda/envs/GPAW/share/gpaw/Li.PBE.gz
    compensation charges: {type: gauss,
                           rc: 0.33,
                           lmax: 2}
    cutoffs: {filter: 1.91,
              core: 2.55}
    valence states:
      #              energy  rcut
      - 2s(1.00)    -2.874   1.058
      - 2p(0.00)    -1.090   1.058
      -  s          24.337   1.058
  
    # Using partial waves for Li as LCAO basis

  F:
    name: Fluorine
    id: 9cd46ba2a61e170ad72278be75b55cc0
    Z: 9.0
    valence: 7
    core: 2
    charge: 0.0
    file: /home/vazumah/.conda/envs/GPAW/share/gpaw/F.PBE.gz
    compensation charges: {type: gauss,
                           rc: 0.20,
                           lmax: 2}
    cutoffs: {filter: 1.14,
              core: 0.74}
    valence states:
      #              energy  rcut
      - 2s(2.00)   -29.898   0.635
      - 2p(5.00)   -11.110   0.635
      -  s          -2.687   0.635
      -  p          16.102   0.635
      -  d           0.000   0.635
  
    # Using partial waves for F as LCAO basis

  H:
    name: Hydrogen
    id: d65de229564ff8ea4db303e23b6d1ecf
    Z: 1.0
    valence: 1
    core: 0
    charge: 0.0
    file: /home/vazumah/.conda/envs/GPAW/share/gpaw/H.PBE.gz
    compensation charges: {type: gauss,
                           rc: 0.15,
                           lmax: 2}
    cutoffs: {filter: 0.85,
              core: 0.53}
    valence states:
      #              energy  rcut
      - 1s(1.00)    -6.494   0.476
      -  s          20.717   0.476
      -  p           0.000   0.476
  
    # Using partial waves for H as LCAO basis

Reference energy: -10026.932476  # eV

Spin-paired calculation

Convergence criteria:
 Maximum [total energy] change in last 3 cyles: 0.0005 eV / electron
 Maximum integral of absolute [dens]ity change: 0.0001 electrons / valence electron
 Maximum integral of absolute [eigenst]ate change: 4e-08 eV^2 / valence electron
 Maximum number of scf [iter]ations: 333
 (Square brackets indicate name in SCF output, whereas a 'c' in
 the SCF output indicates the quantity has converged.)

Symmetries present (total): 1

  ( 1  0  0)
  ( 0  1  0)
  ( 0  0  1)

16 k-points: 4 x 4 x 1 Monkhorst-Pack grid
8 k-points in the irreducible part of the Brillouin zone
       k-points in crystal coordinates                weights
   0:     0.12500000   -0.37500000    0.00000000          2/16
   1:     0.12500000   -0.12500000    0.00000000          2/16
   2:     0.12500000    0.12500000    0.00000000          2/16
   3:     0.12500000    0.37500000    0.00000000          2/16
   4:     0.37500000   -0.37500000    0.00000000          2/16
   5:     0.37500000   -0.12500000    0.00000000          2/16
   6:     0.37500000    0.12500000    0.00000000          2/16
   7:     0.37500000    0.37500000    0.00000000          2/16

Wave functions: Uniform real-space grid
  Kinetic energy operator: 6*3+1=19 point O(h^6) finite-difference Laplacian
  ScaLapack parameters: grid=1x1, blocksize=None
  Wavefunction extrapolation:
    Improved wavefunction reuse through dual PAW basis 

Occupation numbers: Fermi-Dirac:
  width: 0.0500  # eV
 

Eigensolver
   Davidson(niter=2) 

Densities:
  Coarse grid: 60*60*156 grid
  Fine grid: 120*120*312 grid
  Total Charge: 0.000000 

Density mixing:
  Method: separate
  Backend: pulay
  Linear mixing parameter: 0.05
  old densities: 5
  Damping of long wavelength oscillations: 50 

Hamiltonian:
  XC and Coulomb potentials evaluated on a 120*120*312 grid
  Using the BEEF-vdW Exchange-Correlation functional
  Interpolation: tri-quintic (5. degree polynomial)
  Poisson solver: FastPoissonSolver using
    Stencil: 6*3+1=19 point O(h^6) finite-difference Laplacian
    FFT axes: [0, 1]
    FST axes: [2]

Dipole correction along z-axis 

XC parameters: BEEF-vdW with 2 nearest neighbor stencil

Memory estimate:
  Process memory now: 217.34 MiB
  Calculator: 335.97 MiB
    Density: 115.69 MiB
      Arrays: 36.75 MiB
      Localized functions: 64.93 MiB
      Mixer: 14.01 MiB
    Hamiltonian: 29.17 MiB
      Arrays: 24.03 MiB
      XC: 0.00 MiB
      Poisson: 0.00 MiB
      vbar: 5.13 MiB
    Wavefunctions: 191.12 MiB
      Arrays psit_nG: 86.85 MiB
      Eigensolver: 101.00 MiB
      Projections: 0.03 MiB
      Projectors: 3.24 MiB

Total number of cores used: 24
Parallelization over k-points: 8
Domain decomposition: 1 x 1 x 3

Number of atoms: 38
Number of atomic orbitals: 149
Number of bands in calculation: 31
Number of valence electrons: 44
Bands to converge: occupied

... initialized

Initializing position-dependent things.

Density initialized from atomic densities
Creating initial wave functions:
  31 bands from LCAO basis set

       .-----------------------.  
      /|                       |  
     / |                       |  
    /  |                       |  
   /   |                       |  
  /    |                       |  
 *     |                       |  
 |     |                       |  
 |     |                       |  
 |     |                       |  
 |     |                       |  
 |     |                       |  
 |     |                       |  
 |     |              F H      |  
 |   Li|     Li      Li        |  
 |     |  Li      Li      Li   |  
 | Li  |   Li      Li          |  
 |     |Li      Li      Li     |  
 Li    | Li      Li            |  
 |   LLi     LLi     LLi       |  
 |     |  Li      Li      Li   |  
 | Li  |   Li      Li          |  
 |     |Li      Li      Li     |  
 Li    | Li      Li            |  
 |    Li      Li      Li       |  
 |     |                       |  
 |     |                       |  
 |     |                       |  
 |     |                       |  
 |     |                       |  
 |     |                       |  
 |     .-----------------------.  
 |    /                       /   
 |   /                       /    
 |  /                       /     
 | /                       /      
 |/                       /       
 *-----------------------*        

Positions:
   0 Li     1.617037    1.617037   10.000000    ( 0.0000,  0.0000,  0.0000)
   1 Li     4.851111    1.617037   10.000000    ( 0.0000,  0.0000,  0.0000)
   2 Li     8.085185    1.617037   10.000000    ( 0.0000,  0.0000,  0.0000)
   3 Li     1.617037    4.851111   10.000000    ( 0.0000,  0.0000,  0.0000)
   4 Li     4.851111    4.851111   10.000000    ( 0.0000,  0.0000,  0.0000)
   5 Li     8.085185    4.851111   10.000000    ( 0.0000,  0.0000,  0.0000)
   6 Li     1.617037    8.085185   10.000000    ( 0.0000,  0.0000,  0.0000)
   7 Li     4.851111    8.085185   10.000000    ( 0.0000,  0.0000,  0.0000)
   8 Li     8.085185    8.085185   10.000000    ( 0.0000,  0.0000,  0.0000)
   9 Li     0.000000    0.000000   11.617037    ( 0.0000,  0.0000,  0.0000)
  10 Li     3.234074    0.000000   11.617037    ( 0.0000,  0.0000,  0.0000)
  11 Li     6.468148    0.000000   11.617037    ( 0.0000,  0.0000,  0.0000)
  12 Li     0.000000    3.234074   11.617037    ( 0.0000,  0.0000,  0.0000)
  13 Li     3.234074    3.234074   11.617037    ( 0.0000,  0.0000,  0.0000)
  14 Li     6.468148    3.234074   11.617037    ( 0.0000,  0.0000,  0.0000)
  15 Li     0.000000    6.468148   11.617037    ( 0.0000,  0.0000,  0.0000)
  16 Li     3.234074    6.468148   11.617037    ( 0.0000,  0.0000,  0.0000)
  17 Li     6.468148    6.468148   11.617037    ( 0.0000,  0.0000,  0.0000)
  18 Li     1.617038    1.617038   13.469728    ( 0.0000,  0.0000,  0.0000)
  19 Li     4.851111    1.617038   13.469729    ( 0.0000,  0.0000,  0.0000)
  20 Li     8.085184    1.617038   13.469728    ( 0.0000,  0.0000,  0.0000)
  21 Li     1.617038    4.851111   13.469729    ( 0.0000,  0.0000,  0.0000)
  22 Li     4.851111    4.851111   13.469730    ( 0.0000,  0.0000,  0.0000)
  23 Li     8.085184    4.851111   13.469729    ( 0.0000,  0.0000,  0.0000)
  24 Li     1.617038    8.085184   13.469728    ( 0.0000,  0.0000,  0.0000)
  25 Li     4.851111    8.085184   13.469729    ( 0.0000,  0.0000,  0.0000)
  26 Li     8.085184    8.085184   13.469728    ( 0.0000,  0.0000,  0.0000)
  27 Li    -0.000000   -0.000000   15.445939    ( 0.0000,  0.0000,  0.0000)
  28 Li     3.234074    0.000000   15.445939    ( 0.0000,  0.0000,  0.0000)
  29 Li     6.468148    0.000000   15.445939    ( 0.0000,  0.0000,  0.0000)
  30 Li     0.000000    3.234074   15.445939    ( 0.0000,  0.0000,  0.0000)
  31 Li     3.234076    3.234076   15.445938    ( 0.0000,  0.0000,  0.0000)
  32 Li     6.468146    3.234076   15.445938    ( 0.0000,  0.0000,  0.0000)
  33 Li     0.000000    6.468148   15.445939    ( 0.0000,  0.0000,  0.0000)
  34 Li     3.234076    6.468146   15.445938    ( 0.0000,  0.0000,  0.0000)
  35 Li     6.468146    6.468146   15.445938    ( 0.0000,  0.0000,  0.0000)
  36 F      8.085185    1.617037   18.445939    ( 0.0000,  0.0000,  0.0000)
  37 H      9.085185    1.617037   18.445939    ( 0.0000,  0.0000,  0.0000)

Unit cell:
           periodic     x           y           z      points  spacing
  1. axis:    yes    9.702222    0.000000    0.000000    60     0.1617
  2. axis:    yes    0.000000    9.702222    0.000000    60     0.1617
  3. axis:    no     0.000000    0.000000   24.851111   156     0.1593

  Lengths:   9.702222   9.702222  24.851111
  Angles:   90.000000  90.000000  90.000000

Effective grid spacing dv^(1/3) = 0.1609

     iter     time        total  log10-change:
                         energy  eigst   dens
iter:   1 02:44:02  -259.336552
iter:   2 02:46:19  -198.099756  +1.99  -0.24
iter:   3 02:48:32  -166.241560  +2.08  -0.40
iter:   4 02:50:48  -234.981942  +2.95  -0.48
Writing to output.gpw (mode='')

iter:   5 02:53:00  -224.924507  +2.22  -0.30
iter:   6 02:55:12  -215.707699  +1.91  -0.47
iter:   7 02:57:24  -219.135553  +1.58  -0.86
iter:   8 02:59:42  -221.031345  +0.86  -0.93
iter:   9 03:01:54  -222.664441  +0.46  -0.95
Writing to output.gpw (mode='')

iter:  10 03:04:08  -222.754132  +1.21  -0.90
iter:  11 03:06:18  -223.054785  +0.34  -0.72
iter:  12 03:07:02  -220.452786  +0.72  -0.74
iter:  13 03:07:45  -218.234676  +0.26  -0.75
iter:  14 03:08:29  -217.868469  +0.20  -0.92
Writing to output.gpw (mode='')

iter:  15 03:09:13  -217.514618  +0.67  -0.99
iter:  16 03:09:57  -217.401805  -0.21  -1.08
iter:  17 03:10:53  -217.314557  -0.27  -1.30
iter:  18 03:13:09  -217.330411  -0.04  -1.34
iter:  19 03:15:25  -217.255981  -0.52  -1.40
Writing to output.gpw (mode='')

iter:  20 03:17:52  -217.277557  -0.49  -1.50
iter:  21 03:20:10  -217.274441c -1.07  -1.54
iter:  22 03:22:26  -217.254891  -1.06  -1.54
iter:  23 03:24:41  -217.233817  -1.14  -1.64
iter:  24 03:26:56  -217.232773  -1.54  -1.84
Writing to output.gpw (mode='')

iter:  25 03:29:10  -217.232548c -1.60  -1.85
iter:  26 03:31:23  -217.234283c -1.69  -1.86
iter:  27 03:33:41  -217.228161c -1.80  -1.87
iter:  28 03:35:58  -217.224155c -1.81  -2.05
iter:  29 03:38:15  -217.221923c -1.70  -2.27
Writing to output.gpw (mode='')

iter:  30 03:40:36  -217.220635c -2.25  -2.54
iter:  31 03:43:00  -217.220331c -2.41  -2.51
iter:  32 03:45:15  -217.220961c -2.48  -2.53
iter:  33 03:47:30  -217.220765c -2.62  -2.59
iter:  34 03:49:43  -217.220715c -2.61  -2.74
Writing to output.gpw (mode='')

iter:  35 03:51:59  -217.220765c -3.05  -2.71
iter:  36 03:54:18  -217.221124c -2.93  -2.76
iter:  37 03:56:51  -217.220890c -2.65  -3.02
iter:  38 03:59:12  -217.220791c -3.22  -2.90
iter:  39 04:01:39  -217.220783c -3.34  -3.07
Writing to output.gpw (mode='')

iter:  40 04:04:00  -217.220788c -3.40  -3.13
iter:  41 04:06:21  -217.220789c -3.51  -3.23
iter:  42 04:08:50  -217.220791c -3.66  -3.34
iter:  43 04:11:10  -217.220789c -3.57  -3.42
iter:  44 04:13:32  -217.220793c -3.64  -3.53
Writing to output.gpw (mode='')

iter:  45 04:15:58  -217.220789c -3.72  -3.62
iter:  46 04:18:11  -217.220790c -3.70  -3.61
iter:  47 04:20:30  -217.220785c -3.81  -3.73
iter:  48 04:22:46  -217.220787c -3.91  -3.75
iter:  49 04:25:10  -217.220787c -3.80  -3.79
Writing to output.gpw (mode='')

iter:  50 04:27:37  -217.220785c -3.95  -3.90
iter:  51 04:29:55  -217.220784c -4.08  -3.92
iter:  52 04:32:12  -217.220782c -4.19  -4.20c
iter:  53 04:34:44  -217.220780c -4.23  -4.26c
iter:  54 04:36:57  -217.220778c -4.10  -4.27c
Writing to output.gpw (mode='')

iter:  55 04:39:14  -217.220775c -3.99  -4.32c
iter:  56 04:41:35  -217.220772c -4.18  -4.34c
iter:  57 04:43:55  -217.220769c -4.41  -4.41c
iter:  58 04:46:26  -217.220767c -4.49  -4.53c
iter:  59 04:48:47  -217.220765c -4.58  -4.57c
Writing to output.gpw (mode='')

iter:  60 04:51:12  -217.220764c -4.51  -4.68c
iter:  61 04:53:33  -217.220762c -4.49  -4.80c
iter:  62 04:55:52  -217.220761c -4.66  -4.85c
iter:  63 04:58:09  -217.220759c -4.56  -4.79c
iter:  64 05:00:29  -217.220758c -4.74  -4.74c
Writing to output.gpw (mode='')

iter:  65 05:03:01  -217.220756c -4.84  -4.71c
iter:  66 05:05:21  -217.220755c -4.82  -4.60c
iter:  67 05:07:40  -217.220754c -4.83  -4.59c
iter:  68 05:09:49  -217.220753c -4.82  -4.55c
iter:  69 05:12:11  -217.220752c -4.83  -4.56c
Writing to output.gpw (mode='')

iter:  70 05:14:42  -217.220751c -4.92  -4.53c
iter:  71 05:16:57  -217.220750c -4.91  -4.50c
iter:  72 05:19:11  -217.220750c -5.11  -4.49c
iter:  73 05:21:27  -217.220749c -5.07  -4.48c
iter:  74 05:23:41  -217.220748c -5.11  -4.47c
Writing to output.gpw (mode='')

iter:  75 05:26:06  -217.220747c -5.01  -4.41c
iter:  76 05:28:20  -217.220746c -5.32  -4.43c
iter:  77 05:30:28  -217.220746c -5.41  -4.44c
iter:  78 05:32:38  -217.220745c -5.48  -4.45c
iter:  79 05:35:03  -217.220745c -5.55  -4.46c
Writing to output.gpw (mode='')

iter:  80 05:37:17  -217.220744c -5.51  -4.48c
iter:  81 05:39:35  -217.220744c -5.55  -4.72c
iter:  82 05:42:16  -217.220744c -5.58  -4.78c
iter:  83 05:44:30  -217.220743c -5.64  -4.97c
iter:  84 05:46:52  -217.220743c -5.65  -5.03c
Writing to output.gpw (mode='')

iter:  85 05:49:14  -217.220743c -5.61  -5.09c
iter:  86 05:51:45  -217.220743c -5.77  -5.14c
iter:  87 05:54:05  -217.220743c -5.82  -5.19c
iter:  88 05:56:27  -217.220743c -5.88  -5.23c
iter:  89 05:58:42  -217.220742c -5.97  -5.52c
Writing to output.gpw (mode='')

iter:  90 06:01:03  -217.220742c -6.00  -5.65c
iter:  91 06:03:30  -217.220742c -6.01  -5.70c
iter:  92 06:05:56  -217.220742c -5.99  -5.84c
iter:  93 06:08:14  -217.220742c -6.03  -5.94c
iter:  94 06:10:32  -217.220742c -6.11  -5.97c
Writing to output.gpw (mode='')

iter:  95 06:13:10  -217.220742c -6.12  -5.99c
iter:  96 06:15:30  -217.220742c -6.17  -5.99c
iter:  97 06:17:52  -217.220741c -6.20  -5.96c
iter:  98 06:20:10  -217.220741c -6.31  -5.89c
iter:  99 06:22:24  -217.220741c -6.24  -5.86c
Writing to output.gpw (mode='')

iter: 100 06:24:42  -217.220741c -6.38  -5.80c
iter: 101 06:27:02  -217.220741c -6.41  -5.76c
iter: 102 06:29:18  -217.220741c -6.43  -5.73c
iter: 103 06:31:44  -217.220741c -6.42  -5.68c
iter: 104 06:33:59  -217.220741c -6.52  -5.65c
Writing to output.gpw (mode='')

iter: 105 06:36:21  -217.220741c -6.58  -5.62c
iter: 106 06:38:37  -217.220741c -6.49  -5.59c
iter: 107 06:40:59  -217.220741c -6.61  -5.57c
iter: 108 06:43:15  -217.220741c -6.70  -5.55c
iter: 109 06:45:25  -217.220741c -6.75  -5.56c
Writing to output.gpw (mode='')

iter: 110 06:47:38  -217.220741c -6.76  -5.46c
iter: 111 06:49:50  -217.220741c -6.76  -5.50c
iter: 112 06:52:05  -217.220741c -6.78  -5.54c
iter: 113 06:54:22  -217.220741c -6.80  -5.48c
iter: 114 06:56:42  -217.220741c -6.84  -5.56c
Writing to output.gpw (mode='')

iter: 115 06:59:02  -217.220740c -6.89  -5.57c
iter: 116 07:01:24  -217.220740c -6.86  -5.55c
iter: 117 07:03:47  -217.220740c -6.99  -5.52c
iter: 118 07:06:02  -217.220740c -6.97  -5.53c
iter: 119 07:08:26  -217.220740c -7.08  -5.55c
Writing to output.gpw (mode='')

iter: 120 07:10:47  -217.220740c -7.02  -5.57c
iter: 121 07:13:01  -217.220740c -6.93  -5.61c
iter: 122 07:15:22  -217.220740c -7.05  -5.68c
iter: 123 07:17:44  -217.220740c -7.17  -6.04c
iter: 124 07:20:05  -217.220740c -7.20  -6.09c
Writing to output.gpw (mode='')

iter: 125 07:22:27  -217.220740c -7.27  -6.14c
iter: 126 07:24:42  -217.220740c -7.33  -6.25c
iter: 127 07:27:02  -217.220740c -7.38  -6.31c
iter: 128 07:29:18  -217.220740c -7.40c -6.36c

Converged after 128 iterations.

Dipole moment: (-1.688406, -2.774491, -0.038843) |e|*Ang

Energy contributions relative to reference atoms: (reference = -10026.932476)

Kinetic:        +84.267572
Potential:      -73.853464
External:        +0.000000
XC:            -227.470071
Entropy (-ST):   -0.152555
Local:           -0.088500
--------------------------
Free energy:   -217.297018
Extrapolated:  -217.220740

Dipole-layer corrected work functions: 3.377889, 3.452559 eV

Showing only first 2 kpts
 Kpt  Band  Eigenvalues  Occupancy
  0    20     -3.66925    1.98764
  0    21     -3.58370    1.93347
  0    22     -3.25145    0.07284
  0    23     -3.16269    0.01273

  1    20     -3.44132    1.25515
  1    21     -3.41224    0.97021
  1    22     -3.37123    0.58642
  1    23     -3.36474    0.53408


Fermi level: -3.41522

No gap
Writing to output.gpw (mode='')


Forces in eV/Ang:
  0 Li    0.00016    0.00000   -0.27326
  1 Li   -0.00323    0.00000   -0.26996
  2 Li    0.00316    0.00000   -0.27390
  3 Li    0.00002   -0.00168   -0.27251
  4 Li    0.00206    0.00294   -0.27137
  5 Li   -0.00196    0.00360   -0.27304
  6 Li    0.00002    0.00168   -0.27251
  7 Li    0.00206   -0.00294   -0.27137
  8 Li   -0.00196   -0.00360   -0.27304
  9 Li    0.00113   -0.00151    0.26255
 10 Li   -0.00319    0.00206    0.26222
 11 Li    0.00206   -0.00084    0.26531
 12 Li    0.00113    0.00151    0.26255
 13 Li   -0.00319   -0.00206    0.26222
 14 Li    0.00206    0.00084    0.26531
 15 Li   -0.00082   -0.00000    0.26197
 16 Li    0.00605   -0.00000    0.26017
 17 Li   -0.00540   -0.00000    0.25154
 18 Li   -0.00579   -0.00000    0.04887
 19 Li    0.00369   -0.00000    0.03057
 20 Li    0.00146   -0.00000    0.00541
 21 Li    0.00065    0.00349    0.03109
 22 Li    0.00133   -0.00389    0.03963
 23 Li   -0.00219    0.00140    0.03263
 24 Li    0.00065   -0.00349    0.03109
 25 Li    0.00133    0.00390    0.03963
 26 Li   -0.00219   -0.00140    0.03264
 27 Li    0.01849   -0.00613   -0.03427
 28 Li   -0.01519    0.00763   -0.01160
 29 Li    0.00296   -0.00256    0.01590
 30 Li    0.01849    0.00613   -0.03427
 31 Li   -0.01519   -0.00763   -0.01159
 32 Li    0.00296    0.00256    0.01590
 33 Li   -0.00114   -0.00000   -0.02184
 34 Li    0.00194    0.00000   -0.02365
 35 Li   -0.00053    0.00000   -0.02542
 36 F     2.67028   -0.00000   -0.04328
 37 H    -2.68855   -0.00000   -0.06154

System changes: positions 

Initializing position-dependent things.

Density initialized from wave functions
       .-----------------------.  
      /|                       |  
     / |                       |  
    /  |                       |  
   /   |                       |  
  /    |                       |  
 *     |                       |  
 |     |                       |  
 |     |                       |  
 |     |                       |  
 |     |                       |  
 |     |                       |  
 |     Li              Li      |  
 |     |              F H      |  
 |     |     Li      Li      Li|  
 |     |  Li      Li      Li   |  
 | Li  |   Li      Li          |  
 |     |Li      Li      Li     |  
 |     | Li                    |  
 |   LLi     LLi     LLi       |  
 |     |  Li      Li      Li   |  
 | Li  |   Li      Li          |  
 |     |Li      Li      Li     |  
 Li    | Li      Li            |  
 |    Li      Li      Li       |  
 |     |                       |  
 |     |                       |  
 |     |                       |  
 |     |                       |  
 |     |                       |  
 |     |                       |  
 |     .-----------------------.  
 |    /                       /   
 |   /                       /    
 |  /                       /     
 | /                       /      
 |/                       /       
 *-----------------------*        

Positions:
   0 Li     1.617037    1.617037   10.000000    ( 0.0000,  0.0000,  0.0000)
   1 Li     4.851111    1.617037   10.000000    ( 0.0000,  0.0000,  0.0000)
   2 Li     8.085185    1.617037   10.000000    ( 0.0000,  0.0000,  0.0000)
   3 Li     1.617037    4.851111   10.000000    ( 0.0000,  0.0000,  0.0000)
   4 Li     4.851111    4.851111   10.000000    ( 0.0000,  0.0000,  0.0000)
   5 Li     8.085185    4.851111   10.000000    ( 0.0000,  0.0000,  0.0000)
   6 Li     1.617037    8.085185   10.000000    ( 0.0000,  0.0000,  0.0000)
   7 Li     4.851111    8.085185   10.000000    ( 0.0000,  0.0000,  0.0000)
   8 Li     8.085185    8.085185   10.000000    ( 0.0000,  0.0000,  0.0000)
   9 Li     0.000000    0.000000   11.617037    ( 0.0000,  0.0000,  0.0000)
  10 Li     3.234074    0.000000   11.617037    ( 0.0000,  0.0000,  0.0000)
  11 Li     6.468148    0.000000   11.617037    ( 0.0000,  0.0000,  0.0000)
  12 Li     0.000000    3.234074   11.617037    ( 0.0000,  0.0000,  0.0000)
  13 Li     3.234074    3.234074   11.617037    ( 0.0000,  0.0000,  0.0000)
  14 Li     6.468148    3.234074   11.617037    ( 0.0000,  0.0000,  0.0000)
  15 Li     0.000000    6.468148   11.617037    ( 0.0000,  0.0000,  0.0000)
  16 Li     3.234074    6.468148   11.617037    ( 0.0000,  0.0000,  0.0000)
  17 Li     6.468148    6.468148   11.617037    ( 0.0000,  0.0000,  0.0000)
  18 Li     1.616955    1.617038   13.470426    ( 0.0000,  0.0000,  0.0000)
  19 Li     4.851164    1.617038   13.470166    ( 0.0000,  0.0000,  0.0000)
  20 Li     8.085205    1.617038   13.469805    ( 0.0000,  0.0000,  0.0000)
  21 Li     1.617048    4.851161   13.470174    ( 0.0000,  0.0000,  0.0000)
  22 Li     4.851130    4.851055   13.470296    ( 0.0000,  0.0000,  0.0000)
  23 Li     8.085152    4.851131   13.470196    ( 0.0000,  0.0000,  0.0000)
  24 Li     1.617047    8.085134   13.470172    ( 0.0000,  0.0000,  0.0000)
  25 Li     4.851130    8.085239   13.470296    ( 0.0000,  0.0000,  0.0000)
  26 Li     8.085153    8.085164   13.470194    ( 0.0000,  0.0000,  0.0000)
  27 Li     0.000264   -0.000088   15.445450    ( 0.0000,  0.0000,  0.0000)
  28 Li     3.233857    0.000109   15.445773    ( 0.0000,  0.0000,  0.0000)
  29 Li     6.468191   -0.000037   15.446166    ( 0.0000,  0.0000,  0.0000)
  30 Li     0.000264    3.234161   15.445449    ( 0.0000,  0.0000,  0.0000)
  31 Li     3.233859    3.233967   15.445772    ( 0.0000,  0.0000,  0.0000)
  32 Li     6.468188    3.234113   15.446165    ( 0.0000,  0.0000,  0.0000)
  33 Li    -0.000016    6.468148   15.445627    ( 0.0000,  0.0000,  0.0000)
  34 Li     3.234104    6.468146   15.445600    ( 0.0000,  0.0000,  0.0000)
  35 Li     6.468138    6.468146   15.445575    ( 0.0000,  0.0000,  0.0000)
  36 F      8.123332    1.617037   18.445321    ( 0.0000,  0.0000,  0.0000)
  37 H      9.046777    1.617037   18.445060    ( 0.0000,  0.0000,  0.0000)

Unit cell:
           periodic     x           y           z      points  spacing
  1. axis:    yes    9.702222    0.000000    0.000000    60     0.1617
  2. axis:    yes    0.000000    9.702222    0.000000    60     0.1617
  3. axis:    no     0.000000    0.000000   24.851111   156     0.1593

  Lengths:   9.702222   9.702222  24.851111
  Angles:   90.000000  90.000000  90.000000

Effective grid spacing dv^(1/3) = 0.1609

     iter     time        total  log10-change:
                         energy  eigst   dens
iter:   1 07:32:11  -217.693403  -0.78
iter:   2 07:34:29  -217.421459  -0.43  -1.21
iter:   3 07:36:42  -217.371536  -1.29  -1.46
iter:   4 07:38:55  -217.341193  -0.54  -1.76
Writing to output.gpw (mode='')

iter:   5 07:41:14  -217.324807  -1.28  -1.67
iter:   6 07:43:28  -217.333586c -0.69  -1.96
iter:   7 07:45:45  -217.319916c -1.09  -1.89
iter:   8 07:47:58  -217.321385c -1.46  -2.18
iter:   9 07:50:07  -217.315559c -1.85  -2.08
Writing to output.gpw (mode='')

iter:  10 07:52:28  -217.315053c -2.63  -2.58
iter:  11 07:54:48  -217.315170c -2.81  -2.65
iter:  12 07:57:09  -217.315167c -2.95  -2.69
iter:  13 07:59:26  -217.315270c -3.10  -2.78
iter:  14 08:01:51  -217.315353c -3.09  -2.85
Writing to output.gpw (mode='')

iter:  15 08:04:11  -217.315337c -3.46  -2.94
iter:  16 08:06:27  -217.315366c -3.51  -3.06
iter:  17 08:08:42  -217.315392c -3.74  -3.20
iter:  18 08:10:59  -217.315419c -3.67  -3.26
iter:  19 08:13:17  -217.315419c -4.04  -3.46
Writing to output.gpw (mode='')

iter:  20 08:15:49  -217.315429c -4.18  -3.51
iter:  21 08:18:06  -217.315430c -4.31  -3.52
iter:  22 08:20:26  -217.315432c -4.42  -3.57
iter:  23 08:22:45  -217.315433c -4.70  -3.79
iter:  24 08:25:03  -217.315437c -4.73  -3.90
Writing to output.gpw (mode='')

iter:  25 08:27:21  -217.315438c -4.67  -3.94
iter:  26 08:29:45  -217.315436c -4.73  -4.02c
iter:  27 08:32:13  -217.315438c -5.22  -4.09c
iter:  28 08:34:44  -217.315440c -5.01  -4.17c
iter:  29 08:37:04  -217.315440c -5.34  -4.26c
Writing to output.gpw (mode='')

iter:  30 08:39:33  -217.315440c -5.35  -4.29c
iter:  31 08:41:50  -217.315441c -5.62  -4.35c
iter:  32 08:44:13  -217.315441c -5.81  -4.60c
iter:  33 08:46:33  -217.315442c -5.77  -4.75c
iter:  34 08:48:58  -217.315441c -5.78  -4.78c
Writing to output.gpw (mode='')

iter:  35 08:51:20  -217.315442c -5.94  -4.92c
iter:  36 08:53:44  -217.315442c -6.15  -4.97c
iter:  37 08:56:01  -217.315442c -6.20  -5.09c
iter:  38 08:58:19  -217.315442c -6.16  -5.07c
iter:  39 09:00:41  -217.315442c -6.31  -5.12c
Writing to output.gpw (mode='')

iter:  40 09:03:11  -217.315442c -6.17  -5.17c
iter:  41 09:05:35  -217.315442c -6.51  -5.33c
iter:  42 09:08:05  -217.315442c -6.51  -5.36c
iter:  43 09:10:35  -217.315442c -6.47  -5.38c
iter:  44 09:13:04  -217.315442c -6.68  -5.47c
Writing to output.gpw (mode='')

iter:  45 09:15:24  -217.315442c -6.67  -5.59c
iter:  46 09:17:45  -217.315442c -6.83  -5.87c
iter:  47 09:20:10  -217.315442c -6.86  -5.86c
iter:  48 09:22:31  -217.315441c -6.80  -5.75c
iter:  49 09:24:55  -217.315441c -6.79  -5.64c
Writing to output.gpw (mode='')

iter:  50 09:27:15  -217.315441c -6.87  -5.60c
iter:  51 09:29:35  -217.315441c -7.05  -5.56c
iter:  52 09:31:58  -217.315441c -7.11  -5.45c
iter:  53 09:34:30  -217.315441c -7.16  -5.56c
iter:  54 09:36:57  -217.315441c -7.23  -5.55c
Writing to output.gpw (mode='')

iter:  55 09:39:16  -217.315441c -7.05  -5.52c
iter:  56 09:41:31  -217.315441c -7.12  -5.55c
iter:  57 09:43:52  -217.315441c -7.37  -5.48c
iter:  58 09:46:09  -217.315441c -7.42c -5.47c

Converged after 58 iterations.

Dipole moment: (-1.788515, -2.816155, -0.010838) |e|*Ang

Energy contributions relative to reference atoms: (reference = -10026.932476)

Kinetic:        +87.678037
Potential:      -76.417684
External:        +0.000000
XC:            -228.409307
Entropy (-ST):   -0.152688
Local:           -0.090144
--------------------------
Free energy:   -217.391785
Extrapolated:  -217.315441

Dipole-layer corrected work functions: 3.378912, 3.399747 eV

Showing only first 2 kpts
 Kpt  Band  Eigenvalues  Occupancy
  0    20     -3.64298    1.98755
  0    21     -3.55765    1.93328
  0    22     -3.22537    0.07258
  0    23     -3.13639    0.01263

  1    20     -3.41280    1.23052
  1    21     -3.38792    0.98592
  1    22     -3.34572    0.58958
  1    23     -3.33956    0.53968


Fermi level: -3.38933

No gap
Writing to output.gpw (mode='')


Forces in eV/Ang:
  0 Li    0.00040    0.00000   -0.27326
  1 Li   -0.00319    0.00000   -0.27059
  2 Li    0.00288    0.00000   -0.27369
  3 Li   -0.00029   -0.00192   -0.27265
  4 Li    0.00200    0.00214   -0.27154
  5 Li   -0.00161    0.00329   -0.27308
  6 Li   -0.00029    0.00192   -0.27265
  7 Li    0.00200   -0.00214   -0.27154
  8 Li   -0.00161   -0.00329   -0.27308
  9 Li    0.00118   -0.00139    0.26182
 10 Li   -0.00294    0.00200    0.26219
 11 Li    0.00175   -0.00095    0.26470
 12 Li    0.00118    0.00139    0.26182
 13 Li   -0.00294   -0.00200    0.26219
 14 Li    0.00175    0.00095    0.26470
 15 Li   -0.00097   -0.00000    0.26233
 16 Li    0.00522   -0.00000    0.26160
 17 Li   -0.00439   -0.00000    0.25316
 18 Li   -0.00553   -0.00000    0.04842
 19 Li    0.00369   -0.00000    0.03104
 20 Li    0.00134   -0.00000    0.00864
 21 Li    0.00060    0.00294    0.03090
 22 Li    0.00127   -0.00345    0.03806
 23 Li   -0.00201    0.00076    0.03286
 24 Li    0.00060   -0.00294    0.03091
 25 Li    0.00127    0.00345    0.03806
 26 Li   -0.00201   -0.00076    0.03286
 27 Li    0.01841   -0.01047   -0.04442
 28 Li   -0.01393    0.00752   -0.01303
 29 Li    0.00138   -0.00406    0.00846
 30 Li    0.01841    0.01047   -0.04442
 31 Li   -0.01393   -0.00752   -0.01303
 32 Li    0.00138    0.00406    0.00846
 33 Li   -0.00136   -0.00000   -0.02112
 34 Li    0.00137    0.00000   -0.02270
 35 Li    0.00021    0.00000   -0.02450
 36 F    -0.58462    0.00000   -0.01259
 37 H     0.59054    0.00000   -0.03365

System changes: positions 

Initializing position-dependent things.

Density initialized from wave functions
       .-----------------------.  
      /|                       |  
     / |                       |  
    /  |                       |  
   /   |                       |  
  /    |                       |  
 *     |                       |  
 |     |                       |  
 |     |                       |  
 |     |                       |  
 |     |                       |  
 |     |                       |  
 |     Li              Li      |  
 |     |              F H      |  
 |     |     Li      Li      Li|  
 |     |  Li      Li      Li   |  
 | Li  |   Li      Li          |  
 |     |Li      Li      Li     |  
 |     | Li                    |  
 |   LLi     LLi     LLi       |  
 |     |  Li      Li      Li   |  
 | Li  |   Li      Li          |  
 |     |Li      Li      Li     |  
 Li    | Li      Li            |  
 |    Li      Li      Li       |  
 |     |                       |  
 |     |                       |  
 |     |                       |  
 |     |                       |  
 |     |                       |  
 |     |                       |  
 |     .-----------------------.  
 |    /                       /   
 |   /                       /    
 |  /                       /     
 | /                       /      
 |/                       /       
 *-----------------------*        

Positions:
   0 Li     1.617037    1.617037   10.000000    ( 0.0000,  0.0000,  0.0000)
   1 Li     4.851111    1.617037   10.000000    ( 0.0000,  0.0000,  0.0000)
   2 Li     8.085185    1.617037   10.000000    ( 0.0000,  0.0000,  0.0000)
   3 Li     1.617037    4.851111   10.000000    ( 0.0000,  0.0000,  0.0000)
   4 Li     4.851111    4.851111   10.000000    ( 0.0000,  0.0000,  0.0000)
   5 Li     8.085185    4.851111   10.000000    ( 0.0000,  0.0000,  0.0000)
   6 Li     1.617037    8.085185   10.000000    ( 0.0000,  0.0000,  0.0000)
   7 Li     4.851111    8.085185   10.000000    ( 0.0000,  0.0000,  0.0000)
   8 Li     8.085185    8.085185   10.000000    ( 0.0000,  0.0000,  0.0000)
   9 Li     0.000000    0.000000   11.617037    ( 0.0000,  0.0000,  0.0000)
  10 Li     3.234074    0.000000   11.617037    ( 0.0000,  0.0000,  0.0000)
  11 Li     6.468148    0.000000   11.617037    ( 0.0000,  0.0000,  0.0000)
  12 Li     0.000000    3.234074   11.617037    ( 0.0000,  0.0000,  0.0000)
  13 Li     3.234074    3.234074   11.617037    ( 0.0000,  0.0000,  0.0000)
  14 Li     6.468148    3.234074   11.617037    ( 0.0000,  0.0000,  0.0000)
  15 Li     0.000000    6.468148   11.617037    ( 0.0000,  0.0000,  0.0000)
  16 Li     3.234074    6.468148   11.617037    ( 0.0000,  0.0000,  0.0000)
  17 Li     6.468148    6.468148   11.617037    ( 0.0000,  0.0000,  0.0000)
  18 Li     1.616890    1.617038   13.470995    ( 0.0000,  0.0000,  0.0000)
  19 Li     4.851207    1.617038   13.470531    ( 0.0000,  0.0000,  0.0000)
  20 Li     8.085221    1.617038   13.469907    ( 0.0000,  0.0000,  0.0000)
  21 Li     1.617055    4.851195   13.470537    ( 0.0000,  0.0000,  0.0000)
  22 Li     4.851145    4.851015   13.470744    ( 0.0000,  0.0000,  0.0000)
  23 Li     8.085129    4.851140   13.470582    ( 0.0000,  0.0000,  0.0000)
  24 Li     1.617055    8.085099   13.470535    ( 0.0000,  0.0000,  0.0000)
  25 Li     4.851145    8.085280   13.470743    ( 0.0000,  0.0000,  0.0000)
  26 Li     8.085129    8.085155   13.470580    ( 0.0000,  0.0000,  0.0000)
  27 Li     0.000481   -0.000210   15.444928    ( 0.0000,  0.0000,  0.0000)
  28 Li     3.233693    0.000197   15.445620    ( 0.0000,  0.0000,  0.0000)
  29 Li     6.468207   -0.000084   15.446265    ( 0.0000,  0.0000,  0.0000)
  30 Li     0.000481    3.234284   15.444928    ( 0.0000,  0.0000,  0.0000)
  31 Li     3.233696    3.233879   15.445619    ( 0.0000,  0.0000,  0.0000)
  32 Li     6.468204    3.234161   15.446265    ( 0.0000,  0.0000,  0.0000)
  33 Li    -0.000032    6.468148   15.445379    ( 0.0000,  0.0000,  0.0000)
  34 Li     3.234120    6.468146   15.445334    ( 0.0000,  0.0000,  0.0000)
  35 Li     6.468140    6.468146   15.445287    ( 0.0000,  0.0000,  0.0000)
  36 F      8.116524    1.617037   18.445173    ( 0.0000,  0.0000,  0.0000)
  37 H      9.053654    1.617037   18.444664    ( 0.0000,  0.0000,  0.0000)

Unit cell:
           periodic     x           y           z      points  spacing
  1. axis:    yes    9.702222    0.000000    0.000000    60     0.1617
  2. axis:    yes    0.000000    9.702222    0.000000    60     0.1617
  3. axis:    no     0.000000    0.000000   24.851111   156     0.1593

  Lengths:   9.702222   9.702222  24.851111
  Angles:   90.000000  90.000000  90.000000

Effective grid spacing dv^(1/3) = 0.1609

     iter     time        total  log10-change:
                         energy  eigst   dens
iter:   1 09:49:02  -217.327942  -1.86
iter:   2 09:51:16  -217.322454  -2.03  -2.03
iter:   3 09:53:33  -217.320741c -3.11  -2.22
iter:   4 09:55:54  -217.320046c -2.01  -2.49
Writing to output.gpw (mode='')

iter:   5 09:58:20  -217.318999c -2.42  -2.30
iter:   6 10:00:41  -217.319298c -1.97  -2.58
iter:   7 10:03:03  -217.318582c -2.69  -2.55
iter:   8 10:05:21  -217.318648c -2.92  -2.94
iter:   9 10:07:41  -217.318435c -3.50  -2.85
Writing to output.gpw (mode='')

iter:  10 10:10:04  -217.318430c -4.12  -3.33
iter:  11 10:12:21  -217.318427c -4.37  -3.39
iter:  12 10:14:39  -217.318424c -4.61  -3.42
iter:  13 10:17:01  -217.318420c -4.75  -3.47
iter:  14 10:19:19  -217.318422c -4.66  -3.50
Writing to output.gpw (mode='')

iter:  15 10:21:39  -217.318418c -4.92  -3.55
iter:  16 10:23:54  -217.318417c -4.98  -3.74
iter:  17 10:26:19  -217.318418c -5.31  -3.87
iter:  18 10:28:37  -217.318418c -5.13  -4.07c
iter:  19 10:30:48  -217.318418c -5.61  -4.20c
Writing to output.gpw (mode='')

iter:  20 10:33:02  -217.318418c -5.71  -4.22c
iter:  21 10:35:22  -217.318419c -5.97  -4.25c
iter:  22 10:37:45  -217.318420c -6.09  -4.38c
iter:  23 10:40:01  -217.318420c -6.02  -4.53c
iter:  24 10:42:13  -217.318420c -6.29  -4.63c
Writing to output.gpw (mode='')

iter:  25 10:44:26  -217.318420c -6.61  -4.87c
iter:  26 10:46:51  -217.318420c -6.65  -4.90c
iter:  27 10:49:05  -217.318420c -6.60  -4.97c
iter:  28 10:51:22  -217.318420c -6.91  -5.05c
iter:  29 10:53:37  -217.318420c -6.99  -5.08c
Writing to output.gpw (mode='')

iter:  30 10:55:58  -217.318420c -7.25  -5.14c
iter:  31 10:58:18  -217.318420c -7.37  -5.18c
iter:  32 11:00:39  -217.318420c -7.64c -5.21c

Converged after 32 iterations.

Dipole moment: (-1.777906, -2.808911, -0.015141) |e|*Ang

Energy contributions relative to reference atoms: (reference = -10026.932476)

Kinetic:        +86.984034
Potential:      -75.907506
External:        +0.000000
XC:            -228.228834
Entropy (-ST):   -0.152670
Local:           -0.089779
--------------------------
Free energy:   -217.394755
Extrapolated:  -217.318420

Dipole-layer corrected work functions: 3.378698, 3.407804 eV

Showing only first 2 kpts
 Kpt  Band  Eigenvalues  Occupancy
  0    20     -3.64685    1.98754
  0    21     -3.56161    1.93333
  0    22     -3.22922    0.07249
  0    23     -3.14025    0.01261

  1    20     -3.41707    1.23374
  1    21     -3.39153    0.98282
  1    22     -3.34971    0.59015
  1    23     -3.34348    0.53970


Fermi level: -3.39325

No gap
Writing to output.gpw (mode='')


Forces in eV/Ang:
  0 Li    0.00034    0.00000   -0.27328
  1 Li   -0.00320    0.00000   -0.27051
  2 Li    0.00295    0.00000   -0.27374
  3 Li   -0.00025   -0.00189   -0.27267
  4 Li    0.00201    0.00224   -0.27155
  5 Li   -0.00167    0.00334   -0.27310
  6 Li   -0.00025    0.00189   -0.27267
  7 Li    0.00201   -0.00224   -0.27155
  8 Li   -0.00167   -0.00334   -0.27310
  9 Li    0.00128   -0.00146    0.26233
 10 Li   -0.00304    0.00207    0.26267
 11 Li    0.00175   -0.00101    0.26511
 12 Li    0.00128    0.00146    0.26233
 13 Li   -0.00304   -0.00207    0.26267
 14 Li    0.00175    0.00101    0.26511
 15 Li   -0.00098   -0.00000    0.26272
 16 Li    0.00545   -0.00000    0.26185
 17 Li   -0.00461   -0.00000    0.25334
 18 Li   -0.00538   -0.00000    0.04710
 19 Li    0.00371   -0.00000    0.03031
 20 Li    0.00120   -0.00000    0.00791
 21 Li    0.00067    0.00302    0.02993
 22 Li    0.00128   -0.00356    0.03735
 23 Li   -0.00207    0.00080    0.03189
 24 Li    0.00067   -0.00302    0.02993
 25 Li    0.00128    0.00356    0.03736
 26 Li   -0.00207   -0.00080    0.03189
 27 Li    0.01812   -0.00965   -0.04220
 28 Li   -0.01391    0.00744   -0.01230
 29 Li    0.00171   -0.00374    0.00987
 30 Li    0.01812    0.00965   -0.04220
 31 Li   -0.01391   -0.00744   -0.01230
 32 Li    0.00171    0.00373    0.00987
 33 Li   -0.00131   -0.00000   -0.02066
 34 Li    0.00140    0.00000   -0.02220
 35 Li    0.00013    0.00000   -0.02401
 36 F     0.18213    0.00000   -0.01190
 37 H    -0.16206    0.00000   -0.03845

System changes: positions 

Initializing position-dependent things.

Density initialized from wave functions
       .-----------------------.  
      /|                       |  
     / |                       |  
    /  |                       |  
   /   |                       |  
  /    |                       |  
 *     |                       |  
 |     |                       |  
 |     |                       |  
 |     |                       |  
 |     |                       |  
 |     |                       |  
 |     Li              Li      |  
 |     |              F H      |  
 |     |     Li      Li      Li|  
 |     |  Li      Li      Li   |  
 | Li  |   Li      Li          |  
 |     |Li      Li      Li     |  
 |     | Li                    |  
 |   LLi     LLi     LLi       |  
 |     |  Li      Li      Li   |  
 | Li  |   Li      Li          |  
 |     |Li      Li      Li     |  
 Li    | Li      Li            |  
 |    Li      Li      Li       |  
 |     |                       |  
 |     |                       |  
 |     |                       |  
 |     |                       |  
 |     |                       |  
 |     |                       |  
 |     .-----------------------.  
 |    /                       /   
 |   /                       /    
 |  /                       /     
 | /                       /      
 |/                       /       
 *-----------------------*        

Positions:
   0 Li     1.617037    1.617037   10.000000    ( 0.0000,  0.0000,  0.0000)
   1 Li     4.851111    1.617037   10.000000    ( 0.0000,  0.0000,  0.0000)
   2 Li     8.085185    1.617037   10.000000    ( 0.0000,  0.0000,  0.0000)
   3 Li     1.617037    4.851111   10.000000    ( 0.0000,  0.0000,  0.0000)
   4 Li     4.851111    4.851111   10.000000    ( 0.0000,  0.0000,  0.0000)
   5 Li     8.085185    4.851111   10.000000    ( 0.0000,  0.0000,  0.0000)
   6 Li     1.617037    8.085185   10.000000    ( 0.0000,  0.0000,  0.0000)
   7 Li     4.851111    8.085185   10.000000    ( 0.0000,  0.0000,  0.0000)
   8 Li     8.085185    8.085185   10.000000    ( 0.0000,  0.0000,  0.0000)
   9 Li     0.000000    0.000000   11.617037    ( 0.0000,  0.0000,  0.0000)
  10 Li     3.234074    0.000000   11.617037    ( 0.0000,  0.0000,  0.0000)
  11 Li     6.468148    0.000000   11.617037    ( 0.0000,  0.0000,  0.0000)
  12 Li     0.000000    3.234074   11.617037    ( 0.0000,  0.0000,  0.0000)
  13 Li     3.234074    3.234074   11.617037    ( 0.0000,  0.0000,  0.0000)
  14 Li     6.468148    3.234074   11.617037    ( 0.0000,  0.0000,  0.0000)
  15 Li     0.000000    6.468148   11.617037    ( 0.0000,  0.0000,  0.0000)
  16 Li     3.234074    6.468148   11.617037    ( 0.0000,  0.0000,  0.0000)
  17 Li     6.468148    6.468148   11.617037    ( 0.0000,  0.0000,  0.0000)
  18 Li     1.616824    1.617038   13.471579    ( 0.0000,  0.0000,  0.0000)
  19 Li     4.851253    1.617038   13.470907    ( 0.0000,  0.0000,  0.0000)
  20 Li     8.085236    1.617038   13.470005    ( 0.0000,  0.0000,  0.0000)
  21 Li     1.617063    4.851233   13.470908    ( 0.0000,  0.0000,  0.0000)
  22 Li     4.851161    4.850971   13.471207    ( 0.0000,  0.0000,  0.0000)
  23 Li     8.085103    4.851150   13.470977    ( 0.0000,  0.0000,  0.0000)
  24 Li     1.617063    8.085062   13.470907    ( 0.0000,  0.0000,  0.0000)
  25 Li     4.851161    8.085324   13.471206    ( 0.0000,  0.0000,  0.0000)
  26 Li     8.085103    8.085145   13.470976    ( 0.0000,  0.0000,  0.0000)
  27 Li     0.000705   -0.000331   15.444404    ( 0.0000,  0.0000,  0.0000)
  28 Li     3.233521    0.000289   15.445467    ( 0.0000,  0.0000,  0.0000)
  29 Li     6.468228   -0.000131   15.446386    ( 0.0000,  0.0000,  0.0000)
  30 Li     0.000705    3.234404   15.444403    ( 0.0000,  0.0000,  0.0000)
  31 Li     3.233523    3.233787   15.445466    ( 0.0000,  0.0000,  0.0000)
  32 Li     6.468225    3.234207   15.446386    ( 0.0000,  0.0000,  0.0000)
  33 Li    -0.000049    6.468148   15.445122    ( 0.0000,  0.0000,  0.0000)
  34 Li     3.234138    6.468146   15.445058    ( 0.0000,  0.0000,  0.0000)
  35 Li     6.468142    6.468146   15.444989    ( 0.0000,  0.0000,  0.0000)
  36 F      8.118047    1.617037   18.445024    ( 0.0000,  0.0000,  0.0000)
  37 H      9.052365    1.617037   18.444193    ( 0.0000,  0.0000,  0.0000)

Unit cell:
           periodic     x           y           z      points  spacing
  1. axis:    yes    9.702222    0.000000    0.000000    60     0.1617
  2. axis:    yes    0.000000    9.702222    0.000000    60     0.1617
  3. axis:    no     0.000000    0.000000   24.851111   156     0.1593

  Lengths:   9.702222   9.702222  24.851111
  Angles:   90.000000  90.000000  90.000000

Effective grid spacing dv^(1/3) = 0.1609

     iter     time        total  log10-change:
                         energy  eigst   dens
iter:   1 11:03:19  -217.321014  -2.63
iter:   2 11:05:37  -217.319175  -2.84  -2.30
iter:   3 11:07:54  -217.318985c -4.18  -2.67
iter:   4 11:10:12  -217.318975c -3.24  -3.15
Writing to output.gpw (mode='')

iter:   5 11:12:53  -217.318917c -4.07  -3.03
iter:   6 11:15:11  -217.318942c -3.72  -3.21
iter:   7 11:17:33  -217.318910c -4.00  -3.38
iter:   8 11:19:54  -217.318915c -4.58  -3.63
iter:   9 11:22:33  -217.318920c -4.84  -3.61
Writing to output.gpw (mode='')

iter:  10 11:25:08  -217.318918c -5.48  -3.96
iter:  11 11:27:35  -217.318917c -5.56  -4.02c
iter:  12 11:29:54  -217.318918c -5.63  -4.11c
iter:  13 11:32:08  -217.318919c -5.83  -4.19c
iter:  14 11:34:37  -217.318919c -5.91  -4.30c
Writing to output.gpw (mode='')

iter:  15 11:37:07  -217.318919c -6.16  -4.40c
iter:  16 11:39:27  -217.318919c -6.47  -4.53c
iter:  17 11:41:48  -217.318921c -6.50  -4.57c
iter:  18 11:44:11  -217.318920c -6.94  -4.70c
iter:  19 11:46:33  -217.318920c -6.72  -4.92c
Writing to output.gpw (mode='')

iter:  20 11:48:56  -217.318920c -7.03  -4.93c
iter:  21 11:51:18  -217.318920c -7.00  -4.92c
iter:  22 11:53:40  -217.318920c -7.23  -4.89c
iter:  23 11:55:55  -217.318920c -7.05  -4.95c
iter:  24 11:58:14  -217.318920c -7.13  -4.97c
Writing to output.gpw (mode='')

iter:  25 12:00:41  -217.318920c -7.47c -5.03c

Converged after 25 iterations.

Dipole moment: (-1.787023, -2.809221, -0.014223) |e|*Ang

Energy contributions relative to reference atoms: (reference = -10026.932476)

Kinetic:        +87.131879
Potential:      -76.016451
External:        +0.000000
XC:            -228.267855
Entropy (-ST):   -0.152678
Local:           -0.090153
--------------------------
Free energy:   -217.395259
Extrapolated:  -217.318920

Dipole-layer corrected work functions: 3.378837, 3.406178 eV

Showing only first 2 kpts
 Kpt  Band  Eigenvalues  Occupancy
  0    20     -3.64600    1.98751
  0    21     -3.56087    1.93333
  0    22     -3.22841    0.07239
  0    23     -3.13939    0.01258

  1    20     -3.41619    1.23253
  1    21     -3.39077    0.98264
  1    22     -3.34909    0.59119
  1    23     -3.34286    0.54065


Fermi level: -3.39251

No gap

Forces in eV/Ang:
  0 Li    0.00036    0.00000   -0.27340
  1 Li   -0.00320    0.00000   -0.27060
  2 Li    0.00293    0.00000   -0.27383
  3 Li   -0.00026   -0.00190   -0.27277
  4 Li    0.00201    0.00222   -0.27164
  5 Li   -0.00166    0.00334   -0.27319
  6 Li   -0.00026    0.00190   -0.27277
  7 Li    0.00201   -0.00222   -0.27164
  8 Li   -0.00166   -0.00334   -0.27319
  9 Li    0.00136   -0.00149    0.26269
 10 Li   -0.00308    0.00211    0.26312
 11 Li    0.00170   -0.00107    0.26538
 12 Li    0.00136    0.00149    0.26269
 13 Li   -0.00308   -0.00211    0.26312
 14 Li    0.00170    0.00107    0.26538
 15 Li   -0.00101   -0.00000    0.26312
 16 Li    0.00550   -0.00000    0.26230
 17 Li   -0.00463   -0.00000    0.25380
 18 Li   -0.00518   -0.00000    0.04578
 19 Li    0.00370   -0.00000    0.02974
 20 Li    0.00105   -0.00000    0.00779
 21 Li    0.00075    0.00303    0.02903
 22 Li    0.00126   -0.00357    0.03648
 23 Li   -0.00210    0.00075    0.03106
 24 Li    0.00075   -0.00303    0.02904
 25 Li    0.00126    0.00357    0.03648
 26 Li   -0.00210   -0.00075    0.03106
 27 Li    0.01785   -0.00959   -0.04186
 28 Li   -0.01367    0.00733   -0.01192
 29 Li    0.00172   -0.00371    0.00980
 30 Li    0.01785    0.00960   -0.04186
 31 Li   -0.01368   -0.00733   -0.01191
 32 Li    0.00173    0.00371    0.00980
 33 Li   -0.00131   -0.00000   -0.02015
 34 Li    0.00136    0.00000   -0.02171
 35 Li    0.00015    0.00000   -0.02348
 36 F     0.03091    0.00000   -0.00942
 37 H    -0.01434    0.00000   -0.03735

Timing:                                      incl.     excl.
-------------------------------------------------------------------
Density initialized from wave functions:     4.740     4.740   0.0% |
 Symmetrize density:                         0.000     0.000   0.0% |
Forces:                                     26.006    26.006   0.1% |
Hamiltonian:                               438.231     0.001   0.0% |
 Atomic:                                     0.712     0.004   0.0% |
  XC Correction:                             0.709     0.709   0.0% |
 Calculate atomic Hamiltonians:              2.210     2.210   0.0% |
 Communicate:                                2.190     2.190   0.0% |
 Hartree integrate/restrict:                 0.712     0.712   0.0% |
 Initialize Hamiltonian:                     0.000     0.000   0.0% |
 Poisson:                                   15.206     6.945   0.0% |
  Communicate from 1D:                       1.006     1.006   0.0% |
  Communicate from 2D:                       1.890     1.890   0.0% |
  Communicate to 1D:                         0.419     0.419   0.0% |
  Communicate to 2D:                         1.750     1.750   0.0% |
  FFT 1D:                                    1.656     1.656   0.0% |
  FFT 2D:                                    1.540     1.540   0.0% |
 XC 3D grid:                               417.024    39.437   0.1% |
  VdW-DF integral:                         377.587     0.775   0.0% |
   Convolution:                             23.134    23.134   0.1% |
   FFT:                                      3.234     3.234   0.0% |
   gather:                                 292.143   292.143   0.9% |
   hmm1:                                     4.543     4.543   0.0% |
   hmm2:                                     5.770     5.770   0.0% |
   iFFT:                                     4.140     4.140   0.0% |
   potential:                               29.026     0.324   0.0% |
    collect:                                 2.601     2.601   0.0% |
    p1:                                      9.994     9.994   0.0% |
    p2:                                      7.611     7.611   0.0% |
    sum:                                     8.495     8.495   0.0% |
   splines:                                 14.822    14.822   0.0% |
 vbar:                                       0.176     0.176   0.0% |
LCAO initialization:                         9.918     0.341   0.0% |
 LCAO eigensolver:                           3.555     0.001   0.0% |
  Calculate projections:                     0.000     0.000   0.0% |
  DenseAtomicCorrection:                     0.000     0.000   0.0% |
  Distribute overlap matrix:                 3.427     3.427   0.0% |
  Orbital Layouts:                           0.071     0.071   0.0% |
  Potential matrix:                          0.053     0.053   0.0% |
  Sum over cells:                            0.003     0.003   0.0% |
 LCAO to grid:                               4.381     4.381   0.0% |
 Set positions (LCAO WFS):                   1.641     1.310   0.0% |
  Basic WFS set positions:                   0.015     0.015   0.0% |
  Basis functions set positions:             0.001     0.001   0.0% |
  P tci:                                     0.000     0.000   0.0% |
  ST tci:                                    0.145     0.145   0.0% |
  mktci:                                     0.171     0.171   0.0% |
Redistribute:                                0.016     0.016   0.0% |
SCF-cycle:                               33026.230   391.305   1.2% |
 Davidson:                                7380.035  3181.266   9.5% |---|
  Apply hamiltonian:                       489.580   489.580   1.5% ||
  Subspace diag:                          1003.160     0.068   0.0% |
   calc_h_matrix:                          636.006   161.338   0.5% |
    Apply hamiltonian:                     474.669   474.669   1.4% ||
   diagonalize:                             43.915    43.915   0.1% |
   rotate_psi:                             323.171   323.171   1.0% |
  calc. matrices:                         2084.675  1200.617   3.6% ||
   Apply hamiltonian:                      884.059   884.059   2.6% ||
  diagonalize:                               2.218     2.218   0.0% |
  rotate_psi:                              619.135   619.135   1.8% ||
 Density:                                  209.440     0.010   0.0% |
  Atomic density matrices:                  62.006    62.006   0.2% |
  Mix:                                      69.341    69.341   0.2% |
  Multipole moments:                         0.938     0.938   0.0% |
  Pseudo density:                           77.145    77.138   0.2% |
   Symmetrize density:                       0.008     0.008   0.0% |
 Hamiltonian:                            25036.743     0.062   0.0% |
  Atomic:                                   39.176     0.592   0.0% |
   XC Correction:                           38.584    38.584   0.1% |
  Calculate atomic Hamiltonians:           123.308   123.308   0.4% |
  Communicate:                             111.118   111.118   0.3% |
  Hartree integrate/restrict:               42.152    42.152   0.1% |
  Poisson:                                 942.061   422.262   1.3% ||
   Communicate from 1D:                     69.610    69.610   0.2% |
   Communicate from 2D:                    122.704   122.704   0.4% |
   Communicate to 1D:                       28.309    28.309   0.1% |
   Communicate to 2D:                      109.836   109.836   0.3% |
   FFT 1D:                                  93.835    93.835   0.3% |
   FFT 2D:                                  95.505    95.505   0.3% |
  XC 3D grid:                            23767.771  2272.131   6.8% |--|
   VdW-DF integral:                      21495.639    51.305   0.2% |
    Convolution:                          1348.785  1348.785   4.0% |-|
    FFT:                                   230.214   230.214   0.7% |
    gather:                              17370.736 17370.736  51.7% |--------------------|
    hmm1:                                  232.389   232.389   0.7% |
    hmm2:                                  311.065   311.065   0.9% |
    iFFT:                                  244.006   244.006   0.7% |
    potential:                            1707.137    19.295   0.1% |
     collect:                              158.083   158.083   0.5% |
     p1:                                   668.670   668.670   2.0% ||
     p2:                                   437.179   437.179   1.3% ||
     sum:                                  423.910   423.910   1.3% ||
    splines:                                 0.003     0.003   0.0% |
  vbar:                                     11.095    11.095   0.0% |
 Orthonormalize:                             8.707     0.001   0.0% |
  calc_s_matrix:                             1.080     1.080   0.0% |
  inverse-cholesky:                          0.401     0.401   0.0% |
  projections:                               4.254     4.254   0.0% |
  rotate_psi_s:                              2.971     2.971   0.0% |
Set symmetry:                                0.002     0.002   0.0% |
Other:                                      81.364    81.364   0.2% |
-------------------------------------------------------------------
Total:                                             33586.507 100.0%

Memory usage: 1.43 GiB
Date: Wed Jan 18 12:00:48 2023
