
  ___ ___ ___ _ _ _  
 |   |   |_  | | | | 
 | | | | | . | | | | 
 |__ |  _|___|_____|  22.8.0
 |___|_|             

User:   vazumah@r237.ib.bridges2.psc.edu
Date:   Fri Mar 10 18:36:09 2023
Arch:   x86_64
Pid:    40607
CWD:    /jet/home/vazumah/Calcs/LiMEAS/proton_donors/propan_1_ol_y/ontop/9.702_9.702/N2_z
Python: 3.11.0
gpaw:   /jet/home/vazumah/.conda/envs/GPAW_mpich/lib/python3.11/site-packages/gpaw
_gpaw:  /jet/home/vazumah/.conda/envs/GPAW_mpich/lib/python3.11/site-packages/
        _gpaw.cpython-311-x86_64-linux-gnu.so
ase:    /jet/home/vazumah/.conda/envs/GPAW_mpich/lib/python3.11/site-packages/ase (version 3.22.1)
numpy:  /jet/home/vazumah/.conda/envs/GPAW_mpich/lib/python3.11/site-packages/numpy (version 1.24.2)
scipy:  /jet/home/vazumah/.conda/envs/GPAW_mpich/lib/python3.11/site-packages/scipy (version 1.10.1)
libxc:  5.2.3
units:  Angstrom and eV
cores: 128
OpenMP: True
OMP_NUM_THREADS: 1

Input parameters:
  h: 0.16
  kpts: {size: [4, 4, 1]}
  occupations: {name: fermi-dirac,
                width: 0.05}
  poissonsolver: {dipolelayer: xy}
  xc: BEEF-vdW

System changes: positions, numbers, cell, pbc, initial_charges, initial_magmoms 

Initialize ...

species:
  Li:
    name: Lithium
    id: 830b4218f175192f93f959cfc0aad614
    Z: 3.0
    valence: 1
    core: 2
    charge: 0.0
    file: /jet/home/vazumah/datasets/gpaw-setups-0.9.20000/Li.PBE.gz
    compensation charges: {type: gauss,
                           rc: 0.33,
                           lmax: 2}
    cutoffs: {filter: 1.91,
              core: 2.55}
    valence states:
      #              energy  rcut
      - 2s(1.00)    -2.874   1.058
      - 2p(0.00)    -1.090   1.058
      -  s          24.337   1.058
  
    # Using partial waves for Li as LCAO basis

  O:
    name: Oxygen
    id: 32ecd46bf208036f09c70b0ec9a88b78
    Z: 8.0
    valence: 6
    core: 2
    charge: 0.0
    file: /jet/home/vazumah/datasets/gpaw-setups-0.9.20000/O.PBE.gz
    compensation charges: {type: gauss,
                           rc: 0.21,
                           lmax: 2}
    cutoffs: {filter: 1.17,
              core: 0.83}
    valence states:
      #              energy  rcut
      - 2s(2.00)   -23.961   0.688
      - 2p(4.00)    -9.029   0.598
      -  s           3.251   0.688
      -  p          18.182   0.598
      -  d           0.000   0.619
  
    # Using partial waves for O as LCAO basis

  C:
    name: Carbon
    id: 4aa54d4b901d75f77cc0ea3eec22967b
    Z: 6.0
    valence: 4
    core: 2
    charge: 0.0
    file: /jet/home/vazumah/datasets/gpaw-setups-0.9.20000/C.PBE.gz
    compensation charges: {type: gauss,
                           rc: 0.20,
                           lmax: 2}
    cutoffs: {filter: 1.14,
              core: 1.14}
    valence states:
      #              energy  rcut
      - 2s(2.00)   -13.751   0.635
      - 2p(2.00)    -5.284   0.635
      -  s          13.461   0.635
      -  p          21.927   0.635
      -  d           0.000   0.635
  
    # Using partial waves for C as LCAO basis

  H:
    name: Hydrogen
    id: d65de229564ff8ea4db303e23b6d1ecf
    Z: 1.0
    valence: 1
    core: 0
    charge: 0.0
    file: /jet/home/vazumah/datasets/gpaw-setups-0.9.20000/H.PBE.gz
    compensation charges: {type: gauss,
                           rc: 0.15,
                           lmax: 2}
    cutoffs: {filter: 0.85,
              core: 0.53}
    valence states:
      #              energy  rcut
      - 1s(1.00)    -6.494   0.476
      -  s          20.717   0.476
      -  p           0.000   0.476
  
    # Using partial waves for H as LCAO basis

  N:
    name: Nitrogen
    id: f7500608b86eaa90eef8b1d9a670dc53
    Z: 7.0
    valence: 5
    core: 2
    charge: 0.0
    file: /jet/home/vazumah/datasets/gpaw-setups-0.9.20000/N.PBE.gz
    compensation charges: {type: gauss,
                           rc: 0.18,
                           lmax: 2}
    cutoffs: {filter: 1.11,
              core: 0.96}
    valence states:
      #              energy  rcut
      - 2s(2.00)   -18.583   0.603
      - 2p(3.00)    -7.089   0.529
      -  s           8.629   0.603
      -  p          20.123   0.529
      -  d           0.000   0.577
  
    # Using partial waves for N as LCAO basis

Reference energy: -15487.462483  # eV

Spin-paired calculation

Convergence criteria:
 Maximum [total energy] change in last 3 cyles: 0.0005 eV / electron
 Maximum integral of absolute [dens]ity change: 0.0001 electrons / valence electron
 Maximum integral of absolute [eigenst]ate change: 4e-08 eV^2 / valence electron
 Maximum number of scf [iter]ations: 333
 (Square brackets indicate name in SCF output, whereas a 'c' in
 the SCF output indicates the quantity has converged.)

Symmetries present (total): 1

  ( 1  0  0)
  ( 0  1  0)
  ( 0  0  1)

16 k-points: 4 x 4 x 1 Monkhorst-Pack grid
8 k-points in the irreducible part of the Brillouin zone
       k-points in crystal coordinates                weights
   0:     0.12500000   -0.37500000    0.00000000          2/16
   1:     0.12500000   -0.12500000    0.00000000          2/16
   2:     0.12500000    0.12500000    0.00000000          2/16
   3:     0.12500000    0.37500000    0.00000000          2/16
   4:     0.37500000   -0.37500000    0.00000000          2/16
   5:     0.37500000   -0.12500000    0.00000000          2/16
   6:     0.37500000    0.12500000    0.00000000          2/16
   7:     0.37500000    0.37500000    0.00000000          2/16

Wave functions: Uniform real-space grid
  Kinetic energy operator: 6*3+1=19 point O(h^6) finite-difference Laplacian
  ScaLapack parameters: grid=1x1, blocksize=None
  Wavefunction extrapolation:
    Improved wavefunction reuse through dual PAW basis 

Occupation numbers: Fermi-Dirac:
  width: 0.0500  # eV
 

Eigensolver
   Davidson(niter=2) 

Densities:
  Coarse grid: 60*60*168 grid
  Fine grid: 120*120*336 grid
  Total Charge: 0.000000 

Density mixing:
  Method: separate
  Backend: pulay
  Linear mixing parameter: 0.05
  old densities: 5
  Damping of long wavelength oscillations: 50 

Hamiltonian:
  XC and Coulomb potentials evaluated on a 120*120*336 grid
  Using the BEEF-vdW Exchange-Correlation functional
  Interpolation: tri-quintic (5. degree polynomial)
  Poisson solver: FastPoissonSolver using
    Stencil: 6*3+1=19 point O(h^6) finite-difference Laplacian
    FFT axes: [0, 1]
    FST axes: [2]

Dipole correction along z-axis 

XC parameters: BEEF-vdW with 2 nearest neighbor stencil

Memory estimate:
  Process memory now: 128.34 MiB
  Calculator: 86.79 MiB
    Density: 23.03 MiB
      Arrays: 7.40 MiB
      Localized functions: 12.82 MiB
      Mixer: 2.82 MiB
    Hamiltonian: 5.85 MiB
      Arrays: 4.84 MiB
      XC: 0.00 MiB
      Poisson: 0.00 MiB
      vbar: 1.01 MiB
    Wavefunctions: 57.90 MiB
      Arrays psit_nG: 27.03 MiB
      Eigensolver: 30.19 MiB
      Projections: 0.01 MiB
      Projectors: 0.67 MiB

Total number of cores used: 128
Parallelization over k-points: 8
Domain decomposition: 2 x 2 x 4

Number of atoms: 50
Number of atomic orbitals: 176
Number of bands in calculation: 48
Number of valence electrons: 72
Bands to converge: occupied

... initialized

Initializing position-dependent things.

Density initialized from atomic densities
Creating initial wave functions:
  48 bands from LCAO basis set

       .-----------------------.  
      /|                       |  
     / |                       |  
    /  |                       |  
   /   |                       |  
  /    |                       |  
 *     |                       |  
 |     |                       |  
 |     |                      H|  
 |     |                       |  
 |     |                       N  
 |    H|                       |  
 |  C  |                H  H   N  
 |   HH|                  C    |  
 | C   |                H      |  
 O   H |                       |  
 |   Li|     Li      Li        |  
 |     |  Li      Li      Li   |  
 | Li  |   Li      Li          |  
 |     |Li      Li      Li     |  
 Li    | Li      Li            |  
 |   LLi     LLi     LLi       |  
 |     |  Li      Li      Li   |  
 | Li  |   Li      Li          |  
 |     |Li      Li      Li     |  
 Li    | Li      Li            |  
 |    Li      Li      Li       |  
 |     |                       |  
 |     |                       |  
 |     |                       |  
 |     |                       |  
 |     |                       |  
 |     |                       |  
 |     .-----------------------.  
 |    /                       /   
 |   /                       /    
 |  /                       /     
 | /                       /      
 |/                       /       
 *-----------------------*        

Positions:
   0 Li     1.617037    1.617037   10.000000    ( 0.0000,  0.0000,  0.0000)
   1 Li     4.851111    1.617037   10.000000    ( 0.0000,  0.0000,  0.0000)
   2 Li     8.085185    1.617037   10.000000    ( 0.0000,  0.0000,  0.0000)
   3 Li     1.617037    4.851111   10.000000    ( 0.0000,  0.0000,  0.0000)
   4 Li     4.851111    4.851111   10.000000    ( 0.0000,  0.0000,  0.0000)
   5 Li     8.085185    4.851111   10.000000    ( 0.0000,  0.0000,  0.0000)
   6 Li     1.617037    8.085185   10.000000    ( 0.0000,  0.0000,  0.0000)
   7 Li     4.851111    8.085185   10.000000    ( 0.0000,  0.0000,  0.0000)
   8 Li     8.085185    8.085185   10.000000    ( 0.0000,  0.0000,  0.0000)
   9 Li     0.000000    0.000000   11.617037    ( 0.0000,  0.0000,  0.0000)
  10 Li     3.234074    0.000000   11.617037    ( 0.0000,  0.0000,  0.0000)
  11 Li     6.468148    0.000000   11.617037    ( 0.0000,  0.0000,  0.0000)
  12 Li     0.000000    3.234074   11.617037    ( 0.0000,  0.0000,  0.0000)
  13 Li     3.234074    3.234074   11.617037    ( 0.0000,  0.0000,  0.0000)
  14 Li     6.468148    3.234074   11.617037    ( 0.0000,  0.0000,  0.0000)
  15 Li     0.000000    6.468148   11.617037    ( 0.0000,  0.0000,  0.0000)
  16 Li     3.234074    6.468148   11.617037    ( 0.0000,  0.0000,  0.0000)
  17 Li     6.468148    6.468148   11.617037    ( 0.0000,  0.0000,  0.0000)
  18 Li     1.617038    1.617038   13.469728    ( 0.0000,  0.0000,  0.0000)
  19 Li     4.851111    1.617038   13.469729    ( 0.0000,  0.0000,  0.0000)
  20 Li     8.085184    1.617038   13.469728    ( 0.0000,  0.0000,  0.0000)
  21 Li     1.617038    4.851111   13.469729    ( 0.0000,  0.0000,  0.0000)
  22 Li     4.851111    4.851111   13.469730    ( 0.0000,  0.0000,  0.0000)
  23 Li     8.085184    4.851111   13.469729    ( 0.0000,  0.0000,  0.0000)
  24 Li     1.617038    8.085184   13.469728    ( 0.0000,  0.0000,  0.0000)
  25 Li     4.851111    8.085184   13.469729    ( 0.0000,  0.0000,  0.0000)
  26 Li     8.085184    8.085184   13.469728    ( 0.0000,  0.0000,  0.0000)
  27 Li    -0.000000   -0.000000   15.445939    ( 0.0000,  0.0000,  0.0000)
  28 Li     3.234074    0.000000   15.445939    ( 0.0000,  0.0000,  0.0000)
  29 Li     6.468148    0.000000   15.445939    ( 0.0000,  0.0000,  0.0000)
  30 Li     0.000000    3.234074   15.445939    ( 0.0000,  0.0000,  0.0000)
  31 Li     3.234076    3.234076   15.445938    ( 0.0000,  0.0000,  0.0000)
  32 Li     6.468146    3.234076   15.445938    ( 0.0000,  0.0000,  0.0000)
  33 Li     0.000000    6.468148   15.445939    ( 0.0000,  0.0000,  0.0000)
  34 Li     3.234076    6.468146   15.445938    ( 0.0000,  0.0000,  0.0000)
  35 Li     6.468146    6.468146   15.445938    ( 0.0000,  0.0000,  0.0000)
  36 O      9.702222    9.702222   19.645939    ( 0.0000,  0.0000,  0.0000)
  37 C      9.314601   12.136471   19.646069    ( 0.0000,  0.0000,  0.0000)
  38 C     10.325011   10.994282   19.656622    ( 0.0000,  0.0000,  0.0000)
  39 C      9.977014   13.516806   19.639708    ( 0.0000,  0.0000,  0.0000)
  40 H      8.671752   12.017858   18.768768    ( 0.0000,  0.0000,  0.0000)
  41 H      8.672843   12.042557   20.531748    ( 0.0000,  0.0000,  0.0000)
  42 H     10.944954   11.018090   18.756731    ( 0.0000,  0.0000,  0.0000)
  43 H     10.991914   11.087864   20.524396    ( 0.0000,  0.0000,  0.0000)
  44 H     10.603094   13.650343   18.754030    ( 0.0000,  0.0000,  0.0000)
  45 H      9.232239   14.314087   19.638902    ( 0.0000,  0.0000,  0.0000)
  46 H     10.612530   13.658355   20.517969    ( 0.0000,  0.0000,  0.0000)
  47 H      9.124664    9.653460   20.417251    ( 0.0000,  0.0000,  0.0000)
  48 N      9.702000    9.702000   17.195939    ( 0.0000,  0.0000,  0.0000)
  49 N      9.702000    9.702000   18.292561    ( 0.0000,  0.0000,  0.0000)

Unit cell:
           periodic     x           y           z      points  spacing
  1. axis:    yes    9.702222    0.000000    0.000000    60     0.1617
  2. axis:    yes    0.000000    9.702222    0.000000    60     0.1617
  3. axis:    no     0.000000    0.000000   26.601111   168     0.1583

  Lengths:   9.702222   9.702222  26.601111
  Angles:   90.000000  90.000000  90.000000

Effective grid spacing dv^(1/3) = 0.1606

     iter     time        total  log10-change:
                         energy  eigst   dens
iter:   1 18:36:24  -685.463346
iter:   2 18:36:32   -11.176806  +2.69  +0.04
iter:   3 18:36:39    25.663752  +3.23  -0.15
iter:   4 18:36:47  -211.904694  +3.28  -0.23
Writing to output.gpw (mode='')

iter:   5 18:36:54  -248.306742  +2.83  -0.24
iter:   6 18:37:01  -312.680568  +2.57  -0.54
iter:   7 18:37:09  -341.298595  +2.19  -0.60
iter:   8 18:37:16  -333.406011  +1.87  -0.54
iter:   9 18:37:23  -351.372369  +1.74  -0.68
Writing to output.gpw (mode='')

iter:  10 18:37:31  -341.379014  +1.51  -0.61
iter:  11 18:37:38  -364.864923  +1.64  -0.68
iter:  12 18:37:46  -332.841692  +0.98  -0.62
iter:  13 18:37:53  -327.085487  +0.95  -0.78
iter:  14 18:38:00  -326.828481  +0.88  -0.83
Writing to output.gpw (mode='')

iter:  15 18:38:08  -325.837155  +0.31  -0.80
iter:  16 18:38:15  -325.269546  +0.54  -0.89
iter:  17 18:38:22  -324.818165  +0.67  -1.02
iter:  18 18:38:30  -324.594845  +0.19  -1.12
iter:  19 18:38:37  -324.188346  +0.24  -1.15
Writing to output.gpw (mode='')

iter:  20 18:38:45  -325.100863  +0.41  -1.24
iter:  21 18:38:52  -324.482881  -0.21  -1.16
iter:  22 18:38:59  -324.217796  -0.04  -1.30
iter:  23 18:39:13  -324.127086  +0.06  -1.40
iter:  24 18:39:21  -324.103791  -0.92  -1.59
Writing to output.gpw (mode='')

iter:  25 18:39:29  -324.092209c -0.87  -1.64
iter:  26 18:39:36  -324.094437c -0.73  -1.70
iter:  27 18:39:43  -324.108329c -1.08  -1.81
iter:  28 18:39:51  -324.096545c -1.32  -1.86
iter:  29 18:39:58  -324.103685c -1.52  -2.11
Writing to output.gpw (mode='')

iter:  30 18:40:06  -324.107631c -1.55  -2.17
iter:  31 18:40:13  -324.112072c -1.59  -2.23
iter:  32 18:40:21  -324.115730c -1.68  -2.28
iter:  33 18:40:28  -324.117291c -2.01  -2.33
iter:  34 18:40:36  -324.119756c -1.80  -2.37
Writing to output.gpw (mode='')

iter:  35 18:40:43  -324.121616c -2.28  -2.54
iter:  36 18:40:51  -324.122825c -2.37  -2.63
iter:  37 18:40:58  -324.124527c -2.21  -2.70
iter:  38 18:41:05  -324.124990c -2.47  -2.81
iter:  39 18:41:13  -324.125816c -2.35  -2.96
Writing to output.gpw (mode='')

iter:  40 18:41:20  -324.126243c -2.63  -3.02
iter:  41 18:41:28  -324.126712c -2.84  -3.05
iter:  42 18:41:35  -324.127225c -2.73  -3.15
iter:  43 18:41:43  -324.127583c -2.77  -3.32
iter:  44 18:41:50  -324.127900c -2.75  -3.32
Writing to output.gpw (mode='')

iter:  45 18:41:58  -324.128166c -2.83  -3.34
iter:  46 18:42:05  -324.128415c -3.04  -3.34
iter:  47 18:42:12  -324.128536c -3.18  -3.49
iter:  48 18:42:20  -324.128673c -3.24  -3.63
iter:  49 18:42:28  -324.128803c -3.21  -3.68
Writing to output.gpw (mode='')

iter:  50 18:42:35  -324.128888c -3.51  -3.70
iter:  51 18:42:42  -324.128958c -3.52  -3.89
iter:  52 18:42:50  -324.129016c -3.56  -3.82
iter:  53 18:42:57  -324.129068c -3.40  -3.75
iter:  54 18:43:05  -324.129118c -3.77  -3.70
Writing to output.gpw (mode='')

iter:  55 18:43:12  -324.129170c -3.76  -3.82
iter:  56 18:43:20  -324.129201c -3.89  -4.04c
iter:  57 18:43:27  -324.129245c -3.79  -3.97
iter:  58 18:43:35  -324.129265c -4.00  -4.12c
iter:  59 18:43:42  -324.129286c -4.02  -3.99
Writing to output.gpw (mode='')

iter:  60 18:43:50  -324.129300c -4.17  -4.03c
iter:  61 18:43:57  -324.129316c -4.06  -3.87
iter:  62 18:44:04  -324.129339c -4.15  -3.82
iter:  63 18:44:17  -324.129348c -4.32  -3.90
iter:  64 18:44:24  -324.129356c -4.40  -3.80
Writing to output.gpw (mode='')

iter:  65 18:44:32  -324.129365c -4.49  -4.12c
iter:  66 18:44:39  -324.129373c -4.36  -4.08c
iter:  67 18:44:47  -324.129382c -4.39  -4.12c
iter:  68 18:44:54  -324.129389c -4.41  -4.14c
iter:  69 18:45:02  -324.129389c -4.63  -4.20c
Writing to output.gpw (mode='')

iter:  70 18:45:09  -324.129391c -4.57  -4.18c
iter:  71 18:45:16  -324.129396c -4.78  -4.11c
iter:  72 18:45:24  -324.129398c -4.81  -4.19c
iter:  73 18:45:31  -324.129403c -4.87  -4.18c
iter:  74 18:45:39  -324.129405c -4.87  -4.13c
Writing to output.gpw (mode='')

iter:  75 18:45:46  -324.129406c -5.02  -4.08c
iter:  76 18:45:53  -324.129406c -5.09  -4.14c
iter:  77 18:46:01  -324.129408c -5.19  -4.08c
iter:  78 18:46:08  -324.129410c -5.13  -4.19c
iter:  79 18:46:16  -324.129414c -5.00  -4.25c
Writing to output.gpw (mode='')

iter:  80 18:46:23  -324.129418c -5.23  -4.42c
iter:  81 18:46:31  -324.129416c -5.22  -4.49c
iter:  82 18:46:38  -324.129417c -5.18  -4.51c
iter:  83 18:46:46  -324.129416c -5.33  -4.54c
iter:  84 18:46:53  -324.129418c -5.63  -4.55c
Writing to output.gpw (mode='')

iter:  85 18:47:01  -324.129418c -5.64  -4.67c
iter:  86 18:47:08  -324.129416c -5.62  -4.81c
iter:  87 18:47:15  -324.129416c -5.81  -5.03c
iter:  88 18:47:23  -324.129417c -5.66  -5.06c
iter:  89 18:47:30  -324.129417c -5.68  -5.07c
Writing to output.gpw (mode='')

iter:  90 18:47:38  -324.129417c -5.93  -5.13c
iter:  91 18:47:45  -324.129418c -5.94  -5.23c
iter:  92 18:47:53  -324.129418c -6.07  -5.36c
iter:  93 18:48:00  -324.129418c -6.13  -5.51c
iter:  94 18:48:08  -324.129418c -6.25  -5.54c
Writing to output.gpw (mode='')

iter:  95 18:48:15  -324.129418c -6.23  -5.54c
iter:  96 18:48:23  -324.129418c -6.42  -5.47c
iter:  97 18:48:30  -324.129418c -6.37  -5.47c
iter:  98 18:48:38  -324.129418c -6.26  -5.40c
iter:  99 18:48:45  -324.129418c -6.32  -5.41c
Writing to output.gpw (mode='')

iter: 100 18:48:53  -324.129418c -6.54  -5.47c
iter: 101 18:49:00  -324.129418c -6.52  -5.47c
iter: 102 18:49:13  -324.129417c -6.54  -5.50c
iter: 103 18:49:21  -324.129418c -6.67  -5.60c
iter: 104 18:49:29  -324.129418c -6.54  -5.59c
Writing to output.gpw (mode='')

iter: 105 18:49:36  -324.129417c -6.67  -5.83c
iter: 106 18:49:44  -324.129417c -6.78  -5.83c
iter: 107 18:49:51  -324.129418c -6.88  -5.75c
iter: 108 18:49:58  -324.129418c -6.98  -5.78c
iter: 109 18:50:06  -324.129418c -6.97  -5.76c
Writing to output.gpw (mode='')

iter: 110 18:50:13  -324.129418c -6.97  -5.61c
iter: 111 18:50:21  -324.129418c -7.00  -5.54c
iter: 112 18:50:28  -324.129418c -7.10  -5.58c
iter: 113 18:50:36  -324.129417c -7.12  -5.49c
iter: 114 18:50:43  -324.129418c -7.16  -5.62c
Writing to output.gpw (mode='')

iter: 115 18:50:50  -324.129418c -7.19  -5.53c
iter: 116 18:50:58  -324.129418c -7.18  -5.68c
iter: 117 18:51:05  -324.129418c -7.24  -5.82c
iter: 118 18:51:12  -324.129418c -7.46c -5.89c

Converged after 118 iterations.

Dipole moment: (-16.402558, -15.774595, 0.172162) |e|*Ang

Energy contributions relative to reference atoms: (reference = -15487.462483)

Kinetic:       +203.746309
Potential:     -186.250540
External:        +0.000000
XC:            -342.288278
Entropy (-ST):   -0.153638
Local:           +0.739911
--------------------------
Free energy:   -324.206237
Extrapolated:  -324.129418

Dipole-layer corrected work functions: 3.387880, 3.056926 eV

Showing only first 2 kpts
 Kpt  Band  Eigenvalues  Occupancy
  0    34     -3.43051    1.96933
  0    35     -3.38653    1.92765
  0    36     -3.05245    0.06465
  0    37     -3.00825    0.02723

  1    34     -3.27429    1.47681
  1    35     -3.21743    0.95032
  1    36     -3.18981    0.68518
  1    37     -3.12049    0.23048


Fermi level: -3.22240

No gap
Writing to output.gpw (mode='')


Forces in eV/Ang:
  0 Li    0.00712    0.00646   -0.26972
  1 Li   -0.00606    0.00028   -0.27358
  2 Li   -0.00195    0.01286   -0.26796
  3 Li    0.00050   -0.00289   -0.27384
  4 Li    0.00011    0.00222   -0.28748
  5 Li   -0.00107   -0.00447   -0.26970
  6 Li    0.01337   -0.00385   -0.26925
  7 Li   -0.00750   -0.00266   -0.27215
  8 Li   -0.00694   -0.00931   -0.26756
  9 Li   -0.00385   -0.00164    0.31182
 10 Li    0.00971    0.00119    0.25253
 11 Li   -0.00560    0.00142    0.27600
 12 Li    0.00071    0.01411    0.25397
 13 Li   -0.00101   -0.00661    0.26131
 14 Li    0.00157    0.00518    0.25834
 15 Li   -0.00003   -0.01242    0.26703
 16 Li    0.00715    0.00595    0.25380
 17 Li   -0.00603   -0.00562    0.25817
 18 Li   -0.00539   -0.00524    0.03539
 19 Li    0.00625   -0.00260    0.03497
 20 Li    0.00089    0.01090    0.00521
 21 Li    0.00270    0.00523    0.03780
 22 Li   -0.00220   -0.00175    0.03394
 23 Li    0.00024    0.00267    0.04566
 24 Li    0.00452   -0.00008    0.00764
 25 Li    0.00381    0.00457    0.04345
 26 Li   -0.00348   -0.01037   -0.01471
 27 Li   -0.00550    0.01520   -1.56588
 28 Li    0.00122    0.00912   -0.01603
 29 Li    0.00986    0.00629   -0.00207
 30 Li    0.00517    0.00530   -0.04373
 31 Li   -0.00923   -0.01064   -0.01577
 32 Li    0.00130    0.01063   -0.02184
 33 Li    0.00411   -0.00762   -0.01106
 34 Li    0.00203    0.00018   -0.01972
 35 Li   -0.01123   -0.02055   -0.02513
 36 O    -0.10335   -0.70535   11.27252
 37 C    -0.41274   -0.06665    0.22912
 38 C     1.83855    3.24537    1.78006
 39 C     0.24910   -0.09725   -0.04563
 40 H    -0.09118    0.10952   -0.03998
 41 H     0.01717    0.01425   -0.17496
 42 H     0.23113    0.24814    0.56168
 43 H    -0.28871   -0.44919    0.07452
 44 H     0.01433    0.02124   -0.03509
 45 H    -0.06480   -0.07356   -0.01423
 46 H    -0.01891   -0.02331    0.00947
 47 H    -2.93694   -0.47349    5.21868
 48 N    -3.43261   -1.36018   -6.28416
 49 N     4.96477   -0.39890  -10.98215

System changes: positions 

Initializing position-dependent things.

Density initialized from wave functions
       .-----------------------.  
      /|                       |  
     / |                       |  
    /  |                       |  
   /   |                       |  
  /    |                       |  
 *     |                       |  
 |     |                       |  
 |     |                      H|  
 |     |                       O  
 |     N                       |  
 |    H|                       |  
 |  C  |                H  H   N  
 |   HH|                  C    |  
 | C   |                H      |  
 |   H |                       |  
 |   Li|     Li      Li        |  
 |     |  Li      Li      Li   |  
 | Li  |   Li      Li          |  
 |     |Li      Li      Li     |  
 |     | Li      Li      Li    |  
 |   LLi     LLi     LLi       |  
 |     |  Li      Li      Li   |  
 | Li  |   Li      Li          |  
 |     |Li      Li      Li     |  
 Li    | Li      Li            |  
 |    Li      Li      Li       |  
 |     |                       |  
 |     |                       |  
 |     |                       |  
 |     |                       |  
 |     |                       |  
 |     |                       |  
 |     .-----------------------.  
 |    /                       /   
 |   /                       /    
 |  /                       /     
 | /                       /      
 |/                       /       
 *-----------------------*        

Positions:
   0 Li     1.617037    1.617037   10.000000    ( 0.0000,  0.0000,  0.0000)
   1 Li     4.851111    1.617037   10.000000    ( 0.0000,  0.0000,  0.0000)
   2 Li     8.085185    1.617037   10.000000    ( 0.0000,  0.0000,  0.0000)
   3 Li     1.617037    4.851111   10.000000    ( 0.0000,  0.0000,  0.0000)
   4 Li     4.851111    4.851111   10.000000    ( 0.0000,  0.0000,  0.0000)
   5 Li     8.085185    4.851111   10.000000    ( 0.0000,  0.0000,  0.0000)
   6 Li     1.617037    8.085185   10.000000    ( 0.0000,  0.0000,  0.0000)
   7 Li     4.851111    8.085185   10.000000    ( 0.0000,  0.0000,  0.0000)
   8 Li     8.085185    8.085185   10.000000    ( 0.0000,  0.0000,  0.0000)
   9 Li     0.000000    0.000000   11.617037    ( 0.0000,  0.0000,  0.0000)
  10 Li     3.234074    0.000000   11.617037    ( 0.0000,  0.0000,  0.0000)
  11 Li     6.468148    0.000000   11.617037    ( 0.0000,  0.0000,  0.0000)
  12 Li     0.000000    3.234074   11.617037    ( 0.0000,  0.0000,  0.0000)
  13 Li     3.234074    3.234074   11.617037    ( 0.0000,  0.0000,  0.0000)
  14 Li     6.468148    3.234074   11.617037    ( 0.0000,  0.0000,  0.0000)
  15 Li     0.000000    6.468148   11.617037    ( 0.0000,  0.0000,  0.0000)
  16 Li     3.234074    6.468148   11.617037    ( 0.0000,  0.0000,  0.0000)
  17 Li     6.468148    6.468148   11.617037    ( 0.0000,  0.0000,  0.0000)
  18 Li     1.617020    1.617021   13.469845    ( 0.0000,  0.0000,  0.0000)
  19 Li     4.851132    1.617030   13.469845    ( 0.0000,  0.0000,  0.0000)
  20 Li     8.085187    1.617074   13.469745    ( 0.0000,  0.0000,  0.0000)
  21 Li     1.617047    4.851128   13.469855    ( 0.0000,  0.0000,  0.0000)
  22 Li     4.851104    4.851105   13.469843    ( 0.0000,  0.0000,  0.0000)
  23 Li     8.085184    4.851120   13.469881    ( 0.0000,  0.0000,  0.0000)
  24 Li     1.617053    8.085184   13.469753    ( 0.0000,  0.0000,  0.0000)
  25 Li     4.851124    8.085199   13.469874    ( 0.0000,  0.0000,  0.0000)
  26 Li     8.085172    8.085149   13.469679    ( 0.0000,  0.0000,  0.0000)
  27 Li    -0.000018    0.000050   15.440745    ( 0.0000,  0.0000,  0.0000)
  28 Li     3.234078    0.000030   15.445886    ( 0.0000,  0.0000,  0.0000)
  29 Li     6.468181    0.000021   15.445932    ( 0.0000,  0.0000,  0.0000)
  30 Li     0.000017    3.234091   15.445794    ( 0.0000,  0.0000,  0.0000)
  31 Li     3.234046    3.234041   15.445886    ( 0.0000,  0.0000,  0.0000)
  32 Li     6.468150    3.234112   15.445866    ( 0.0000,  0.0000,  0.0000)
  33 Li     0.000014    6.468123   15.445902    ( 0.0000,  0.0000,  0.0000)
  34 Li     3.234083    6.468146   15.445873    ( 0.0000,  0.0000,  0.0000)
  35 Li     6.468108    6.468077   15.445855    ( 0.0000,  0.0000,  0.0000)
  36 O      9.701879    9.699882   19.683331    ( 0.0000,  0.0000,  0.0000)
  37 C      9.313232   12.136250   19.646829    ( 0.0000,  0.0000,  0.0000)
  38 C     10.331109   11.005047   19.662527    ( 0.0000,  0.0000,  0.0000)
  39 C      9.977841   13.516483   19.639557    ( 0.0000,  0.0000,  0.0000)
  40 H      8.671449   12.018221   18.768636    ( 0.0000,  0.0000,  0.0000)
  41 H      8.672900   12.042604   20.531168    ( 0.0000,  0.0000,  0.0000)
  42 H     10.945721   11.018913   18.758594    ( 0.0000,  0.0000,  0.0000)
  43 H     10.990956   11.086374   20.524643    ( 0.0000,  0.0000,  0.0000)
  44 H     10.603142   13.650413   18.753913    ( 0.0000,  0.0000,  0.0000)
  45 H      9.232024   14.313843   19.638855    ( 0.0000,  0.0000,  0.0000)
  46 H     10.612468   13.658278   20.518000    ( 0.0000,  0.0000,  0.0000)
  47 H      9.114922    9.651890   20.434562    ( 0.0000,  0.0000,  0.0000)
  48 N      9.690614    9.697488   17.175094    ( 0.0000,  0.0000,  0.0000)
  49 N      9.718468    9.700677   18.256133    ( 0.0000,  0.0000,  0.0000)

Unit cell:
           periodic     x           y           z      points  spacing
  1. axis:    yes    9.702222    0.000000    0.000000    60     0.1617
  2. axis:    yes    0.000000    9.702222    0.000000    60     0.1617
  3. axis:    no     0.000000    0.000000   26.601111   168     0.1583

  Lengths:   9.702222   9.702222  26.601111
  Angles:   90.000000  90.000000  90.000000

Effective grid spacing dv^(1/3) = 0.1606

     iter     time        total  log10-change:
                         energy  eigst   dens
iter:   1 18:51:21  -325.685047  -0.34
iter:   2 18:51:29  -325.635591  -0.65  -1.58
iter:   3 18:51:36  -325.595634  -1.00  -1.72
iter:   4 18:51:44  -325.500064  -0.87  -1.92
Writing to output.gpw (mode='')

iter:   5 18:51:52  -325.517839  -1.38  -2.03
iter:   6 18:52:00  -325.522211c -1.56  -2.10
iter:   7 18:52:07  -325.494106c -1.18  -2.12
iter:   8 18:52:15  -325.483254  -1.94  -2.26
iter:   9 18:52:22  -325.484189c -1.91  -2.35
Writing to output.gpw (mode='')

iter:  10 18:52:30  -325.482642c -2.10  -2.33
iter:  11 18:52:37  -325.480916c -2.75  -2.53
iter:  12 18:52:44  -325.480844c -2.19  -2.67
iter:  13 18:52:52  -325.480406c -2.87  -2.74
iter:  14 18:52:59  -325.480390c -2.97  -2.82
Writing to output.gpw (mode='')

iter:  15 18:53:07  -325.480354c -3.42  -3.00
iter:  16 18:53:14  -325.480377c -3.22  -2.98
iter:  17 18:53:22  -325.480376c -3.34  -3.08
iter:  18 18:53:29  -325.480340c -3.96  -3.25
iter:  19 18:53:36  -325.480300c -3.96  -3.41
Writing to output.gpw (mode='')

iter:  20 18:53:44  -325.480303c -4.32  -3.47
iter:  21 18:53:51  -325.480305c -4.57  -3.50
iter:  22 18:53:59  -325.480309c -4.58  -3.55
iter:  23 18:54:12  -325.480310c -4.64  -3.73
iter:  24 18:54:21  -325.480312c -4.95  -3.83
Writing to output.gpw (mode='')

iter:  25 18:54:28  -325.480311c -5.02  -3.89
iter:  26 18:54:35  -325.480312c -5.29  -4.12c
iter:  27 18:54:43  -325.480310c -5.11  -4.18c
iter:  28 18:54:50  -325.480310c -5.58  -4.27c
iter:  29 18:54:58  -325.480311c -5.57  -4.31c
Writing to output.gpw (mode='')

iter:  30 18:55:05  -325.480312c -5.71  -4.33c
iter:  31 18:55:13  -325.480312c -5.77  -4.36c
iter:  32 18:55:20  -325.480313c -5.88  -4.65c
iter:  33 18:55:28  -325.480314c -5.52  -4.79c
iter:  34 18:55:35  -325.480314c -6.04  -4.83c
Writing to output.gpw (mode='')

iter:  35 18:55:43  -325.480314c -6.14  -4.88c
iter:  36 18:55:50  -325.480314c -6.37  -4.98c
iter:  37 18:55:58  -325.480315c -6.45  -5.04c
iter:  38 18:56:05  -325.480315c -6.24  -5.05c
iter:  39 18:56:12  -325.480315c -6.62  -5.02c
Writing to output.gpw (mode='')

iter:  40 18:56:20  -325.480315c -6.72  -5.02c
iter:  41 18:56:27  -325.480315c -6.78  -5.02c
iter:  42 18:56:35  -325.480315c -6.87  -4.95c
iter:  43 18:56:42  -325.480315c -6.80  -5.01c
iter:  44 18:56:50  -325.480315c -6.95  -4.96c
Writing to output.gpw (mode='')

iter:  45 18:56:57  -325.480315c -6.95  -4.98c
iter:  46 18:57:05  -325.480315c -7.01  -4.99c
iter:  47 18:57:12  -325.480315c -7.14  -4.98c
iter:  48 18:57:19  -325.480315c -7.19  -4.97c
iter:  49 18:57:27  -325.480315c -7.35  -5.02c
Writing to output.gpw (mode='')

iter:  50 18:57:34  -325.480315c -7.34  -5.08c
iter:  51 18:57:42  -325.480315c -7.22  -5.15c
iter:  52 18:57:49  -325.480315c -7.67c -5.22c

Converged after 52 iterations.

Dipole moment: (-16.658517, -14.919112, 0.217131) |e|*Ang

Energy contributions relative to reference atoms: (reference = -15487.462483)

Kinetic:       +208.938583
Potential:     -191.634643
External:        +0.000000
XC:            -343.443768
Entropy (-ST):   -0.145533
Local:           +0.732279
--------------------------
Free energy:   -325.553081
Extrapolated:  -325.480315

Dipole-layer corrected work functions: 3.389392, 2.971991 eV

Showing only first 2 kpts
 Kpt  Band  Eigenvalues  Occupancy
  0    34     -3.42658    1.98548
  0    35     -3.36121    1.94734
  0    36     -3.00518    0.05805
  0    37     -2.94218    0.01681

  1    34     -3.22666    1.42981
  1    35     -3.17244    0.91770
  1    36     -3.14892    0.69255
  1    37     -3.08598    0.26152


Fermi level: -3.18069

No gap
Writing to output.gpw (mode='')


Forces in eV/Ang:
  0 Li    0.00631    0.00653   -0.26920
  1 Li   -0.00363   -0.00070   -0.27083
  2 Li   -0.00321    0.01065   -0.26891
  3 Li   -0.00088   -0.00220   -0.27056
  4 Li    0.00107    0.00184   -0.28695
  5 Li   -0.00011   -0.00233   -0.26887
  6 Li    0.01020   -0.00443   -0.26919
  7 Li   -0.00366   -0.00134   -0.27009
  8 Li   -0.00731   -0.00904   -0.26885
  9 Li   -0.00315   -0.00109    0.31132
 10 Li    0.01164    0.00089    0.25359
 11 Li   -0.00778    0.00086    0.26838
 12 Li    0.00121    0.01442    0.25352
 13 Li    0.00068   -0.00377    0.26008
 14 Li   -0.00136    0.00570    0.25837
 15 Li    0.00034   -0.01341    0.26204
 16 Li    0.00625    0.00306    0.25645
 17 Li   -0.00578   -0.00561    0.25562
 18 Li   -0.00213   -0.00153    0.02839
 19 Li    0.00528   -0.00168    0.04107
 20 Li   -0.00176    0.01088    0.00167
 21 Li    0.00257    0.00370    0.04309
 22 Li   -0.00264   -0.00093    0.02717
 23 Li    0.00003    0.00310    0.04957
 24 Li    0.00421   -0.00206    0.00390
 25 Li    0.00475    0.00281    0.04725
 26 Li   -0.00593   -0.01202   -0.01580
 27 Li   -0.01036    0.01463   -1.88661
 28 Li    0.02604    0.00835   -0.03003
 29 Li   -0.02070    0.00557   -0.02408
 30 Li    0.00437    0.02996   -0.05911
 31 Li   -0.00521   -0.00609   -0.02026
 32 Li   -0.00243    0.01150   -0.02568
 33 Li    0.00326   -0.03203   -0.02816
 34 Li    0.00486   -0.00408   -0.02285
 35 Li   -0.01193   -0.01948   -0.02984
 36 O    -0.72793   -0.36186   13.58370
 37 C    -0.20228    0.06867    0.18277
 38 C     1.00143    2.04372    1.66254
 39 C     0.10745   -0.04402   -0.02782
 40 H    -0.07772    0.08269   -0.02980
 41 H    -0.03087    0.01921   -0.11159
 42 H     0.18600    0.20088    0.55564
 43 H    -0.03310   -0.21560    0.19508
 44 H     0.02177    0.01393   -0.04313
 45 H    -0.03552   -0.05881   -0.01823
 46 H    -0.00795   -0.02677    0.01328
 47 H    -2.02357   -0.11053    4.63994
 48 N    -3.23941   -1.14209   -6.37104
 49 N     5.06484   -0.48356  -12.22821

System changes: positions 

Initializing position-dependent things.

Density initialized from wave functions
       .-----------------------.  
      /|                       |  
     / |                       |  
    /  |                       |  
   /   |                       |  
  /    |                       |  
 *     |                       |  
 |     |                       |  
 |     |                     H |  
 |     O                       |  
 |     N                       |  
 |    H|                       |  
 |  C  |                H  H   N  
 |   HH|                  C    |  
 | C   |                H      |  
 |   H |                       |  
 |   Li|     Li      Li        |  
 |     |  Li      Li      Li   |  
 | Li  |   Li      Li          |  
 |     |Li      Li      Li     |  
 Li    | Li      Li            |  
 |   LLi     LLi     LLi       |  
 |     |  Li      Li      Li   |  
 | Li  |   Li      Li          |  
 |     |Li      Li      Li     |  
 Li    | Li      Li            |  
 |    Li      Li      Li       |  
 |     |                       |  
 |     |                       |  
 |     |                       |  
 |     |                       |  
 |     |                       |  
 |     |                       |  
 |     .-----------------------.  
 |    /                       /   
 |   /                       /    
 |  /                       /     
 | /                       /      
 |/                       /       
 *-----------------------*        

Positions:
   0 Li     1.617037    1.617037   10.000000    ( 0.0000,  0.0000,  0.0000)
   1 Li     4.851111    1.617037   10.000000    ( 0.0000,  0.0000,  0.0000)
   2 Li     8.085185    1.617037   10.000000    ( 0.0000,  0.0000,  0.0000)
   3 Li     1.617037    4.851111   10.000000    ( 0.0000,  0.0000,  0.0000)
   4 Li     4.851111    4.851111   10.000000    ( 0.0000,  0.0000,  0.0000)
   5 Li     8.085185    4.851111   10.000000    ( 0.0000,  0.0000,  0.0000)
   6 Li     1.617037    8.085185   10.000000    ( 0.0000,  0.0000,  0.0000)
   7 Li     4.851111    8.085185   10.000000    ( 0.0000,  0.0000,  0.0000)
   8 Li     8.085185    8.085185   10.000000    ( 0.0000,  0.0000,  0.0000)
   9 Li     0.000000    0.000000   11.617037    ( 0.0000,  0.0000,  0.0000)
  10 Li     3.234074    0.000000   11.617037    ( 0.0000,  0.0000,  0.0000)
  11 Li     6.468148    0.000000   11.617037    ( 0.0000,  0.0000,  0.0000)
  12 Li     0.000000    3.234074   11.617037    ( 0.0000,  0.0000,  0.0000)
  13 Li     3.234074    3.234074   11.617037    ( 0.0000,  0.0000,  0.0000)
  14 Li     6.468148    3.234074   11.617037    ( 0.0000,  0.0000,  0.0000)
  15 Li     0.000000    6.468148   11.617037    ( 0.0000,  0.0000,  0.0000)
  16 Li     3.234074    6.468148   11.617037    ( 0.0000,  0.0000,  0.0000)
  17 Li     6.468148    6.468148   11.617037    ( 0.0000,  0.0000,  0.0000)
  18 Li     1.616967    1.616963   13.470061    ( 0.0000,  0.0000,  0.0000)
  19 Li     4.851167    1.617010   13.469936    ( 0.0000,  0.0000,  0.0000)
  20 Li     8.085216    1.617121   13.469801    ( 0.0000,  0.0000,  0.0000)
  21 Li     1.617060    4.851165   13.469965    ( 0.0000,  0.0000,  0.0000)
  22 Li     4.851099    4.851090   13.470050    ( 0.0000,  0.0000,  0.0000)
  23 Li     8.085187    4.851127   13.470037    ( 0.0000,  0.0000,  0.0000)
  24 Li     1.617075    8.085202   13.469821    ( 0.0000,  0.0000,  0.0000)
  25 Li     4.851131    8.085235   13.470021    ( 0.0000,  0.0000,  0.0000)
  26 Li     8.085181    8.085121   13.469627    ( 0.0000,  0.0000,  0.0000)
  27 Li     0.000005    0.000120   15.437163    ( 0.0000,  0.0000,  0.0000)
  28 Li     3.233848    0.000076   15.445950    ( 0.0000,  0.0000,  0.0000)
  29 Li     6.468512    0.000054   15.446131    ( 0.0000,  0.0000,  0.0000)
  30 Li     0.000047    3.233880   15.445755    ( 0.0000,  0.0000,  0.0000)
  31 Li     3.233969    3.233953   15.445861    ( 0.0000,  0.0000,  0.0000)
  32 Li     6.468191    3.234148   15.445810    ( 0.0000,  0.0000,  0.0000)
  33 Li     0.000039    6.468322   15.446017    ( 0.0000,  0.0000,  0.0000)
  34 Li     3.234065    6.468187   15.445819    ( 0.0000,  0.0000,  0.0000)
  35 Li     6.468067    6.467980   15.445793    ( 0.0000,  0.0000,  0.0000)
  36 O      9.707351    9.693653   19.709095    ( 0.0000,  0.0000,  0.0000)
  37 C      9.309498   12.134688   19.648236    ( 0.0000,  0.0000,  0.0000)
  38 C     10.346796   11.030126   19.671159    ( 0.0000,  0.0000,  0.0000)
  39 C      9.980233   13.515569   19.639195    ( 0.0000,  0.0000,  0.0000)
  40 H      8.670937   12.018938   18.768370    ( 0.0000,  0.0000,  0.0000)
  41 H      8.673427   12.042617   20.529829    ( 0.0000,  0.0000,  0.0000)
  42 H     10.947124   11.020408   18.761024    ( 0.0000,  0.0000,  0.0000)
  43 H     10.987318   11.082267   20.523818    ( 0.0000,  0.0000,  0.0000)
  44 H     10.603132   13.650572   18.753841    ( 0.0000,  0.0000,  0.0000)
  45 H      9.231474   14.313393   19.638833    ( 0.0000,  0.0000,  0.0000)
  46 H     10.612284   13.658212   20.518004    ( 0.0000,  0.0000,  0.0000)
  47 H      9.093873    9.646456   20.462085    ( 0.0000,  0.0000,  0.0000)
  48 N      9.674283    9.689678   17.149365    ( 0.0000,  0.0000,  0.0000)
  49 N      9.738498    9.699792   18.221520    ( 0.0000,  0.0000,  0.0000)

Unit cell:
           periodic     x           y           z      points  spacing
  1. axis:    yes    9.702222    0.000000    0.000000    60     0.1617
  2. axis:    yes    0.000000    9.702222    0.000000    60     0.1617
  3. axis:    no     0.000000    0.000000   26.601111   168     0.1583

  Lengths:   9.702222   9.702222  26.601111
  Angles:   90.000000  90.000000  90.000000

Effective grid spacing dv^(1/3) = 0.1606

     iter     time        total  log10-change:
                         energy  eigst   dens
iter:   1 18:57:58  -326.860448  -0.63
iter:   2 18:58:06  -326.803804  -0.93  -1.59
iter:   3 18:58:13  -326.774384  -1.45  -1.73
iter:   4 18:58:21  -326.740348  -1.23  -2.05
Writing to output.gpw (mode='')

iter:   5 18:58:28  -326.739125c -1.79  -2.25
iter:   6 18:58:35  -326.737553c -1.91  -2.32
iter:   7 18:58:43  -326.735669c -1.85  -2.35
iter:   8 18:58:50  -326.734895c -2.15  -2.51
iter:   9 18:58:58  -326.735553c -2.52  -2.69
Writing to output.gpw (mode='')

iter:  10 18:59:05  -326.735533c -2.48  -2.74
iter:  11 18:59:19  -326.735504c -3.11  -2.87
iter:  12 18:59:26  -326.735554c -3.21  -2.96
iter:  13 18:59:34  -326.735567c -3.56  -3.06
iter:  14 18:59:41  -326.735530c -3.65  -3.08
Writing to output.gpw (mode='')

iter:  15 18:59:48  -326.735625c -3.60  -3.21
iter:  16 18:59:56  -326.735614c -4.09  -3.23
iter:  17 19:00:03  -326.735626c -4.03  -3.25
iter:  18 19:00:11  -326.735665c -4.29  -3.43
iter:  19 19:00:18  -326.735664c -4.09  -3.50
Writing to output.gpw (mode='')

iter:  20 19:00:26  -326.735666c -4.15  -3.58
iter:  21 19:00:33  -326.735652c -4.56  -3.70
iter:  22 19:00:40  -326.735657c -4.62  -3.86
iter:  23 19:00:48  -326.735664c -4.91  -3.90
iter:  24 19:00:55  -326.735674c -4.97  -3.97
Writing to output.gpw (mode='')

iter:  25 19:01:03  -326.735668c -5.18  -3.96
iter:  26 19:01:10  -326.735666c -5.32  -4.13c
iter:  27 19:01:18  -326.735665c -5.42  -4.30c
iter:  28 19:01:25  -326.735665c -5.74  -4.38c
iter:  29 19:01:33  -326.735668c -5.57  -4.39c
Writing to output.gpw (mode='')

iter:  30 19:01:40  -326.735668c -5.89  -4.51c
iter:  31 19:01:48  -326.735668c -5.86  -4.80c
iter:  32 19:01:55  -326.735668c -5.80  -4.81c
iter:  33 19:02:03  -326.735668c -6.21  -4.83c
iter:  34 19:02:10  -326.735668c -6.24  -4.84c
Writing to output.gpw (mode='')

iter:  35 19:02:17  -326.735668c -6.37  -4.84c
iter:  36 19:02:25  -326.735668c -6.51  -4.72c
iter:  37 19:02:32  -326.735668c -6.53  -4.77c
iter:  38 19:02:40  -326.735669c -6.50  -4.76c
iter:  39 19:02:47  -326.735668c -6.79  -4.83c
Writing to output.gpw (mode='')

iter:  40 19:02:55  -326.735668c -7.00  -4.89c
iter:  41 19:03:02  -326.735669c -6.53  -4.87c
iter:  42 19:03:09  -326.735669c -7.08  -4.82c
iter:  43 19:03:17  -326.735669c -7.04  -4.84c
iter:  44 19:03:24  -326.735669c -7.15  -4.99c
Writing to output.gpw (mode='')

iter:  45 19:03:32  -326.735669c -6.99  -5.07c
iter:  46 19:03:39  -326.735669c -7.52c -5.07c

Converged after 46 iterations.

Dipole moment: (-17.036121, -13.348184, 0.272853) |e|*Ang

Energy contributions relative to reference atoms: (reference = -15487.462483)

Kinetic:       +207.868602
Potential:     -191.718414
External:        +0.000000
XC:            -343.551580
Entropy (-ST):   -0.145011
Local:           +0.738228
--------------------------
Free energy:   -326.808175
Extrapolated:  -326.735669

Dipole-layer corrected work functions: 3.387616, 2.863099 eV

Showing only first 2 kpts
 Kpt  Band  Eigenvalues  Occupancy
  0    34     -3.37384    1.98620
  0    35     -3.30576    1.94723
  0    36     -2.94993    0.05814
  0    37     -2.88173    0.01519

  1    34     -3.16938    1.41382
  1    35     -3.11680    0.91465
  1    36     -3.09307    0.68792
  1    37     -3.03460    0.28003


Fermi level: -3.12536

No gap
Writing to output.gpw (mode='')


Forces in eV/Ang:
  0 Li    0.00571    0.00644   -0.26884
  1 Li   -0.00231   -0.00109   -0.27003
  2 Li   -0.00370    0.00938   -0.26924
  3 Li   -0.00126   -0.00165   -0.26964
  4 Li    0.00105    0.00156   -0.28603
  5 Li    0.00060   -0.00177   -0.26855
  6 Li    0.00873   -0.00477   -0.26908
  7 Li   -0.00235   -0.00060   -0.26948
  8 Li   -0.00708   -0.00829   -0.26921
  9 Li   -0.00282   -0.00085    0.31021
 10 Li    0.01178    0.00078    0.25486
 11 Li   -0.00788    0.00072    0.26554
 12 Li    0.00132    0.01408    0.25383
 13 Li    0.00110   -0.00286    0.25994
 14 Li   -0.00231    0.00549    0.25870
 15 Li    0.00050   -0.01323    0.26038
 16 Li    0.00563    0.00204    0.25766
 17 Li   -0.00542   -0.00523    0.25546
 18 Li   -0.00051    0.00034    0.02424
 19 Li    0.00443   -0.00133    0.04327
 20 Li   -0.00305    0.01135    0.00050
 21 Li    0.00246    0.00288    0.04517
 22 Li   -0.00268   -0.00064    0.02449
 23 Li   -0.00024    0.00327    0.05051
 24 Li    0.00436   -0.00317    0.00263
 25 Li    0.00491    0.00207    0.04847
 26 Li   -0.00707   -0.01307   -0.01689
 27 Li   -0.00940    0.01915   -2.20698
 28 Li    0.03646    0.00722   -0.03706
 29 Li   -0.03515    0.00599   -0.03404
 30 Li    0.00317    0.04045   -0.06758
 31 Li   -0.00257   -0.00282   -0.02305
 32 Li   -0.00366    0.01100   -0.02698
 33 Li    0.00341   -0.04289   -0.03627
 34 Li    0.00566   -0.00629   -0.02425
 35 Li   -0.01239   -0.01907   -0.03130
 36 O    -1.29978    0.00853   13.19486
 37 C     0.13663    0.31376    0.10570
 38 C    -0.14287    0.67097    1.10838
 39 C    -0.13855    0.05675    0.00080
 40 H    -0.05559    0.03187   -0.03493
 41 H    -0.11533    0.00844    0.01320
 42 H     0.24359    0.25252    0.48865
 43 H     0.43439    0.04130    0.68302
 44 H     0.04309    0.00082   -0.07292
 45 H     0.02927   -0.07833   -0.02309
 46 H     0.01544   -0.03107    0.03299
 47 H    -0.90887    0.14398    3.19834
 48 N    -3.13776   -0.98665   -6.34496
 49 N     4.95300   -0.42785  -10.03512

System changes: positions 

Initializing position-dependent things.

Density initialized from wave functions
       .-----------------------.  
      /|                       |  
     / |                       |  
    /  |                       |  
   /   |                       |  
  /    |                       |  
 *     |                       |  
 |     |                       |  
 |     |                     H |  
 |     O                       |  
 |     N                       |  
 |    H|                       |  
 |  C  |                H  H   N  
 |   HH|                  C    |  
 | C   |                H      |  
 |   H |                       |  
 |   Li|     Li      Li        |  
 |     |  Li      Li      Li   |  
 | Li  |   Li      Li          |  
 |     |Li      Li      Li     |  
 Li    | Li      Li            |  
 |   LLi     LLi     LLi       |  
 |     |  Li      Li      Li   |  
 | Li  |   Li      Li          |  
 |     |Li      Li      Li     |  
 Li    | Li      Li            |  
 |    Li      Li      Li       |  
 |     |                       |  
 |     |                       |  
 |     |                       |  
 |     |                       |  
 |     |                       |  
 |     |                       |  
 |     .-----------------------.  
 |    /                       /   
 |   /                       /    
 |  /                       /     
 | /                       /      
 |/                       /       
 *-----------------------*        

Positions:
   0 Li     1.617037    1.617037   10.000000    ( 0.0000,  0.0000,  0.0000)
   1 Li     4.851111    1.617037   10.000000    ( 0.0000,  0.0000,  0.0000)
   2 Li     8.085185    1.617037   10.000000    ( 0.0000,  0.0000,  0.0000)
   3 Li     1.617037    4.851111   10.000000    ( 0.0000,  0.0000,  0.0000)
   4 Li     4.851111    4.851111   10.000000    ( 0.0000,  0.0000,  0.0000)
   5 Li     8.085185    4.851111   10.000000    ( 0.0000,  0.0000,  0.0000)
   6 Li     1.617037    8.085185   10.000000    ( 0.0000,  0.0000,  0.0000)
   7 Li     4.851111    8.085185   10.000000    ( 0.0000,  0.0000,  0.0000)
   8 Li     8.085185    8.085185   10.000000    ( 0.0000,  0.0000,  0.0000)
   9 Li     0.000000    0.000000   11.617037    ( 0.0000,  0.0000,  0.0000)
  10 Li     3.234074    0.000000   11.617037    ( 0.0000,  0.0000,  0.0000)
  11 Li     6.468148    0.000000   11.617037    ( 0.0000,  0.0000,  0.0000)
  12 Li     0.000000    3.234074   11.617037    ( 0.0000,  0.0000,  0.0000)
  13 Li     3.234074    3.234074   11.617037    ( 0.0000,  0.0000,  0.0000)
  14 Li     6.468148    3.234074   11.617037    ( 0.0000,  0.0000,  0.0000)
  15 Li     0.000000    6.468148   11.617037    ( 0.0000,  0.0000,  0.0000)
  16 Li     3.234074    6.468148   11.617037    ( 0.0000,  0.0000,  0.0000)
  17 Li     6.468148    6.468148   11.617037    ( 0.0000,  0.0000,  0.0000)
  18 Li     1.616914    1.616909   13.470297    ( 0.0000,  0.0000,  0.0000)
  19 Li     4.851204    1.616988   13.470078    ( 0.0000,  0.0000,  0.0000)
  20 Li     8.085239    1.617187   13.469860    ( 0.0000,  0.0000,  0.0000)
  21 Li     1.617075    4.851204   13.470132    ( 0.0000,  0.0000,  0.0000)
  22 Li     4.851092    4.851073   13.470292    ( 0.0000,  0.0000,  0.0000)
  23 Li     8.085188    4.851138   13.470251    ( 0.0000,  0.0000,  0.0000)
  24 Li     1.617106    8.085213   13.469896    ( 0.0000,  0.0000,  0.0000)
  25 Li     4.851142    8.085273   13.470228    ( 0.0000,  0.0000,  0.0000)
  26 Li     8.085179    8.085072   13.469547    ( 0.0000,  0.0000,  0.0000)
  27 Li     0.000046    0.000263   15.428829    ( 0.0000,  0.0000,  0.0000)
  28 Li     3.233664    0.000123   15.445956    ( 0.0000,  0.0000,  0.0000)
  29 Li     6.468783    0.000103   15.446281    ( 0.0000,  0.0000,  0.0000)
  30 Li     0.000072    3.233721   15.445608    ( 0.0000,  0.0000,  0.0000)
  31 Li     3.233898    3.233875   15.445798    ( 0.0000,  0.0000,  0.0000)
  32 Li     6.468230    3.234191   15.445722    ( 0.0000,  0.0000,  0.0000)
  33 Li     0.000074    6.468460   15.446077    ( 0.0000,  0.0000,  0.0000)
  34 Li     3.234050    6.468216   15.445733    ( 0.0000,  0.0000,  0.0000)
  35 Li     6.468009    6.467858   15.445696    ( 0.0000,  0.0000,  0.0000)
  36 O      9.708038    9.689694   19.738158    ( 0.0000,  0.0000,  0.0000)
  37 C      9.308463   12.135436   19.649201    ( 0.0000,  0.0000,  0.0000)
  38 C     10.354336   11.047402   19.676136    ( 0.0000,  0.0000,  0.0000)
  39 C      9.980565   13.515519   19.639048    ( 0.0000,  0.0000,  0.0000)
  40 H      8.670517   12.019297   18.767963    ( 0.0000,  0.0000,  0.0000)
  41 H      8.673155   12.042511   20.529498    ( 0.0000,  0.0000,  0.0000)
  42 H     10.949630   11.022966   18.763443    ( 0.0000,  0.0000,  0.0000)
  43 H     10.987881   11.079801   20.528317    ( 0.0000,  0.0000,  0.0000)
  44 H     10.603363   13.650631   18.753406    ( 0.0000,  0.0000,  0.0000)
  45 H      9.231491   14.312577   19.638748    ( 0.0000,  0.0000,  0.0000)
  46 H     10.612310   13.658077   20.518235    ( 0.0000,  0.0000,  0.0000)
  47 H      9.078955    9.642209   20.481708    ( 0.0000,  0.0000,  0.0000)
  48 N      9.654016    9.681196   17.115940    ( 0.0000,  0.0000,  0.0000)
  49 N      9.763466    9.699281   18.201424    ( 0.0000,  0.0000,  0.0000)

Unit cell:
           periodic     x           y           z      points  spacing
  1. axis:    yes    9.702222    0.000000    0.000000    60     0.1617
  2. axis:    yes    0.000000    9.702222    0.000000    60     0.1617
  3. axis:    no     0.000000    0.000000   26.601111   168     0.1583

  Lengths:   9.702222   9.702222  26.601111
  Angles:   90.000000  90.000000  90.000000

Effective grid spacing dv^(1/3) = 0.1606

     iter     time        total  log10-change:
                         energy  eigst   dens
iter:   1 19:03:48  -327.766384  -0.69
iter:   2 19:03:57  -327.772626  -1.20  -2.13
iter:   3 19:04:14  -327.769089c -1.62  -2.11
iter:   4 19:04:23  -327.756559c -1.69  -2.25
Writing to output.gpw (mode='')

iter:   5 19:04:31  -327.753580c -1.97  -2.36
iter:   6 19:04:38  -327.750888c -1.97  -2.43
iter:   7 19:04:46  -327.751351c -1.96  -2.49
iter:   8 19:04:53  -327.751157c -2.57  -2.69
iter:   9 19:05:01  -327.751154c -2.87  -2.71
Writing to output.gpw (mode='')

iter:  10 19:05:08  -327.750938c -2.93  -2.73
iter:  11 19:05:16  -327.750739c -3.04  -3.00
iter:  12 19:05:23  -327.750796c -3.30  -3.05
iter:  13 19:05:31  -327.750755c -3.85  -3.12
iter:  14 19:05:38  -327.750753c -4.05  -3.21
Writing to output.gpw (mode='')

iter:  15 19:05:46  -327.750755c -3.84  -3.25
iter:  16 19:05:53  -327.750813c -3.99  -3.39
iter:  17 19:06:01  -327.750798c -4.31  -3.47
iter:  18 19:06:08  -327.750788c -4.36  -3.55
iter:  19 19:06:16  -327.750786c -4.71  -3.62
Writing to output.gpw (mode='')

iter:  20 19:06:23  -327.750781c -4.56  -3.73
iter:  21 19:06:31  -327.750781c -4.76  -3.79
iter:  22 19:06:38  -327.750782c -4.62  -3.92
iter:  23 19:06:46  -327.750784c -5.23  -4.06c
iter:  24 19:06:53  -327.750787c -5.28  -4.21c
Writing to output.gpw (mode='')

iter:  25 19:07:00  -327.750785c -5.48  -4.29c
iter:  26 19:07:08  -327.750784c -5.57  -4.36c
iter:  27 19:07:15  -327.750786c -5.63  -4.39c
iter:  28 19:07:23  -327.750787c -5.84  -4.51c
iter:  29 19:07:30  -327.750787c -5.84  -4.60c
Writing to output.gpw (mode='')

iter:  30 19:07:38  -327.750788c -5.83  -4.67c
iter:  31 19:07:48  -327.750788c -6.37  -4.71c
iter:  32 19:07:56  -327.750788c -6.41  -4.72c
iter:  33 19:08:03  -327.750788c -6.41  -4.67c
iter:  34 19:08:11  -327.750789c -6.40  -4.69c
Writing to output.gpw (mode='')

iter:  35 19:08:18  -327.750789c -6.63  -4.72c
iter:  36 19:08:26  -327.750789c -6.69  -4.71c
iter:  37 19:08:33  -327.750789c -6.90  -4.71c
iter:  38 19:08:40  -327.750789c -6.77  -4.69c
iter:  39 19:08:48  -327.750789c -7.02  -4.73c
Writing to output.gpw (mode='')

iter:  40 19:08:56  -327.750789c -7.29  -4.93c
iter:  41 19:09:03  -327.750789c -6.92  -4.94c
iter:  42 19:09:17  -327.750789c -7.10  -5.04c
iter:  43 19:09:24  -327.750789c -7.19  -5.12c
iter:  44 19:09:32  -327.750789c -7.37  -5.12c
Writing to output.gpw (mode='')

iter:  45 19:09:39  -327.750789c -7.40c -5.20c

Converged after 45 iterations.

Dipole moment: (-16.692247, -11.976214, 0.324925) |e|*Ang

Energy contributions relative to reference atoms: (reference = -15487.462483)

Kinetic:       +202.532745
Potential:     -188.064822
External:        +0.000000
XC:            -342.890632
Entropy (-ST):   -0.144786
Local:           +0.744312
--------------------------
Free energy:   -327.823182
Extrapolated:  -327.750789

Dipole-layer corrected work functions: 3.386141, 2.761524 eV

Showing only first 2 kpts
 Kpt  Band  Eigenvalues  Occupancy
  0    34     -3.32287    1.98636
  0    35     -3.25538    1.94839
  0    36     -2.89665    0.05619
  0    37     -2.83295    0.01604

  1    34     -3.11617    1.39981
  1    35     -3.06618    0.92363
  1    36     -3.04048    0.67834
  1    37     -2.98239    0.27673


Fermi level: -3.07383

No gap

Forces in eV/Ang:
  0 Li    0.00537    0.00664   -0.26895
  1 Li   -0.00172   -0.00137   -0.26961
  2 Li   -0.00381    0.00928   -0.26985
  3 Li   -0.00154   -0.00131   -0.26933
  4 Li    0.00094    0.00155   -0.28574
  5 Li    0.00126   -0.00199   -0.26805
  6 Li    0.00843   -0.00516   -0.26938
  7 Li   -0.00232   -0.00024   -0.26905
  8 Li   -0.00696   -0.00811   -0.26962
  9 Li   -0.00297   -0.00080    0.31144
 10 Li    0.01157    0.00076    0.25583
 11 Li   -0.00711    0.00076    0.26598
 12 Li    0.00142    0.01424    0.25409
 13 Li    0.00138   -0.00313    0.26011
 14 Li   -0.00305    0.00576    0.25921
 15 Li    0.00070   -0.01330    0.26035
 16 Li    0.00607    0.00202    0.25829
 17 Li   -0.00589   -0.00529    0.25551
 18 Li    0.00123    0.00235    0.01866
 19 Li    0.00388   -0.00183    0.04478
 20 Li   -0.00445    0.01403   -0.00415
 21 Li    0.00236    0.00236    0.04619
 22 Li   -0.00273   -0.00064    0.02314
 23 Li   -0.00040    0.00388    0.05114
 24 Li    0.00558   -0.00477   -0.00096
 25 Li    0.00547    0.00245    0.04990
 26 Li   -0.00885   -0.01625   -0.02373
 27 Li    0.00063    0.03005   -2.53023
 28 Li    0.03892    0.00607   -0.03801
 29 Li   -0.03756    0.00712   -0.03316
 30 Li    0.00185    0.04149   -0.06865
 31 Li   -0.00044    0.00004   -0.02475
 32 Li   -0.00446    0.01154   -0.02727
 33 Li    0.00428   -0.04382   -0.03608
 34 Li    0.00654   -0.00801   -0.02508
 35 Li   -0.01437   -0.02101   -0.03231
 36 O    -1.39091    0.27210   11.67935
 37 C     0.21092    0.41743    0.06098
 38 C    -0.59867   -0.11075    0.99171
 39 C    -0.18375    0.11696    0.01183
 40 H    -0.01843    0.01002   -0.01355
 41 H    -0.14054    0.01730    0.05953
 42 H     0.23574    0.25635    0.49140
 43 H     0.58062    0.19699    0.82262
 44 H     0.03462   -0.00646   -0.06523
 45 H     0.03116   -0.05305   -0.02679
 46 H     0.01480   -0.03037    0.02777
 47 H    -0.50232    0.27930    2.44354
 48 N    -2.94347   -0.88707   -3.03126
 49 N     4.68875   -0.55160  -10.79037

System changes: positions 

Initializing position-dependent things.

Density initialized from wave functions
       .-----------------------.  
      /|                       |  
     / |                       |  
    /  |                       |  
   /   |                       |  
  /    |                       |  
 *     |                       |  
 |     |                       |  
 |     O                     H |  
 |     |                       |  
 |     N                       |  
 |    H|                       |  
 |  C  |                H  H   N  
 |   HH|                  C    |  
 | C   |                H      |  
 |   H |                       |  
 |   Li|     Li      Li        |  
 |     |  Li      Li      Li   |  
 | Li  |   Li      Li          |  
 |     |Li      Li      Li     |  
 Li    | Li      Li            |  
 |   LLi     LLi     LLi       |  
 |     |  Li      Li      Li   |  
 | Li  |   Li      Li          |  
 |     |Li      Li      Li     |  
 Li    | Li      Li            |  
 |    Li      Li      Li       |  
 |     |                       |  
 |     |                       |  
 |     |                       |  
 |     |                       |  
 |     |                       |  
 |     |                       |  
 |     .-----------------------.  
 |    /                       /   
 |   /                       /    
 |  /                       /     
 | /                       /      
 |/                       /       
 *-----------------------*        

Positions:
   0 Li     1.617037    1.617037   10.000000    ( 0.0000,  0.0000,  0.0000)
   1 Li     4.851111    1.617037   10.000000    ( 0.0000,  0.0000,  0.0000)
   2 Li     8.085185    1.617037   10.000000    ( 0.0000,  0.0000,  0.0000)
   3 Li     1.617037    4.851111   10.000000    ( 0.0000,  0.0000,  0.0000)
   4 Li     4.851111    4.851111   10.000000    ( 0.0000,  0.0000,  0.0000)
   5 Li     8.085185    4.851111   10.000000    ( 0.0000,  0.0000,  0.0000)
   6 Li     1.617037    8.085185   10.000000    ( 0.0000,  0.0000,  0.0000)
   7 Li     4.851111    8.085185   10.000000    ( 0.0000,  0.0000,  0.0000)
   8 Li     8.085185    8.085185   10.000000    ( 0.0000,  0.0000,  0.0000)
   9 Li     0.000000    0.000000   11.617037    ( 0.0000,  0.0000,  0.0000)
  10 Li     3.234074    0.000000   11.617037    ( 0.0000,  0.0000,  0.0000)
  11 Li     6.468148    0.000000   11.617037    ( 0.0000,  0.0000,  0.0000)
  12 Li     0.000000    3.234074   11.617037    ( 0.0000,  0.0000,  0.0000)
  13 Li     3.234074    3.234074   11.617037    ( 0.0000,  0.0000,  0.0000)
  14 Li     6.468148    3.234074   11.617037    ( 0.0000,  0.0000,  0.0000)
  15 Li     0.000000    6.468148   11.617037    ( 0.0000,  0.0000,  0.0000)
  16 Li     3.234074    6.468148   11.617037    ( 0.0000,  0.0000,  0.0000)
  17 Li     6.468148    6.468148   11.617037    ( 0.0000,  0.0000,  0.0000)
  18 Li     1.616870    1.616865   13.470518    ( 0.0000,  0.0000,  0.0000)
  19 Li     4.851241    1.616959   13.470256    ( 0.0000,  0.0000,  0.0000)
  20 Li     8.085253    1.617284   13.469889    ( 0.0000,  0.0000,  0.0000)
  21 Li     1.617092    4.851243   13.470333    ( 0.0000,  0.0000,  0.0000)
  22 Li     4.851083    4.851054   13.470555    ( 0.0000,  0.0000,  0.0000)
  23 Li     8.085188    4.851157   13.470504    ( 0.0000,  0.0000,  0.0000)
  24 Li     1.617150    8.085213   13.469950    ( 0.0000,  0.0000,  0.0000)
  25 Li     4.851159    8.085320   13.470478    ( 0.0000,  0.0000,  0.0000)
  26 Li     8.085162    8.084990   13.469399    ( 0.0000,  0.0000,  0.0000)
  27 Li     0.000173    0.000515   15.416569    ( 0.0000,  0.0000,  0.0000)
  28 Li     3.233483    0.000168   15.445949    ( 0.0000,  0.0000,  0.0000)
  29 Li     6.469061    0.000168   15.446450    ( 0.0000,  0.0000,  0.0000)
  30 Li     0.000089    3.233558   15.445425    ( 0.0000,  0.0000,  0.0000)
  31 Li     3.233835    3.233810   15.445710    ( 0.0000,  0.0000,  0.0000)
  32 Li     6.468268    3.234244   15.445617    ( 0.0000,  0.0000,  0.0000)
  33 Li     0.000121    6.468601   15.446140    ( 0.0000,  0.0000,  0.0000)
  34 Li     3.234041    6.468234   15.445626    ( 0.0000,  0.0000,  0.0000)
  35 Li     6.467925    6.467702   15.445575    ( 0.0000,  0.0000,  0.0000)
  36 O      9.707864    9.687427   19.760159    ( 0.0000,  0.0000,  0.0000)
  37 C      9.307941   12.137165   19.649929    ( 0.0000,  0.0000,  0.0000)
  38 C     10.359001   11.060397   19.680891    ( 0.0000,  0.0000,  0.0000)
  39 C      9.980543   13.515965   19.638974    ( 0.0000,  0.0000,  0.0000)
  40 H      8.670343   12.019524   18.767676    ( 0.0000,  0.0000,  0.0000)
  41 H      8.672627   12.042465   20.529510    ( 0.0000,  0.0000,  0.0000)
  42 H     10.952400   11.025892   18.766235    ( 0.0000,  0.0000,  0.0000)
  43 H     10.989772   11.078326   20.534586    ( 0.0000,  0.0000,  0.0000)
  44 H     10.603558   13.650637   18.752971    ( 0.0000,  0.0000,  0.0000)
  45 H      9.231531   14.311860   19.638620    ( 0.0000,  0.0000,  0.0000)
  46 H     10.612337   13.657927   20.518455    ( 0.0000,  0.0000,  0.0000)
  47 H      9.065499    9.638593   20.497903    ( 0.0000,  0.0000,  0.0000)
  48 N      9.632517    9.672397   17.104671    ( 0.0000,  0.0000,  0.0000)
  49 N      9.789905    9.697642   18.171452    ( 0.0000,  0.0000,  0.0000)

Unit cell:
           periodic     x           y           z      points  spacing
  1. axis:    yes    9.702222    0.000000    0.000000    60     0.1617
  2. axis:    yes    0.000000    9.702222    0.000000    60     0.1617
  3. axis:    no     0.000000    0.000000   26.601111   168     0.1583

  Lengths:   9.702222   9.702222  26.601111
  Angles:   90.000000  90.000000  90.000000

Effective grid spacing dv^(1/3) = 0.1606

     iter     time        total  log10-change:
                         energy  eigst   dens
iter:   1 19:09:48  -328.682915  -0.79
iter:   2 19:09:56  -328.620819  -1.04  -1.64
iter:   3 19:10:03  -328.593441  -1.65  -1.78
iter:   4 19:10:10  -328.578190  -1.17  -2.22
Writing to output.gpw (mode='')

iter:   5 19:10:18  -328.576555c -2.05  -2.17
iter:   6 19:10:25  -328.577256c -1.93  -2.39
iter:   7 19:10:33  -328.577518c -1.74  -2.42
iter:   8 19:10:40  -328.575123c -2.36  -2.51
iter:   9 19:10:48  -328.575386c -2.51  -2.70
Writing to output.gpw (mode='')

iter:  10 19:10:55  -328.575950c -2.52  -2.73
iter:  11 19:11:03  -328.576130c -2.87  -2.85
iter:  12 19:11:10  -328.575498c -3.01  -2.85
iter:  13 19:11:18  -328.575521c -3.48  -3.00
iter:  14 19:11:25  -328.575546c -3.61  -2.97
Writing to output.gpw (mode='')

iter:  15 19:11:33  -328.575584c -3.80  -2.96
iter:  16 19:11:40  -328.575559c -3.93  -2.95
iter:  17 19:11:47  -328.575552c -4.15  -3.01
iter:  18 19:11:55  -328.575553c -4.32  -3.02
iter:  19 19:12:02  -328.575542c -4.41  -3.02
Writing to output.gpw (mode='')

iter:  20 19:12:10  -328.575512c -4.37  -3.02
iter:  21 19:12:17  -328.575557c -3.83  -3.11
iter:  22 19:12:24  -328.575557c -4.22  -3.33
iter:  23 19:12:32  -328.575525c -4.33  -3.35
iter:  24 19:12:39  -328.575512c -4.53  -3.51
Writing to output.gpw (mode='')

iter:  25 19:12:47  -328.575510c -4.67  -3.72
iter:  26 19:12:54  -328.575509c -5.24  -3.78
iter:  27 19:13:01  -328.575506c -5.14  -3.93
iter:  28 19:13:09  -328.575498c -5.18  -3.99
iter:  29 19:13:16  -328.575497c -5.45  -4.17c
Writing to output.gpw (mode='')

iter:  30 19:13:24  -328.575501c -5.66  -4.21c
iter:  31 19:13:31  -328.575500c -5.73  -4.31c
iter:  32 19:13:38  -328.575501c -5.71  -4.53c
iter:  33 19:13:46  -328.575501c -6.25  -4.63c
iter:  34 19:13:53  -328.575501c -6.34  -4.65c
Writing to output.gpw (mode='')

iter:  35 19:14:01  -328.575501c -6.23  -4.62c
iter:  36 19:14:15  -328.575501c -6.75  -4.82c
iter:  37 19:14:23  -328.575501c -6.53  -4.82c
iter:  38 19:14:31  -328.575501c -6.67  -4.96c
iter:  39 19:14:38  -328.575501c -6.64  -4.99c
Writing to output.gpw (mode='')

iter:  40 19:14:46  -328.575501c -6.70  -5.09c
iter:  41 19:14:53  -328.575502c -6.91  -4.93c
iter:  42 19:15:00  -328.575502c -7.17  -5.17c
iter:  43 19:15:08  -328.575502c -7.18  -5.18c
iter:  44 19:15:15  -328.575502c -7.22  -5.09c
Writing to output.gpw (mode='')

iter:  45 19:15:23  -328.575502c -7.16  -5.25c
iter:  46 19:15:30  -328.575502c -6.90  -5.38c
iter:  47 19:15:37  -328.575502c -7.07  -5.44c
iter:  48 19:15:45  -328.575502c -7.38  -5.50c
iter:  49 19:15:52  -328.575502c -7.67c -5.53c

Converged after 49 iterations.

Dipole moment: (-15.873594, -10.611759, 0.363643) |e|*Ang

Energy contributions relative to reference atoms: (reference = -15487.462483)

Kinetic:       +201.397092
Potential:     -187.717176
External:        +0.000000
XC:            -342.933749
Entropy (-ST):   -0.144785
Local:           +0.750724
--------------------------
Free energy:   -328.647895
Extrapolated:  -328.575502

Dipole-layer corrected work functions: 3.384565, 2.685519 eV

Showing only first 2 kpts
 Kpt  Band  Eigenvalues  Occupancy
  0    34     -3.28507    1.98662
  0    35     -3.21679    1.94859
  0    36     -2.85806    0.05641
  0    37     -2.79233    0.01547

  1    34     -3.07727    1.39888
  1    35     -3.02765    0.92623
  1    36     -3.00097    0.67192
  1    37     -2.94527    0.28481


Fermi level: -3.03504

No gap
Writing to output.gpw (mode='')


Forces in eV/Ang:
  0 Li    0.00513    0.00670   -0.26910
  1 Li   -0.00139   -0.00160   -0.26929
  2 Li   -0.00386    0.00894   -0.27026
  3 Li   -0.00171   -0.00118   -0.26911
  4 Li    0.00085    0.00149   -0.28541
  5 Li    0.00176   -0.00194   -0.26763
  6 Li    0.00802   -0.00530   -0.26959
  7 Li   -0.00207    0.00014   -0.26867
  8 Li   -0.00683   -0.00785   -0.27004
  9 Li   -0.00307   -0.00072    0.31244
 10 Li    0.01159    0.00078    0.25622
 11 Li   -0.00666    0.00073    0.26593
 12 Li    0.00153    0.01436    0.25422
 13 Li    0.00153   -0.00323    0.26040
 14 Li   -0.00348    0.00608    0.25947
 15 Li    0.00084   -0.01339    0.26011
 16 Li    0.00616    0.00200    0.25880
 17 Li   -0.00618   -0.00556    0.25572
 18 Li    0.00319    0.00420    0.01587
 19 Li    0.00367   -0.00188    0.04540
 20 Li   -0.00630    0.01663   -0.00707
 21 Li    0.00241    0.00212    0.04658
 22 Li   -0.00274   -0.00057    0.02158
 23 Li   -0.00073    0.00395    0.05108
 24 Li    0.00719   -0.00639   -0.00281
 25 Li    0.00555    0.00233    0.05026
 26 Li   -0.01073   -0.01901   -0.02689
 27 Li    0.00760    0.03898   -2.52202
 28 Li    0.04617    0.00570   -0.04370
 29 Li   -0.04558    0.00740   -0.03697
 30 Li    0.00128    0.04799   -0.07425
 31 Li    0.00008    0.00094   -0.02552
 32 Li   -0.00437    0.01078   -0.02707
 33 Li    0.00427   -0.05059   -0.04086
 34 Li    0.00647   -0.00858   -0.02536
 35 Li   -0.01416   -0.02053   -0.03205
 36 O    -1.43493    0.46547   10.20465
 37 C     0.24233    0.46570    0.04641
 38 C    -0.82462   -0.65452    0.99659
 39 C    -0.19287    0.15990    0.01472
 40 H     0.00789    0.00078    0.00469
 41 H    -0.15068    0.03003    0.07801
 42 H     0.21176    0.26461    0.52419
 43 H     0.61745    0.31560    0.81902
 44 H     0.02470   -0.00896   -0.05424
 45 H     0.02174   -0.01734   -0.02961
 46 H     0.01134   -0.02756    0.02115
 47 H    -0.11051    0.40150    1.74480
 48 N    -3.09449   -0.82273   -4.26199
 49 N     4.63129   -0.63404   -7.39496

System changes: positions 

Initializing position-dependent things.

Density initialized from wave functions
       .-----------------------.  
      /|                       |  
     / |                       |  
    /  |                       |  
   /   |                       |  
  /    |                       |  
 *     |                       |  
 |     |                       |  
 |     O                     H |  
 |     |                       |  
 |     N                       |  
 |    H|                       |  
 |  C  |                H  H   N  
 |   HH|                  C    |  
 | C   |                H      |  
 |   H |                       |  
 |   Li|     Li      Li        |  
 |     |  Li      Li      Li   |  
 | Li  |   Li      Li          |  
 |     |Li      Li      Li     |  
 Li    | Li      Li            |  
 |   LLi     LLi     LLi       |  
 |     |  Li      Li      Li   |  
 | Li  |   Li      Li          |  
 |     |Li      Li      Li     |  
 Li    | Li      Li            |  
 |    Li      Li      Li       |  
 |     |                       |  
 |     |                       |  
 |     |                       |  
 |     |                       |  
 |     |                       |  
 |     |                       |  
 |     .-----------------------.  
 |    /                       /   
 |   /                       /    
 |  /                       /     
 | /                       /      
 |/                       /       
 *-----------------------*        

Positions:
   0 Li     1.617037    1.617037   10.000000    ( 0.0000,  0.0000,  0.0000)
   1 Li     4.851111    1.617037   10.000000    ( 0.0000,  0.0000,  0.0000)
   2 Li     8.085185    1.617037   10.000000    ( 0.0000,  0.0000,  0.0000)
   3 Li     1.617037    4.851111   10.000000    ( 0.0000,  0.0000,  0.0000)
   4 Li     4.851111    4.851111   10.000000    ( 0.0000,  0.0000,  0.0000)
   5 Li     8.085185    4.851111   10.000000    ( 0.0000,  0.0000,  0.0000)
   6 Li     1.617037    8.085185   10.000000    ( 0.0000,  0.0000,  0.0000)
   7 Li     4.851111    8.085185   10.000000    ( 0.0000,  0.0000,  0.0000)
   8 Li     8.085185    8.085185   10.000000    ( 0.0000,  0.0000,  0.0000)
   9 Li     0.000000    0.000000   11.617037    ( 0.0000,  0.0000,  0.0000)
  10 Li     3.234074    0.000000   11.617037    ( 0.0000,  0.0000,  0.0000)
  11 Li     6.468148    0.000000   11.617037    ( 0.0000,  0.0000,  0.0000)
  12 Li     0.000000    3.234074   11.617037    ( 0.0000,  0.0000,  0.0000)
  13 Li     3.234074    3.234074   11.617037    ( 0.0000,  0.0000,  0.0000)
  14 Li     6.468148    3.234074   11.617037    ( 0.0000,  0.0000,  0.0000)
  15 Li     0.000000    6.468148   11.617037    ( 0.0000,  0.0000,  0.0000)
  16 Li     3.234074    6.468148   11.617037    ( 0.0000,  0.0000,  0.0000)
  17 Li     6.468148    6.468148   11.617037    ( 0.0000,  0.0000,  0.0000)
  18 Li     1.616858    1.616856   13.470719    ( 0.0000,  0.0000,  0.0000)
  19 Li     4.851281    1.616927   13.470532    ( 0.0000,  0.0000,  0.0000)
  20 Li     8.085232    1.617440   13.469859    ( 0.0000,  0.0000,  0.0000)
  21 Li     1.617113    4.851281   13.470629    ( 0.0000,  0.0000,  0.0000)
  22 Li     4.851068    4.851037   13.470827    ( 0.0000,  0.0000,  0.0000)
  23 Li     8.085183    4.851185   13.470852    ( 0.0000,  0.0000,  0.0000)
  24 Li     1.617225    8.085179   13.469966    ( 0.0000,  0.0000,  0.0000)
  25 Li     4.851191    8.085368   13.470828    ( 0.0000,  0.0000,  0.0000)
  26 Li     8.085101    8.084838   13.469156    ( 0.0000,  0.0000,  0.0000)
  27 Li     0.000392    0.000936   15.399118    ( 0.0000,  0.0000,  0.0000)
  28 Li     3.233491    0.000216   15.445795    ( 0.0000,  0.0000,  0.0000)
  29 Li     6.469141    0.000248   15.446495    ( 0.0000,  0.0000,  0.0000)
  30 Li     0.000101    3.233574   15.445043    ( 0.0000,  0.0000,  0.0000)
  31 Li     3.233787    3.233767   15.445562    ( 0.0000,  0.0000,  0.0000)
  32 Li     6.468290    3.234313   15.445461    ( 0.0000,  0.0000,  0.0000)
  33 Li     0.000175    6.468558   15.446067    ( 0.0000,  0.0000,  0.0000)
  34 Li     3.234050    6.468221   15.445467    ( 0.0000,  0.0000,  0.0000)
  35 Li     6.467813    6.467512   15.445390    ( 0.0000,  0.0000,  0.0000)
  36 O      9.704427    9.688448   19.788033    ( 0.0000,  0.0000,  0.0000)
  37 C      9.308036   12.140184   19.650546    ( 0.0000,  0.0000,  0.0000)
  38 C     10.359572   11.065391   19.688107    ( 0.0000,  0.0000,  0.0000)
  39 C      9.980220   13.517145   19.638958    ( 0.0000,  0.0000,  0.0000)
  40 H      8.670513   12.019661   18.767664    ( 0.0000,  0.0000,  0.0000)
  41 H      8.671759   12.042651   20.529815    ( 0.0000,  0.0000,  0.0000)
  42 H     10.955050   11.029131   18.770390    ( 0.0000,  0.0000,  0.0000)
  43 H     10.992987   11.078886   20.541769    ( 0.0000,  0.0000,  0.0000)
  44 H     10.603647   13.650598   18.752618    ( 0.0000,  0.0000,  0.0000)
  45 H      9.231443   14.311598   19.638406    ( 0.0000,  0.0000,  0.0000)
  46 H     10.612320   13.657759   20.518598    ( 0.0000,  0.0000,  0.0000)
  47 H      9.056177    9.637445   20.510482    ( 0.0000,  0.0000,  0.0000)
  48 N      9.605024    9.663203   17.083650    ( 0.0000,  0.0000,  0.0000)
  49 N      9.823554    9.693462   18.150233    ( 0.0000,  0.0000,  0.0000)

Unit cell:
           periodic     x           y           z      points  spacing
  1. axis:    yes    9.702222    0.000000    0.000000    60     0.1617
  2. axis:    yes    0.000000    9.702222    0.000000    60     0.1617
  3. axis:    no     0.000000    0.000000   26.601111   168     0.1583

  Lengths:   9.702222   9.702222  26.601111
  Angles:   90.000000  90.000000  90.000000

Effective grid spacing dv^(1/3) = 0.1606

     iter     time        total  log10-change:
                         energy  eigst   dens
iter:   1 19:16:01  -329.383979  -0.71
iter:   2 19:16:09  -329.392797  -1.30  -2.26
iter:   3 19:16:16  -329.394474c -1.66  -2.35
iter:   4 19:16:24  -329.387298c -1.64  -2.39
Writing to output.gpw (mode='')

iter:   5 19:16:31  -329.386545c -1.54  -2.41
iter:   6 19:16:39  -329.387476c -2.16  -2.57
iter:   7 19:16:46  -329.390106c -1.97  -2.55
iter:   8 19:16:54  -329.390492c -2.31  -2.49
iter:   9 19:17:01  -329.394484c -2.14  -2.54
Writing to output.gpw (mode='')

iter:  10 19:17:08  -329.396205c -2.49  -2.54
iter:  11 19:17:16  -329.386365c -2.24  -2.52
iter:  12 19:17:23  -329.386886c -3.06  -2.54
iter:  13 19:17:31  -329.386981c -3.13  -2.54
iter:  14 19:17:38  -329.387881c -3.41  -2.53
Writing to output.gpw (mode='')

iter:  15 19:17:46  -329.387267c -3.51  -2.55
iter:  16 19:17:53  -329.386639c -2.68  -2.61
iter:  17 19:18:01  -329.386279c -2.95  -2.68
iter:  18 19:18:08  -329.386121c -2.94  -2.88
iter:  19 19:18:16  -329.386072c -2.73  -2.84
Writing to output.gpw (mode='')

iter:  20 19:18:23  -329.385923c -3.61  -2.95
iter:  21 19:18:31  -329.385896c -3.79  -3.04
iter:  22 19:18:38  -329.385929c -4.06  -3.12
iter:  23 19:18:45  -329.385941c -3.96  -3.09
iter:  24 19:18:53  -329.385910c -4.18  -3.43
Writing to output.gpw (mode='')

iter:  25 19:19:00  -329.385880c -4.08  -3.47
iter:  26 19:19:14  -329.385895c -4.48  -3.43
iter:  27 19:19:22  -329.385903c -4.72  -3.53
iter:  28 19:19:30  -329.385911c -4.87  -3.60
iter:  29 19:19:37  -329.385910c -5.24  -3.66
Writing to output.gpw (mode='')

iter:  30 19:19:45  -329.385902c -5.09  -3.78
iter:  31 19:19:52  -329.385898c -5.11  -3.93
iter:  32 19:20:00  -329.385896c -5.70  -4.11c
iter:  33 19:20:07  -329.385896c -5.75  -4.17c
iter:  34 19:20:15  -329.385899c -6.08  -4.25c
Writing to output.gpw (mode='')

iter:  35 19:20:22  -329.385900c -5.97  -4.45c
iter:  36 19:20:30  -329.385898c -6.25  -4.51c
iter:  37 19:20:37  -329.385898c -6.31  -4.61c
iter:  38 19:20:44  -329.385898c -6.79  -4.71c
iter:  39 19:20:52  -329.385900c -6.61  -4.73c
Writing to output.gpw (mode='')

iter:  40 19:20:59  -329.385899c -6.68  -4.85c
iter:  41 19:21:07  -329.385900c -7.02  -4.98c
iter:  42 19:21:14  -329.385901c -6.92  -5.12c
iter:  43 19:21:22  -329.385900c -7.34  -5.08c
iter:  44 19:21:29  -329.385900c -7.19  -5.24c
Writing to output.gpw (mode='')

iter:  45 19:21:37  -329.385900c -7.66c -5.27c

Converged after 45 iterations.

Dipole moment: (-14.084846, -9.322699, 0.393400) |e|*Ang

Energy contributions relative to reference atoms: (reference = -15487.462483)

Kinetic:       +196.816682
Potential:     -184.483924
External:        +0.000000
XC:            -342.404075
Entropy (-ST):   -0.144499
Local:           +0.757666
--------------------------
Free energy:   -329.458149
Extrapolated:  -329.385900

Dipole-layer corrected work functions: 3.383729, 2.627480 eV

Showing only first 2 kpts
 Kpt  Band  Eigenvalues  Occupancy
  0    34     -3.25627    1.98679
  0    35     -3.18899    1.95020
  0    36     -2.82664    0.05427
  0    37     -2.76603    0.01646

  1    34     -3.04692    1.39117
  1    35     -2.99899    0.93393
  1    36     -2.97109    0.66795
  1    37     -2.91435    0.27764


Fermi level: -3.00560

No gap

Forces in eV/Ang:
  0 Li    0.00493    0.00704   -0.26950
  1 Li   -0.00120   -0.00182   -0.26896
  2 Li   -0.00382    0.00912   -0.27100
  3 Li   -0.00192   -0.00104   -0.26904
  4 Li    0.00076    0.00160   -0.28547
  5 Li    0.00238   -0.00213   -0.26704
  6 Li    0.00797   -0.00567   -0.27007
  7 Li   -0.00220    0.00035   -0.26833
  8 Li   -0.00681   -0.00796   -0.27064
  9 Li   -0.00346   -0.00067    0.31506
 10 Li    0.01145    0.00082    0.25678
 11 Li   -0.00560    0.00077    0.26744
 12 Li    0.00168    0.01483    0.25438
 13 Li    0.00191   -0.00391    0.26066
 14 Li   -0.00424    0.00674    0.25967
 15 Li    0.00106   -0.01379    0.26021
 16 Li    0.00685    0.00243    0.25910
 17 Li   -0.00701   -0.00606    0.25558
 18 Li    0.00586    0.00696    0.01031
 19 Li    0.00363   -0.00245    0.04632
 20 Li   -0.00881    0.02127   -0.01388
 21 Li    0.00252    0.00190    0.04675
 22 Li   -0.00281   -0.00067    0.02057
 23 Li   -0.00108    0.00438    0.05114
 24 Li    0.00948   -0.00891   -0.00730
 25 Li    0.00606    0.00287    0.05127
 26 Li   -0.01328   -0.02390   -0.03481
 27 Li    0.02107    0.05238   -2.52432
 28 Li    0.04912    0.00517   -0.04539
 29 Li   -0.04639    0.00802   -0.03427
 30 Li    0.00048    0.04846   -0.07462
 31 Li    0.00108    0.00257   -0.02626
 32 Li   -0.00478    0.01124   -0.02692
 33 Li    0.00460   -0.05073   -0.04053
 34 Li    0.00712   -0.00975   -0.02584
 35 Li   -0.01538   -0.02192   -0.03233
 36 O    -1.08576    0.66842    8.25857
 37 C     0.23213    0.41247    0.07379
 38 C    -0.87092   -0.86199    1.00019
 39 C    -0.16842    0.17026    0.01454
 40 H     0.03386   -0.00460    0.02002
 41 H    -0.15268    0.06068    0.07295
 42 H     0.13115    0.22991    0.63224
 43 H     0.59653    0.39923    0.77348
 44 H     0.01663   -0.00581   -0.04416
 45 H     0.00578    0.02172   -0.03143
 46 H     0.00882   -0.01848    0.01633
 47 H    -0.16341    0.49964    1.49208
 48 N    -2.76776   -0.62168   -2.26160
 49 N     4.18603   -0.95096   -7.32794

System changes: positions 

Initializing position-dependent things.

Density initialized from wave functions
       .-----------------------.  
      /|                       |  
     / |                       |  
    /  |                       |  
   /   |                       |  
  /    |                       |  
 *     |                       |  
 |     |                       |  
 |     |                     H O  
 |     |                       |  
 |     |                       |  
 |    HN                       |  
 |  C  |                H  H   N  
 |   HH|                  C    |  
 | C   |                H      |  
 |   H |                       |  
 |   Li|     Li      Li        |  
 |     |  Li      Li      Li   |  
 | Li  |   Li      Li          |  
 |     |Li      Li      Li     |  
 Li    | Li      Li            |  
 |   LLi     LLi     LLi       |  
 |     |  Li      Li      Li   |  
 | Li  |   Li      Li          |  
 |     |Li      Li      Li     |  
 Li    | Li      Li            |  
 |    Li      Li      Li       |  
 |     |                       |  
 |     |                       |  
 |     |                       |  
 |     |                       |  
 |     |                       |  
 |     |                       |  
 |     .-----------------------.  
 |    /                       /   
 |   /                       /    
 |  /                       /     
 | /                       /      
 |/                       /       
 *-----------------------*        

Positions:
   0 Li     1.617037    1.617037   10.000000    ( 0.0000,  0.0000,  0.0000)
   1 Li     4.851111    1.617037   10.000000    ( 0.0000,  0.0000,  0.0000)
[...]
Potential:     -164.768580
External:        +0.000000
XC:            -337.334484
Entropy (-ST):   -0.152927
Local:           +0.801228
--------------------------
Free energy:   -334.308039
Extrapolated:  -334.231576

Dipole-layer corrected work functions: 3.392955, 3.042066 eV

Showing only first 2 kpts
 Kpt  Band  Eigenvalues  Occupancy
  0    34     -3.46604    1.98622
  0    35     -3.38815    1.93620
  0    36     -3.04738    0.06442
  0    37     -2.96051    0.01165

  1    34     -3.23451    1.16841
  1    35     -3.21056    0.93060
  1    36     -3.17829    0.62672
  1    37     -3.17345    0.58583


Fermi level: -3.21751

No gap

Forces in eV/Ang:
  0 Li   -0.00060    0.00160   -0.27125
  1 Li   -0.00033   -0.00151   -0.27741
  2 Li    0.00109    0.00335   -0.27063
  3 Li    0.00002   -0.00136   -0.27576
  4 Li    0.00084    0.00261   -0.27291
  5 Li    0.00030   -0.00129   -0.27465
  6 Li    0.00395    0.00148   -0.27127
  7 Li   -0.00016    0.00005   -0.27596
  8 Li   -0.00351   -0.00076   -0.27319
  9 Li    0.00010    0.00251    0.27891
 10 Li    0.00903    0.00503    0.26982
 11 Li   -0.01379    0.00457    0.27624
 12 Li    0.00501   -0.00524    0.27871
 13 Li   -0.00117   -0.01493    0.26987
 14 Li   -0.00633   -0.00425    0.26783
 15 Li    0.00498   -0.00987    0.29497
 16 Li    0.00807    0.00140    0.27379
 17 Li   -0.01605   -0.00912    0.27578
 18 Li   -0.00435    0.00087    0.00245
 19 Li    0.00136   -0.00199    0.00012
 20 Li    0.00201   -0.00172    0.00285
 21 Li   -0.00555    0.00044    0.00049
 22 Li    0.00386   -0.00202   -0.01259
 23 Li    0.00396    0.00043    0.00118
 24 Li   -0.00164   -0.00010   -0.00160
 25 Li    0.00236    0.00115   -0.00187
 26 Li   -0.00091    0.00326    0.00311
 27 Li    0.00095   -0.00296    0.01753
 28 Li   -0.00159    0.00011   -0.00278
 29 Li   -0.00093    0.00351   -0.00136
 30 Li   -0.00657    0.00211    0.00245
 31 Li    0.00456    0.00295   -0.00923
 32 Li   -0.00129    0.00116   -0.00615
 33 Li   -0.00243    0.00466    0.00195
 34 Li    0.00052   -0.00040   -0.00967
 35 Li   -0.00306   -0.00009   -0.00418
 36 O     0.00570   -0.01921   -0.03272
 37 C    -0.04391   -0.03662   -0.00130
 38 C     0.00203    0.02782    0.05008
 39 C    -0.02647   -0.00493   -0.00063
 40 H     0.00951   -0.00378    0.00070
 41 H     0.02659    0.01161   -0.01900
 42 H     0.00558   -0.01243   -0.02331
 43 H    -0.00628   -0.00626   -0.02657
 44 H     0.00121    0.01116   -0.00266
 45 H     0.01176    0.00504    0.01326
 46 H     0.00523    0.00732   -0.02029
 47 H    -0.01358    0.05364    0.03005
 48 N     0.02610    0.00267    0.00460
 49 N    -0.02866   -0.01419    0.02667

System changes: positions 

Initializing position-dependent things.

Density initialized from wave functions
       .-----------------------.  
      /|                       |  
     / |                       |  
    /  |                       |  
   /   |                       |  
  /    |                       |  
 *     |                       |  
 |     |                       |  
 |     |                       |  
 |     |                       |  
 |     |                       |  
 |   HH|                     N |  
 |  C  |                H      |  
 O  C  |                  CH   |  
 |   HH|               LH      Li 
 |     |                       |  
 |   Li|     Li      Li        |  
 |     |  Li      Li      Li   |  
 | Li  |   Li      Li          |  
 |     |Li      Li      Li     |  
 |     | Li                    |  
 |   LLi     LLi     LLi       |  
 |     |  Li      Li      Li   |  
 | Li  |   Li      Li          |  
 |     |Li      Li      Li     |  
 Li    | Li      Li            |  
 |    Li      Li      Li       |  
 |     |                       |  
 |     |                       |  
 |     |                       |  
 |     |                       |  
 |     |                       |  
 |     |                       |  
 |     .-----------------------.  
 |    /                       /   
 |   /                       /    
 |  /                       /     
 | /                       /      
 |/                       /       
 *-----------------------*        

Positions:
   0 Li     1.617037    1.617037   10.000000    ( 0.0000,  0.0000,  0.0000)
   1 Li     4.851111    1.617037   10.000000    ( 0.0000,  0.0000,  0.0000)
   2 Li     8.085185    1.617037   10.000000    ( 0.0000,  0.0000,  0.0000)
   3 Li     1.617037    4.851111   10.000000    ( 0.0000,  0.0000,  0.0000)
   4 Li     4.851111    4.851111   10.000000    ( 0.0000,  0.0000,  0.0000)
   5 Li     8.085185    4.851111   10.000000    ( 0.0000,  0.0000,  0.0000)
   6 Li     1.617037    8.085185   10.000000    ( 0.0000,  0.0000,  0.0000)
   7 Li     4.851111    8.085185   10.000000    ( 0.0000,  0.0000,  0.0000)
   8 Li     8.085185    8.085185   10.000000    ( 0.0000,  0.0000,  0.0000)
   9 Li     0.000000    0.000000   11.617037    ( 0.0000,  0.0000,  0.0000)
  10 Li     3.234074    0.000000   11.617037    ( 0.0000,  0.0000,  0.0000)
  11 Li     6.468148    0.000000   11.617037    ( 0.0000,  0.0000,  0.0000)
  12 Li     0.000000    3.234074   11.617037    ( 0.0000,  0.0000,  0.0000)
  13 Li     3.234074    3.234074   11.617037    ( 0.0000,  0.0000,  0.0000)
  14 Li     6.468148    3.234074   11.617037    ( 0.0000,  0.0000,  0.0000)
  15 Li     0.000000    6.468148   11.617037    ( 0.0000,  0.0000,  0.0000)
  16 Li     3.234074    6.468148   11.617037    ( 0.0000,  0.0000,  0.0000)
  17 Li     6.468148    6.468148   11.617037    ( 0.0000,  0.0000,  0.0000)
  18 Li     1.617159    1.604512   13.496323    ( 0.0000,  0.0000,  0.0000)
  19 Li     4.846211    1.625659   13.492652    ( 0.0000,  0.0000,  0.0000)
  20 Li     8.078538    1.611091   13.486881    ( 0.0000,  0.0000,  0.0000)
  21 Li     1.642093    4.836065   13.477969    ( 0.0000,  0.0000,  0.0000)
  22 Li     4.846653    4.839967   13.502280    ( 0.0000,  0.0000,  0.0000)
  23 Li     8.070585    4.832812   13.476737    ( 0.0000,  0.0000,  0.0000)
  24 Li     1.621029    8.092601   13.485743    ( 0.0000,  0.0000,  0.0000)
  25 Li     4.842484    8.082577   13.491502    ( 0.0000,  0.0000,  0.0000)
  26 Li     8.077923    8.085382   13.470434    ( 0.0000,  0.0000,  0.0000)
  27 Li    -0.028407   -0.002900   15.454148    ( 0.0000,  0.0000,  0.0000)
  28 Li     3.227549    0.005258   15.442300    ( 0.0000,  0.0000,  0.0000)
  29 Li     6.438797   -0.004228   15.430267    ( 0.0000,  0.0000,  0.0000)
  30 Li     0.008314    3.222780   15.415629    ( 0.0000,  0.0000,  0.0000)
  31 Li     3.228335    3.224328   15.463150    ( 0.0000,  0.0000,  0.0000)
  32 Li     6.479677    3.225927   15.459253    ( 0.0000,  0.0000,  0.0000)
  33 Li     0.004558    6.419626   15.347954    ( 0.0000,  0.0000,  0.0000)
  34 Li     3.241154    6.462186   15.445925    ( 0.0000,  0.0000,  0.0000)
  35 Li     6.470564    6.455630   15.422506    ( 0.0000,  0.0000,  0.0000)
  36 O      9.705885   10.117321   20.941164    ( 0.0000,  0.0000,  0.0000)
  37 C      9.298528   12.349228   19.933953    ( 0.0000,  0.0000,  0.0000)
  38 C     10.303069   11.347308   20.498846    ( 0.0000,  0.0000,  0.0000)
  39 C      9.976233   13.625598   19.429325    ( 0.0000,  0.0000,  0.0000)
  40 H      8.742033   11.871252   19.119682    ( 0.0000,  0.0000,  0.0000)
  41 H      8.565257   12.598430   20.712217    ( 0.0000,  0.0000,  0.0000)
  42 H     11.015342   11.053245   19.723447    ( 0.0000,  0.0000,  0.0000)
  43 H     10.879075   11.807792   21.314072    ( 0.0000,  0.0000,  0.0000)
  44 H     10.713013   13.394473   18.653189    ( 0.0000,  0.0000,  0.0000)
  45 H      9.245615   14.312216   18.996192    ( 0.0000,  0.0000,  0.0000)
  46 H     10.492767   14.153340   20.236277    ( 0.0000,  0.0000,  0.0000)
  47 H      9.116218   10.314020   21.678402    ( 0.0000,  0.0000,  0.0000)
  48 N      9.360832    8.407445   18.312621    ( 0.0000,  0.0000,  0.0000)
  49 N      9.883291    7.614742   18.869210    ( 0.0000,  0.0000,  0.0000)

Unit cell:
           periodic     x           y           z      points  spacing
  1. axis:    yes    9.702222    0.000000    0.000000    60     0.1617
  2. axis:    yes    0.000000    9.702222    0.000000    60     0.1617
  3. axis:    no     0.000000    0.000000   26.601111   168     0.1583

  Lengths:   9.702222   9.702222  26.601111
  Angles:   90.000000  90.000000  90.000000

Effective grid spacing dv^(1/3) = 0.1606

     iter     time        total  log10-change:
                         energy  eigst   dens
iter:   1 04:09:52  -334.235462  -2.55
iter:   2 04:09:59  -334.232787  -3.10  -2.33
iter:   3 04:10:07  -334.232016c -4.02  -2.66
iter:   4 04:10:14  -334.231960c -3.81  -3.09
Writing to output.gpw (mode='')

iter:   5 04:10:22  -334.231970c -4.18  -3.37
iter:   6 04:10:30  -334.231960c -4.36  -3.49
iter:   7 04:10:37  -334.231981c -4.18  -3.68
iter:   8 04:10:45  -334.231949c -5.04  -3.64
iter:   9 04:10:52  -334.231947c -5.15  -3.96
Writing to output.gpw (mode='')

iter:  10 04:11:00  -334.231954c -5.51  -3.97
iter:  11 04:11:07  -334.231955c -5.57  -4.15c
iter:  12 04:11:14  -334.231955c -5.58  -4.28c
iter:  13 04:11:22  -334.231955c -5.93  -4.39c
iter:  14 04:11:29  -334.231954c -6.21  -4.35c
Writing to output.gpw (mode='')

iter:  15 04:11:37  -334.231949c -6.11  -4.41c
iter:  16 04:11:44  -334.231950c -6.59  -4.58c
iter:  17 04:11:51  -334.231952c -6.44  -4.70c
iter:  18 04:11:59  -334.231951c -7.15  -4.74c
iter:  19 04:12:06  -334.231951c -6.82  -4.95c
Writing to output.gpw (mode='')

iter:  20 04:12:14  -334.231951c -7.23  -5.09c
iter:  21 04:12:21  -334.231951c -7.25  -5.24c
iter:  22 04:12:29  -334.231951c -7.74c -5.32c

Converged after 22 iterations.

Dipole moment: (-10.108626, -10.283107, 0.182521) |e|*Ang

Energy contributions relative to reference atoms: (reference = -15487.462483)

Kinetic:       +167.041186
Potential:     -164.688959
External:        +0.000000
XC:            -337.309041
Entropy (-ST):   -0.152909
Local:           +0.801318
--------------------------
Free energy:   -334.308406
Extrapolated:  -334.231951

Dipole-layer corrected work functions: 3.392990, 3.042121 eV

Showing only first 2 kpts
 Kpt  Band  Eigenvalues  Occupancy
  0    34     -3.46642    1.98631
  0    35     -3.38829    1.93633
  0    36     -3.04747    0.06448
  0    37     -2.96090    0.01173

  1    34     -3.23456    1.16839
  1    35     -3.21051    0.92964
  1    36     -3.17826    0.62607
  1    37     -3.17333    0.58453


Fermi level: -3.21756

No gap
Writing to output.gpw (mode='')


Forces in eV/Ang:
  0 Li   -0.00065    0.00152   -0.27103
  1 Li   -0.00032   -0.00146   -0.27744
  2 Li    0.00116    0.00327   -0.27045
  3 Li    0.00005   -0.00135   -0.27578
  4 Li    0.00083    0.00262   -0.27295
  5 Li    0.00025   -0.00130   -0.27464
  6 Li    0.00389    0.00150   -0.27117
  7 Li   -0.00020    0.00002   -0.27594
  8 Li   -0.00338   -0.00074   -0.27292
  9 Li    0.00013    0.00250    0.27526
 10 Li    0.00929    0.00523    0.26912
 11 Li   -0.01423    0.00435    0.27506
 12 Li    0.00504   -0.00437    0.27734
 13 Li   -0.00135   -0.01525    0.27022
 14 Li   -0.00609   -0.00423    0.26791
 15 Li    0.00488   -0.01026    0.29384
 16 Li    0.00777    0.00144    0.27413
 17 Li   -0.01558   -0.00885    0.27576
 18 Li   -0.00365    0.00119    0.00573
 19 Li    0.00151   -0.00146   -0.00060
 20 Li    0.00098   -0.00139    0.00863
 21 Li   -0.00600    0.00117    0.00034
 22 Li    0.00382   -0.00189   -0.01324
 23 Li    0.00370    0.00029    0.00070
 24 Li   -0.00044   -0.00114    0.00217
 25 Li    0.00264    0.00139   -0.00215
 26 Li   -0.00257    0.00272    0.00603
 27 Li    0.00066   -0.00120    0.01385
 28 Li   -0.00229    0.00015   -0.00278
 29 Li   -0.00014    0.00319   -0.00269
 30 Li   -0.00570    0.00129    0.00153
 31 Li    0.00315    0.00149   -0.00852
 32 Li   -0.00038   -0.00028   -0.00667
 33 Li   -0.00155    0.00318    0.00120
 34 Li   -0.00138    0.00077   -0.00942
 35 Li   -0.00148    0.00135   -0.00441
 36 O    -0.00607    0.00134   -0.01751
 37 C    -0.03303   -0.02651   -0.00021
 38 C    -0.00071    0.01479    0.03029
 39 C    -0.02766   -0.01080   -0.00094
 40 H     0.01249   -0.01042    0.00715
 41 H     0.02196    0.01522   -0.01683
 42 H    -0.00122   -0.01103   -0.02514
 43 H    -0.00808   -0.00456   -0.01408
 44 H     0.00138    0.02081    0.00241
 45 H     0.01118    0.00182    0.01077
 46 H     0.00329   -0.00579   -0.02601
 47 H     0.00113    0.04711    0.01221
 48 N     0.03347   -0.00557    0.00164
 49 N    -0.02826   -0.01599    0.01509

Timing:                                      incl.     excl.
-------------------------------------------------------------------
Density initialized from wave functions:     7.087     7.082   0.0% |
 Symmetrize density:                         0.005     0.005   0.0% |
Forces:                                     57.448    57.448   0.2% |
Hamiltonian:                               766.263     0.017   0.0% |
 Atomic:                                     0.032     0.032   0.0% |
  XC Correction:                             0.000     0.000   0.0% |
 Calculate atomic Hamiltonians:              0.056     0.056   0.0% |
 Communicate:                                8.537     8.537   0.0% |
 Hartree integrate/restrict:                 3.282     3.282   0.0% |
 Initialize Hamiltonian:                     0.000     0.000   0.0% |
 Poisson:                                   36.766    13.468   0.0% |
  Communicate from 1D:                       3.613     3.613   0.0% |
  Communicate from 2D:                       3.776     3.776   0.0% |
  Communicate to 1D:                         2.147     2.147   0.0% |
  Communicate to 2D:                         4.050     4.050   0.0% |
  FFT 1D:                                    4.713     4.713   0.0% |
  FFT 2D:                                    5.001     5.001   0.0% |
 XC 3D grid:                               716.878   111.996   0.3% |
  VdW-DF integral:                         604.883     5.107   0.0% |
   Convolution:                             56.227    56.227   0.2% |
   FFT:                                     24.117    24.117   0.1% |
   gather:                                 208.704   208.704   0.6% |
   hmm1:                                    20.334    20.334   0.1% |
   hmm2:                                    26.767    26.767   0.1% |
   iFFT:                                    24.623    24.623   0.1% |
   potential:                              235.291     6.464   0.0% |
    collect:                                37.337    37.337   0.1% |
    p1:                                    109.745   109.745   0.3% |
    p2:                                     41.244    41.244   0.1% |
    sum:                                    40.501    40.501   0.1% |
   splines:                                  3.712     3.712   0.0% |
 vbar:                                       0.695     0.695   0.0% |
LCAO initialization:                         1.118     0.182   0.0% |
 LCAO eigensolver:                           0.193     0.000   0.0% |
  Calculate projections:                     0.000     0.000   0.0% |
  DenseAtomicCorrection:                     0.000     0.000   0.0% |
  Distribute overlap matrix:                 0.172     0.172   0.0% |
  Orbital Layouts:                           0.020     0.020   0.0% |
  Potential matrix:                          0.001     0.001   0.0% |
  Sum over cells:                            0.001     0.001   0.0% |
 LCAO to grid:                               0.631     0.631   0.0% |
 Set positions (LCAO WFS):                   0.111     0.066   0.0% |
  Basic WFS set positions:                   0.001     0.001   0.0% |
  Basis functions set positions:             0.000     0.000   0.0% |
  P tci:                                     0.000     0.000   0.0% |
  ST tci:                                    0.012     0.012   0.0% |
  mktci:                                     0.031     0.031   0.0% |
Redistribute:                                0.083     0.083   0.0% |
SCF-cycle:                               33601.450   545.009   1.6% ||
 Davidson:                                9166.069  2733.764   7.9% |--|
  Apply hamiltonian:                       577.769   577.769   1.7% ||
  Subspace diag:                          1710.757     0.529   0.0% |
   calc_h_matrix:                          855.589   260.821   0.8% |
    Apply hamiltonian:                     594.768   594.768   1.7% ||
   diagonalize:                             87.212    87.212   0.3% |
   rotate_psi:                             767.426   767.426   2.2% ||
  calc. matrices:                         2861.817  1484.953   4.3% |-|
   Apply hamiltonian:                     1376.864  1376.864   4.0% |-|
  diagonalize:                              26.912    26.912   0.1% |
  rotate_psi:                             1255.050  1255.050   3.6% ||
 Density:                                  169.178     0.113   0.0% |
  Atomic density matrices:                  19.808    19.808   0.1% |
  Mix:                                      74.337    74.337   0.2% |
  Multipole moments:                         6.377     6.377   0.0% |
  Pseudo density:                           68.543    68.446   0.2% |
   Symmetrize density:                       0.097     0.097   0.0% |
 Hamiltonian:                            23695.047     0.539   0.0% |
  Atomic:                                    1.118     1.105   0.0% |
   XC Correction:                            0.013     0.013   0.0% |
  Calculate atomic Hamiltonians:             1.789     1.789   0.0% |
  Communicate:                             337.383   337.383   1.0% |
  Hartree integrate/restrict:              102.320   102.320   0.3% |
  Poisson:                                1139.579   419.606   1.2% |
   Communicate from 1D:                    111.775   111.775   0.3% |
   Communicate from 2D:                    118.346   118.346   0.3% |
   Communicate to 1D:                       63.388    63.388   0.2% |
   Communicate to 2D:                      142.096   142.096   0.4% |
   FFT 1D:                                 143.389   143.389   0.4% |
   FFT 2D:                                 140.978   140.978   0.4% |
  XC 3D grid:                            22093.858  3425.655   9.9% |---|
   VdW-DF integral:                      18668.203   157.950   0.5% |
    Convolution:                          1726.592  1726.592   5.0% |-|
    FFT:                                   741.170   741.170   2.1% ||
    gather:                               6412.378  6412.378  18.5% |------|
    hmm1:                                  620.641   620.641   1.8% ||
    hmm2:                                  821.639   821.639   2.4% ||
    iFFT:                                  756.853   756.853   2.2% ||
    potential:                            7430.941   199.133   0.6% |
     collect:                             1157.135  1157.135   3.3% ||
     p1:                                  3354.199  3354.199   9.7% |---|
     p2:                                  1266.708  1266.708   3.7% ||
     sum:                                 1453.766  1453.766   4.2% |-|
    splines:                                 0.040     0.040   0.0% |
  vbar:                                     18.461    18.461   0.1% |
 Orthonormalize:                            26.146     0.018   0.0% |
  calc_s_matrix:                             3.824     3.824   0.0% |
  inverse-cholesky:                          7.294     7.294   0.0% |
  projections:                               0.003     0.003   0.0% |
  rotate_psi_s:                             15.006    15.006   0.0% |
Set symmetry:                                0.002     0.002   0.0% |
Other:                                     146.558   146.558   0.4% |
-------------------------------------------------------------------
Total:                                             34580.009 100.0%

Memory usage: 1.14 GiB
Date: Sat Mar 11 04:12:29 2023
