
  ___ ___ ___ _ _ _  
 |   |   |_  | | | | 
 | | | | | . | | | | 
 |__ |  _|___|_____|  22.8.0
 |___|_|             

User:   vazumah@c08.hercules
Date:   Sat Feb 25 22:52:08 2023
Arch:   x86_64
Pid:    20503
CWD:    /home/vazumah/Python_projects/LiNRR/Li_adsorb_studies/proton_donors/N2_with_proton_donor/Li_BCC_100/adsorbates/CH3CH2OH_z/bridge/8.085_1.617/N2_x
Python: 3.10.8
gpaw:   /home/vazumah/.conda/envs/GPAW/lib/python3.10/site-packages/gpaw
_gpaw:  /home/vazumah/.conda/envs/GPAW/lib/python3.10/site-packages/
        _gpaw.cpython-310-x86_64-linux-gnu.so
ase:    /home/vazumah/.conda/envs/GPAW/lib/python3.10/site-packages/ase (version 3.22.1)
numpy:  /home/vazumah/.conda/envs/GPAW/lib/python3.10/site-packages/numpy (version 1.24.1)
scipy:  /home/vazumah/.conda/envs/GPAW/lib/python3.10/site-packages/scipy (version 1.10.0)
libxc:  5.2.3
units:  Angstrom and eV
cores: 24
OpenMP: True
OMP_NUM_THREADS: 1

Input parameters:
  h: 0.16

System changes: positions, numbers, cell, pbc, initial_charges, initial_magmoms 

Initialize ...

species:
  Li:
    name: Lithium
    id: b73562207f97a71b6967473b66fe8b65
    Z: 3.0
    valence: 1
    core: 2
    charge: 0.0
    file: /home/vazumah/.conda/envs/GPAW/share/gpaw/Li.LDA.gz
    compensation charges: {type: gauss,
                           rc: 0.33,
                           lmax: 2}
    cutoffs: {filter: 1.91,
              core: 2.55}
    valence states:
      #              energy  rcut
      - 2s(1.00)    -2.874   1.058
      - 2p(0.00)    -1.126   1.058
      -  s          24.338   1.058
  
    # Using partial waves for Li as LCAO basis

  O:
    name: Oxygen
    id: 9b9d51c344dea68c822856295a461509
    Z: 8.0
    valence: 6
    core: 2
    charge: 0.0
    file: /home/vazumah/.conda/envs/GPAW/share/gpaw/O.LDA.gz
    compensation charges: {type: gauss,
                           rc: 0.21,
                           lmax: 2}
    cutoffs: {filter: 1.17,
              core: 0.83}
    valence states:
      #              energy  rcut
      - 2s(2.00)   -23.752   0.688
      - 2p(4.00)    -9.195   0.598
      -  s           3.459   0.688
      -  p          18.016   0.598
      -  d           0.000   0.619
  
    # Using partial waves for O as LCAO basis

  C:
    name: Carbon
    id: d60576a1f549371a163e72552ca58787
    Z: 6.0
    valence: 4
    core: 2
    charge: 0.0
    file: /home/vazumah/.conda/envs/GPAW/share/gpaw/C.LDA.gz
    compensation charges: {type: gauss,
                           rc: 0.20,
                           lmax: 2}
    cutoffs: {filter: 1.14,
              core: 1.14}
    valence states:
      #              energy  rcut
      - 2s(2.00)   -13.639   0.635
      - 2p(2.00)    -5.414   0.635
      -  s          13.573   0.635
      -  p          21.797   0.635
      -  d           0.000   0.635
  
    # Using partial waves for C as LCAO basis

  H:
    name: Hydrogen
    id: 4766778ce56282eaa64abeb28b7c1de3
    Z: 1.0
    valence: 1
    core: 0
    charge: 0.0
    file: /home/vazumah/.conda/envs/GPAW/share/gpaw/H.LDA.gz
    compensation charges: {type: gauss,
                           rc: 0.15,
                           lmax: 2}
    cutoffs: {filter: 0.85,
              core: 0.53}
    valence states:
      #              energy  rcut
      - 1s(1.00)    -6.353   0.476
      -  s          20.858   0.476
      -  p           0.000   0.476
  
    # Using partial waves for H as LCAO basis

  N:
    name: Nitrogen
    id: c467cdfa1b75f62c8f7a0469921b1cfb
    Z: 7.0
    valence: 5
    core: 2
    charge: 0.0
    file: /home/vazumah/.conda/envs/GPAW/share/gpaw/N.LDA.gz
    compensation charges: {type: gauss,
                           rc: 0.18,
                           lmax: 2}
    cutoffs: {filter: 1.11,
              core: 0.96}
    valence states:
      #              energy  rcut
      - 2s(2.00)   -18.420   0.603
      - 2p(3.00)    -7.237   0.529
      -  s           8.791   0.603
      -  p          19.974   0.529
      -  d           0.000   0.577
  
    # Using partial waves for N as LCAO basis

Reference energy: -14265.952424  # eV

Spin-paired calculation

Convergence criteria:
 Maximum [total energy] change in last 3 cyles: 0.0005 eV / electron
 Maximum integral of absolute [dens]ity change: 0.0001 electrons / valence electron
 Maximum integral of absolute [eigenst]ate change: 4e-08 eV^2 / valence electron
 Maximum number of scf [iter]ations: 333
 (Square brackets indicate name in SCF output, whereas a 'c' in
 the SCF output indicates the quantity has converged.)

Symmetries present (total): 1

  ( 1  0  0)
  ( 0  1  0)
  ( 0  0  1)

1 k-point (Gamma)
1 k-point in the irreducible part of the Brillouin zone
       k-points in crystal coordinates                weights
   0:     0.00000000    0.00000000    0.00000000          1/1

Wave functions: Uniform real-space grid
  Kinetic energy operator: 6*3+1=19 point O(h^6) finite-difference Laplacian
  ScaLapack parameters: grid=1x1, blocksize=None
  Wavefunction extrapolation:
    Improved wavefunction reuse through dual PAW basis 

Occupation numbers: Fermi-Dirac:
  width: 0.1000  # eV
 

Eigensolver
   Davidson(niter=2) 

Densities:
  Coarse grid: 60*60*156 grid
  Fine grid: 120*120*312 grid
  Total Charge: 0.000000 

Density mixing:
  Method: separate
  Backend: pulay
  Linear mixing parameter: 0.05
  old densities: 5
  Damping of long wavelength oscillations: 50 

Hamiltonian:
  XC and Coulomb potentials evaluated on a 120*120*312 grid
  Using the LDA Exchange-Correlation functional
  Interpolation: tri-quintic (5. degree polynomial)
  Poisson solver: FastPoissonSolver using
    Stencil: 6*3+1=19 point O(h^6) finite-difference Laplacian
    FFT axes: [0, 1]
    FST axes: [2]
 

Memory estimate:
  Process memory now: 233.55 MiB
  Calculator: 34.86 MiB
    Density: 14.67 MiB
      Arrays: 4.55 MiB
      Localized functions: 8.41 MiB
      Mixer: 1.72 MiB
    Hamiltonian: 3.64 MiB
      Arrays: 2.97 MiB
      XC: 0.00 MiB
      Poisson: 0.00 MiB
      vbar: 0.66 MiB
    Wavefunctions: 16.55 MiB
      Arrays psit_nG: 7.55 MiB
      Eigensolver: 8.56 MiB
      Projections: 0.00 MiB
      Projectors: 0.43 MiB

Total number of cores used: 24
Domain decomposition: 2 x 2 x 6

Number of atoms: 47
Number of atomic orbitals: 170
Number of bands in calculation: 44
Number of valence electrons: 66
Bands to converge: occupied

... initialized

Initializing position-dependent things.

Density initialized from atomic densities
Creating initial wave functions:
  44 bands from LCAO basis set

       .-----------------------.  
      /|                       |  
     / |                       |  
    /  |                       |  
   /   |                       |  
  /    |                       |  
 *     |                       |  
 |     |                       |  
 |     |                       |  
 |     |                       |  
 |     |           H  H H      |  
 |     |             C         |  
 |     |       Li H    Li      |  
 |     |          H C  H       |  
 |   Li|     Li      Li        |  
 |     |  Li      LiLi    Li   |  
 |  Li |    Li          N      |  
 |     |Li      Li   N  Li     |  
 |     |                 Li    |  
 |   LLi     LLi     LLi       |  
 |     |  Li      Li      Li   |  
 | Li  |   Li      Li          |  
 |     |Li      Li      Li     |  
 Li    | Li      Li            |  
 |    Li      Li      Li       |  
 |     |                       |  
 |     |                       |  
 |     |                       |  
 |     |                       |  
 |     |                       |  
 |     |                       |  
 |     .-----------------------.  
 |    /                       /   
 |   /                       /    
 |  /                       /     
 | /                       /      
 |/                       /       
 *-----------------------*        

Positions:
   0 Li     1.617037    1.617037   10.000000    ( 0.0000,  0.0000,  0.0000)
   1 Li     4.851111    1.617037   10.000000    ( 0.0000,  0.0000,  0.0000)
   2 Li     8.085185    1.617037   10.000000    ( 0.0000,  0.0000,  0.0000)
   3 Li     1.617037    4.851111   10.000000    ( 0.0000,  0.0000,  0.0000)
   4 Li     4.851111    4.851111   10.000000    ( 0.0000,  0.0000,  0.0000)
   5 Li     8.085185    4.851111   10.000000    ( 0.0000,  0.0000,  0.0000)
   6 Li     1.617037    8.085185   10.000000    ( 0.0000,  0.0000,  0.0000)
   7 Li     4.851111    8.085185   10.000000    ( 0.0000,  0.0000,  0.0000)
   8 Li     8.085185    8.085185   10.000000    ( 0.0000,  0.0000,  0.0000)
   9 Li     0.000000    0.000000   11.617037    ( 0.0000,  0.0000,  0.0000)
  10 Li     3.234074    0.000000   11.617037    ( 0.0000,  0.0000,  0.0000)
  11 Li     6.468148    0.000000   11.617037    ( 0.0000,  0.0000,  0.0000)
  12 Li     0.000000    3.234074   11.617037    ( 0.0000,  0.0000,  0.0000)
  13 Li     3.234074    3.234074   11.617037    ( 0.0000,  0.0000,  0.0000)
  14 Li     6.468148    3.234074   11.617037    ( 0.0000,  0.0000,  0.0000)
  15 Li     0.000000    6.468148   11.617037    ( 0.0000,  0.0000,  0.0000)
  16 Li     3.234074    6.468148   11.617037    ( 0.0000,  0.0000,  0.0000)
  17 Li     6.468148    6.468148   11.617037    ( 0.0000,  0.0000,  0.0000)
  18 Li     1.665476    1.646605   13.478570    ( 0.0000,  0.0000,  0.0000)
  19 Li     4.952245    1.583733   13.556254    ( 0.0000,  0.0000,  0.0000)
  20 Li     8.087999    1.598335   13.562666    ( 0.0000,  0.0000,  0.0000)
  21 Li     1.683062    4.863988   13.497936    ( 0.0000,  0.0000,  0.0000)
  22 Li     4.928552    4.799202   13.483123    ( 0.0000,  0.0000,  0.0000)
  23 Li     8.128551    4.751446   13.530912    ( 0.0000,  0.0000,  0.0000)
  24 Li     1.607727    8.103887   13.481905    ( 0.0000,  0.0000,  0.0000)
  25 Li     4.825819    7.992194   13.493215    ( 0.0000,  0.0000,  0.0000)
  26 Li     8.072457    8.025416   13.499146    ( 0.0000,  0.0000,  0.0000)
  27 Li    -0.095575    0.053597   15.425829    ( 0.0000,  0.0000,  0.0000)
  28 Li     3.187534   -0.030191   15.434694    ( 0.0000,  0.0000,  0.0000)
  29 Li     6.443061   -0.289417   15.450339    ( 0.0000,  0.0000,  0.0000)
  30 Li     0.233239    3.186901   15.475375    ( 0.0000,  0.0000,  0.0000)
  31 Li     3.424301    3.304742   15.450019    ( 0.0000,  0.0000,  0.0000)
  32 Li     6.913998    2.758107   16.081893    ( 0.0000,  0.0000,  0.0000)
  33 Li     0.057705    6.469195   15.410291    ( 0.0000,  0.0000,  0.0000)
  34 Li     3.232747    6.490421   15.473579    ( 0.0000,  0.0000,  0.0000)
  35 Li     6.402890    6.221734   15.485528    ( 0.0000,  0.0000,  0.0000)
  36 O      6.901716    2.759913   18.082228    ( 0.0000,  0.0000,  0.0000)
  37 C      7.442073    1.627911   18.815540    ( 0.0000,  0.0000,  0.0000)
  38 C      7.721131    1.956131   20.270996    ( 0.0000,  0.0000,  0.0000)
  39 H      6.756007    0.777881   18.725103    ( 0.0000,  0.0000,  0.0000)
  40 H      8.363831    1.375588   18.293683    ( 0.0000,  0.0000,  0.0000)
  41 H      8.146456    1.079982   20.767394    ( 0.0000,  0.0000,  0.0000)
  42 H      8.434800    2.777758   20.353999    ( 0.0000,  0.0000,  0.0000)
  43 H      6.805753    2.223131   20.805922    ( 0.0000,  0.0000,  0.0000)
  44 H      6.077583    3.036661   18.504576    ( 0.0000,  0.0000,  0.0000)
  45 N      7.789812    0.950536   15.523051    ( 0.0000,  0.0000,  0.0000)
  46 N      8.679410    1.843558   15.543861    ( 0.0000,  0.0000,  0.0000)

Unit cell:
           periodic     x           y           z      points  spacing
  1. axis:    yes    9.702222    0.000000    0.000000    60     0.1617
  2. axis:    yes    0.000000    9.702222    0.000000    60     0.1617
  3. axis:    no     0.000000    0.000000   24.851111   156     0.1593

  Lengths:   9.702222   9.702222  24.851111
  Angles:   90.000000  90.000000  90.000000

Effective grid spacing dv^(1/3) = 0.1609

     iter     time        total  log10-change:
                         energy  eigst   dens
iter:   1 22:52:42  -207.385285
iter:   2 22:53:08   -99.655312  +1.71  -0.21
iter:   3 22:53:34   -86.139211  +2.95  -0.41
iter:   4 22:53:58  -107.029355  +2.36  -0.57
iter:   5 22:54:23  -116.940406  +2.01  -0.70
iter:   6 22:54:48  -124.131061  +1.87  -0.83
iter:   7 22:55:15  -133.465434  +1.91  -0.87
iter:   8 22:55:40  -138.467466  +1.61  -0.84
iter:   9 22:56:06  -142.937584  +1.38  -0.88
iter:  10 22:56:32  -142.809854  +0.86  -0.85
iter:  11 22:57:00  -141.747392  +0.59  -0.89
iter:  12 22:57:25  -143.453090  +0.59  -0.96
iter:  13 22:57:50  -142.833409  +0.21  -0.96
iter:  14 22:58:15  -141.205927  +0.04  -0.96
iter:  15 22:58:41  -140.134436  +0.05  -1.03
iter:  16 22:59:07  -139.218340  +0.33  -1.15
iter:  17 22:59:32  -139.025505  -0.47  -1.07
iter:  18 22:59:56  -138.952940  -0.59  -1.12
iter:  19 23:00:23  -139.504708  +0.15  -1.23
iter:  20 23:00:48  -139.337067  -0.28  -1.10
iter:  21 23:01:10  -138.370602  +0.11  -1.18
iter:  22 23:01:33  -138.409251  -0.58  -1.63
iter:  23 23:01:57  -138.453493  -1.04  -1.65
iter:  24 23:02:24  -138.398250  -0.70  -1.64
iter:  25 23:02:48  -138.387578  -0.88  -1.79
iter:  26 23:03:14  -138.401131c -1.27  -1.89
iter:  27 23:03:40  -138.381417c -1.15  -1.94
iter:  28 23:04:04  -138.381275c -1.39  -2.12
iter:  29 23:04:28  -138.381211c -1.58  -2.23
iter:  30 23:04:52  -138.380215c -1.77  -2.26
iter:  31 23:05:17  -138.379113c -2.07  -2.32
iter:  32 23:05:41  -138.379539c -2.32  -2.50
iter:  33 23:06:06  -138.379307c -2.53  -2.57
iter:  34 23:06:33  -138.379523c -2.58  -2.78
iter:  35 23:06:59  -138.379695c -2.97  -2.99
iter:  36 23:07:25  -138.379876c -2.93  -3.05
iter:  37 23:07:50  -138.380039c -3.17  -3.19
iter:  38 23:08:17  -138.380126c -3.27  -3.34
iter:  39 23:08:42  -138.380184c -3.44  -3.42
iter:  40 23:09:06  -138.380129c -3.49  -3.42
iter:  41 23:09:29  -138.380143c -3.77  -3.59
iter:  42 23:09:53  -138.380205c -3.88  -3.73
iter:  43 23:10:16  -138.380214c -4.02  -3.76
iter:  44 23:10:40  -138.380202c -3.97  -3.75
iter:  45 23:11:05  -138.380223c -4.14  -3.73
iter:  46 23:11:30  -138.380233c -3.92  -3.69
iter:  47 23:11:57  -138.380239c -4.26  -3.73
iter:  48 23:12:22  -138.380239c -4.32  -3.71
iter:  49 23:12:48  -138.380235c -4.53  -3.70
iter:  50 23:13:14  -138.380241c -4.79  -3.66
iter:  51 23:13:38  -138.380240c -4.63  -3.65
iter:  52 23:14:02  -138.380234c -4.54  -3.70
iter:  53 23:14:27  -138.380235c -4.89  -3.67
iter:  54 23:14:50  -138.380233c -4.86  -3.68
iter:  55 23:15:14  -138.380237c -4.96  -3.72
iter:  56 23:15:40  -138.380235c -5.18  -3.73
iter:  57 23:16:07  -138.380248c -5.25  -3.72
iter:  58 23:16:33  -138.380250c -5.28  -3.79
iter:  59 23:17:00  -138.380258c -5.34  -3.80
iter:  60 23:17:27  -138.380260c -5.44  -3.84
iter:  61 23:17:53  -138.380265c -5.33  -3.85
iter:  62 23:18:17  -138.380296c -5.64  -3.87
iter:  63 23:18:42  -138.380289c -6.01  -4.06c
iter:  64 23:19:09  -138.380287c -5.63  -4.09c
iter:  65 23:19:37  -138.380295c -5.82  -4.22c
iter:  66 23:20:03  -138.380282c -5.81  -4.32c
iter:  67 23:20:30  -138.380291c -5.99  -4.37c
iter:  68 23:20:58  -138.380285c -6.07  -4.46c
iter:  69 23:21:23  -138.380284c -6.22  -4.71c
iter:  70 23:21:48  -138.380287c -6.03  -4.76c
iter:  71 23:22:13  -138.380288c -6.02  -4.89c
iter:  72 23:22:39  -138.380287c -6.27  -5.00c
iter:  73 23:23:05  -138.380287c -6.58  -5.11c
iter:  74 23:23:31  -138.380286c -6.40  -5.25c
iter:  75 23:23:56  -138.380286c -6.56  -5.37c
iter:  76 23:24:21  -138.380286c -6.44  -5.42c
iter:  77 23:24:45  -138.380286c -6.66  -5.50c
iter:  78 23:25:10  -138.380286c -6.80  -5.68c
iter:  79 23:25:36  -138.380286c -6.82  -5.71c
iter:  80 23:26:01  -138.380286c -6.69  -5.73c
iter:  81 23:26:24  -138.380286c -7.07  -5.78c
iter:  82 23:26:50  -138.380286c -7.14  -5.93c
iter:  83 23:27:13  -138.380286c -7.10  -5.97c
iter:  84 23:27:36  -138.380286c -7.40  -6.05c
iter:  85 23:28:00  -138.380286c -7.35  -6.13c
iter:  86 23:28:25  -138.380286c -7.21  -6.27c
iter:  87 23:28:49  -138.380286c -7.31  -6.33c
iter:  88 23:29:17  -138.380286c -7.25  -6.42c
iter:  89 23:29:42  -138.380286c -7.49c -6.48c

Converged after 89 iterations.

Dipole moment: (-3.669011, -1.216035, 0.604566) |e|*Ang

Energy contributions relative to reference atoms: (reference = -14265.952424)

Kinetic:       +140.462159
Potential:     -134.772090
External:        +0.000000
XC:            -144.537911
Entropy (-ST):   -0.601973
Local:           +0.768543
--------------------------
Free energy:   -138.681272
Extrapolated:  -138.380286

 Band  Eigenvalues  Occupancy
    0    -25.94440    2.00000
    1    -23.71186    2.00000
    2    -18.81727    2.00000
    3    -15.77509    2.00000
    4    -12.95542    2.00000
    5    -12.85681    2.00000
    6    -11.68024    2.00000
    7    -11.13324    2.00000
    8     -9.67999    2.00000
    9     -9.49699    2.00000
   10     -9.32708    2.00000
   11     -9.09791    2.00000
   12     -8.79113    2.00000
   13     -8.45114    2.00000
   14     -7.24034    2.00000
   15     -5.94984    2.00000
   16     -4.99913    2.00000
   17     -4.90411    2.00000
   18     -4.84390    2.00000
   19     -4.83775    2.00000
   20     -4.63605    2.00000
   21     -4.06592    2.00000
   22     -3.88726    1.99998
   23     -3.87138    1.99998
   24     -3.78366    1.99995
   25     -3.71894    1.99990
   26     -3.67282    1.99983
   27     -3.63470    1.99976
   28     -3.62469    1.99973
   29     -3.24592    1.98828
   30     -3.08059    1.94023
   31     -2.94264    1.78191
   32     -2.70347    0.85544
   33     -2.66151    0.65889
   34     -2.60803    0.44695
   35     -2.51095    0.19659
   36     -2.40976    0.07623
   37     -2.29246    0.02423
   38     -2.25825    0.01727
   39     -2.24187    0.01468
   40     -1.76359    0.00012
   41     -1.64968    0.00004
   42     -1.53948    0.00001
   43     -1.43460    0.00000

Fermi level: -2.73258

Gap: 0.239 eV
Transition (v -> c):
  (s=0, k=0, n=31, [0.00, 0.00, 0.00]) -> (s=0, k=0, n=32, [0.00, 0.00, 0.00])
