
  ___ ___ ___ _ _ _  
 |   |   |_  | | | | 
 | | | | | . | | | | 
 |__ |  _|___|_____|  22.8.0
 |___|_|             

User:   vazumah@r367.ib.bridges2.psc.edu
Date:   Fri Mar 10 12:22:51 2023
Arch:   x86_64
Pid:    6575
CWD:    /jet/home/vazumah/Calcs/LiMEAS/proton_donors/ethanediol_x/bridge/8.085_1.617/N2_x
Python: 3.11.0
gpaw:   /jet/home/vazumah/.conda/envs/GPAW_mpich/lib/python3.11/site-packages/gpaw
_gpaw:  /jet/home/vazumah/.conda/envs/GPAW_mpich/lib/python3.11/site-packages/
        _gpaw.cpython-311-x86_64-linux-gnu.so
ase:    /jet/home/vazumah/.conda/envs/GPAW_mpich/lib/python3.11/site-packages/ase (version 3.22.1)
numpy:  /jet/home/vazumah/.conda/envs/GPAW_mpich/lib/python3.11/site-packages/numpy (version 1.24.2)
scipy:  /jet/home/vazumah/.conda/envs/GPAW_mpich/lib/python3.11/site-packages/scipy (version 1.10.1)
libxc:  5.2.3
units:  Angstrom and eV
cores: 128
OpenMP: True
OMP_NUM_THREADS: 1

Input parameters:
  h: 0.16
  kpts: {size: [4, 4, 1]}
  occupations: {name: fermi-dirac,
                width: 0.05}
  poissonsolver: {dipolelayer: xy}
  xc: BEEF-vdW

System changes: positions, numbers, cell, pbc, initial_charges, initial_magmoms 

Initialize ...

species:
  Li:
    name: Lithium
    id: 830b4218f175192f93f959cfc0aad614
    Z: 3.0
    valence: 1
    core: 2
    charge: 0.0
    file: /jet/home/vazumah/datasets/gpaw-setups-0.9.20000/Li.PBE.gz
    compensation charges: {type: gauss,
                           rc: 0.33,
                           lmax: 2}
    cutoffs: {filter: 1.91,
              core: 2.55}
    valence states:
      #              energy  rcut
      - 2s(1.00)    -2.874   1.058
      - 2p(0.00)    -1.090   1.058
      -  s          24.337   1.058
  
    # Using partial waves for Li as LCAO basis

  O:
    name: Oxygen
    id: 32ecd46bf208036f09c70b0ec9a88b78
    Z: 8.0
    valence: 6
    core: 2
    charge: 0.0
    file: /jet/home/vazumah/datasets/gpaw-setups-0.9.20000/O.PBE.gz
    compensation charges: {type: gauss,
                           rc: 0.21,
                           lmax: 2}
    cutoffs: {filter: 1.17,
              core: 0.83}
    valence states:
      #              energy  rcut
      - 2s(2.00)   -23.961   0.688
      - 2p(4.00)    -9.029   0.598
      -  s           3.251   0.688
      -  p          18.182   0.598
      -  d           0.000   0.619
  
    # Using partial waves for O as LCAO basis

  C:
    name: Carbon
    id: 4aa54d4b901d75f77cc0ea3eec22967b
    Z: 6.0
    valence: 4
    core: 2
    charge: 0.0
    file: /jet/home/vazumah/datasets/gpaw-setups-0.9.20000/C.PBE.gz
    compensation charges: {type: gauss,
                           rc: 0.20,
                           lmax: 2}
    cutoffs: {filter: 1.14,
              core: 1.14}
    valence states:
      #              energy  rcut
      - 2s(2.00)   -13.751   0.635
      - 2p(2.00)    -5.284   0.635
      -  s          13.461   0.635
      -  p          21.927   0.635
      -  d           0.000   0.635
  
    # Using partial waves for C as LCAO basis

  H:
    name: Hydrogen
    id: d65de229564ff8ea4db303e23b6d1ecf
    Z: 1.0
    valence: 1
    core: 0
    charge: 0.0
    file: /jet/home/vazumah/datasets/gpaw-setups-0.9.20000/H.PBE.gz
    compensation charges: {type: gauss,
                           rc: 0.15,
                           lmax: 2}
    cutoffs: {filter: 0.85,
              core: 0.53}
    valence states:
      #              energy  rcut
      - 1s(1.00)    -6.494   0.476
      -  s          20.717   0.476
      -  p           0.000   0.476
  
    # Using partial waves for H as LCAO basis

  N:
    name: Nitrogen
    id: f7500608b86eaa90eef8b1d9a670dc53
    Z: 7.0
    valence: 5
    core: 2
    charge: 0.0
    file: /jet/home/vazumah/datasets/gpaw-setups-0.9.20000/N.PBE.gz
    compensation charges: {type: gauss,
                           rc: 0.18,
                           lmax: 2}
    cutoffs: {filter: 1.11,
              core: 0.96}
    valence states:
      #              energy  rcut
      - 2s(2.00)   -18.583   0.603
      - 2p(3.00)    -7.089   0.529
      -  s           8.629   0.603
      -  p          20.123   0.529
      -  d           0.000   0.577
  
    # Using partial waves for N as LCAO basis

Reference energy: -16475.706344  # eV

Spin-paired calculation

Convergence criteria:
 Maximum [total energy] change in last 3 cyles: 0.0005 eV / electron
 Maximum integral of absolute [dens]ity change: 0.0001 electrons / valence electron
 Maximum integral of absolute [eigenst]ate change: 4e-08 eV^2 / valence electron
 Maximum number of scf [iter]ations: 333
 (Square brackets indicate name in SCF output, whereas a 'c' in
 the SCF output indicates the quantity has converged.)

Symmetries present (total): 1

  ( 1  0  0)
  ( 0  1  0)
  ( 0  0  1)

16 k-points: 4 x 4 x 1 Monkhorst-Pack grid
8 k-points in the irreducible part of the Brillouin zone
       k-points in crystal coordinates                weights
   0:     0.12500000   -0.37500000    0.00000000          2/16
   1:     0.12500000   -0.12500000    0.00000000          2/16
   2:     0.12500000    0.12500000    0.00000000          2/16
   3:     0.12500000    0.37500000    0.00000000          2/16
   4:     0.37500000   -0.37500000    0.00000000          2/16
   5:     0.37500000   -0.12500000    0.00000000          2/16
   6:     0.37500000    0.12500000    0.00000000          2/16
   7:     0.37500000    0.37500000    0.00000000          2/16

Wave functions: Uniform real-space grid
  Kinetic energy operator: 6*3+1=19 point O(h^6) finite-difference Laplacian
  ScaLapack parameters: grid=1x1, blocksize=None
  Wavefunction extrapolation:
    Improved wavefunction reuse through dual PAW basis 

Occupation numbers: Fermi-Dirac:
  width: 0.0500  # eV
 

Eigensolver
   Davidson(niter=2) 

Densities:
  Coarse grid: 60*60*164 grid
  Fine grid: 120*120*328 grid
  Total Charge: 0.000000 

Density mixing:
  Method: separate
  Backend: pulay
  Linear mixing parameter: 0.05
  old densities: 5
  Damping of long wavelength oscillations: 50 

Hamiltonian:
  XC and Coulomb potentials evaluated on a 120*120*328 grid
  Using the BEEF-vdW Exchange-Correlation functional
  Interpolation: tri-quintic (5. degree polynomial)
  Poisson solver: FastPoissonSolver using
    Stencil: 6*3+1=19 point O(h^6) finite-difference Laplacian
    FFT axes: [0, 1]
    FST axes: [2]

Dipole correction along z-axis 

XC parameters: BEEF-vdW with 2 nearest neighbor stencil

Memory estimate:
  Process memory now: 126.26 MiB
  Calculator: 84.78 MiB
    Density: 22.56 MiB
      Arrays: 7.22 MiB
      Localized functions: 12.59 MiB
      Mixer: 2.75 MiB
    Hamiltonian: 5.72 MiB
      Arrays: 4.72 MiB
      XC: 0.00 MiB
      Poisson: 0.00 MiB
      vbar: 0.99 MiB
    Wavefunctions: 56.50 MiB
      Arrays psit_nG: 26.37 MiB
      Eigensolver: 29.47 MiB
      Projections: 0.01 MiB
      Projectors: 0.66 MiB

Total number of cores used: 128
Parallelization over k-points: 8
Domain decomposition: 2 x 2 x 4

Number of atoms: 48
Number of atomic orbitals: 174
Number of bands in calculation: 48
Number of valence electrons: 72
Bands to converge: occupied

... initialized

Initializing position-dependent things.

Density initialized from atomic densities
Creating initial wave functions:
  48 bands from LCAO basis set

       .-----------------------.  
      /|                       |  
     / |                       |  
    /  |                       |  
   /   |                       |  
  /    |                       |  
 *     |                       |  
 |     |                       |  
 |     |                       |  
 |     |                       |  
 |     |                       |  
 |     |          H            |  
 |     |         C    HH       |  
 |     |             CO        |  
 |     |       OH              |  
 |   Li|     Li      Hi        |  
 |     |           N  N        |  
 | Li  |  LLi     LLi     Li   |  
 |     |                       |  
 Li    |LLi     LLi     Li     |  
 |   Li|     Li      Li        |  
 |    Li  Li  Li  Li  Li  Li   |  
 | Li  |   Li      Li          |  
 |     |Li      Li      Li     |  
 Li    | Li      Li            |  
 |    Li      Li      Li       |  
 |     |                       |  
 |     |                       |  
 |     |                       |  
 |     |                       |  
 |     |                       |  
 |     |                       |  
 |     .-----------------------.  
 |    /                       /   
 |   /                       /    
 |  /                       /     
 | /                       /      
 |/                       /       
 *-----------------------*        

Positions:
   0 Li     1.617037    1.617037   10.000000    ( 0.0000,  0.0000,  0.0000)
   1 Li     4.851111    1.617037   10.000000    ( 0.0000,  0.0000,  0.0000)
   2 Li     8.085185    1.617037   10.000000    ( 0.0000,  0.0000,  0.0000)
   3 Li     1.617037    4.851111   10.000000    ( 0.0000,  0.0000,  0.0000)
   4 Li     4.851111    4.851111   10.000000    ( 0.0000,  0.0000,  0.0000)
   5 Li     8.085185    4.851111   10.000000    ( 0.0000,  0.0000,  0.0000)
   6 Li     1.617037    8.085185   10.000000    ( 0.0000,  0.0000,  0.0000)
   7 Li     4.851111    8.085185   10.000000    ( 0.0000,  0.0000,  0.0000)
   8 Li     8.085185    8.085185   10.000000    ( 0.0000,  0.0000,  0.0000)
   9 Li     0.000000    0.000000   11.617037    ( 0.0000,  0.0000,  0.0000)
  10 Li     3.234074    0.000000   11.617037    ( 0.0000,  0.0000,  0.0000)
  11 Li     6.468148    0.000000   11.617037    ( 0.0000,  0.0000,  0.0000)
  12 Li     0.000000    3.234074   11.617037    ( 0.0000,  0.0000,  0.0000)
  13 Li     3.234074    3.234074   11.617037    ( 0.0000,  0.0000,  0.0000)
  14 Li     6.468148    3.234074   11.617037    ( 0.0000,  0.0000,  0.0000)
  15 Li     0.000000    6.468148   11.617037    ( 0.0000,  0.0000,  0.0000)
  16 Li     3.234074    6.468148   11.617037    ( 0.0000,  0.0000,  0.0000)
  17 Li     6.468148    6.468148   11.617037    ( 0.0000,  0.0000,  0.0000)
  18 Li     1.617038    1.617038   13.469728    ( 0.0000,  0.0000,  0.0000)
  19 Li     4.851111    1.617038   13.469729    ( 0.0000,  0.0000,  0.0000)
  20 Li     8.085184    1.617038   13.469728    ( 0.0000,  0.0000,  0.0000)
  21 Li     1.617038    4.851111   13.469729    ( 0.0000,  0.0000,  0.0000)
  22 Li     4.851111    4.851111   13.469730    ( 0.0000,  0.0000,  0.0000)
  23 Li     8.085184    4.851111   13.469729    ( 0.0000,  0.0000,  0.0000)
  24 Li     1.617038    8.085184   13.469728    ( 0.0000,  0.0000,  0.0000)
  25 Li     4.851111    8.085184   13.469729    ( 0.0000,  0.0000,  0.0000)
  26 Li     8.085184    8.085184   13.469728    ( 0.0000,  0.0000,  0.0000)
  27 Li    -0.000000   -0.000000   15.445939    ( 0.0000,  0.0000,  0.0000)
  28 Li     3.234074    0.000000   15.445939    ( 0.0000,  0.0000,  0.0000)
  29 Li     6.468148    0.000000   15.445939    ( 0.0000,  0.0000,  0.0000)
  30 Li     0.000000    3.234074   15.445939    ( 0.0000,  0.0000,  0.0000)
  31 Li     3.234076    3.234076   15.445938    ( 0.0000,  0.0000,  0.0000)
  32 Li     6.468146    3.234076   15.445938    ( 0.0000,  0.0000,  0.0000)
  33 Li     0.000000    6.468148   15.445939    ( 0.0000,  0.0000,  0.0000)
  34 Li     3.234076    6.468146   15.445938    ( 0.0000,  0.0000,  0.0000)
  35 Li     6.468146    6.468146   15.445938    ( 0.0000,  0.0000,  0.0000)
  36 O      8.085185    1.617037   19.445939    ( 0.0000,  0.0000,  0.0000)
  37 O      5.186987    1.661030   19.213250    ( 0.0000,  0.0000,  0.0000)
  38 C      7.356624    2.788249   19.033562    ( 0.0000,  0.0000,  0.0000)
  39 C      5.947439    2.801939   19.602713    ( 0.0000,  0.0000,  0.0000)
  40 H      7.884750    3.702639   19.326395    ( 0.0000,  0.0000,  0.0000)
  41 H      7.323875    2.740951   17.943996    ( 0.0000,  0.0000,  0.0000)
  42 H      5.410720    3.676205   19.226232    ( 0.0000,  0.0000,  0.0000)
  43 H      5.997169    2.877440   20.701774    ( 0.0000,  0.0000,  0.0000)
  44 H      8.254610    1.691552   20.393261    ( 0.0000,  0.0000,  0.0000)
  45 H      5.766453    0.893910   19.309689    ( 0.0000,  0.0000,  0.0000)
  46 N      8.085000    1.617000   16.945939    ( 0.0000,  0.0000,  0.0000)
  47 N      6.988378    1.617000   16.945939    ( 0.0000,  0.0000,  0.0000)

Unit cell:
           periodic     x           y           z      points  spacing
  1. axis:    yes    9.702222    0.000000    0.000000    60     0.1617
  2. axis:    yes    0.000000    9.702222    0.000000    60     0.1617
  3. axis:    no     0.000000    0.000000   26.351111   164     0.1607

  Lengths:   9.702222   9.702222  26.351111
  Angles:   90.000000  90.000000  90.000000

Effective grid spacing dv^(1/3) = 0.1614

     iter     time        total  log10-change:
                         energy  eigst   dens
iter:   1 12:23:06  -650.166567
iter:   2 12:23:13   -24.975187  +2.64  +0.02
iter:   3 12:23:21     2.957561  +3.27  -0.15
iter:   4 12:23:28  -182.879159  +3.22  -0.25
Writing to output.gpw (mode='')

iter:   5 12:23:35  -258.239952  +2.88  -0.29
iter:   6 12:23:43  -325.502941  +2.56  -0.54
iter:   7 12:23:50  -339.920073  +2.21  -0.56
iter:   8 12:23:57  -331.937825  +1.91  -0.54
iter:   9 12:24:04  -364.252734  +1.80  -0.71
Writing to output.gpw (mode='')

iter:  10 12:24:12  -339.127943  +1.36  -0.56
iter:  11 12:24:19  -363.668915  +1.35  -0.67
iter:  12 12:24:26  -337.144104  +0.83  -0.63
iter:  13 12:24:34  -331.770622  +0.68  -0.75
iter:  14 12:24:46  -327.748868  +0.96  -0.78
Writing to output.gpw (mode='')

iter:  15 12:24:54  -327.160482  +0.32  -0.84
iter:  16 12:25:04  -326.376553  +0.29  -0.87
iter:  17 12:25:12  -325.943066  +0.73  -0.95
iter:  18 12:25:19  -325.547326  +0.25  -1.12
iter:  19 12:25:26  -326.490218  +0.39  -1.13
Writing to output.gpw (mode='')

iter:  20 12:25:33  -327.226996  +0.47  -1.07
iter:  21 12:25:41  -325.223024  -0.28  -1.03
iter:  22 12:25:48  -325.254633  -0.52  -1.23
iter:  23 12:25:55  -325.087909  -0.58  -1.25
iter:  24 12:26:03  -324.930109  -0.60  -1.33
Writing to output.gpw (mode='')

iter:  25 12:26:10  -324.851537  -0.76  -1.38
iter:  26 12:26:17  -324.770016  -0.55  -1.47
iter:  27 12:26:24  -324.736329  -0.93  -1.65
iter:  28 12:26:32  -324.677219  -0.99  -1.70
iter:  29 12:26:39  -324.680988  -1.31  -1.85
Writing to output.gpw (mode='')

iter:  30 12:26:46  -324.681979c -1.58  -1.86
iter:  31 12:26:54  -324.678846c -1.73  -1.89
iter:  32 12:27:01  -324.681875c -1.52  -2.06
iter:  33 12:27:08  -324.679745c -1.84  -2.13
iter:  34 12:27:16  -324.680899c -1.87  -2.23
Writing to output.gpw (mode='')

iter:  35 12:27:23  -324.684696c -2.00  -2.30
iter:  36 12:27:30  -324.686474c -1.91  -2.35
iter:  37 12:27:38  -324.686103c -2.24  -2.50
iter:  38 12:27:45  -324.687256c -2.21  -2.60
iter:  39 12:27:52  -324.687378c -2.35  -2.72
Writing to output.gpw (mode='')

iter:  40 12:27:59  -324.688853c -2.37  -2.79
iter:  41 12:28:07  -324.689086c -2.50  -2.95
iter:  42 12:28:14  -324.689439c -2.35  -3.10
iter:  43 12:28:21  -324.690092c -2.69  -3.04
iter:  44 12:28:29  -324.690665c -2.68  -3.20
Writing to output.gpw (mode='')

iter:  45 12:28:36  -324.690911c -2.73  -3.23
iter:  46 12:28:43  -324.691076c -2.88  -3.33
iter:  47 12:28:50  -324.691536c -3.00  -3.39
iter:  48 12:28:58  -324.691663c -3.07  -3.42
iter:  49 12:29:05  -324.691803c -3.18  -3.51
Writing to output.gpw (mode='')

iter:  50 12:29:12  -324.692029c -3.15  -3.55
iter:  51 12:29:20  -324.692045c -3.38  -3.62
iter:  52 12:29:27  -324.692145c -3.54  -3.63
iter:  53 12:29:34  -324.692396c -3.47  -3.65
iter:  54 12:29:48  -324.692292c -3.59  -3.64
Writing to output.gpw (mode='')

iter:  55 12:29:55  -324.692309c -3.80  -3.71
iter:  56 12:30:02  -324.692424c -3.68  -3.71
iter:  57 12:30:10  -324.692527c -3.65  -3.91
iter:  58 12:30:17  -324.692548c -4.09  -4.19c
iter:  59 12:30:24  -324.692565c -4.18  -4.18c
Writing to output.gpw (mode='')

iter:  60 12:30:32  -324.692570c -3.89  -4.13c
iter:  61 12:30:39  -324.692586c -4.21  -4.14c
iter:  62 12:30:46  -324.692607c -4.07  -4.11c
iter:  63 12:30:54  -324.692617c -4.27  -4.10c
iter:  64 12:31:01  -324.692628c -3.91  -4.07c
Writing to output.gpw (mode='')

iter:  65 12:31:08  -324.692638c -4.33  -4.01c
iter:  66 12:31:15  -324.692648c -4.52  -4.00c
iter:  67 12:31:23  -324.692635c -4.61  -4.00
iter:  68 12:31:30  -324.692645c -4.71  -3.91
iter:  69 12:31:37  -324.692680c -4.76  -3.93
Writing to output.gpw (mode='')

iter:  70 12:31:44  -324.692668c -5.01  -4.04c
iter:  71 12:31:52  -324.692690c -4.55  -3.97
iter:  72 12:31:59  -324.692743c -5.01  -4.01c
iter:  73 12:32:06  -324.692735c -5.08  -4.18c
iter:  74 12:32:14  -324.692768c -4.94  -4.20c
Writing to output.gpw (mode='')

iter:  75 12:32:21  -324.692754c -5.10  -4.25c
iter:  76 12:32:28  -324.692754c -5.18  -4.45c
iter:  77 12:32:36  -324.692756c -5.39  -4.52c
iter:  78 12:32:43  -324.692752c -5.40  -4.64c
iter:  79 12:32:50  -324.692751c -5.31  -4.73c
Writing to output.gpw (mode='')

iter:  80 12:32:58  -324.692754c -5.45  -4.82c
iter:  81 12:33:05  -324.692752c -5.59  -4.89c
iter:  82 12:33:12  -324.692755c -5.34  -4.99c
iter:  83 12:33:20  -324.692755c -5.86  -5.09c
iter:  84 12:33:27  -324.692755c -5.99  -5.07c
Writing to output.gpw (mode='')

iter:  85 12:33:34  -324.692756c -5.84  -5.12c
iter:  86 12:33:41  -324.692759c -5.98  -5.19c
iter:  87 12:33:49  -324.692758c -5.98  -5.29c
iter:  88 12:33:56  -324.692758c -6.07  -5.49c
iter:  89 12:34:03  -324.692758c -6.25  -5.50c
Writing to output.gpw (mode='')

iter:  90 12:34:11  -324.692759c -6.30  -5.60c
iter:  91 12:34:18  -324.692758c -6.25  -5.65c
iter:  92 12:34:25  -324.692758c -6.21  -5.67c
iter:  93 12:34:32  -324.692759c -6.41  -5.68c
iter:  94 12:34:44  -324.692759c -6.30  -5.71c
Writing to output.gpw (mode='')

iter:  95 12:34:52  -324.692759c -6.40  -5.72c
iter:  96 12:35:00  -324.692759c -6.68  -5.68c
iter:  97 12:35:07  -324.692759c -6.66  -5.71c
iter:  98 12:35:14  -324.692759c -6.74  -5.69c
iter:  99 12:35:22  -324.692759c -6.59  -5.60c
Writing to output.gpw (mode='')

iter: 100 12:35:29  -324.692759c -6.84  -5.49c
iter: 101 12:35:36  -324.692759c -6.84  -5.53c
iter: 102 12:35:43  -324.692759c -6.89  -5.54c
iter: 103 12:35:51  -324.692758c -7.01  -5.53c
iter: 104 12:35:58  -324.692759c -7.07  -5.40c
Writing to output.gpw (mode='')

iter: 105 12:36:05  -324.692760c -7.05  -5.61c
iter: 106 12:36:13  -324.692760c -7.12  -5.77c
iter: 107 12:36:20  -324.692760c -7.09  -5.82c
iter: 108 12:36:29  -324.692759c -7.22  -5.90c
iter: 109 12:36:40  -324.692759c -7.25  -6.17c
Writing to output.gpw (mode='')

iter: 110 12:36:52  -324.692760c -7.35  -6.21c
iter: 111 12:36:59  -324.692760c -7.30  -6.24c
iter: 112 12:37:07  -324.692760c -7.51c -6.27c

Converged after 112 iterations.

Dipole moment: (-2.452234, -3.258837, 0.243190) |e|*Ang

Energy contributions relative to reference atoms: (reference = -16475.706344)

Kinetic:       +177.785535
Potential:     -166.549961
External:        +0.000000
XC:            -336.971730
Entropy (-ST):   -0.169181
Local:           +1.127988
--------------------------
Free energy:   -324.777350
Extrapolated:  -324.692760

Dipole-layer corrected work functions: 3.401878, 2.934382 eV

Showing only first 2 kpts
 Kpt  Band  Eigenvalues  Occupancy
  0    34     -3.41466    1.98566
  0    35     -3.26172    1.73334
  0    36     -3.07612    0.27403
  0    37     -2.93167    0.01751

  1    34     -3.19468    1.25945
  1    35     -3.16314    0.95012
  1    36     -3.14423    0.76542
  1    37     -3.07168    0.25372


Fermi level: -3.16813

No gap
Writing to output.gpw (mode='')


Forces in eV/Ang:
  0 Li    0.02067   -0.00013   -0.26717
  1 Li   -0.02492    0.00047   -0.27468
  2 Li    0.00883   -0.00015   -0.27945
  3 Li   -0.00207   -0.00069   -0.27795
  4 Li   -0.00236    0.00808   -0.27665
  5 Li   -0.00571    0.02757   -0.27335
  6 Li   -0.00245    0.00066   -0.28007
  7 Li   -0.00237   -0.00787   -0.27560
  8 Li   -0.00480   -0.02704   -0.27488
  9 Li    0.00402    0.00351    0.28279
 10 Li   -0.01785    0.00692    0.24040
 11 Li    0.00078    0.01219    0.31896
 12 Li    0.00374   -0.00409    0.28300
 13 Li   -0.01484   -0.00528    0.24128
 14 Li    0.00124   -0.01253    0.32075
 15 Li   -0.01107    0.00134    0.24493
 16 Li    0.01543   -0.00130    0.26400
 17 Li    0.01011   -0.00032    0.22862
 18 Li   -0.00311    0.00014    0.03616
 19 Li   -0.02493   -0.00162   -0.03509
 20 Li    0.02200    0.00123   -0.19494
 21 Li   -0.00807   -0.00691    0.04740
 22 Li    0.02756   -0.02771    0.06578
 23 Li   -0.00550   -0.01597    0.05801
 24 Li   -0.00425    0.00458    0.04385
 25 Li    0.02772    0.02789    0.05992
 26 Li   -0.00542    0.01025    0.04108
 27 Li    0.08121   -0.01422    0.04080
 28 Li   -0.00297   -0.01338   -0.01459
 29 Li   -0.03468   -0.06392    0.00222
 30 Li    0.10673    0.01839    0.00747
 31 Li   -0.00880    0.01782   -0.01578
 32 Li   -0.11613    0.06515   -0.10348
 33 Li   -0.02877   -0.00932   -0.01709
 34 Li    0.01237   -0.00383   -0.01245
 35 Li    0.00569   -0.01160   -0.03027
 36 O    -0.07793   -0.00397    0.13398
 37 O    -0.17801   -0.12159    0.01245
 38 C    -0.16741    1.36640    1.05645
 39 C     0.12400    0.09844    0.23940
 40 H     0.05400    0.06778    0.22870
 41 H    -0.33681    2.08351    3.00195
 42 H    -0.02114    0.05317    0.00369
 43 H    -0.10894    0.01344    0.00899
 44 H     0.05427    0.01744   -0.01376
 45 H    -0.01938   -0.04700    0.02969
 46 N     6.19173   -1.76363   -2.39911
 47 N    -5.50283   -1.76590   -2.20410

System changes: positions 

Initializing position-dependent things.

Density initialized from wave functions
       .-----------------------.  
      /|                       |  
     / |                       |  
    /  |                       |  
   /   |                       |  
  /    |                       |  
 *     |                       |  
 |     |                       |  
 |     |                       |  
 |     |                       |  
 |     |                       |  
 |     |          H            |  
 |     |         C    HH       |  
 |     Li      Li    COLi      |  
 |     |       OH    H         |  
 |     |     Li      Li      Li|  
 |     |           N  N        |  
 | Li  |  LLi     LLi     Li   |  
 |     |                       |  
 |     |Li      Li      Li     |  
 |   Li|     Li      Li        |  
 |    Li  Li  Li  Li  Li  Li   |  
 | Li  |   Li      Li          |  
 |     |Li      Li      Li     |  
 Li    | Li      Li            |  
 |    Li      Li      Li       |  
 |     |                       |  
 |     |                       |  
 |     |                       |  
 |     |                       |  
 |     |                       |  
 |     |                       |  
 |     .-----------------------.  
 |    /                       /   
 |   /                       /    
 |  /                       /     
 | /                       /      
 |/                       /       
 *-----------------------*        

Positions:
   0 Li     1.617037    1.617037   10.000000    ( 0.0000,  0.0000,  0.0000)
   1 Li     4.851111    1.617037   10.000000    ( 0.0000,  0.0000,  0.0000)
   2 Li     8.085185    1.617037   10.000000    ( 0.0000,  0.0000,  0.0000)
   3 Li     1.617037    4.851111   10.000000    ( 0.0000,  0.0000,  0.0000)
   4 Li     4.851111    4.851111   10.000000    ( 0.0000,  0.0000,  0.0000)
   5 Li     8.085185    4.851111   10.000000    ( 0.0000,  0.0000,  0.0000)
   6 Li     1.617037    8.085185   10.000000    ( 0.0000,  0.0000,  0.0000)
   7 Li     4.851111    8.085185   10.000000    ( 0.0000,  0.0000,  0.0000)
   8 Li     8.085185    8.085185   10.000000    ( 0.0000,  0.0000,  0.0000)
   9 Li     0.000000    0.000000   11.617037    ( 0.0000,  0.0000,  0.0000)
  10 Li     3.234074    0.000000   11.617037    ( 0.0000,  0.0000,  0.0000)
  11 Li     6.468148    0.000000   11.617037    ( 0.0000,  0.0000,  0.0000)
  12 Li     0.000000    3.234074   11.617037    ( 0.0000,  0.0000,  0.0000)
  13 Li     3.234074    3.234074   11.617037    ( 0.0000,  0.0000,  0.0000)
  14 Li     6.468148    3.234074   11.617037    ( 0.0000,  0.0000,  0.0000)
  15 Li     0.000000    6.468148   11.617037    ( 0.0000,  0.0000,  0.0000)
  16 Li     3.234074    6.468148   11.617037    ( 0.0000,  0.0000,  0.0000)
  17 Li     6.468148    6.468148   11.617037    ( 0.0000,  0.0000,  0.0000)
  18 Li     1.617020    1.617039   13.469938    ( 0.0000,  0.0000,  0.0000)
  19 Li     4.850966    1.617029   13.469525    ( 0.0000,  0.0000,  0.0000)
  20 Li     8.085312    1.617045   13.468593    ( 0.0000,  0.0000,  0.0000)
  21 Li     1.616991    4.851071   13.470005    ( 0.0000,  0.0000,  0.0000)
  22 Li     4.851271    4.850950   13.470113    ( 0.0000,  0.0000,  0.0000)
  23 Li     8.085152    4.851018   13.470067    ( 0.0000,  0.0000,  0.0000)
  24 Li     1.617013    8.085211   13.469983    ( 0.0000,  0.0000,  0.0000)
  25 Li     4.851272    8.085346   13.470078    ( 0.0000,  0.0000,  0.0000)
  26 Li     8.085152    8.085244   13.469967    ( 0.0000,  0.0000,  0.0000)
  27 Li     0.000473   -0.000083   15.446177    ( 0.0000,  0.0000,  0.0000)
  28 Li     3.234056   -0.000078   15.445854    ( 0.0000,  0.0000,  0.0000)
  29 Li     6.467946   -0.000372   15.445952    ( 0.0000,  0.0000,  0.0000)
  30 Li     0.000621    3.234181   15.445982    ( 0.0000,  0.0000,  0.0000)
  31 Li     3.234025    3.234180   15.445846    ( 0.0000,  0.0000,  0.0000)
  32 Li     6.467469    3.234456   15.445336    ( 0.0000,  0.0000,  0.0000)
  33 Li    -0.000167    6.468094   15.445839    ( 0.0000,  0.0000,  0.0000)
  34 Li     3.234148    6.468123   15.445866    ( 0.0000,  0.0000,  0.0000)
  35 Li     6.468179    6.468078   15.445762    ( 0.0000,  0.0000,  0.0000)
  36 O      8.084731    1.617014   19.446719    ( 0.0000,  0.0000,  0.0000)
  37 O      5.185951    1.660323   19.213323    ( 0.0000,  0.0000,  0.0000)
  38 C      7.355650    2.796204   19.039713    ( 0.0000,  0.0000,  0.0000)
  39 C      5.948161    2.802512   19.604107    ( 0.0000,  0.0000,  0.0000)
  40 H      7.885064    3.703034   19.327727    ( 0.0000,  0.0000,  0.0000)
  41 H      7.321914    2.753081   17.961473    ( 0.0000,  0.0000,  0.0000)
  42 H      5.410597    3.676514   19.226254    ( 0.0000,  0.0000,  0.0000)
  43 H      5.996534    2.877519   20.701826    ( 0.0000,  0.0000,  0.0000)
  44 H      8.254926    1.691653   20.393180    ( 0.0000,  0.0000,  0.0000)
  45 H      5.766340    0.893636   19.309862    ( 0.0000,  0.0000,  0.0000)
  46 N      8.121048    1.606732   16.931972    ( 0.0000,  0.0000,  0.0000)
  47 N      6.956341    1.606719   16.933107    ( 0.0000,  0.0000,  0.0000)

Unit cell:
           periodic     x           y           z      points  spacing
  1. axis:    yes    9.702222    0.000000    0.000000    60     0.1617
  2. axis:    yes    0.000000    9.702222    0.000000    60     0.1617
  3. axis:    no     0.000000    0.000000   26.351111   164     0.1607

  Lengths:   9.702222   9.702222  26.351111
  Angles:   90.000000  90.000000  90.000000

Effective grid spacing dv^(1/3) = 0.1614

     iter     time        total  log10-change:
                         energy  eigst   dens
iter:   1 12:37:16  -329.949802  +0.23
iter:   2 12:37:23  -326.461139  +0.15  -1.03
iter:   3 12:37:31  -325.500345  -0.49  -1.08
iter:   4 12:37:38  -325.116314  -0.76  -1.30
Writing to output.gpw (mode='')

iter:   5 12:37:45  -325.073376  -1.32  -1.60
iter:   6 12:37:53  -325.086741  -0.87  -1.77
iter:   7 12:38:00  -325.031034  -1.19  -1.67
iter:   8 12:38:07  -325.031643  -1.56  -1.99
iter:   9 12:38:15  -325.034420c -1.78  -2.06
Writing to output.gpw (mode='')

iter:  10 12:38:22  -325.021932c -1.91  -2.14
iter:  11 12:38:30  -325.022602c -2.37  -2.53
iter:  12 12:38:37  -325.021175c -2.60  -2.54
iter:  13 12:38:44  -325.022717c -2.50  -2.61
iter:  14 12:38:52  -325.022425c -3.08  -2.79
Writing to output.gpw (mode='')

iter:  15 12:38:59  -325.022630c -3.06  -2.87
iter:  16 12:39:06  -325.022407c -3.00  -2.98
iter:  17 12:39:14  -325.022585c -3.55  -3.14
iter:  18 12:39:21  -325.022490c -3.67  -3.19
iter:  19 12:39:29  -325.022568c -3.69  -3.28
Writing to output.gpw (mode='')

iter:  20 12:39:37  -325.022747c -3.93  -3.36
iter:  21 12:39:49  -325.022641c -3.90  -3.39
iter:  22 12:39:57  -325.022756c -3.94  -3.54
iter:  23 12:40:04  -325.022682c -4.08  -3.57
iter:  24 12:40:11  -325.022675c -4.35  -3.72
Writing to output.gpw (mode='')

iter:  25 12:40:19  -325.022741c -4.39  -3.80
iter:  26 12:40:26  -325.022716c -4.69  -3.86
iter:  27 12:40:34  -325.022721c -4.69  -4.00c
iter:  28 12:40:41  -325.022733c -4.50  -4.12c
iter:  29 12:40:48  -325.022716c -4.80  -4.19c
Writing to output.gpw (mode='')

iter:  30 12:40:56  -325.022720c -4.81  -4.34c
iter:  31 12:41:05  -325.022727c -5.17  -4.44c
iter:  32 12:41:13  -325.022721c -5.09  -4.49c
iter:  33 12:41:20  -325.022728c -5.04  -4.49c
iter:  34 12:41:28  -325.022723c -5.36  -4.33c
Writing to output.gpw (mode='')

iter:  35 12:41:35  -325.022721c -5.54  -4.32c
iter:  36 12:41:42  -325.022724c -5.51  -4.27c
iter:  37 12:41:50  -325.022713c -5.38  -4.27c
iter:  38 12:41:57  -325.022722c -5.74  -4.27c
iter:  39 12:42:04  -325.022736c -5.58  -4.30c
Writing to output.gpw (mode='')

iter:  40 12:42:12  -325.022735c -5.69  -4.21c
iter:  41 12:42:19  -325.022736c -5.97  -4.29c
iter:  42 12:42:26  -325.022732c -5.94  -4.27c
iter:  43 12:42:34  -325.022727c -5.92  -4.30c
iter:  44 12:42:41  -325.022724c -6.14  -4.33c
Writing to output.gpw (mode='')

iter:  45 12:42:49  -325.022721c -6.34  -4.29c
iter:  46 12:42:56  -325.022716c -6.29  -4.37c
iter:  47 12:43:03  -325.022718c -6.48  -4.43c
iter:  48 12:43:11  -325.022714c -6.67  -4.46c
iter:  49 12:43:18  -325.022713c -6.62  -4.52c
Writing to output.gpw (mode='')

iter:  50 12:43:25  -325.022715c -6.99  -4.81c
iter:  51 12:43:33  -325.022717c -6.83  -4.90c
iter:  52 12:43:40  -325.022713c -6.87  -5.05c
iter:  53 12:43:48  -325.022714c -6.85  -5.21c
iter:  54 12:43:55  -325.022714c -6.96  -5.34c
Writing to output.gpw (mode='')

iter:  55 12:44:02  -325.022714c -7.15  -5.44c
iter:  56 12:44:10  -325.022714c -7.10  -5.60c
iter:  57 12:44:17  -325.022714c -7.32  -5.70c
iter:  58 12:44:24  -325.022714c -7.46c -5.75c

Converged after 58 iterations.

Dipole moment: (-2.622986, -2.995412, 0.172079) |e|*Ang

Energy contributions relative to reference atoms: (reference = -16475.706344)

Kinetic:       +168.535455
Potential:     -159.138932
External:        +0.000000
XC:            -335.457080
Entropy (-ST):   -0.178986
Local:           +1.127336
--------------------------
Free energy:   -325.112207
Extrapolated:  -325.022714

Dipole-layer corrected work functions: 3.406565, 3.075770 eV

Showing only first 2 kpts
 Kpt  Band  Eigenvalues  Occupancy
  0    34     -3.48491    1.98484
  0    35     -3.31887    1.65100
  0    36     -3.17460    0.41785
  0    37     -3.00372    0.01717

  1    34     -3.27305    1.30840
  1    35     -3.23437    0.93209
  1    36     -3.20921    0.69084
  1    37     -3.13841    0.22708


Fermi level: -3.24117

No gap
Writing to output.gpw (mode='')


Forces in eV/Ang:
  0 Li    0.01974   -0.00013   -0.26772
  1 Li   -0.02264    0.00040   -0.27620
  2 Li    0.00780   -0.00004   -0.28131
  3 Li   -0.00178    0.00172   -0.27891
  4 Li   -0.00325    0.00981   -0.27785
  5 Li   -0.00564    0.02749   -0.27535
  6 Li   -0.00212   -0.00150   -0.28096
  7 Li   -0.00372   -0.00955   -0.27722
  8 Li   -0.00493   -0.02714   -0.27703
  9 Li    0.00231    0.00417    0.28757
 10 Li   -0.01717    0.00707    0.24213
 11 Li    0.00136    0.01236    0.32374
 12 Li    0.00157   -0.00521    0.28803
 13 Li   -0.01453   -0.00516    0.24298
 14 Li    0.00165   -0.01230    0.32466
 15 Li   -0.00938    0.00149    0.24369
 16 Li    0.01549   -0.00183    0.26138
 17 Li    0.00923   -0.00052    0.22783
 18 Li    0.00211   -0.00024    0.02606
 19 Li   -0.03119   -0.00122   -0.05026
 20 Li    0.01929    0.00101   -0.17542
 21 Li   -0.00903   -0.00933    0.04756
 22 Li    0.02840   -0.02649    0.06249
 23 Li   -0.00466   -0.00653    0.04403
 24 Li   -0.00556    0.00709    0.04559
 25 Li    0.02914    0.02611    0.05567
 26 Li   -0.00399    0.00001    0.02506
 27 Li    0.02353    0.03996    0.11687
 28 Li   -0.00190   -0.01980   -0.01216
 29 Li    0.03215    0.03527    0.13710
 30 Li    0.05617   -0.02927    0.07897
 31 Li   -0.00685    0.02426   -0.01325
 32 Li   -0.04625   -0.03826    0.03452
 33 Li   -0.02079   -0.00972   -0.02228
 34 Li    0.01017   -0.00353   -0.01426
 35 Li   -0.00086   -0.01222   -0.03802
 36 O    -0.12514    0.11449    0.12400
 37 O    -0.13307   -0.07162    0.05364
 38 C    -0.12676    0.89129    1.13337
 39 C     0.03358    0.10976    0.23910
 40 H     0.14227    0.24257    0.34441
 41 H    -0.27489    1.65130    2.17871
 42 H    -0.02425    0.04292    0.01981
 43 H    -0.13221    0.01363    0.05263
 44 H     0.06790    0.01653    0.03733
 45 H    -0.00672   -0.02669    0.00204
 46 N    -0.53617   -1.48441   -2.32430
 47 N     1.03503   -1.50894   -2.13438

System changes: positions 

Initializing position-dependent things.

Density initialized from wave functions
       .-----------------------.  
      /|                       |  
     / |                       |  
    /  |                       |  
   /   |                       |  
  /    |                       |  
 *     |                       |  
 |     |                       |  
 |     |                       |  
 |     |                       |  
 |     |                       |  
 |     |          H            |  
 |     |         C    HH       |  
 |     |       Li    COLi      |  
 |     |       OH    H         |  
 |     |     Li      Li      Li|  
 |     |           N  N        |  
 | Li  |  LLi     LLi     Li   |  
 |     |                       |  
 Li    |Li      Li      Li     |  
 |   Li|     Li      Li        |  
 |    Li  Li  Li  Li  Li  Li   |  
 | Li  |   Li      Li          |  
 |     |Li      Li      Li     |  
 Li    | Li      Li            |  
 |    Li      Li      Li       |  
 |     |                       |  
 |     |                       |  
 |     |                       |  
 |     |                       |  
 |     |                       |  
 |     |                       |  
 |     .-----------------------.  
 |    /                       /   
 |   /                       /    
 |  /                       /     
 | /                       /      
 |/                       /       
 *-----------------------*        

Positions:
   0 Li     1.617037    1.617037   10.000000    ( 0.0000,  0.0000,  0.0000)
   1 Li     4.851111    1.617037   10.000000    ( 0.0000,  0.0000,  0.0000)
   2 Li     8.085185    1.617037   10.000000    ( 0.0000,  0.0000,  0.0000)
   3 Li     1.617037    4.851111   10.000000    ( 0.0000,  0.0000,  0.0000)
   4 Li     4.851111    4.851111   10.000000    ( 0.0000,  0.0000,  0.0000)
   5 Li     8.085185    4.851111   10.000000    ( 0.0000,  0.0000,  0.0000)
   6 Li     1.617037    8.085185   10.000000    ( 0.0000,  0.0000,  0.0000)
   7 Li     4.851111    8.085185   10.000000    ( 0.0000,  0.0000,  0.0000)
   8 Li     8.085185    8.085185   10.000000    ( 0.0000,  0.0000,  0.0000)
   9 Li     0.000000    0.000000   11.617037    ( 0.0000,  0.0000,  0.0000)
  10 Li     3.234074    0.000000   11.617037    ( 0.0000,  0.0000,  0.0000)
  11 Li     6.468148    0.000000   11.617037    ( 0.0000,  0.0000,  0.0000)
  12 Li     0.000000    3.234074   11.617037    ( 0.0000,  0.0000,  0.0000)
  13 Li     3.234074    3.234074   11.617037    ( 0.0000,  0.0000,  0.0000)
  14 Li     6.468148    3.234074   11.617037    ( 0.0000,  0.0000,  0.0000)
  15 Li     0.000000    6.468148   11.617037    ( 0.0000,  0.0000,  0.0000)
  16 Li     3.234074    6.468148   11.617037    ( 0.0000,  0.0000,  0.0000)
  17 Li     6.468148    6.468148   11.617037    ( 0.0000,  0.0000,  0.0000)
  18 Li     1.617040    1.617036   13.470320    ( 0.0000,  0.0000,  0.0000)
  19 Li     4.850543    1.617011   13.468854    ( 0.0000,  0.0000,  0.0000)
  20 Li     8.085586    1.617060   13.466113    ( 0.0000,  0.0000,  0.0000)
  21 Li     1.616867    4.850945   13.470668    ( 0.0000,  0.0000,  0.0000)
  22 Li     4.851665    4.850578   13.470990    ( 0.0000,  0.0000,  0.0000)
  23 Li     8.085085    4.850909   13.470707    ( 0.0000,  0.0000,  0.0000)
  24 Li     1.616938    8.085305   13.470615    ( 0.0000,  0.0000,  0.0000)
  25 Li     4.851676    8.085713   13.470862    ( 0.0000,  0.0000,  0.0000)
  26 Li     8.085094    8.085263   13.470346    ( 0.0000,  0.0000,  0.0000)
  27 Li     0.000909    0.000372   15.447662    ( 0.0000,  0.0000,  0.0000)
  28 Li     3.234028   -0.000342   15.445680    ( 0.0000,  0.0000,  0.0000)
  29 Li     6.468269   -0.000067   15.447608    ( 0.0000,  0.0000,  0.0000)
  30 Li     0.001499    3.233863   15.446948    ( 0.0000,  0.0000,  0.0000)
  31 Li     3.233926    3.234506   15.445657    ( 0.0000,  0.0000,  0.0000)
  32 Li     6.466694    3.234117   15.445557    ( 0.0000,  0.0000,  0.0000)
  33 Li    -0.000472    6.467959   15.445539    ( 0.0000,  0.0000,  0.0000)
  34 Li     3.234294    6.468074   15.445670    ( 0.0000,  0.0000,  0.0000)
  35 Li     6.468179    6.467909   15.445247    ( 0.0000,  0.0000,  0.0000)
  36 O      8.083077    1.618386   19.448465    ( 0.0000,  0.0000,  0.0000)
  37 O      5.184013    1.659231   19.213992    ( 0.0000,  0.0000,  0.0000)
  38 C      7.353808    2.809512   19.055355    ( 0.0000,  0.0000,  0.0000)
  39 C      5.948798    2.804020   19.607438    ( 0.0000,  0.0000,  0.0000)
  40 H      7.886880    3.706084   19.332307    ( 0.0000,  0.0000,  0.0000)
  41 H      7.317969    2.776895   17.993369    ( 0.0000,  0.0000,  0.0000)
  42 H      5.410265    3.677131   19.226499    ( 0.0000,  0.0000,  0.0000)
  43 H      5.994737    2.877708   20.702477    ( 0.0000,  0.0000,  0.0000)
  44 H      8.255846    1.691885   20.393604    ( 0.0000,  0.0000,  0.0000)
  45 H      5.766223    0.893226   19.309942    ( 0.0000,  0.0000,  0.0000)
  46 N      8.126229    1.585530   16.899455    ( 0.0000,  0.0000,  0.0000)
  47 N      6.958466    1.585217   16.903246    ( 0.0000,  0.0000,  0.0000)

Unit cell:
           periodic     x           y           z      points  spacing
  1. axis:    yes    9.702222    0.000000    0.000000    60     0.1617
  2. axis:    yes    0.000000    9.702222    0.000000    60     0.1617
  3. axis:    no     0.000000    0.000000   26.351111   164     0.1607

  Lengths:   9.702222   9.702222  26.351111
  Angles:   90.000000  90.000000  90.000000

Effective grid spacing dv^(1/3) = 0.1614

     iter     time        total  log10-change:
                         energy  eigst   dens
iter:   1 12:44:33  -325.458132  -0.97
iter:   2 12:44:46  -325.447228  -1.04  -1.61
iter:   3 12:44:54  -325.344469  -2.25  -1.54
iter:   4 12:45:01  -325.341690  -2.57  -2.18
Writing to output.gpw (mode='')

iter:   5 12:45:08  -325.336864c -1.71  -2.32
iter:   6 12:45:16  -325.328612c -2.50  -2.04
iter:   7 12:45:23  -325.329090c -2.42  -2.55
iter:   8 12:45:31  -325.327975c -2.57  -2.60
iter:   9 12:45:38  -325.328129c -2.60  -2.92
Writing to output.gpw (mode='')

iter:  10 12:45:45  -325.327631c -3.72  -2.75
iter:  11 12:45:52  -325.328165c -3.29  -2.84
iter:  12 12:46:00  -325.327810c -3.81  -3.06
iter:  13 12:46:07  -325.327653c -3.98  -3.24
iter:  14 12:46:14  -325.327824c -4.44  -3.24
Writing to output.gpw (mode='')

iter:  15 12:46:22  -325.327849c -3.98  -3.53
iter:  16 12:46:29  -325.327847c -4.77  -3.39
iter:  17 12:46:36  -325.327804c -4.81  -3.52
iter:  18 12:46:44  -325.327794c -4.84  -3.72
iter:  19 12:46:51  -325.327785c -5.23  -3.72
Writing to output.gpw (mode='')

iter:  20 12:46:58  -325.327799c -4.92  -3.77
iter:  21 12:47:06  -325.327763c -5.41  -3.79
iter:  22 12:47:13  -325.327771c -5.16  -3.88
iter:  23 12:47:20  -325.327782c -6.00  -4.07c
iter:  24 12:47:28  -325.327788c -5.81  -4.18c
Writing to output.gpw (mode='')

iter:  25 12:47:35  -325.327790c -5.95  -4.37c
iter:  26 12:47:42  -325.327782c -6.20  -4.37c
iter:  27 12:47:50  -325.327783c -5.98  -4.39c
iter:  28 12:47:57  -325.327777c -6.52  -4.44c
iter:  29 12:48:04  -325.327783c -6.59  -4.73c
Writing to output.gpw (mode='')

iter:  30 12:48:12  -325.327783c -6.91  -4.91c
iter:  31 12:48:19  -325.327782c -7.03  -4.95c
iter:  32 12:48:26  -325.327782c -6.96  -5.04c
iter:  33 12:48:34  -325.327783c -7.00  -5.28c
iter:  34 12:48:41  -325.327783c -7.43c -5.37c

Converged after 34 iterations.

Dipole moment: (-2.627636, -3.005257, 0.187615) |e|*Ang

Energy contributions relative to reference atoms: (reference = -16475.706344)

Kinetic:       +167.883178
Potential:     -158.843003
External:        +0.000000
XC:            -335.405204
Entropy (-ST):   -0.179859
Local:           +1.127175
--------------------------
Free energy:   -325.417713
Extrapolated:  -325.327783

Dipole-layer corrected work functions: 3.405435, 3.044775 eV

Showing only first 2 kpts
 Kpt  Band  Eigenvalues  Occupancy
  0    34     -3.46915    1.98493
  0    35     -3.29879    1.62725
  0    36     -3.15890    0.42029
  0    37     -2.98791    0.01726

  1    34     -3.26324    1.36387
  1    35     -3.21827    0.93175
  1    36     -3.18952    0.65845
  1    37     -3.12189    0.22523


Fermi level: -3.22510

No gap
Writing to output.gpw (mode='')


Forces in eV/Ang:
  0 Li    0.01961   -0.00029   -0.26779
  1 Li   -0.02215    0.00035   -0.27682
  2 Li    0.00760    0.00015   -0.28151
  3 Li   -0.00194    0.00204   -0.27916
  4 Li   -0.00289    0.01024   -0.27797
  5 Li   -0.00616    0.02718   -0.27585
  6 Li   -0.00185   -0.00151   -0.28054
  7 Li   -0.00391   -0.00991   -0.27793
  8 Li   -0.00535   -0.02716   -0.27726
  9 Li    0.00255    0.00461    0.28876
 10 Li   -0.01722    0.00646    0.24220
 11 Li    0.00096    0.01263    0.32515
 12 Li    0.00145   -0.00553    0.28929
 13 Li   -0.01507   -0.00462    0.24312
 14 Li    0.00164   -0.01220    0.32488
 15 Li   -0.00926    0.00119    0.24427
 16 Li    0.01555   -0.00213    0.26217
 17 Li    0.00967   -0.00078    0.22813
 18 Li    0.00298   -0.00052    0.02433
 19 Li   -0.03220   -0.00081   -0.05312
 20 Li    0.01847    0.00060   -0.16976
 21 Li   -0.00897   -0.00946    0.04645
 22 Li    0.02852   -0.02677    0.06137
 23 Li   -0.00419   -0.00624    0.04273
 24 Li   -0.00672    0.00787    0.04590
 25 Li    0.02983    0.02599    0.05463
 26 Li   -0.00345    0.00015    0.02300
 27 Li    0.02090    0.04677    0.12272
 28 Li   -0.00389   -0.02115   -0.01311
 29 Li    0.02916    0.02368    0.12884
 30 Li    0.05221   -0.03136    0.07974
 31 Li   -0.00728    0.02526   -0.01379
 32 Li   -0.03565   -0.04155    0.04231
 33 Li   -0.02033   -0.00998   -0.02187
 34 Li    0.01010   -0.00302   -0.01349
 35 Li   -0.00157   -0.01284   -0.03820
 36 O    -0.16663    0.26285    0.09062
 37 O     0.00942    0.01652    0.06403
 38 C    -0.07375    0.28379    1.09114
 39 C    -0.17575    0.13367    0.27524
 40 H     0.25260    0.47594    0.50331
 41 H    -0.20533    1.21914    1.15236
 42 H    -0.02333    0.02459    0.04659
 43 H    -0.16810    0.01732    0.13409
 44 H     0.09107   -0.01112    0.09113
 45 H    -0.01552   -0.01358   -0.00809
 46 N    -0.86515   -1.19365   -2.01635
 47 N     1.25933   -1.17656   -1.81218

System changes: positions 

Initializing position-dependent things.

Density initialized from wave functions
       .-----------------------.  
      /|                       |  
     / |                       |  
    /  |                       |  
   /   |                       |  
  /    |                       |  
 *     |                       |  
 |     |                       |  
 |     |                       |  
 |     |                       |  
 |     |                       |  
 |     |          H            |  
 |     |         C    HH       |  
 |     |       Li    CO        |  
 |     |       OH    H         |  
 |     |     Li      Li      Li|  
 |     |                       |  
 | Li  |  LLi     LNi N   Li   |  
 |     |                       |  
 Li    |Li      LLi     Li     |  
 |   Li|     Li      Li        |  
 |    Li  Li  Li  Li  Li  Li   |  
 | Li  |   Li      Li          |  
 |     |Li      Li      Li     |  
 Li    | Li      Li            |  
 |    Li      Li      Li       |  
 |     |                       |  
 |     |                       |  
 |     |                       |  
 |     |                       |  
 |     |                       |  
 |     |                       |  
 |     .-----------------------.  
 |    /                       /   
 |   /                       /    
 |  /                       /     
 | /                       /      
 |/                       /       
 *-----------------------*        

Positions:
   0 Li     1.617037    1.617037   10.000000    ( 0.0000,  0.0000,  0.0000)
   1 Li     4.851111    1.617037   10.000000    ( 0.0000,  0.0000,  0.0000)
   2 Li     8.085185    1.617037   10.000000    ( 0.0000,  0.0000,  0.0000)
   3 Li     1.617037    4.851111   10.000000    ( 0.0000,  0.0000,  0.0000)
   4 Li     4.851111    4.851111   10.000000    ( 0.0000,  0.0000,  0.0000)
   5 Li     8.085185    4.851111   10.000000    ( 0.0000,  0.0000,  0.0000)
   6 Li     1.617037    8.085185   10.000000    ( 0.0000,  0.0000,  0.0000)
   7 Li     4.851111    8.085185   10.000000    ( 0.0000,  0.0000,  0.0000)
   8 Li     8.085185    8.085185   10.000000    ( 0.0000,  0.0000,  0.0000)
   9 Li     0.000000    0.000000   11.617037    ( 0.0000,  0.0000,  0.0000)
  10 Li     3.234074    0.000000   11.617037    ( 0.0000,  0.0000,  0.0000)
  11 Li     6.468148    0.000000   11.617037    ( 0.0000,  0.0000,  0.0000)
  12 Li     0.000000    3.234074   11.617037    ( 0.0000,  0.0000,  0.0000)
  13 Li     3.234074    3.234074   11.617037    ( 0.0000,  0.0000,  0.0000)
  14 Li     6.468148    3.234074   11.617037    ( 0.0000,  0.0000,  0.0000)
  15 Li     0.000000    6.468148   11.617037    ( 0.0000,  0.0000,  0.0000)
  16 Li     3.234074    6.468148   11.617037    ( 0.0000,  0.0000,  0.0000)
  17 Li     6.468148    6.468148   11.617037    ( 0.0000,  0.0000,  0.0000)
  18 Li     1.617074    1.617029   13.470750    ( 0.0000,  0.0000,  0.0000)
  19 Li     4.850029    1.616996   13.468020    ( 0.0000,  0.0000,  0.0000)
  20 Li     8.085899    1.617071   13.463253    ( 0.0000,  0.0000,  0.0000)
  21 Li     1.616722    4.850796   13.471435    ( 0.0000,  0.0000,  0.0000)
  22 Li     4.852134    4.850134   13.472013    ( 0.0000,  0.0000,  0.0000)
  23 Li     8.085013    4.850782   13.471449    ( 0.0000,  0.0000,  0.0000)
  24 Li     1.616833    8.085427   13.471367    ( 0.0000,  0.0000,  0.0000)
  25 Li     4.852163    8.086146   13.471776    ( 0.0000,  0.0000,  0.0000)
  26 Li     8.085033    8.085291   13.470769    ( 0.0000,  0.0000,  0.0000)
  27 Li     0.001403    0.000996   15.449486    ( 0.0000,  0.0000,  0.0000)
  28 Li     3.233964   -0.000672   15.445459    ( 0.0000,  0.0000,  0.0000)
  29 Li     6.468587    0.000094   15.449409    ( 0.0000,  0.0000,  0.0000)
  30 Li     0.002494    3.233468   15.448083    ( 0.0000,  0.0000,  0.0000)
  31 Li     3.233802    3.234905   15.445424    ( 0.0000,  0.0000,  0.0000)
  32 Li     6.465913    3.233696   15.445896    ( 0.0000,  0.0000,  0.0000)
  33 Li    -0.000828    6.467796   15.445190    ( 0.0000,  0.0000,  0.0000)
  34 Li     3.234467    6.468022   15.445451    ( 0.0000,  0.0000,  0.0000)
  35 Li     6.468171    6.467700   15.444636    ( 0.0000,  0.0000,  0.0000)
  36 O      8.080515    1.622179   19.450041    ( 0.0000,  0.0000,  0.0000)
  37 O      5.183818    1.659231   19.214928    ( 0.0000,  0.0000,  0.0000)
  38 C      7.352400    2.816399   19.073237    ( 0.0000,  0.0000,  0.0000)
  39 C      5.946474    2.806157   19.611920    ( 0.0000,  0.0000,  0.0000)
  40 H      7.890643    3.713110   19.340057    ( 0.0000,  0.0000,  0.0000)
  41 H      7.314309    2.798816   18.016158    ( 0.0000,  0.0000,  0.0000)
  42 H      5.409887    3.677593   19.227183    ( 0.0000,  0.0000,  0.0000)
  43 H      5.992081    2.877987   20.704445    ( 0.0000,  0.0000,  0.0000)
  44 H      8.257276    1.691750   20.394890    ( 0.0000,  0.0000,  0.0000)
  45 H      5.765950    0.892930   19.309895    ( 0.0000,  0.0000,  0.0000)
  46 N      8.129370    1.564649   16.865483    ( 0.0000,  0.0000,  0.0000)
  47 N      6.962480    1.564605   16.872631    ( 0.0000,  0.0000,  0.0000)

Unit cell:
           periodic     x           y           z      points  spacing
  1. axis:    yes    9.702222    0.000000    0.000000    60     0.1617
  2. axis:    yes    0.000000    9.702222    0.000000    60     0.1617
  3. axis:    no     0.000000    0.000000   26.351111   164     0.1607

  Lengths:   9.702222   9.702222  26.351111
  Angles:   90.000000  90.000000  90.000000

Effective grid spacing dv^(1/3) = 0.1614

     iter     time        total  log10-change:
                         energy  eigst   dens
iter:   1 12:48:50  -325.691345  -1.02
iter:   2 12:48:57  -325.656467  -1.08  -1.64
iter:   3 12:49:05  -325.577285  -2.32  -1.59
iter:   4 12:49:12  -325.574787  -2.67  -2.23
Writing to output.gpw (mode='')

iter:   5 12:49:19  -325.567040c -2.05  -2.29
iter:   6 12:49:27  -325.565005c -2.52  -2.25
iter:   7 12:49:34  -325.564746c -2.47  -2.79
iter:   8 12:49:48  -325.564492c -3.44  -2.84
iter:   9 12:49:55  -325.564352c -2.95  -2.91
Writing to output.gpw (mode='')

iter:  10 12:50:03  -325.564419c -3.20  -2.81
iter:  11 12:50:10  -325.564319c -3.90  -3.19
iter:  12 12:50:18  -325.564440c -3.91  -3.22
iter:  13 12:50:25  -325.564250c -3.64  -3.27
iter:  14 12:50:32  -325.564270c -4.33  -3.21
Writing to output.gpw (mode='')

iter:  15 12:50:40  -325.564301c -4.45  -3.30
iter:  16 12:50:47  -325.564289c -3.88  -3.33
iter:  17 12:50:54  -325.564406c -4.30  -3.59
iter:  18 12:51:02  -325.564351c -5.13  -3.57
iter:  19 12:51:09  -325.564360c -4.70  -3.77
Writing to output.gpw (mode='')

iter:  20 12:51:16  -325.564370c -5.02  -3.86
iter:  21 12:51:24  -325.564381c -4.71  -3.89
iter:  22 12:51:31  -325.564345c -4.80  -3.85
iter:  23 12:51:39  -325.564359c -5.82  -3.89
iter:  24 12:51:46  -325.564356c -5.48  -4.02c
Writing to output.gpw (mode='')

iter:  25 12:51:53  -325.564361c -5.46  -4.23c
iter:  26 12:52:01  -325.564360c -5.97  -4.32c
iter:  27 12:52:08  -325.564362c -6.56  -4.51c
iter:  28 12:52:15  -325.564361c -6.45  -4.56c
iter:  29 12:52:23  -325.564361c -6.68  -4.73c
Writing to output.gpw (mode='')

iter:  30 12:52:30  -325.564356c -6.53  -4.78c
iter:  31 12:52:37  -325.564363c -6.60  -4.76c
iter:  32 12:52:45  -325.564361c -6.88  -4.82c
iter:  33 12:52:52  -325.564361c -6.87  -5.09c
iter:  34 12:53:00  -325.564361c -7.34  -5.19c
Writing to output.gpw (mode='')

iter:  35 12:53:07  -325.564361c -7.33  -5.20c
iter:  36 12:53:14  -325.564360c -7.36  -5.17c
iter:  37 12:53:22  -325.564360c -7.54c -5.25c

Converged after 37 iterations.

Dipole moment: (-2.631284, -3.030224, 0.203098) |e|*Ang

Energy contributions relative to reference atoms: (reference = -16475.706344)

Kinetic:       +167.528438
Potential:     -158.732448
External:        +0.000000
XC:            -335.397506
Entropy (-ST):   -0.180347
Local:           +1.127329
--------------------------
Free energy:   -325.654533
Extrapolated:  -325.564360

Dipole-layer corrected work functions: 3.404156, 3.013732 eV

Showing only first 2 kpts
 Kpt  Band  Eigenvalues  Occupancy
  0    34     -3.45344    1.98507
  0    35     -3.27919    1.60593
  0    36     -3.14261    0.41941
  0    37     -2.97183    0.01729

  1    34     -3.25319    1.41571
  1    35     -3.20259    0.93649
  1    36     -3.16958    0.62547
  1    37     -3.10510    0.22271


Fermi level: -3.20894

No gap
Writing to output.gpw (mode='')


Forces in eV/Ang:
  0 Li    0.01955   -0.00043   -0.26784
  1 Li   -0.02172    0.00027   -0.27739
  2 Li    0.00739    0.00031   -0.28169
  3 Li   -0.00209    0.00229   -0.27932
  4 Li   -0.00249    0.01064   -0.27804
  5 Li   -0.00667    0.02690   -0.27625
  6 Li   -0.00159   -0.00148   -0.28008
  7 Li   -0.00398   -0.01024   -0.27861
  8 Li   -0.00578   -0.02717   -0.27743
  9 Li    0.00291    0.00497    0.28981
 10 Li   -0.01722    0.00574    0.24230
 11 Li    0.00046    0.01275    0.32613
 12 Li    0.00151   -0.00578    0.29044
 13 Li   -0.01559   -0.00397    0.24325
 14 Li    0.00153   -0.01196    0.32489
 15 Li   -0.00917    0.00081    0.24498
 16 Li    0.01553   -0.00238    0.26327
 17 Li    0.01017   -0.00102    0.22861
 18 Li    0.00374   -0.00078    0.02277
 19 Li   -0.03272   -0.00039   -0.05509
 20 Li    0.01756    0.00019   -0.16384
 21 Li   -0.00892   -0.00953    0.04518
 22 Li    0.02849   -0.02697    0.05999
 23 Li   -0.00368   -0.00645    0.04155
 24 Li   -0.00795    0.00865    0.04601
 25 Li    0.03036    0.02575    0.05346
 26 Li   -0.00281    0.00059    0.02154
 27 Li    0.01928    0.05237    0.12595
 28 Li   -0.00587   -0.02212   -0.01402
 29 Li    0.02164    0.00146    0.10947
 30 Li    0.05040   -0.03122    0.07766
 31 Li   -0.00789    0.02584   -0.01431
 32 Li   -0.02910   -0.03994    0.04393
 33 Li   -0.01999   -0.00998   -0.02109
 34 Li    0.01011   -0.00250   -0.01258
 35 Li   -0.00213   -0.01339   -0.03777
 36 O    -0.14479    0.27027    0.14622
 37 O     0.05653    0.06245    0.05885
 38 C     0.01839    0.12954    0.81640
 39 C    -0.22118    0.09648    0.32129
 40 H     0.22214    0.46682    0.57966
 41 H    -0.14863    0.92003    0.60411
 42 H    -0.04227    0.04471    0.05422
 43 H    -0.22099    0.02584    0.22036
 44 H     0.10354   -0.04444    0.08942
 45 H    -0.00794   -0.00245   -0.00951
 46 N    -0.78399   -1.00739   -1.72356
 47 N     1.13903   -0.94657   -1.45931

System changes: positions 

Initializing position-dependent things.

Density initialized from wave functions
       .-----------------------.  
      /|                       |  
     / |                       |  
    /  |                       |  
   /   |                       |  
  /    |                       |  
 *     |                       |  
 |     |                       |  
 |     |                       |  
 |     |                       |  
 |     |                       |  
 |     |          H            |  
 |     |         C    HH       |  
 |     |       Li    COLi      |  
 |     |       OH    H         |  
 |     |     Li      Li      Li|  
 |     |                       |  
 | Li  |  LLi     LNi N   Li   |  
 |     |                       |  
 Li    |Li      Li      Li     |  
 |   Li|     Li      Li        |  
 |    Li  Li  Li  Li  Li  Li   |  
 | Li  |   Li      Li          |  
 |     |Li      Li      Li     |  
 Li    | Li      Li            |  
 |    Li      Li      Li       |  
 |     |                       |  
 |     |                       |  
 |     |                       |  
 |     |                       |  
 |     |                       |  
 |     |                       |  
 |     .-----------------------.  
 |    /                       /   
 |   /                       /    
 |  /                       /     
 | /                       /      
 |/                       /       
 *-----------------------*        

Positions:
   0 Li     1.617037    1.617037   10.000000    ( 0.0000,  0.0000,  0.0000)
   1 Li     4.851111    1.617037   10.000000    ( 0.0000,  0.0000,  0.0000)
   2 Li     8.085185    1.617037   10.000000    ( 0.0000,  0.0000,  0.0000)
   3 Li     1.617037    4.851111   10.000000    ( 0.0000,  0.0000,  0.0000)
   4 Li     4.851111    4.851111   10.000000    ( 0.0000,  0.0000,  0.0000)
   5 Li     8.085185    4.851111   10.000000    ( 0.0000,  0.0000,  0.0000)
   6 Li     1.617037    8.085185   10.000000    ( 0.0000,  0.0000,  0.0000)
   7 Li     4.851111    8.085185   10.000000    ( 0.0000,  0.0000,  0.0000)
   8 Li     8.085185    8.085185   10.000000    ( 0.0000,  0.0000,  0.0000)
   9 Li     0.000000    0.000000   11.617037    ( 0.0000,  0.0000,  0.0000)
  10 Li     3.234074    0.000000   11.617037    ( 0.0000,  0.0000,  0.0000)
  11 Li     6.468148    0.000000   11.617037    ( 0.0000,  0.0000,  0.0000)
  12 Li     0.000000    3.234074   11.617037    ( 0.0000,  0.0000,  0.0000)
  13 Li     3.234074    3.234074   11.617037    ( 0.0000,  0.0000,  0.0000)
  14 Li     6.468148    3.234074   11.617037    ( 0.0000,  0.0000,  0.0000)
  15 Li     0.000000    6.468148   11.617037    ( 0.0000,  0.0000,  0.0000)
  16 Li     3.234074    6.468148   11.617037    ( 0.0000,  0.0000,  0.0000)
  17 Li     6.468148    6.468148   11.617037    ( 0.0000,  0.0000,  0.0000)
  18 Li     1.617127    1.617017   13.471211    ( 0.0000,  0.0000,  0.0000)
  19 Li     4.849435    1.616986   13.467037    ( 0.0000,  0.0000,  0.0000)
  20 Li     8.086239    1.617077   13.460101    ( 0.0000,  0.0000,  0.0000)
  21 Li     1.616557    4.850623   13.472289    ( 0.0000,  0.0000,  0.0000)
  22 Li     4.852666    4.849626   13.473153    ( 0.0000,  0.0000,  0.0000)
  23 Li     8.084940    4.850637   13.472270    ( 0.0000,  0.0000,  0.0000)
  24 Li     1.616693    8.085579   13.472225    ( 0.0000,  0.0000,  0.0000)
  25 Li     4.852726    8.086635   13.472795    ( 0.0000,  0.0000,  0.0000)
  26 Li     8.084973    8.085326   13.471223    ( 0.0000,  0.0000,  0.0000)
  27 Li     0.001922    0.001810   15.451633    ( 0.0000,  0.0000,  0.0000)
  28 Li     3.233862   -0.001065   15.445195    ( 0.0000,  0.0000,  0.0000)
  29 Li     6.468851   -0.000043   15.451192    ( 0.0000,  0.0000,  0.0000)
  30 Li     0.003582    3.233008   15.449362    ( 0.0000,  0.0000,  0.0000)
  31 Li     3.233651    3.235369   15.445152    ( 0.0000,  0.0000,  0.0000)
  32 Li     6.465146    3.233214   15.446347    ( 0.0000,  0.0000,  0.0000)
  33 Li    -0.001225    6.467611   15.444805    ( 0.0000,  0.0000,  0.0000)
  34 Li     3.234662    6.467972   15.445215    ( 0.0000,  0.0000,  0.0000)
  35 Li     6.468151    6.467453   15.443947    ( 0.0000,  0.0000,  0.0000)
  36 O      8.077960    1.626573   19.452739    ( 0.0000,  0.0000,  0.0000)
  37 O      5.184297    1.659942   19.215917    ( 0.0000,  0.0000,  0.0000)
  38 C      7.352268    2.821900   19.089194    ( 0.0000,  0.0000,  0.0000)
  39 C      5.943177    2.807981   19.617737    ( 0.0000,  0.0000,  0.0000)
  40 H      7.894404    3.720889   19.350050    ( 0.0000,  0.0000,  0.0000)
  41 H      7.311046    2.819005   18.033504    ( 0.0000,  0.0000,  0.0000)
  42 H      5.409151    3.678448   19.228075    ( 0.0000,  0.0000,  0.0000)
  43 H      5.988223    2.878440   20.708041    ( 0.0000,  0.0000,  0.0000)
  44 H      8.259094    1.691075   20.396314    ( 0.0000,  0.0000,  0.0000)
  45 H      5.765769    0.892771   19.309815    ( 0.0000,  0.0000,  0.0000)
  46 N      8.132325    1.543851   16.831444    ( 0.0000,  0.0000,  0.0000)
  47 N      6.967022    1.544786   16.843366    ( 0.0000,  0.0000,  0.0000)

Unit cell:
           periodic     x           y           z      points  spacing
  1. axis:    yes    9.702222    0.000000    0.000000    60     0.1617
  2. axis:    yes    0.000000    9.702222    0.000000    60     0.1617
  3. axis:    no     0.000000    0.000000   26.351111   164     0.1607

  Lengths:   9.702222   9.702222  26.351111
  Angles:   90.000000  90.000000  90.000000

Effective grid spacing dv^(1/3) = 0.1614

     iter     time        total  log10-change:
                         energy  eigst   dens
iter:   1 12:53:31  -325.856531  -1.06
iter:   2 12:53:38  -325.830152  -1.17  -1.68
iter:   3 12:53:45  -325.761515  -2.39  -1.62
iter:   4 12:53:53  -325.759201  -2.75  -2.27
Writing to output.gpw (mode='')

iter:   5 12:54:00  -325.752192c -2.20  -2.32
iter:   6 12:54:07  -325.751031c -2.71  -2.33
iter:   7 12:54:15  -325.750919c -2.67  -2.87
iter:   8 12:54:22  -325.750705c -3.57  -2.91
iter:   9 12:54:29  -325.750515c -3.27  -3.03
Writing to output.gpw (mode='')

iter:  10 12:54:45  -325.750772c -3.78  -2.96
iter:  11 12:54:53  -325.750641c -4.29  -3.27
iter:  12 12:55:01  -325.750577c -3.94  -3.35
iter:  13 12:55:08  -325.750651c -4.01  -3.31
iter:  14 12:55:15  -325.750676c -4.41  -3.48
Writing to output.gpw (mode='')

iter:  15 12:55:23  -325.750667c -4.62  -3.56
iter:  16 12:55:30  -325.750636c -4.83  -3.81
iter:  17 12:55:37  -325.750691c -4.89  -3.84
iter:  18 12:55:45  -325.750680c -5.16  -3.88
iter:  19 12:55:52  -325.750681c -5.54  -3.98
Writing to output.gpw (mode='')

iter:  20 12:55:59  -325.750680c -5.52  -4.13c
iter:  21 12:56:07  -325.750683c -5.69  -4.25c
iter:  22 12:56:14  -325.750681c -6.04  -4.32c
iter:  23 12:56:21  -325.750680c -5.86  -4.37c
iter:  24 12:56:29  -325.750676c -5.94  -4.46c
Writing to output.gpw (mode='')

iter:  25 12:56:36  -325.750678c -6.35  -4.62c
iter:  26 12:56:43  -325.750679c -6.51  -4.77c
iter:  27 12:56:51  -325.750678c -6.53  -4.80c
iter:  28 12:57:00  -325.750679c -6.58  -4.84c
iter:  29 12:57:08  -325.750679c -6.74  -4.83c
Writing to output.gpw (mode='')

iter:  30 12:57:15  -325.750679c -6.77  -4.84c
iter:  31 12:57:23  -325.750678c -6.75  -4.81c
iter:  32 12:57:30  -325.750678c -7.08  -4.80c
iter:  33 12:57:37  -325.750679c -7.25  -4.79c
iter:  34 12:57:44  -325.750682c -7.36  -4.82c
Writing to output.gpw (mode='')

iter:  35 12:57:52  -325.750676c -7.28  -4.98c
iter:  36 12:57:59  -325.750681c -7.40c -4.98c

Converged after 36 iterations.

Dipole moment: (-2.638526, -3.053495, 0.216036) |e|*Ang

Energy contributions relative to reference atoms: (reference = -16475.706344)

Kinetic:       +167.215466
Potential:     -158.613910
External:        +0.000000
XC:            -335.389567
Entropy (-ST):   -0.180703
Local:           +1.127682
--------------------------
Free energy:   -325.841032
Extrapolated:  -325.750681

Dipole-layer corrected work functions: 3.402973, 2.987678 eV

Showing only first 2 kpts
 Kpt  Band  Eigenvalues  Occupancy
  0    34     -3.44031    1.98521
  0    35     -3.26230    1.58484
  0    36     -3.12892    0.41898
  0    37     -2.95825    0.01730

  1    34     -3.24540    1.46273
  1    35     -3.18983    0.94507
  1    36     -3.15225    0.59404
  1    37     -3.09041    0.21852


Fermi level: -3.19533

No gap
Writing to output.gpw (mode='')


Forces in eV/Ang:
  0 Li    0.01945   -0.00053   -0.26788
  1 Li   -0.02120    0.00017   -0.27792
  2 Li    0.00710    0.00044   -0.28180
  3 Li   -0.00224    0.00255   -0.27950
  4 Li   -0.00210    0.01097   -0.27811
  5 Li   -0.00713    0.02659   -0.27666
  6 Li   -0.00137   -0.00151   -0.27965
  7 Li   -0.00402   -0.01053   -0.27929
  8 Li   -0.00620   -0.02707   -0.27757
  9 Li    0.00329    0.00525    0.29079
 10 Li   -0.01715    0.00494    0.24244
 11 Li   -0.00008    0.01272    0.32678
 12 Li    0.00161   -0.00598    0.29148
 13 Li   -0.01607   -0.00321    0.24339
 14 Li    0.00137   -0.01161    0.32469
 15 Li   -0.00904    0.00038    0.24574
 16 Li    0.01548   -0.00263    0.26446
 17 Li    0.01067   -0.00121    0.22920
 18 Li    0.00454   -0.00108    0.02106
 19 Li   -0.03304    0.00001   -0.05652
 20 Li    0.01651   -0.00028   -0.15719
 21 Li   -0.00890   -0.00962    0.04378
 22 Li    0.02841   -0.02703    0.05837
 23 Li   -0.00314   -0.00678    0.04026
 24 Li   -0.00925    0.00954    0.04603
 25 Li    0.03072    0.02530    0.05197
 26 Li   -0.00202    0.00095    0.02005
 27 Li    0.01663    0.05874    0.12954
 28 Li   -0.00761   -0.02274   -0.01467
 29 Li    0.01238   -0.02642    0.08524
 30 Li    0.04880   -0.03074    0.07520
 31 Li   -0.00846    0.02601   -0.01450
 32 Li   -0.02380   -0.03837    0.04476
 33 Li   -0.01959   -0.00981   -0.02015
 34 Li    0.01007   -0.00193   -0.01157
 35 Li   -0.00265   -0.01406   -0.03706
 36 O    -0.12974    0.25195    0.14671
 37 O     0.07673    0.07697    0.05468
 38 C     0.04338    0.11447    0.55805
 39 C    -0.19621    0.09080    0.30910
 40 H     0.16525    0.39304    0.61156
 41 H    -0.10227    0.67292    0.24360
 42 H    -0.05284    0.04961    0.07237
 43 H    -0.26483    0.03208    0.29424
 44 H     0.11766   -0.06135    0.12855
 45 H    -0.00228    0.01507   -0.00909
 46 N    -0.64049   -0.80708   -1.50661
 47 N     0.97860   -0.77596   -1.18544

System changes: positions 

Initializing position-dependent things.

Density initialized from wave functions
       .-----------------------.  
      /|                       |  
     / |                       |  
    /  |                       |  
   /   |                       |  
  /    |                       |  
 *     |                       |  
 |     |                       |  
 |     |                       |  
 |     |                       |  
 |     |                       |  
 |     |          H            |  
 |     |         C    HH       |  
 |     |       Li    COLi      |  
 |     |       OH    H         |  
 |     |     Li      Li      Li|  
 |     |                       |  
 | Li  |  LLi     LNi N   Li   |  
 |     |                       |  
 Li    |Li      Li      Li     |  
 |   Li|     Li      Li        |  
 |    Li  Li  Li  Li  Li  Li   |  
 | Li  |   Li      Li          |  
 |     |Li      Li      Li     |  
 Li    | Li      Li            |  
 |    Li      Li      Li       |  
 |     |                       |  
 |     |                       |  
 |     |                       |  
 |     |                       |  
 |     |                       |  
 |     |                       |  
 |     .-----------------------.  
 |    /                       /   
 |   /                       /    
 |  /                       /     
 | /                       /      
 |/                       /       
 *-----------------------*        

Positions:
   0 Li     1.617037    1.617037   10.000000    ( 0.0000,  0.0000,  0.0000)
   1 Li     4.851111    1.617037   10.000000    ( 0.0000,  0.0000,  0.0000)
   2 Li     8.085185    1.617037   10.000000    ( 0.0000,  0.0000,  0.0000)
   3 Li     1.617037    4.851111   10.000000    ( 0.0000,  0.0000,  0.0000)
   4 Li     4.851111    4.851111   10.000000    ( 0.0000,  0.0000,  0.0000)
   5 Li     8.085185    4.851111   10.000000    ( 0.0000,  0.0000,  0.0000)
   6 Li     1.617037    8.085185   10.000000    ( 0.0000,  0.0000,  0.0000)
   7 Li     4.851111    8.085185   10.000000    ( 0.0000,  0.0000,  0.0000)
   8 Li     8.085185    8.085185   10.000000    ( 0.0000,  0.0000,  0.0000)
   9 Li     0.000000    0.000000   11.617037    ( 0.0000,  0.0000,  0.0000)
  10 Li     3.234074    0.000000   11.617037    ( 0.0000,  0.0000,  0.0000)
  11 Li     6.468148    0.000000   11.617037    ( 0.0000,  0.0000,  0.0000)
  12 Li     0.000000    3.234074   11.617037    ( 0.0000,  0.0000,  0.0000)
  13 Li     3.234074    3.234074   11.617037    ( 0.0000,  0.0000,  0.0000)
  14 Li     6.468148    3.234074   11.617037    ( 0.0000,  0.0000,  0.0000)
  15 Li     0.000000    6.468148   11.617037    ( 0.0000,  0.0000,  0.0000)
  16 Li     3.234074    6.468148   11.617037    ( 0.0000,  0.0000,  0.0000)
  17 Li     6.468148    6.468148   11.617037    ( 0.0000,  0.0000,  0.0000)
  18 Li     1.617201    1.616998   13.471695    ( 0.0000,  0.0000,  0.0000)
  19 Li     4.848764    1.616981   13.465911    ( 0.0000,  0.0000,  0.0000)
  20 Li     8.086602    1.617076   13.456693    ( 0.0000,  0.0000,  0.0000)
  21 Li     1.616372    4.850429   13.473219    ( 0.0000,  0.0000,  0.0000)
  22 Li     4.853259    4.849059   13.474399    ( 0.0000,  0.0000,  0.0000)
  23 Li     8.084866    4.850473   13.473162    ( 0.0000,  0.0000,  0.0000)
  24 Li     1.616516    8.085764   13.473184    ( 0.0000,  0.0000,  0.0000)
  25 Li     4.853361    8.087173   13.473908    ( 0.0000,  0.0000,  0.0000)
  26 Li     8.084920    8.085368   13.471700    ( 0.0000,  0.0000,  0.0000)
  27 Li     0.002438    0.002840   15.454116    ( 0.0000,  0.0000,  0.0000)
  28 Li     3.233719   -0.001516   15.444890    ( 0.0000,  0.0000,  0.0000)
  29 Li     6.469020   -0.000610   15.452841    ( 0.0000,  0.0000,  0.0000)
  30 Li     0.004754    3.232485   15.450776    ( 0.0000,  0.0000,  0.0000)
  31 Li     3.233475    3.235893   15.444846    ( 0.0000,  0.0000,  0.0000)
  32 Li     6.464400    3.232662   15.446912    ( 0.0000,  0.0000,  0.0000)
  33 Li    -0.001660    6.467406   15.444387    ( 0.0000,  0.0000,  0.0000)
  34 Li     3.234879    6.467925   15.444968    ( 0.0000,  0.0000,  0.0000)
  35 Li     6.468117    6.467166   15.443185    ( 0.0000,  0.0000,  0.0000)
  36 O      8.075333    1.631217   19.455759    ( 0.0000,  0.0000,  0.0000)
  37 O      5.185163    1.660980   19.216968    ( 0.0000,  0.0000,  0.0000)
  38 C      7.352531    2.827686   19.102886    ( 0.0000,  0.0000,  0.0000)
  39 C      5.939883    2.809930   19.624035    ( 0.0000,  0.0000,  0.0000)
  40 H      7.897710    3.728433   19.361759    ( 0.0000,  0.0000,  0.0000)
  41 H      7.308164    2.837457   18.046860    ( 0.0000,  0.0000,  0.0000)
  42 H      5.408157    3.679478   19.229368    ( 0.0000,  0.0000,  0.0000)
  43 H      5.983200    2.879046   20.713259    ( 0.0000,  0.0000,  0.0000)
  44 H      8.261357    1.690050   20.398551    ( 0.0000,  0.0000,  0.0000)
  45 H      5.765664    0.892883   19.309723    ( 0.0000,  0.0000,  0.0000)
  46 N      8.135541    1.523922   16.796911    ( 0.0000,  0.0000,  0.0000)
  47 N      6.971850    1.525460   16.815082    ( 0.0000,  0.0000,  0.0000)

Unit cell:
           periodic     x           y           z      points  spacing
  1. axis:    yes    9.702222    0.000000    0.000000    60     0.1617
  2. axis:    yes    0.000000    9.702222    0.000000    60     0.1617
  3. axis:    no     0.000000    0.000000   26.351111   164     0.1607

  Lengths:   9.702222   9.702222  26.351111
  Angles:   90.000000  90.000000  90.000000

Effective grid spacing dv^(1/3) = 0.1614

     iter     time        total  log10-change:
                         energy  eigst   dens
iter:   1 12:58:08  -325.987447  -1.10
iter:   2 12:58:16  -325.971245  -1.27  -1.72
iter:   3 12:58:23  -325.910874  -2.45  -1.65
iter:   4 12:58:30  -325.908804  -2.81  -2.32
Writing to output.gpw (mode='')

iter:   5 12:58:38  -325.903060c -2.29  -2.37
iter:   6 12:58:45  -325.902026c -2.78  -2.34
iter:   7 12:58:53  -325.902019c -2.81  -2.91
iter:   8 12:59:00  -325.901751c -3.65  -2.95
iter:   9 12:59:07  -325.901676c -3.37  -3.10
Writing to output.gpw (mode='')

iter:  10 12:59:15  -325.901916c -3.95  -3.05
iter:  11 12:59:22  -325.901655c -4.28  -3.33
iter:  12 12:59:29  -325.901621c -4.06  -3.27
iter:  13 12:59:43  -325.901722c -4.33  -3.33
iter:  14 12:59:52  -325.901806c -4.41  -3.49
Writing to output.gpw (mode='')

iter:  15 13:00:00  -325.901723c -5.09  -3.67
iter:  16 13:00:07  -325.901798c -4.86  -3.78
iter:  17 13:00:14  -325.901762c -5.20  -3.91
iter:  18 13:00:22  -325.901768c -5.64  -4.19c
iter:  19 13:00:29  -325.901763c -5.79  -4.29c
Writing to output.gpw (mode='')

iter:  20 13:00:36  -325.901773c -5.68  -4.36c
iter:  21 13:00:44  -325.901762c -6.01  -4.44c
iter:  22 13:00:51  -325.901760c -6.10  -4.54c
iter:  23 13:00:59  -325.901766c -6.22  -4.60c
iter:  24 13:01:06  -325.901767c -6.43  -4.86c
Writing to output.gpw (mode='')

iter:  25 13:01:13  -325.901766c -6.51  -4.86c
iter:  26 13:01:21  -325.901766c -6.54  -4.90c
iter:  27 13:01:28  -325.901766c -6.61  -4.90c
iter:  28 13:01:35  -325.901766c -6.74  -4.94c
iter:  29 13:01:43  -325.901766c -6.97  -5.11c
Writing to output.gpw (mode='')

iter:  30 13:01:50  -325.901765c -6.87  -5.24c
iter:  31 13:01:58  -325.901766c -7.11  -5.37c
iter:  32 13:02:05  -325.901767c -7.41c -5.39c

Converged after 32 iterations.

Dipole moment: (-2.649278, -3.069989, 0.226830) |e|*Ang

Energy contributions relative to reference atoms: (reference = -16475.706344)

Kinetic:       +166.850835
Potential:     -158.427468
External:        +0.000000
XC:            -335.362648
Entropy (-ST):   -0.181017
Local:           +1.128023
--------------------------
Free energy:   -325.992275
Extrapolated:  -325.901767

Dipole-layer corrected work functions: 3.401920, 2.965875 eV

Showing only first 2 kpts
 Kpt  Band  Eigenvalues  Occupancy
  0    34     -3.42936    1.98535
  0    35     -3.24760    1.56284
  0    36     -3.11758    0.41951
  0    37     -2.94699    0.01736

  1    34     -3.23966    1.50618
  1    35     -3.17946    0.95564
  1    36     -3.13739    0.56578
  1    37     -3.07744    0.21261


Fermi level: -3.18390

No gap
Writing to output.gpw (mode='')


Forces in eV/Ang:
  0 Li    0.01933   -0.00061   -0.26791
  1 Li   -0.02064    0.00005   -0.27844
  2 Li    0.00678    0.00053   -0.28185
  3 Li   -0.00241    0.00290   -0.27972
  4 Li   -0.00175    0.01133   -0.27823
  5 Li   -0.00754    0.02630   -0.27710
  6 Li   -0.00119   -0.00161   -0.27926
  7 Li   -0.00405   -0.01086   -0.28003
  8 Li   -0.00659   -0.02696   -0.27773
  9 Li    0.00368    0.00544    0.29177
 10 Li   -0.01702    0.00404    0.24271
 11 Li   -0.00068    0.01255    0.32720
 12 Li    0.00176   -0.00617    0.29257
 13 Li   -0.01657   -0.00238    0.24358
 14 Li    0.00119   -0.01118    0.32440
 15 Li   -0.00887   -0.00002    0.24657
 16 Li    0.01540   -0.00282    0.26576
 17 Li    0.01117   -0.00133    0.22990
 18 Li    0.00540   -0.00142    0.01908
 19 Li   -0.03321    0.00046   -0.05749
 20 Li    0.01538   -0.00076   -0.14943
 21 Li   -0.00891   -0.00976    0.04231
 22 Li    0.02825   -0.02695    0.05656
 23 Li   -0.00254   -0.00713    0.03887
 24 Li   -0.01059    0.01056    0.04597
 25 Li    0.03083    0.02455    0.05002
 26 Li   -0.00101    0.00116    0.01832
 27 Li    0.01284    0.06618    0.13345
 28 Li   -0.00919   -0.02318   -0.01521
 29 Li    0.00128   -0.05922    0.05696
 30 Li    0.04649   -0.03083    0.07304
 31 Li   -0.00883    0.02602   -0.01455
 32 Li   -0.01852   -0.03793    0.04573
 33 Li   -0.01902   -0.00961   -0.01927
 34 Li    0.00995   -0.00137   -0.01059
 35 Li   -0.00321   -0.01489   -0.03634
 36 O    -0.11215    0.23630    0.15962
 37 O     0.08417    0.09227    0.05099
 38 C     0.03157    0.10865    0.36838
 39 C    -0.16401    0.09238    0.29569
 40 H     0.10968    0.31629    0.62544
 41 H    -0.05985    0.50379    0.02694
 42 H    -0.06251    0.05057    0.09381
 43 H    -0.29086    0.03598    0.32718
 44 H     0.11998   -0.06758    0.13530
 45 H     0.00894    0.02839   -0.00666
 46 N    -0.48935   -0.72502   -1.33499
 47 N     0.76026   -0.59697   -0.97393

System changes: positions 

Initializing position-dependent things.

Density initialized from wave functions
       .-----------------------.  
      /|                       |  
     / |                       |  
    /  |                       |  
   /   |                       |  
  /    |                       |  
 *     |                       |  
 |     |                       |  
 |     |                       |  
 |     |                       |  
 |     |                       |  
 |     |          H            |  
 |     |         C    HH       |  
 |     |       Li    COLi      |  
 |     |       OH    H         |  
 |     |     Li      Li      Li|  
 |     |                       |  
 | Li  |  LLi     LNi N   Li   |  
 |     |                       |  
 Li    |Li      Li      Li     |  
 |   Li|     Li      Li        |  
 |    Li  Li  Li  Li  Li  Li   |  
 | Li  |   Li      Li          |  
 |     |Li      Li      Li     |  
 Li    | Li      Li            |  
 |    Li      Li      Li       |  
 |     |                       |  
 |     |                       |  
 |     |                       |  
 |     |                       |  
 |     |                       |  
 |     |                       |  
 |     .-----------------------.  
 |    /                       /   
 |   /                       /    
 |  /                       /     
 | /                       /      
 |/                       /       
 *-----------------------*        

Positions:
   0 Li     1.617037    1.617037   10.000000    ( 0.0000,  0.0000,  0.0000)
   1 Li     4.851111    1.617037   10.000000    ( 0.0000,  0.0000,  0.0000)
   2 Li     8.085185    1.617037   10.000000    ( 0.0000,  0.0000,  0.0000)
   3 Li     1.617037    4.851111   10.000000    ( 0.0000,  0.0000,  0.0000)
   4 Li     4.851111    4.851111   10.000000    ( 0.0000,  0.0000,  0.0000)
   5 Li     8.085185    4.851111   10.000000    ( 0.0000,  0.0000,  0.0000)
   6 Li     1.617037    8.085185   10.000000    ( 0.0000,  0.0000,  0.0000)
   7 Li     4.851111    8.085185   10.000000    ( 0.0000,  0.0000,  0.0000)
   8 Li     8.085185    8.085185   10.000000    ( 0.0000,  0.0000,  0.0000)
   9 Li     0.000000    0.000000   11.617037    ( 0.0000,  0.0000,  0.0000)
  10 Li     3.234074    0.000000   11.617037    ( 0.0000,  0.0000,  0.0000)
  11 Li     6.468148    0.000000   11.617037    ( 0.0000,  0.0000,  0.0000)
  12 Li     0.000000    3.234074   11.617037    ( 0.0000,  0.0000,  0.0000)
  13 Li     3.234074    3.234074   11.617037    ( 0.0000,  0.0000,  0.0000)
  14 Li     6.468148    3.234074   11.617037    ( 0.0000,  0.0000,  0.0000)
  15 Li     0.000000    6.468148   11.617037    ( 0.0000,  0.0000,  0.0000)
  16 Li     3.234074    6.468148   11.617037    ( 0.0000,  0.0000,  0.0000)
  17 Li     6.468148    6.468148   11.617037    ( 0.0000,  0.0000,  0.0000)
  18 Li     1.617296    1.616973   13.472182    ( 0.0000,  0.0000,  0.0000)
  19 Li     4.848036    1.616982   13.464675    ( 0.0000,  0.0000,  0.0000)
  20 Li     8.086974    1.617068   13.453150    ( 0.0000,  0.0000,  0.0000)
  21 Li     1.616173    4.850216   13.474199    ( 0.0000,  0.0000,  0.0000)
  22 Li     4.853897    4.848448   13.475713    ( 0.0000,  0.0000,  0.0000)
  23 Li     8.084797    4.850294   13.474096    ( 0.0000,  0.0000,  0.0000)
  24 Li     1.616302    8.085980   13.474218    ( 0.0000,  0.0000,  0.0000)
  25 Li     4.854048    8.087740   13.475076    ( 0.0000,  0.0000,  0.0000)
  26 Li     8.084880    8.085413   13.472181    ( 0.0000,  0.0000,  0.0000)
  27 Li     0.002913    0.004090   15.456884    ( 0.0000,  0.0000,  0.0000)
  28 Li     3.233541   -0.002012   15.444553    ( 0.0000,  0.0000,  0.0000)
  29 Li     6.469051   -0.001705   15.454222    ( 0.0000,  0.0000,  0.0000)
  30 Li     0.005962    3.231902   15.452295    ( 0.0000,  0.0000,  0.0000)
  31 Li     3.233280    3.236461   15.444516    ( 0.0000,  0.0000,  0.0000)
  32 Li     6.463706    3.232036   15.447590    ( 0.0000,  0.0000,  0.0000)
  33 Li    -0.002117    6.467188   15.443950    ( 0.0000,  0.0000,  0.0000)
  34 Li     3.235110    6.467884   15.444716    ( 0.0000,  0.0000,  0.0000)
  35 Li     6.468070    6.466844   15.442372    ( 0.0000,  0.0000,  0.0000)
  36 O      8.072761    1.636027   19.459212    ( 0.0000,  0.0000,  0.0000)
  37 O      5.186240    1.662365   19.218058    ( 0.0000,  0.0000,  0.0000)
  38 C      7.352650    2.833622   19.114648    ( 0.0000,  0.0000,  0.0000)
  39 C      5.936798    2.812062   19.630613    ( 0.0000,  0.0000,  0.0000)
  40 H      7.900429    3.735424   19.374657    ( 0.0000,  0.0000,  0.0000)
  41 H      7.305759    2.854467   18.057433    ( 0.0000,  0.0000,  0.0000)
  42 H      5.406930    3.680601   19.231110    ( 0.0000,  0.0000,  0.0000)
  43 H      5.977357    2.879762   20.719437    ( 0.0000,  0.0000,  0.0000)
  44 H      8.263842    1.688842   20.401099    ( 0.0000,  0.0000,  0.0000)
  45 H      5.765733    0.893224   19.309652    ( 0.0000,  0.0000,  0.0000)
  46 N      8.138867    1.503878   16.762456    ( 0.0000,  0.0000,  0.0000)
  47 N      6.976062    1.507578   16.788000    ( 0.0000,  0.0000,  0.0000)

Unit cell:
           periodic     x           y           z      points  spacing
  1. axis:    yes    9.702222    0.000000    0.000000    60     0.1617
  2. axis:    yes    0.000000    9.702222    0.000000    60     0.1617
  3. axis:    no     0.000000    0.000000   26.351111   164     0.1607

  Lengths:   9.702222   9.702222  26.351111
  Angles:   90.000000  90.000000  90.000000

Effective grid spacing dv^(1/3) = 0.1614

     iter     time        total  log10-change:
                         energy  eigst   dens
iter:   1 13:02:14  -326.089034  -1.14
iter:   2 13:02:21  -326.084835  -1.39  -1.78
[...]
iter:  22 19:16:34  -328.195894c -7.13  -4.99c
iter:  23 19:16:41  -328.195894c -7.37  -5.03c
iter:  24 19:16:49  -328.195894c -7.40c -5.20c

Converged after 24 iterations.

Dipole moment: (-1.341108, -2.158054, 0.371174) |e|*Ang

Energy contributions relative to reference atoms: (reference = -16475.706344)

Kinetic:       +158.601674
Potential:     -151.132833
External:        +0.000000
XC:            -336.732845
Entropy (-ST):   -0.161239
Local:           +1.148729
--------------------------
Free energy:   -328.276513
Extrapolated:  -328.195894

Dipole-layer corrected work functions: 3.396282, 2.682758 eV

Showing only first 2 kpts
 Kpt  Band  Eigenvalues  Occupancy
  0    34     -3.23061    1.95716
  0    35     -3.05724    1.17540
  0    36     -3.02356    0.84174
  0    37     -2.92515    0.18434

  1    34     -3.35886    1.99664
  1    35     -2.98981    0.54021
  1    36     -2.94135    0.24620
  1    37     -2.91596    0.15581


Fermi level: -3.03952

No gap
Writing to output.gpw (mode='')


Forces in eV/Ang:
  0 Li   -0.00625   -0.00894   -0.28998
  1 Li    0.00884    0.01048   -0.29360
  2 Li    0.00199    0.00199   -0.25391
  3 Li    0.01587    0.01553   -0.28372
  4 Li   -0.00562    0.01079   -0.29076
  5 Li   -0.00914   -0.00479   -0.29431
  6 Li    0.00832   -0.00463   -0.29236
  7 Li   -0.01353   -0.01322   -0.28535
  8 Li    0.01111    0.00885   -0.29478
  9 Li   -0.03279    0.02755    0.32277
 10 Li   -0.00373    0.00982    0.28807
 11 Li    0.03210    0.02347    0.27922
 12 Li   -0.04419   -0.05166    0.27649
 13 Li   -0.02759   -0.02864    0.27909
 14 Li    0.02110   -0.04238    0.33516
 15 Li   -0.01498   -0.03042    0.29268
 16 Li   -0.01317   -0.00392    0.28762
 17 Li    0.01635    0.00500    0.30439
 18 Li    0.01117    0.00445   -0.00632
 19 Li    0.00513   -0.00648   -0.00264
 20 Li   -0.00162    0.00202    0.00868
 21 Li    0.00163    0.00772    0.00763
 22 Li    0.00549   -0.00920    0.00373
 23 Li    0.00802    0.00583   -0.00636
 24 Li   -0.00060    0.00454    0.00519
 25 Li    0.00908    0.00538    0.01322
 26 Li   -0.02138   -0.00180    0.00375
 27 Li    0.00334   -0.00191    0.00727
 28 Li    0.00365   -0.00317   -0.00448
 29 Li   -0.00482    0.00439   -0.00291
 30 Li   -0.00613   -0.00391    0.00380
 31 Li    0.01878    0.00017   -0.00405
 32 Li   -0.01441    0.02816    0.00481
 33 Li    0.00240    0.02142   -0.00353
 34 Li    0.00013   -0.00015    0.00531
 35 Li   -0.00083    0.01115   -0.01403
 36 O    -0.00648    0.00816   -0.01610
 37 O    -0.02448   -0.03257   -0.04641
 38 C     0.00628    0.00645   -0.00106
 39 C    -0.01215   -0.00395    0.00176
 40 H     0.02004    0.00897    0.01262
 41 H     0.00629    0.00993   -0.01183
 42 H     0.01348   -0.00717   -0.01095
 43 H    -0.00146   -0.00138    0.00888
 44 H    -0.00272   -0.00919    0.00979
 45 H     0.00527    0.00555   -0.01626
 46 N     0.01067    0.01110   -0.00093
 47 N    -0.01248    0.03658   -0.00088

System changes: positions 

Initializing position-dependent things.

Density initialized from wave functions
       .-----------------------.  
      /|                       |  
     / |                       |  
    /  |                       |  
   /   |                       |  
  /    |                       |  
 *     |                       |  
 |     |                       |  
 |     |                       |  
 |     |                       |  
 |     |                       |  
 |     |         H             |  
 |     |         C     H       |  
 |     Li      Li    CO        |  
 |     |       OH    H         |  
 |   Li|     Li      Li        |  
 |     |                       |  
 |     |  LLi     LLi     Li   |  
 |     |             N N       |  
 |     |Li      LiLi    Li     |  
 |   Li|     Li      Li        |  
 |    Li  Li  Li  Li  Li  Li   |  
 | Li  |   Li      Li          |  
 |     |Li      Li      Li     |  
 Li    | Li      Li            |  
 |    Li      Li      Li       |  
 |     |                       |  
 |     |                       |  
 |     |                       |  
 |     |                       |  
 |     |                       |  
 |     |                       |  
 |     .-----------------------.  
 |    /                       /   
 |   /                       /    
 |  /                       /     
 | /                       /      
 |/                       /       
 *-----------------------*        

Positions:
   0 Li     1.617037    1.617037   10.000000    ( 0.0000,  0.0000,  0.0000)
   1 Li     4.851111    1.617037   10.000000    ( 0.0000,  0.0000,  0.0000)
   2 Li     8.085185    1.617037   10.000000    ( 0.0000,  0.0000,  0.0000)
   3 Li     1.617037    4.851111   10.000000    ( 0.0000,  0.0000,  0.0000)
   4 Li     4.851111    4.851111   10.000000    ( 0.0000,  0.0000,  0.0000)
   5 Li     8.085185    4.851111   10.000000    ( 0.0000,  0.0000,  0.0000)
   6 Li     1.617037    8.085185   10.000000    ( 0.0000,  0.0000,  0.0000)
   7 Li     4.851111    8.085185   10.000000    ( 0.0000,  0.0000,  0.0000)
   8 Li     8.085185    8.085185   10.000000    ( 0.0000,  0.0000,  0.0000)
   9 Li     0.000000    0.000000   11.617037    ( 0.0000,  0.0000,  0.0000)
  10 Li     3.234074    0.000000   11.617037    ( 0.0000,  0.0000,  0.0000)
  11 Li     6.468148    0.000000   11.617037    ( 0.0000,  0.0000,  0.0000)
  12 Li     0.000000    3.234074   11.617037    ( 0.0000,  0.0000,  0.0000)
  13 Li     3.234074    3.234074   11.617037    ( 0.0000,  0.0000,  0.0000)
  14 Li     6.468148    3.234074   11.617037    ( 0.0000,  0.0000,  0.0000)
  15 Li     0.000000    6.468148   11.617037    ( 0.0000,  0.0000,  0.0000)
  16 Li     3.234074    6.468148   11.617037    ( 0.0000,  0.0000,  0.0000)
  17 Li     6.468148    6.468148   11.617037    ( 0.0000,  0.0000,  0.0000)
  18 Li     1.587362    1.556913   13.528604    ( 0.0000,  0.0000,  0.0000)
  19 Li     4.826889    1.655917   13.501348    ( 0.0000,  0.0000,  0.0000)
  20 Li     8.071426    1.590993   13.582872    ( 0.0000,  0.0000,  0.0000)
  21 Li     1.547669    4.761692   13.495465    ( 0.0000,  0.0000,  0.0000)
  22 Li     4.789361    4.884257   13.491293    ( 0.0000,  0.0000,  0.0000)
  23 Li     8.030683    4.815190   13.514458    ( 0.0000,  0.0000,  0.0000)
  24 Li     1.649581    8.038713   13.501088    ( 0.0000,  0.0000,  0.0000)
  25 Li     4.905004    8.143362   13.500009    ( 0.0000,  0.0000,  0.0000)
  26 Li     8.150953    8.075103   13.514666    ( 0.0000,  0.0000,  0.0000)
  27 Li     0.100321   -0.156549   15.538761    ( 0.0000,  0.0000,  0.0000)
  28 Li     3.366595   -0.048755   15.479149    ( 0.0000,  0.0000,  0.0000)
  29 Li     6.688708    0.200365   15.591354    ( 0.0000,  0.0000,  0.0000)
  30 Li    -0.277495    2.943657   15.612575    ( 0.0000,  0.0000,  0.0000)
  31 Li     3.028927    3.292607   15.494963    ( 0.0000,  0.0000,  0.0000)
  32 Li     6.303987    3.307925   15.461640    ( 0.0000,  0.0000,  0.0000)
  33 Li     0.055048    6.249675   15.454536    ( 0.0000,  0.0000,  0.0000)
  34 Li     3.236584    6.470633   15.445002    ( 0.0000,  0.0000,  0.0000)
  35 Li     6.417547    6.574333   15.448418    ( 0.0000,  0.0000,  0.0000)
  36 O      8.056670    1.786544   19.554992    ( 0.0000,  0.0000,  0.0000)
  37 O      5.208180    1.830389   19.080387    ( 0.0000,  0.0000,  0.0000)
  38 C      7.333625    3.011605   19.329112    ( 0.0000,  0.0000,  0.0000)
  39 C      5.881191    2.887997   19.764538    ( 0.0000,  0.0000,  0.0000)
  40 H      7.812587    3.857546   19.837781    ( 0.0000,  0.0000,  0.0000)
  41 H      7.384333    3.179966   18.251891    ( 0.0000,  0.0000,  0.0000)
  42 H      5.341151    3.807968   19.523194    ( 0.0000,  0.0000,  0.0000)
  43 H      5.827779    2.740658   20.854729    ( 0.0000,  0.0000,  0.0000)
  44 H      8.264691    1.725691   20.495276    ( 0.0000,  0.0000,  0.0000)
  45 H      5.780168    1.051943   19.142213    ( 0.0000,  0.0000,  0.0000)
  46 N      8.493766    1.131424   15.623271    ( 0.0000,  0.0000,  0.0000)
  47 N      7.606273    2.020809   15.609914    ( 0.0000,  0.0000,  0.0000)

Unit cell:
           periodic     x           y           z      points  spacing
  1. axis:    yes    9.702222    0.000000    0.000000    60     0.1617
  2. axis:    yes    0.000000    9.702222    0.000000    60     0.1617
  3. axis:    no     0.000000    0.000000   26.351111   164     0.1607

  Lengths:   9.702222   9.702222  26.351111
  Angles:   90.000000  90.000000  90.000000

Effective grid spacing dv^(1/3) = 0.1614

     iter     time        total  log10-change:
                         energy  eigst   dens
iter:   1 19:16:58  -328.196490  -2.45
iter:   2 19:17:05  -328.196284  -3.18  -2.88
iter:   3 19:17:13  -328.196289c -3.70  -3.01
iter:   4 19:17:20  -328.196252c -4.03  -3.26
Writing to output.gpw (mode='')

iter:   5 19:17:27  -328.196195c -3.83  -3.33
iter:   6 19:17:35  -328.196203c -3.95  -3.58
iter:   7 19:17:42  -328.196187c -4.71  -3.56
iter:   8 19:17:49  -328.196175c -4.87  -3.74
iter:   9 19:17:57  -328.196180c -5.06  -3.85
Writing to output.gpw (mode='')

iter:  10 19:18:04  -328.196176c -5.41  -3.97
iter:  11 19:18:11  -328.196178c -5.59  -4.05c
iter:  12 19:18:19  -328.196177c -5.80  -4.13c
iter:  13 19:18:26  -328.196180c -6.03  -4.30c
iter:  14 19:18:34  -328.196181c -6.18  -4.30c
Writing to output.gpw (mode='')

iter:  15 19:18:41  -328.196180c -6.51  -4.58c
iter:  16 19:18:48  -328.196179c -6.59  -4.62c
iter:  17 19:18:56  -328.196180c -6.73  -4.69c
iter:  18 19:19:03  -328.196179c -6.74  -4.83c
iter:  19 19:19:10  -328.196179c -7.06  -4.93c
Writing to output.gpw (mode='')

iter:  20 19:19:18  -328.196180c -7.25  -5.10c
iter:  21 19:19:25  -328.196180c -7.41c -5.19c

Converged after 21 iterations.

Dipole moment: (-1.374261, -2.183130, 0.371305) |e|*Ang

Energy contributions relative to reference atoms: (reference = -16475.706344)

Kinetic:       +158.465272
Potential:     -151.029175
External:        +0.000000
XC:            -336.700334
Entropy (-ST):   -0.161277
Local:           +1.148697
--------------------------
Free energy:   -328.276818
Extrapolated:  -328.196180

Dipole-layer corrected work functions: 3.396210, 2.682436 eV

Showing only first 2 kpts
 Kpt  Band  Eigenvalues  Occupancy
  0    34     -3.23062    1.95733
  0    35     -3.05667    1.17179
  0    36     -3.02358    0.84385
  0    37     -2.92480    0.18383

  1    34     -3.35880    1.99665
  1    35     -2.98976    0.54132
  1    36     -2.94147    0.24755
  1    37     -2.91580    0.15590


Fermi level: -3.03932

No gap
Writing to output.gpw (mode='')


Forces in eV/Ang:
  0 Li   -0.00642   -0.00894   -0.28986
  1 Li    0.00878    0.01045   -0.29335
  2 Li    0.00193    0.00191   -0.25379
  3 Li    0.01583    0.01540   -0.28391
  4 Li   -0.00576    0.01074   -0.29064
  5 Li   -0.00925   -0.00501   -0.29418
  6 Li    0.00826   -0.00463   -0.29223
  7 Li   -0.01363   -0.01343   -0.28537
  8 Li    0.01110    0.00874   -0.29461
  9 Li   -0.03207    0.02782    0.32256
 10 Li   -0.00306    0.00942    0.28730
 11 Li    0.03190    0.02345    0.27983
 12 Li   -0.04328   -0.05065    0.27652
 13 Li   -0.02694   -0.02782    0.27889
 14 Li    0.02114   -0.04107    0.33476
 15 Li   -0.01368   -0.02991    0.29244
 16 Li   -0.01352   -0.00339    0.28737
 17 Li    0.01609    0.00622    0.30350
 18 Li    0.00963    0.00477   -0.00544
 19 Li    0.00595   -0.00695   -0.00216
 20 Li    0.00045   -0.00011    0.00960
 21 Li    0.00145    0.00811    0.00695
 22 Li    0.00565   -0.01014    0.00411
 23 Li    0.00788    0.00372   -0.00530
 24 Li    0.00010    0.00375    0.00427
 25 Li    0.00992    0.00672    0.01341
 26 Li   -0.02224   -0.00080    0.00461
 27 Li    0.00169   -0.00237    0.00765
 28 Li    0.00385   -0.00325   -0.00525
 29 Li   -0.00378    0.00581   -0.00237
 30 Li    0.00037   -0.00186    0.00447
 31 Li    0.01859   -0.00014   -0.00436
 32 Li   -0.00684    0.02092    0.00172
 33 Li    0.00236    0.02141   -0.00351
 34 Li    0.00000   -0.00005    0.00575
 35 Li   -0.00088    0.01050   -0.01507
 36 O     0.00261    0.00224   -0.01069
 37 O     0.00799   -0.03776   -0.02592
 38 C     0.00259    0.00489    0.00565
 39 C    -0.00554   -0.00583   -0.00513
 40 H     0.01540    0.00266    0.00582
 41 H     0.00835    0.00607    0.00272
 42 H     0.00532   -0.00252   -0.00991
 43 H    -0.00362   -0.00120    0.00214
 44 H    -0.01086   -0.00071   -0.00740
 45 H    -0.00976    0.01783   -0.01791
 46 N    -0.02231    0.01700   -0.00980
 47 N    -0.02816   -0.00244   -0.00791

Timing:                                      incl.     excl.
-------------------------------------------------------------------
Density initialized from wave functions:     4.560     4.559   0.0% |
 Symmetrize density:                         0.002     0.002   0.0% |
Forces:                                     43.974    43.974   0.2% |
Hamiltonian:                               563.661     0.012   0.0% |
 Atomic:                                     0.021     0.021   0.0% |
  XC Correction:                             0.000     0.000   0.0% |
 Calculate atomic Hamiltonians:              0.036     0.036   0.0% |
 Communicate:                               10.995    10.995   0.0% |
 Hartree integrate/restrict:                 1.958     1.958   0.0% |
 Initialize Hamiltonian:                     0.000     0.000   0.0% |
 Poisson:                                   26.958     9.797   0.0% |
  Communicate from 1D:                       2.562     2.562   0.0% |
  Communicate from 2D:                       3.213     3.213   0.0% |
  Communicate to 1D:                         1.464     1.464   0.0% |
  Communicate to 2D:                         3.171     3.171   0.0% |
  FFT 1D:                                    3.465     3.465   0.0% |
  FFT 2D:                                    3.286     3.286   0.0% |
 XC 3D grid:                               523.236    79.439   0.3% |
  VdW-DF integral:                         443.797     3.748   0.0% |
   Convolution:                             40.338    40.338   0.2% |
   FFT:                                     17.533    17.533   0.1% |
   gather:                                 151.173   151.173   0.6% |
   hmm1:                                    14.193    14.193   0.1% |
   hmm2:                                    18.978    18.978   0.1% |
   iFFT:                                    18.133    18.133   0.1% |
   potential:                              176.099     4.653   0.0% |
    collect:                                26.355    26.355   0.1% |
    p1:                                     78.421    78.421   0.3% |
    p2:                                     29.133    29.133   0.1% |
    sum:                                    37.536    37.536   0.2% |
   splines:                                  3.601     3.601   0.0% |
 vbar:                                       0.445     0.445   0.0% |
LCAO initialization:                         1.174     0.184   0.0% |
 LCAO eigensolver:                           0.240     0.000   0.0% |
  Calculate projections:                     0.000     0.000   0.0% |
  DenseAtomicCorrection:                     0.000     0.000   0.0% |
  Distribute overlap matrix:                 0.221     0.221   0.0% |
  Orbital Layouts:                           0.017     0.017   0.0% |
  Potential matrix:                          0.001     0.001   0.0% |
  Sum over cells:                            0.001     0.001   0.0% |
 LCAO to grid:                               0.626     0.626   0.0% |
 Set positions (LCAO WFS):                   0.124     0.077   0.0% |
  Basic WFS set positions:                   0.001     0.001   0.0% |
  Basis functions set positions:             0.000     0.000   0.0% |
  P tci:                                     0.000     0.000   0.0% |
  ST tci:                                    0.015     0.015   0.0% |
  mktci:                                     0.030     0.030   0.0% |
Redistribute:                                0.063     0.063   0.0% |
SCF-cycle:                               24259.486   369.731   1.5% ||
 Davidson:                                6592.057  1979.986   7.9% |--|
  Apply hamiltonian:                       409.394   409.394   1.6% ||
  Subspace diag:                          1222.575     0.356   0.0% |
   calc_h_matrix:                          605.887   187.668   0.8% |
    Apply hamiltonian:                     418.219   418.219   1.7% ||
   diagonalize:                             71.941    71.941   0.3% |
   rotate_psi:                             544.391   544.391   2.2% ||
  calc. matrices:                         2091.524  1074.427   4.3% |-|
   Apply hamiltonian:                     1017.096  1017.096   4.1% |-|
  diagonalize:                              19.411    19.411   0.1% |
  rotate_psi:                              869.168   869.168   3.5% ||
 Density:                                  117.296     0.070   0.0% |
  Atomic density matrices:                  12.202    12.202   0.0% |
  Mix:                                      49.115    49.115   0.2% |
  Multipole moments:                         6.552     6.552   0.0% |
  Pseudo density:                           49.356    49.305   0.2% |
   Symmetrize density:                       0.051     0.051   0.0% |
 Hamiltonian:                            17160.816     0.391   0.0% |
  Atomic:                                    0.749     0.740   0.0% |
   XC Correction:                            0.008     0.008   0.0% |
  Calculate atomic Hamiltonians:             1.195     1.195   0.0% |
  Communicate:                             233.472   233.472   0.9% |
  Hartree integrate/restrict:               63.281    63.281   0.3% |
  Poisson:                                 825.195   304.398   1.2% |
   Communicate from 1D:                     80.981    80.981   0.3% |
   Communicate from 2D:                     85.978    85.978   0.3% |
   Communicate to 1D:                       46.386    46.386   0.2% |
   Communicate to 2D:                       98.016    98.016   0.4% |
   FFT 1D:                                 106.054   106.054   0.4% |
   FFT 2D:                                 103.383   103.383   0.4% |
  XC 3D grid:                            16022.413  2410.670   9.6% |---|
   VdW-DF integral:                      13611.743   115.261   0.5% |
    Convolution:                          1242.661  1242.661   5.0% |-|
    FFT:                                   541.025   541.025   2.2% ||
    gather:                               4786.098  4786.098  19.1% |-------|
    hmm1:                                  443.262   443.262   1.8% ||
    hmm2:                                  582.289   582.289   2.3% ||
    iFFT:                                  557.619   557.619   2.2% ||
    potential:                            5343.499   144.243   0.6% |
     collect:                              823.826   823.826   3.3% ||
     p1:                                  2409.913  2409.913   9.6% |---|
     p2:                                   895.348   895.348   3.6% ||
     sum:                                 1070.170  1070.170   4.3% |-|
    splines:                                 0.028     0.028   0.0% |
  vbar:                                     14.120    14.120   0.1% |
 Orthonormalize:                            19.587     0.013   0.0% |
  calc_s_matrix:                             2.764     2.764   0.0% |
  inverse-cholesky:                          6.266     6.266   0.0% |
  projections:                               0.002     0.002   0.0% |
  rotate_psi_s:                             10.542    10.542   0.0% |
Set symmetry:                                0.002     0.002   0.0% |
Other:                                     121.714   121.714   0.5% |
-------------------------------------------------------------------
Total:                                             24994.634 100.0%

Memory usage: 1.11 GiB
Date: Fri Mar 10 19:19:26 2023
