
  ___ ___ ___ _ _ _  
 |   |   |_  | | | | 
 | | | | | . | | | | 
 |__ |  _|___|_____|  22.8.0
 |___|_|             

User:   vazumah@r404.ib.bridges2.psc.edu
Date:   Fri Mar 10 12:22:51 2023
Arch:   x86_64
Pid:    86457
CWD:    /jet/home/vazumah/Calcs/LiMEAS/proton_donors/ethanediol_x/bridge/0.0_1.617/N2_z
Python: 3.11.0
gpaw:   /jet/home/vazumah/.conda/envs/GPAW_mpich/lib/python3.11/site-packages/gpaw
_gpaw:  /jet/home/vazumah/.conda/envs/GPAW_mpich/lib/python3.11/site-packages/
        _gpaw.cpython-311-x86_64-linux-gnu.so
ase:    /jet/home/vazumah/.conda/envs/GPAW_mpich/lib/python3.11/site-packages/ase (version 3.22.1)
numpy:  /jet/home/vazumah/.conda/envs/GPAW_mpich/lib/python3.11/site-packages/numpy (version 1.24.2)
scipy:  /jet/home/vazumah/.conda/envs/GPAW_mpich/lib/python3.11/site-packages/scipy (version 1.10.1)
libxc:  5.2.3
units:  Angstrom and eV
cores: 128
OpenMP: True
OMP_NUM_THREADS: 1

Input parameters:
  h: 0.16
  kpts: {size: [4, 4, 1]}
  occupations: {name: fermi-dirac,
                width: 0.05}
  poissonsolver: {dipolelayer: xy}
  xc: BEEF-vdW

System changes: positions, numbers, cell, pbc, initial_charges, initial_magmoms 

Initialize ...

species:
  Li:
    name: Lithium
    id: 830b4218f175192f93f959cfc0aad614
    Z: 3.0
    valence: 1
    core: 2
    charge: 0.0
    file: /jet/home/vazumah/datasets/gpaw-setups-0.9.20000/Li.PBE.gz
    compensation charges: {type: gauss,
                           rc: 0.33,
                           lmax: 2}
    cutoffs: {filter: 1.91,
              core: 2.55}
    valence states:
      #              energy  rcut
      - 2s(1.00)    -2.874   1.058
      - 2p(0.00)    -1.090   1.058
      -  s          24.337   1.058
  
    # Using partial waves for Li as LCAO basis

  O:
    name: Oxygen
    id: 32ecd46bf208036f09c70b0ec9a88b78
    Z: 8.0
    valence: 6
    core: 2
    charge: 0.0
    file: /jet/home/vazumah/datasets/gpaw-setups-0.9.20000/O.PBE.gz
    compensation charges: {type: gauss,
                           rc: 0.21,
                           lmax: 2}
    cutoffs: {filter: 1.17,
              core: 0.83}
    valence states:
      #              energy  rcut
      - 2s(2.00)   -23.961   0.688
      - 2p(4.00)    -9.029   0.598
      -  s           3.251   0.688
      -  p          18.182   0.598
      -  d           0.000   0.619
  
    # Using partial waves for O as LCAO basis

  C:
    name: Carbon
    id: 4aa54d4b901d75f77cc0ea3eec22967b
    Z: 6.0
    valence: 4
    core: 2
    charge: 0.0
    file: /jet/home/vazumah/datasets/gpaw-setups-0.9.20000/C.PBE.gz
    compensation charges: {type: gauss,
                           rc: 0.20,
                           lmax: 2}
    cutoffs: {filter: 1.14,
              core: 1.14}
    valence states:
      #              energy  rcut
      - 2s(2.00)   -13.751   0.635
      - 2p(2.00)    -5.284   0.635
      -  s          13.461   0.635
      -  p          21.927   0.635
      -  d           0.000   0.635
  
    # Using partial waves for C as LCAO basis

  H:
    name: Hydrogen
    id: d65de229564ff8ea4db303e23b6d1ecf
    Z: 1.0
    valence: 1
    core: 0
    charge: 0.0
    file: /jet/home/vazumah/datasets/gpaw-setups-0.9.20000/H.PBE.gz
    compensation charges: {type: gauss,
                           rc: 0.15,
                           lmax: 2}
    cutoffs: {filter: 0.85,
              core: 0.53}
    valence states:
      #              energy  rcut
      - 1s(1.00)    -6.494   0.476
      -  s          20.717   0.476
      -  p           0.000   0.476
  
    # Using partial waves for H as LCAO basis

  N:
    name: Nitrogen
    id: f7500608b86eaa90eef8b1d9a670dc53
    Z: 7.0
    valence: 5
    core: 2
    charge: 0.0
    file: /jet/home/vazumah/datasets/gpaw-setups-0.9.20000/N.PBE.gz
    compensation charges: {type: gauss,
                           rc: 0.18,
                           lmax: 2}
    cutoffs: {filter: 1.11,
              core: 0.96}
    valence states:
      #              energy  rcut
      - 2s(2.00)   -18.583   0.603
      - 2p(3.00)    -7.089   0.529
      -  s           8.629   0.603
      -  p          20.123   0.529
      -  d           0.000   0.577
  
    # Using partial waves for N as LCAO basis

Reference energy: -16475.706344  # eV

Spin-paired calculation

Convergence criteria:
 Maximum [total energy] change in last 3 cyles: 0.0005 eV / electron
 Maximum integral of absolute [dens]ity change: 0.0001 electrons / valence electron
 Maximum integral of absolute [eigenst]ate change: 4e-08 eV^2 / valence electron
 Maximum number of scf [iter]ations: 333
 (Square brackets indicate name in SCF output, whereas a 'c' in
 the SCF output indicates the quantity has converged.)

Symmetries present (total): 1

  ( 1  0  0)
  ( 0  1  0)
  ( 0  0  1)

16 k-points: 4 x 4 x 1 Monkhorst-Pack grid
8 k-points in the irreducible part of the Brillouin zone
       k-points in crystal coordinates                weights
   0:     0.12500000   -0.37500000    0.00000000          2/16
   1:     0.12500000   -0.12500000    0.00000000          2/16
   2:     0.12500000    0.12500000    0.00000000          2/16
   3:     0.12500000    0.37500000    0.00000000          2/16
   4:     0.37500000   -0.37500000    0.00000000          2/16
   5:     0.37500000   -0.12500000    0.00000000          2/16
   6:     0.37500000    0.12500000    0.00000000          2/16
   7:     0.37500000    0.37500000    0.00000000          2/16

Wave functions: Uniform real-space grid
  Kinetic energy operator: 6*3+1=19 point O(h^6) finite-difference Laplacian
  ScaLapack parameters: grid=1x1, blocksize=None
  Wavefunction extrapolation:
    Improved wavefunction reuse through dual PAW basis 

Occupation numbers: Fermi-Dirac:
  width: 0.0500  # eV
 

Eigensolver
   Davidson(niter=2) 

Densities:
  Coarse grid: 60*60*168 grid
  Fine grid: 120*120*336 grid
  Total Charge: 0.000000 

Density mixing:
  Method: separate
  Backend: pulay
  Linear mixing parameter: 0.05
  old densities: 5
  Damping of long wavelength oscillations: 50 

Hamiltonian:
  XC and Coulomb potentials evaluated on a 120*120*336 grid
  Using the BEEF-vdW Exchange-Correlation functional
  Interpolation: tri-quintic (5. degree polynomial)
  Poisson solver: FastPoissonSolver using
    Stencil: 6*3+1=19 point O(h^6) finite-difference Laplacian
    FFT axes: [0, 1]
    FST axes: [2]

Dipole correction along z-axis 

XC parameters: BEEF-vdW with 2 nearest neighbor stencil

Memory estimate:
  Process memory now: 127.28 MiB
  Calculator: 86.74 MiB
    Density: 22.99 MiB
      Arrays: 7.40 MiB
      Localized functions: 12.78 MiB
      Mixer: 2.82 MiB
    Hamiltonian: 5.85 MiB
      Arrays: 4.84 MiB
      XC: 0.00 MiB
      Poisson: 0.00 MiB
      vbar: 1.01 MiB
    Wavefunctions: 57.90 MiB
      Arrays psit_nG: 27.03 MiB
      Eigensolver: 30.19 MiB
      Projections: 0.01 MiB
      Projectors: 0.66 MiB

Total number of cores used: 128
Parallelization over k-points: 8
Domain decomposition: 2 x 2 x 4

Number of atoms: 48
Number of atomic orbitals: 174
Number of bands in calculation: 48
Number of valence electrons: 72
Bands to converge: occupied

... initialized

Initializing position-dependent things.

Density initialized from atomic densities
Creating initial wave functions:
  48 bands from LCAO basis set

       .-----------------------.  
      /|                       |  
     / |                       |  
    /  |                       |  
   /   |                       |  
  /    |                       |  
 *     |                       |  
 |     |                       |  
 |     |                       |  
 |     |                       |  
 |     |                       |  
 |     |              H        |  
 |H    |                   H   |  
 |     |             C   C     |  
 |O    |           OH          |  
 |N    |                 H     |  
 |   Li|     Li      Li        |  
 |N    |  Li      Li      Li   |  
 | Li  |   Li      Li          |  
 |     |Li      Li      Li     |  
 Li    | Li      Li            |  
 |   LLi     LLi     LLi       |  
 |     |  Li      Li      Li   |  
 | Li  |   Li      Li          |  
 |     |Li      Li      Li     |  
 Li    | Li      Li            |  
 |    Li      Li      Li       |  
 |     |                       |  
 |     |                       |  
 |     |                       |  
 |     |                       |  
 |     |                       |  
 |     |                       |  
 |     .-----------------------.  
 |    /                       /   
 |   /                       /    
 |  /                       /     
 | /                       /      
 |/                       /       
 *-----------------------*        

Positions:
   0 Li     1.617037    1.617037   10.000000    ( 0.0000,  0.0000,  0.0000)
   1 Li     4.851111    1.617037   10.000000    ( 0.0000,  0.0000,  0.0000)
   2 Li     8.085185    1.617037   10.000000    ( 0.0000,  0.0000,  0.0000)
   3 Li     1.617037    4.851111   10.000000    ( 0.0000,  0.0000,  0.0000)
   4 Li     4.851111    4.851111   10.000000    ( 0.0000,  0.0000,  0.0000)
   5 Li     8.085185    4.851111   10.000000    ( 0.0000,  0.0000,  0.0000)
   6 Li     1.617037    8.085185   10.000000    ( 0.0000,  0.0000,  0.0000)
   7 Li     4.851111    8.085185   10.000000    ( 0.0000,  0.0000,  0.0000)
   8 Li     8.085185    8.085185   10.000000    ( 0.0000,  0.0000,  0.0000)
   9 Li     0.000000    0.000000   11.617037    ( 0.0000,  0.0000,  0.0000)
  10 Li     3.234074    0.000000   11.617037    ( 0.0000,  0.0000,  0.0000)
  11 Li     6.468148    0.000000   11.617037    ( 0.0000,  0.0000,  0.0000)
  12 Li     0.000000    3.234074   11.617037    ( 0.0000,  0.0000,  0.0000)
  13 Li     3.234074    3.234074   11.617037    ( 0.0000,  0.0000,  0.0000)
  14 Li     6.468148    3.234074   11.617037    ( 0.0000,  0.0000,  0.0000)
  15 Li     0.000000    6.468148   11.617037    ( 0.0000,  0.0000,  0.0000)
  16 Li     3.234074    6.468148   11.617037    ( 0.0000,  0.0000,  0.0000)
  17 Li     6.468148    6.468148   11.617037    ( 0.0000,  0.0000,  0.0000)
  18 Li     1.617038    1.617038   13.469728    ( 0.0000,  0.0000,  0.0000)
  19 Li     4.851111    1.617038   13.469729    ( 0.0000,  0.0000,  0.0000)
  20 Li     8.085184    1.617038   13.469728    ( 0.0000,  0.0000,  0.0000)
  21 Li     1.617038    4.851111   13.469729    ( 0.0000,  0.0000,  0.0000)
  22 Li     4.851111    4.851111   13.469730    ( 0.0000,  0.0000,  0.0000)
  23 Li     8.085184    4.851111   13.469729    ( 0.0000,  0.0000,  0.0000)
  24 Li     1.617038    8.085184   13.469728    ( 0.0000,  0.0000,  0.0000)
  25 Li     4.851111    8.085184   13.469729    ( 0.0000,  0.0000,  0.0000)
  26 Li     8.085184    8.085184   13.469728    ( 0.0000,  0.0000,  0.0000)
  27 Li    -0.000000   -0.000000   15.445939    ( 0.0000,  0.0000,  0.0000)
  28 Li     3.234074    0.000000   15.445939    ( 0.0000,  0.0000,  0.0000)
  29 Li     6.468148    0.000000   15.445939    ( 0.0000,  0.0000,  0.0000)
  30 Li     0.000000    3.234074   15.445939    ( 0.0000,  0.0000,  0.0000)
  31 Li     3.234076    3.234076   15.445938    ( 0.0000,  0.0000,  0.0000)
  32 Li     6.468146    3.234076   15.445938    ( 0.0000,  0.0000,  0.0000)
  33 Li     0.000000    6.468148   15.445939    ( 0.0000,  0.0000,  0.0000)
  34 Li     3.234076    6.468146   15.445938    ( 0.0000,  0.0000,  0.0000)
  35 Li     6.468146    6.468146   15.445938    ( 0.0000,  0.0000,  0.0000)
  36 O      0.000000    1.617037   19.645939    ( 0.0000,  0.0000,  0.0000)
  37 O     -2.898198    1.661030   19.413250    ( 0.0000,  0.0000,  0.0000)
  38 C     -0.728561    2.788249   19.233562    ( 0.0000,  0.0000,  0.0000)
  39 C     -2.137746    2.801939   19.802713    ( 0.0000,  0.0000,  0.0000)
  40 H     -0.200435    3.702639   19.526395    ( 0.0000,  0.0000,  0.0000)
  41 H     -0.761310    2.740951   18.143996    ( 0.0000,  0.0000,  0.0000)
  42 H     -2.674465    3.676205   19.426232    ( 0.0000,  0.0000,  0.0000)
  43 H     -2.088017    2.877440   20.901774    ( 0.0000,  0.0000,  0.0000)
  44 H      0.169424    1.691552   20.593261    ( 0.0000,  0.0000,  0.0000)
  45 H     -2.318732    0.893910   19.509689    ( 0.0000,  0.0000,  0.0000)
  46 N      0.000000    1.617000   17.195939    ( 0.0000,  0.0000,  0.0000)
  47 N      0.000000    1.617000   18.292561    ( 0.0000,  0.0000,  0.0000)

Unit cell:
           periodic     x           y           z      points  spacing
  1. axis:    yes    9.702222    0.000000    0.000000    60     0.1617
  2. axis:    yes    0.000000    9.702222    0.000000    60     0.1617
  3. axis:    no     0.000000    0.000000   26.601111   168     0.1583

  Lengths:   9.702222   9.702222  26.601111
  Angles:   90.000000  90.000000  90.000000

Effective grid spacing dv^(1/3) = 0.1606

     iter     time        total  log10-change:
                         energy  eigst   dens
iter:   1 12:23:07  -692.662945
iter:   2 12:23:15     6.155964  +2.67  +0.04
iter:   3 12:23:26    19.834893  +3.30  -0.15
iter:   4 12:23:37  -196.070243  +3.23  -0.24
Writing to output.gpw (mode='')

iter:   5 12:23:47  -229.464987  +2.78  -0.24
iter:   6 12:23:54  -303.664055  +2.58  -0.52
iter:   7 12:24:02  -319.127497  +2.28  -0.54
iter:   8 12:24:09  -316.413392  +2.03  -0.56
iter:   9 12:24:17  -360.324442  +1.96  -0.73
Writing to output.gpw (mode='')

iter:  10 12:24:24  -342.059681  +1.49  -0.55
iter:  11 12:24:32  -345.722217  +1.39  -0.63
iter:  12 12:24:39  -323.450202  +1.27  -0.67
iter:  13 12:24:47  -318.812899  +0.72  -0.73
iter:  14 12:24:54  -316.226758  +1.01  -0.80
Writing to output.gpw (mode='')

iter:  15 12:25:08  -315.777064  +0.63  -0.86
iter:  16 12:25:22  -315.947981  +0.78  -0.91
iter:  17 12:25:30  -318.259774  +0.62  -0.93
iter:  18 12:25:37  -320.032933  +0.22  -0.98
iter:  19 12:25:45  -316.917383  +0.09  -0.96
Writing to output.gpw (mode='')

iter:  20 12:25:52  -318.084327  +0.34  -0.99
iter:  21 12:26:00  -317.093314  -0.07  -0.94
iter:  22 12:26:07  -331.844759  +1.54  -0.94
iter:  23 12:26:14  -314.003559  +0.74  -0.76
iter:  24 12:26:22  -314.494046  -0.05  -1.15
Writing to output.gpw (mode='')

iter:  25 12:26:29  -314.465821  +0.47  -1.20
iter:  26 12:26:37  -314.002618  -0.24  -1.13
iter:  27 12:26:44  -313.960615  -0.82  -1.34
iter:  28 12:26:52  -314.253571  -0.59  -1.38
iter:  29 12:26:59  -314.013745  -0.40  -1.33
Writing to output.gpw (mode='')

iter:  30 12:27:07  -313.922356  -1.02  -1.43
iter:  31 12:27:14  -313.852787  -0.63  -1.53
iter:  32 12:27:22  -313.839616  -0.85  -1.71
iter:  33 12:27:29  -313.846564c -0.96  -1.85
iter:  34 12:27:36  -313.836130c -1.72  -1.81
Writing to output.gpw (mode='')

iter:  35 12:27:44  -313.832398c -1.74  -1.92
iter:  36 12:27:51  -313.819866c -1.41  -1.95
iter:  37 12:27:59  -313.823139c -1.68  -2.19
iter:  38 12:28:06  -313.820790c -2.11  -2.19
iter:  39 12:28:14  -313.821055c -1.97  -2.27
Writing to output.gpw (mode='')

iter:  40 12:28:21  -313.822133c -2.37  -2.32
iter:  41 12:28:29  -313.822399c -2.28  -2.35
iter:  42 12:28:36  -313.822807c -2.20  -2.40
iter:  43 12:28:43  -313.821809c -2.76  -2.48
iter:  44 12:28:51  -313.821733c -2.43  -2.59
Writing to output.gpw (mode='')

iter:  45 12:28:58  -313.823826c -2.61  -2.70
iter:  46 12:29:06  -313.822659c -2.93  -2.61
iter:  47 12:29:13  -313.822578c -2.53  -2.86
iter:  48 12:29:21  -313.822669c -3.24  -3.11
iter:  49 12:29:28  -313.822841c -3.23  -3.20
Writing to output.gpw (mode='')

iter:  50 12:29:35  -313.822847c -3.17  -3.16
iter:  51 12:29:43  -313.822942c -3.23  -3.42
iter:  52 12:29:50  -313.823047c -3.40  -3.42
iter:  53 12:30:04  -313.823082c -3.54  -3.53
iter:  54 12:30:23  -313.823114c -3.53  -3.74
Writing to output.gpw (mode='')

iter:  55 12:30:30  -313.823160c -3.63  -3.77
iter:  56 12:30:38  -313.823220c -3.77  -3.73
iter:  57 12:30:45  -313.823236c -4.03  -3.92
iter:  58 12:30:53  -313.823260c -3.77  -4.06c
iter:  59 12:31:00  -313.823291c -3.94  -4.10c
Writing to output.gpw (mode='')

iter:  60 12:31:08  -313.823305c -4.09  -4.19c
iter:  61 12:31:15  -313.823316c -4.11  -4.28c
iter:  62 12:31:23  -313.823327c -4.14  -4.32c
iter:  63 12:31:30  -313.823342c -4.08  -4.38c
iter:  64 12:31:38  -313.823350c -4.46  -4.41c
Writing to output.gpw (mode='')

iter:  65 12:31:45  -313.823359c -4.54  -4.47c
iter:  66 12:31:53  -313.823366c -4.30  -4.62c
iter:  67 12:32:00  -313.823368c -4.70  -4.65c
iter:  68 12:32:08  -313.823373c -4.59  -4.76c
iter:  69 12:32:15  -313.823376c -4.79  -4.79c
Writing to output.gpw (mode='')

iter:  70 12:32:23  -313.823380c -4.79  -4.87c
iter:  71 12:32:31  -313.823381c -4.98  -4.91c
iter:  72 12:32:38  -313.823383c -5.04  -4.99c
iter:  73 12:32:46  -313.823384c -5.09  -5.03c
iter:  74 12:32:53  -313.823385c -5.26  -5.02c
Writing to output.gpw (mode='')

iter:  75 12:33:01  -313.823386c -5.19  -4.94c
iter:  76 12:33:08  -313.823387c -5.39  -4.92c
iter:  77 12:33:16  -313.823388c -5.47  -4.93c
iter:  78 12:33:23  -313.823389c -5.42  -4.88c
iter:  79 12:33:31  -313.823389c -5.41  -4.87c
Writing to output.gpw (mode='')

iter:  80 12:33:38  -313.823390c -5.50  -4.81c
iter:  81 12:33:46  -313.823391c -5.62  -4.86c
iter:  82 12:33:53  -313.823391c -5.64  -4.86c
iter:  83 12:34:01  -313.823391c -5.66  -4.77c
iter:  84 12:34:08  -313.823392c -5.65  -4.75c
Writing to output.gpw (mode='')

iter:  85 12:34:16  -313.823392c -5.71  -4.82c
iter:  86 12:34:23  -313.823393c -5.92  -4.73c
iter:  87 12:34:31  -313.823393c -6.02  -4.78c
iter:  88 12:34:38  -313.823393c -6.06  -4.73c
iter:  89 12:34:46  -313.823393c -6.00  -4.86c
Writing to output.gpw (mode='')

iter:  90 12:34:53  -313.823394c -5.78  -4.85c
iter:  91 12:35:07  -313.823393c -6.23  -4.83c
iter:  92 12:35:24  -313.823394c -6.15  -4.79c
iter:  93 12:35:31  -313.823394c -6.17  -4.89c
iter:  94 12:35:39  -313.823394c -6.16  -5.04c
Writing to output.gpw (mode='')

iter:  95 12:35:46  -313.823394c -6.27  -5.18c
iter:  96 12:35:54  -313.823394c -6.37  -5.27c
iter:  97 12:36:01  -313.823394c -6.44  -5.30c
iter:  98 12:36:09  -313.823394c -6.34  -5.39c
iter:  99 12:36:16  -313.823394c -6.52  -5.47c
Writing to output.gpw (mode='')

iter: 100 12:36:24  -313.823394c -6.63  -5.51c
iter: 101 12:36:31  -313.823394c -6.81  -5.76c
iter: 102 12:36:39  -313.823394c -6.38  -5.81c
iter: 103 12:36:46  -313.823394c -6.66  -5.94c
iter: 104 12:36:54  -313.823394c -6.76  -6.13c
Writing to output.gpw (mode='')

iter: 105 12:37:01  -313.823394c -6.80  -6.20c
iter: 106 12:37:09  -313.823394c -6.95  -6.31c
iter: 107 12:37:16  -313.823394c -6.83  -6.40c
iter: 108 12:37:24  -313.823394c -7.01  -6.43c
iter: 109 12:37:31  -313.823394c -7.11  -6.40c
Writing to output.gpw (mode='')

iter: 110 12:37:39  -313.823394c -7.21  -6.30c
iter: 111 12:37:46  -313.823394c -7.23  -6.33c
iter: 112 12:37:54  -313.823394c -7.23  -6.58c
iter: 113 12:38:01  -313.823394c -7.29  -6.55c
iter: 114 12:38:09  -313.823394c -7.11  -6.47c
Writing to output.gpw (mode='')

iter: 115 12:38:17  -313.823394c -7.44c -6.36c

Converged after 115 iterations.

Dipole moment: (-11.046935, -3.409006, 0.004221) |e|*Ang

Energy contributions relative to reference atoms: (reference = -16475.706344)

Kinetic:       +213.986114
Potential:     -189.094597
External:        +0.000000
XC:            -339.680065
Entropy (-ST):   -0.149181
Local:           +1.039744
--------------------------
Free energy:   -313.897985
Extrapolated:  -313.823394

Dipole-layer corrected work functions: 3.386281, 3.378166 eV

Showing only first 2 kpts
 Kpt  Band  Eigenvalues  Occupancy
  0    34     -3.62475    1.98447
  0    35     -3.49040    1.79387
  0    36     -3.23884    0.10756
  0    37     -3.12530    0.01166

  1    34     -3.43030    1.44689
  1    35     -3.39924    1.16855
  1    36     -3.35465    0.73104
  1    37     -3.28418    0.24673


Fermi level: -3.38222

No gap

Forces in eV/Ang:
  0 Li    0.01129   -0.00118   -0.27466
  1 Li    0.00212   -0.00274   -0.26555
  2 Li   -0.01213    0.00152   -0.27522
  3 Li    0.00277    0.01007   -0.27144
  4 Li   -0.00021    0.00339   -0.28227
  5 Li   -0.00234    0.00447   -0.27231
  6 Li    0.00701   -0.00806   -0.27222
  7 Li   -0.00293    0.00166   -0.28039
  8 Li   -0.00412   -0.00556   -0.26985
  9 Li    0.00147    0.01919    0.30922
 10 Li    0.01819   -0.01117    0.25382
 11 Li   -0.02017   -0.00208    0.25016
 12 Li    0.00180   -0.01419    0.30274
 13 Li    0.01555    0.00793    0.26096
 14 Li   -0.01784    0.00427    0.25755
 15 Li   -0.00382   -0.00282    0.24830
 16 Li   -0.02583    0.00112    0.25845
 17 Li    0.02826   -0.00290    0.27574
 18 Li    0.05542    0.00065   -0.07754
 19 Li   -0.00646   -0.00072    0.04152
 20 Li   -0.05505   -0.00120   -0.06256
 21 Li   -0.01315   -0.01351    0.04730
 22 Li   -0.00527    0.00779    0.02295
 23 Li    0.01769   -0.02504    0.06082
 24 Li   -0.01863    0.01181    0.04727
 25 Li   -0.00102   -0.00893    0.03786
 26 Li    0.01951    0.02493    0.05345
 27 Li    0.03107    0.18972    0.16754
 28 Li    0.03911   -0.02630   -0.03922
 29 Li   -0.03261   -0.01221   -0.01328
 30 Li   -0.01289   -0.18196    0.08704
 31 Li    0.02951    0.02888   -0.03253
 32 Li    0.00054    0.02013    0.01193
 33 Li   -0.00668   -0.02603   -0.00342
 34 Li   -0.01069   -0.00040   -0.01542
 35 Li    0.01773   -0.00655   -0.00181
 36 O     0.34441   -0.25353   14.88826
 37 O     0.02228   -0.10409   -0.24356
 38 C    -3.39255    5.46247    3.24996
 39 C    -0.20389   -0.07181    0.83430
 40 H     0.31673   -0.21174    0.28843
 41 H    -2.30108    3.62060    1.61711
 42 H     0.13891    0.02652   -0.08371
 43 H    -0.15518   -0.01354   -0.23279
 44 H     1.13018    0.60960    7.12335
 45 H    -0.19162   -0.14850    0.11380
 46 N     2.91153   -2.12493   -9.80668
 47 N     1.30155   -6.78389  -18.04450

System changes: positions 

Initializing position-dependent things.

Density initialized from wave functions
       .-----------------------.  
      /|                       |  
     / |                       |  
    /  |                       |  
   /   |                       |  
  /    |                       |  
 *     |                       |  
 |     |                       |  
 |     |                       |  
 |     |                       |  
 |     |                       |  
 |     |              H        |  
 |H    |                   H   |  
 |     |             C   C     |  
 |O    |       Li  OH  Li      |  
 |N    |                 H     |  
 |     |     Li      Li      Li|  
 |N    |  Li      Li      Li   |  
 |     |   Li      Li      Li  |  
 |     |Li      Li      Li     |  
 Li    |                       |  
 |   LLi     LLi     LLi       |  
 |     |  Li      Li      Li   |  
 | Li  |   Li      Li          |  
 |     |Li      Li      Li     |  
 Li    | Li      Li            |  
 |    Li      Li      Li       |  
 |     |                       |  
 |     |                       |  
 |     |                       |  
 |     |                       |  
 |     |                       |  
 |     |                       |  
 |     .-----------------------.  
 |    /                       /   
 |   /                       /    
 |  /                       /     
 | /                       /      
 |/                       /       
 *-----------------------*        

Positions:
   0 Li     1.617037    1.617037   10.000000    ( 0.0000,  0.0000,  0.0000)
   1 Li     4.851111    1.617037   10.000000    ( 0.0000,  0.0000,  0.0000)
   2 Li     8.085185    1.617037   10.000000    ( 0.0000,  0.0000,  0.0000)
   3 Li     1.617037    4.851111   10.000000    ( 0.0000,  0.0000,  0.0000)
   4 Li     4.851111    4.851111   10.000000    ( 0.0000,  0.0000,  0.0000)
   5 Li     8.085185    4.851111   10.000000    ( 0.0000,  0.0000,  0.0000)
   6 Li     1.617037    8.085185   10.000000    ( 0.0000,  0.0000,  0.0000)
   7 Li     4.851111    8.085185   10.000000    ( 0.0000,  0.0000,  0.0000)
   8 Li     8.085185    8.085185   10.000000    ( 0.0000,  0.0000,  0.0000)
   9 Li     0.000000    0.000000   11.617037    ( 0.0000,  0.0000,  0.0000)
  10 Li     3.234074    0.000000   11.617037    ( 0.0000,  0.0000,  0.0000)
  11 Li     6.468148    0.000000   11.617037    ( 0.0000,  0.0000,  0.0000)
  12 Li     0.000000    3.234074   11.617037    ( 0.0000,  0.0000,  0.0000)
  13 Li     3.234074    3.234074   11.617037    ( 0.0000,  0.0000,  0.0000)
  14 Li     6.468148    3.234074   11.617037    ( 0.0000,  0.0000,  0.0000)
  15 Li     0.000000    6.468148   11.617037    ( 0.0000,  0.0000,  0.0000)
  16 Li     3.234074    6.468148   11.617037    ( 0.0000,  0.0000,  0.0000)
  17 Li     6.468148    6.468148   11.617037    ( 0.0000,  0.0000,  0.0000)
  18 Li     1.617153    1.617039   13.469567    ( 0.0000,  0.0000,  0.0000)
  19 Li     4.851098    1.617037   13.469815    ( 0.0000,  0.0000,  0.0000)
  20 Li     8.085070    1.617036   13.469598    ( 0.0000,  0.0000,  0.0000)
  21 Li     1.617011    4.851083   13.469827    ( 0.0000,  0.0000,  0.0000)
  22 Li     4.851100    4.851127   13.469778    ( 0.0000,  0.0000,  0.0000)
  23 Li     8.085220    4.851059   13.469855    ( 0.0000,  0.0000,  0.0000)
  24 Li     1.617000    8.085208   13.469826    ( 0.0000,  0.0000,  0.0000)
  25 Li     4.851109    8.085165   13.469808    ( 0.0000,  0.0000,  0.0000)
  26 Li     8.085224    8.085236   13.469839    ( 0.0000,  0.0000,  0.0000)
  27 Li     0.000064    0.000393   15.446286    ( 0.0000,  0.0000,  0.0000)
  28 Li     3.234155   -0.000054   15.445858    ( 0.0000,  0.0000,  0.0000)
  29 Li     6.468081   -0.000025   15.445911    ( 0.0000,  0.0000,  0.0000)
  30 Li    -0.000027    3.233697   15.446119    ( 0.0000,  0.0000,  0.0000)
  31 Li     3.234138    3.234136   15.445871    ( 0.0000,  0.0000,  0.0000)
  32 Li     6.468147    3.234118   15.445963    ( 0.0000,  0.0000,  0.0000)
  33 Li    -0.000014    6.468094   15.445932    ( 0.0000,  0.0000,  0.0000)
  34 Li     3.234054    6.468145   15.445906    ( 0.0000,  0.0000,  0.0000)
  35 Li     6.468182    6.468132   15.445934    ( 0.0000,  0.0000,  0.0000)
  36 O      0.000713    1.616512   19.676762    ( 0.0000,  0.0000,  0.0000)
  37 O     -2.898152    1.660815   19.412746    ( 0.0000,  0.0000,  0.0000)
  38 C     -0.735584    2.799557   19.240290    ( 0.0000,  0.0000,  0.0000)
  39 C     -2.138169    2.801790   19.804441    ( 0.0000,  0.0000,  0.0000)
  40 H     -0.199779    3.702201   19.526992    ( 0.0000,  0.0000,  0.0000)
  41 H     -0.766074    2.748446   18.147343    ( 0.0000,  0.0000,  0.0000)
  42 H     -2.674177    3.676259   19.426059    ( 0.0000,  0.0000,  0.0000)
  43 H     -2.088338    2.877412   20.901292    ( 0.0000,  0.0000,  0.0000)
  44 H      0.171764    1.692814   20.608008    ( 0.0000,  0.0000,  0.0000)
  45 H     -2.319129    0.893603   19.509925    ( 0.0000,  0.0000,  0.0000)
  46 N      0.006028    1.612601   17.175637    ( 0.0000,  0.0000,  0.0000)
  47 N      0.002695    1.602956   18.255205    ( 0.0000,  0.0000,  0.0000)

Unit cell:
           periodic     x           y           z      points  spacing
  1. axis:    yes    9.702222    0.000000    0.000000    60     0.1617
  2. axis:    yes    0.000000    9.702222    0.000000    60     0.1617
  3. axis:    no     0.000000    0.000000   26.601111   168     0.1583

  Lengths:   9.702222   9.702222  26.601111
  Angles:   90.000000  90.000000  90.000000

Effective grid spacing dv^(1/3) = 0.1606

     iter     time        total  log10-change:
                         energy  eigst   dens
iter:   1 12:38:26  -315.708358  -0.54
iter:   2 12:38:34  -315.605585  -0.70  -1.48
iter:   3 12:38:41  -315.555643  -1.25  -1.61
iter:   4 12:38:49  -315.536684  -1.23  -1.91
Writing to output.gpw (mode='')

iter:   5 12:38:56  -315.514240  -1.45  -2.03
iter:   6 12:39:04  -315.507339c -1.77  -2.12
iter:   7 12:39:11  -315.507061c -1.41  -2.19
iter:   8 12:39:19  -315.501106c -1.93  -2.38
iter:   9 12:39:26  -315.500018c -2.43  -2.49
Writing to output.gpw (mode='')

iter:  10 12:39:33  -315.499712c -2.64  -2.52
iter:  11 12:39:41  -315.499720c -3.05  -2.64
iter:  12 12:39:48  -315.499320c -2.75  -2.72
iter:  13 12:40:03  -315.499206c -2.65  -2.88
iter:  14 12:40:14  -315.499118c -3.17  -2.99
Writing to output.gpw (mode='')

iter:  15 12:40:25  -315.499134c -3.56  -3.08
iter:  16 12:40:33  -315.499122c -3.94  -3.14
iter:  17 12:40:40  -315.499119c -4.02  -3.24
iter:  18 12:40:48  -315.499109c -4.10  -3.37
iter:  19 12:40:55  -315.499112c -4.19  -3.61
Writing to output.gpw (mode='')

iter:  20 12:41:03  -315.499115c -4.56  -3.63
iter:  21 12:41:12  -315.499121c -4.77  -3.68
iter:  22 12:41:19  -315.499125c -4.80  -3.80
iter:  23 12:41:27  -315.499128c -5.15  -3.98
iter:  24 12:41:34  -315.499128c -5.49  -4.06c
Writing to output.gpw (mode='')

iter:  25 12:41:42  -315.499126c -5.45  -4.09c
iter:  26 12:41:50  -315.499125c -5.59  -4.22c
iter:  27 12:41:57  -315.499125c -5.77  -4.41c
iter:  28 12:42:04  -315.499125c -5.80  -4.42c
iter:  29 12:42:12  -315.499126c -5.95  -4.50c
Writing to output.gpw (mode='')

iter:  30 12:42:20  -315.499128c -5.92  -4.53c
iter:  31 12:42:27  -315.499128c -6.23  -4.82c
iter:  32 12:42:35  -315.499128c -6.10  -4.85c
iter:  33 12:42:42  -315.499129c -6.21  -4.97c
iter:  34 12:42:50  -315.499129c -6.55  -4.98c
Writing to output.gpw (mode='')

iter:  35 12:42:57  -315.499129c -6.58  -4.96c
iter:  36 12:43:05  -315.499129c -6.46  -4.93c
iter:  37 12:43:12  -315.499129c -6.79  -4.89c
iter:  38 12:43:20  -315.499129c -6.73  -4.87c
iter:  39 12:43:27  -315.499129c -6.93  -4.82c
Writing to output.gpw (mode='')

iter:  40 12:43:35  -315.499129c -7.02  -4.90c
iter:  41 12:43:42  -315.499129c -6.99  -4.84c
iter:  42 12:43:50  -315.499129c -6.93  -4.86c
iter:  43 12:43:57  -315.499129c -7.07  -4.98c
iter:  44 12:44:05  -315.499129c -7.05  -5.00c
Writing to output.gpw (mode='')

iter:  45 12:44:12  -315.499129c -7.38  -5.05c
iter:  46 12:44:20  -315.499129c -7.16  -5.03c
iter:  47 12:44:27  -315.499129c -7.61c -5.07c

Converged after 47 iterations.

Dipole moment: (-11.993498, -3.415450, 0.120499) |e|*Ang

Energy contributions relative to reference atoms: (reference = -16475.706344)

Kinetic:       +214.970147
Potential:     -191.185301
External:        +0.000000
XC:            -340.253276
Entropy (-ST):   -0.144651
Local:           +1.041626
--------------------------
Free energy:   -315.571454
Extrapolated:  -315.499129

Dipole-layer corrected work functions: 3.386079, 3.154440 eV

Showing only first 2 kpts
 Kpt  Band  Eigenvalues  Occupancy
  0    34     -3.51596    1.98542
  0    35     -3.39411    1.84503
  0    36     -3.11664    0.08852
  0    37     -3.01323    0.01164

  1    34     -3.31222    1.39663
  1    35     -3.28144    1.11136
  1    36     -3.24220    0.72653
  1    37     -3.17158    0.24400


Fermi level: -3.27026

No gap
Writing to output.gpw (mode='')


Forces in eV/Ang:
  0 Li    0.01290   -0.00107   -0.27474
  1 Li    0.00026   -0.00218   -0.26480
  2 Li   -0.01244    0.00184   -0.27440
  3 Li    0.00217    0.00938   -0.27115
  4 Li   -0.00034    0.00228   -0.28128
  5 Li   -0.00162    0.00542   -0.27127
  6 Li    0.00614   -0.00781   -0.27184
  7 Li   -0.00293    0.00217   -0.27999
  8 Li   -0.00320   -0.00689   -0.26945
  9 Li    0.00083    0.01999    0.31029
 10 Li    0.02061   -0.01145    0.25019
 11 Li   -0.02154   -0.00281    0.25159
 12 Li    0.00205   -0.01533    0.30360
 13 Li    0.01763    0.00789    0.25795
 14 Li   -0.01995    0.00521    0.25612
 15 Li   -0.00388   -0.00234    0.24515
 16 Li   -0.02685    0.00201    0.26154
 17 Li    0.02967   -0.00325    0.27473
 18 Li    0.06113   -0.00038   -0.08550
 19 Li   -0.00684   -0.00126    0.04591
 20 Li   -0.05746    0.00046   -0.06838
 21 Li   -0.01487   -0.01762    0.05231
 22 Li   -0.00423    0.01068    0.02193
 23 Li    0.01872   -0.02708    0.06595
 24 Li   -0.01964    0.01694    0.05087
 25 Li    0.00013   -0.01130    0.03570
 26 Li    0.01948    0.02598    0.05484
 27 Li    0.02632    0.16519    0.13505
 28 Li    0.04632   -0.02972   -0.04600
 29 Li   -0.04214   -0.01678   -0.02040
 30 Li   -0.00427   -0.16785    0.04361
 31 Li    0.04067    0.03359   -0.04199
 32 Li   -0.01446    0.02561   -0.00225
 33 Li   -0.00714   -0.02499   -0.00658
 34 Li   -0.01202   -0.00178   -0.01475
 35 Li    0.01957   -0.00713   -0.00279
 36 O     0.10266    0.44166   14.29294
 37 O     0.03736   -0.09017   -0.22139
 38 C    -2.63169    4.11472    3.19919
 39 C    -0.29292    0.10071    0.71943
 40 H     0.29654    0.05774    0.30764
 41 H    -2.07114    3.26000    1.91257
 42 H     0.07419    0.01775   -0.03788
 43 H    -0.18581   -0.00839   -0.13222
 44 H     0.65792    0.77536    6.34706
 45 H    -0.14403   -0.13037    0.09640
 46 N     2.40553   -1.67079  -10.99333
 47 N     1.68684   -6.89636  -15.63867

System changes: positions 

Initializing position-dependent things.

Density initialized from wave functions
       .-----------------------.  
      /|                       |  
     / |                       |  
    /  |                       |  
   /   |                       |  
  /    |                       |  
 *     |                       |  
 |     |                       |  
 |     |                       |  
 |     |                       |  
 |     |                       |  
 |     |              H        |  
 |H    |                   H   |  
 |     |             C   C     |  
 |     |       Li  OH  Li O    |  
 |N    |                 H     |  
 |     |     Li      Li      Li|  
 |N    |  Li      Li      Li   |  
 | Li  |   Li      Li          |  
 |     |Li      Li      Li     |  
 Li    |                       |  
 |   LLi     LLi     LLi       |  
 |     |  Li      Li      Li   |  
 | Li  |   Li      Li          |  
 |     |Li      Li      Li     |  
 Li    | Li      Li            |  
 |    Li      Li      Li       |  
 |     |                       |  
 |     |                       |  
 |     |                       |  
 |     |                       |  
 |     |                       |  
 |     |                       |  
 |     .-----------------------.  
 |    /                       /   
 |   /                       /    
 |  /                       /     
 | /                       /      
 |/                       /       
 *-----------------------*        

Positions:
   0 Li     1.617037    1.617037   10.000000    ( 0.0000,  0.0000,  0.0000)
   1 Li     4.851111    1.617037   10.000000    ( 0.0000,  0.0000,  0.0000)
   2 Li     8.085185    1.617037   10.000000    ( 0.0000,  0.0000,  0.0000)
   3 Li     1.617037    4.851111   10.000000    ( 0.0000,  0.0000,  0.0000)
   4 Li     4.851111    4.851111   10.000000    ( 0.0000,  0.0000,  0.0000)
   5 Li     8.085185    4.851111   10.000000    ( 0.0000,  0.0000,  0.0000)
   6 Li     1.617037    8.085185   10.000000    ( 0.0000,  0.0000,  0.0000)
   7 Li     4.851111    8.085185   10.000000    ( 0.0000,  0.0000,  0.0000)
   8 Li     8.085185    8.085185   10.000000    ( 0.0000,  0.0000,  0.0000)
   9 Li     0.000000    0.000000   11.617037    ( 0.0000,  0.0000,  0.0000)
  10 Li     3.234074    0.000000   11.617037    ( 0.0000,  0.0000,  0.0000)
  11 Li     6.468148    0.000000   11.617037    ( 0.0000,  0.0000,  0.0000)
  12 Li     0.000000    3.234074   11.617037    ( 0.0000,  0.0000,  0.0000)
  13 Li     3.234074    3.234074   11.617037    ( 0.0000,  0.0000,  0.0000)
  14 Li     6.468148    3.234074   11.617037    ( 0.0000,  0.0000,  0.0000)
  15 Li     0.000000    6.468148   11.617037    ( 0.0000,  0.0000,  0.0000)
  16 Li     3.234074    6.468148   11.617037    ( 0.0000,  0.0000,  0.0000)
  17 Li     6.468148    6.468148   11.617037    ( 0.0000,  0.0000,  0.0000)
  18 Li     1.617369    1.617032   13.469266    ( 0.0000,  0.0000,  0.0000)
  19 Li     4.851075    1.617030   13.469978    ( 0.0000,  0.0000,  0.0000)
  20 Li     8.084884    1.617047   13.469360    ( 0.0000,  0.0000,  0.0000)
  21 Li     1.616957    4.851007   13.470013    ( 0.0000,  0.0000,  0.0000)
  22 Li     4.851093    4.851176   13.469837    ( 0.0000,  0.0000,  0.0000)
  23 Li     8.085282    4.850966   13.470082    ( 0.0000,  0.0000,  0.0000)
  24 Li     1.616935    8.085289   13.469999    ( 0.0000,  0.0000,  0.0000)
  25 Li     4.851116    8.085118   13.469902    ( 0.0000,  0.0000,  0.0000)
  26 Li     8.085282    8.085319   13.470010    ( 0.0000,  0.0000,  0.0000)
  27 Li     0.000116    0.000746   15.446503    ( 0.0000,  0.0000,  0.0000)
  28 Li     3.234335   -0.000163   15.445681    ( 0.0000,  0.0000,  0.0000)
  29 Li     6.467900   -0.000102   15.445809    ( 0.0000,  0.0000,  0.0000)
  30 Li     0.000010    3.233276   15.446000    ( 0.0000,  0.0000,  0.0000)
  31 Li     3.234323    3.234264   15.445691    ( 0.0000,  0.0000,  0.0000)
  32 Li     6.468017    3.234226   15.445874    ( 0.0000,  0.0000,  0.0000)
  33 Li    -0.000038    6.468026   15.445894    ( 0.0000,  0.0000,  0.0000)
  34 Li     3.234011    6.468131   15.445866    ( 0.0000,  0.0000,  0.0000)
  35 Li     6.468251    6.468107   15.445920    ( 0.0000,  0.0000,  0.0000)
  36 O     -0.000371    1.621833   19.716073    ( 0.0000,  0.0000,  0.0000)
  37 O     -2.897953    1.660625   19.412212    ( 0.0000,  0.0000,  0.0000)
  38 C     -0.739075    2.804106   19.249564    ( 0.0000,  0.0000,  0.0000)
  39 C     -2.139557    2.803084   19.805931    ( 0.0000,  0.0000,  0.0000)
  40 H     -0.199009    3.703924   19.528023    ( 0.0000,  0.0000,  0.0000)
  41 H     -0.770944    2.756119   18.154762    ( 0.0000,  0.0000,  0.0000)
  42 H     -2.674328    3.676262   19.426209    ( 0.0000,  0.0000,  0.0000)
  43 H     -2.089070    2.877417   20.901475    ( 0.0000,  0.0000,  0.0000)
  44 H      0.171014    1.696086   20.622519    ( 0.0000,  0.0000,  0.0000)
  45 H     -2.319286    0.893317   19.510113    ( 0.0000,  0.0000,  0.0000)
  46 N      0.010309    1.610218   17.135938    ( 0.0000,  0.0000,  0.0000)
  47 N      0.009955    1.581688   18.222287    ( 0.0000,  0.0000,  0.0000)

Unit cell:
           periodic     x           y           z      points  spacing
  1. axis:    yes    9.702222    0.000000    0.000000    60     0.1617
  2. axis:    yes    0.000000    9.702222    0.000000    60     0.1617
  3. axis:    no     0.000000    0.000000   26.601111   168     0.1583

  Lengths:   9.702222   9.702222  26.601111
  Angles:   90.000000  90.000000  90.000000

Effective grid spacing dv^(1/3) = 0.1606

     iter     time        total  log10-change:
                         energy  eigst   dens
iter:   1 12:44:36  -317.388027  -0.51
iter:   2 12:44:44  -317.345550  -0.86  -1.62
iter:   3 12:44:51  -317.322063  -1.43  -1.75
iter:   4 12:45:04  -317.330117c -1.65  -2.06
Writing to output.gpw (mode='')

iter:   5 12:45:20  -317.297797c -1.19  -2.03
iter:   6 12:45:29  -317.295025c -1.98  -1.96
iter:   7 12:45:36  -317.289452c -2.23  -2.02
iter:   8 12:45:44  -317.285776c -1.74  -2.16
iter:   9 12:45:51  -317.288355c -1.69  -2.39
Writing to output.gpw (mode='')

iter:  10 12:45:59  -317.288411c -2.35  -2.47
iter:  11 12:46:06  -317.287480c -2.56  -2.54
iter:  12 12:46:14  -317.288297c -3.01  -2.49
iter:  13 12:46:21  -317.287491c -2.59  -2.48
iter:  14 12:46:29  -317.288437c -2.75  -2.46
Writing to output.gpw (mode='')

iter:  15 12:46:36  -317.287862c -2.57  -2.43
iter:  16 12:46:43  -317.285579c -2.95  -2.38
iter:  17 12:46:51  -317.285122c -2.29  -2.62
iter:  18 12:46:58  -317.285030c -3.02  -2.74
iter:  19 12:47:06  -317.285340c -2.98  -2.90
Writing to output.gpw (mode='')

iter:  20 12:47:13  -317.284870c -2.99  -2.79
iter:  21 12:47:21  -317.284884c -3.45  -3.08
iter:  22 12:47:28  -317.284872c -4.16  -3.12
iter:  23 12:47:36  -317.284885c -4.32  -3.49
iter:  24 12:47:43  -317.284885c -4.38  -3.60
Writing to output.gpw (mode='')

iter:  25 12:47:51  -317.284886c -4.68  -3.75
iter:  26 12:47:58  -317.284879c -4.99  -3.75
iter:  27 12:48:05  -317.284877c -5.42  -3.80
iter:  28 12:48:13  -317.284871c -5.21  -3.96
iter:  29 12:48:20  -317.284872c -5.59  -4.10c
Writing to output.gpw (mode='')

iter:  30 12:48:28  -317.284872c -6.00  -4.17c
iter:  31 12:48:35  -317.284872c -6.18  -4.22c
iter:  32 12:48:43  -317.284870c -5.89  -4.33c
iter:  33 12:48:50  -317.284871c -6.25  -4.39c
iter:  34 12:48:58  -317.284871c -6.44  -4.49c
Writing to output.gpw (mode='')

iter:  35 12:49:05  -317.284872c -6.50  -4.51c
iter:  36 12:49:13  -317.284872c -6.72  -4.59c
iter:  37 12:49:20  -317.284873c -6.50  -4.63c
iter:  38 12:49:28  -317.284873c -6.95  -4.84c
iter:  39 12:49:35  -317.284873c -7.08  -4.87c
Writing to output.gpw (mode='')

iter:  40 12:49:42  -317.284873c -7.02  -4.93c
iter:  41 12:49:50  -317.284873c -7.41c -5.11c

Converged after 41 iterations.

Dipole moment: (-13.047652, -3.409851, 0.233433) |e|*Ang

Energy contributions relative to reference atoms: (reference = -16475.706344)

Kinetic:       +210.326353
Potential:     -188.599726
External:        +0.000000
XC:            -339.991272
Entropy (-ST):   -0.143978
Local:           +1.051761
--------------------------
Free energy:   -317.356862
Extrapolated:  -317.284873

Dipole-layer corrected work functions: 3.385115, 2.936378 eV

Showing only first 2 kpts
 Kpt  Band  Eigenvalues  Occupancy
  0    34     -3.40671    1.98550
  0    35     -3.28581    1.84846
  0    36     -3.00580    0.08631
  0    37     -2.90397    0.01170

  1    34     -3.20156    1.38686
  1    35     -3.17027    1.09491
  1    36     -3.13374    0.73630
  1    37     -3.05947    0.23309


Fermi level: -3.16075

No gap
Writing to output.gpw (mode='')


Forces in eV/Ang:
  0 Li    0.01348   -0.00112   -0.27469
  1 Li   -0.00054   -0.00206   -0.26409
  2 Li   -0.01242    0.00177   -0.27415
  3 Li    0.00213    0.00935   -0.27108
  4 Li   -0.00030    0.00249   -0.28106
  5 Li   -0.00155    0.00616   -0.27114
  6 Li    0.00602   -0.00777   -0.27195
  7 Li   -0.00282    0.00208   -0.28014
  8 Li   -0.00305   -0.00764   -0.26951
  9 Li    0.00065    0.02027    0.31187
 10 Li    0.02137   -0.01128    0.24932
 11 Li   -0.02194   -0.00316    0.25205
 12 Li    0.00203   -0.01575    0.30576
 13 Li    0.01832    0.00777    0.25722
 14 Li   -0.02040    0.00545    0.25644
 15 Li   -0.00390   -0.00184    0.24390
 16 Li   -0.02722    0.00192    0.26237
 17 Li    0.02997   -0.00317    0.27418
 18 Li    0.06436   -0.00057   -0.09018
 19 Li   -0.00659   -0.00145    0.04734
 20 Li   -0.05981    0.00054   -0.07412
 21 Li   -0.01583   -0.01905    0.05347
 22 Li   -0.00388    0.01112    0.02157
 23 Li    0.01932   -0.02730    0.06677
 24 Li   -0.02017    0.01829    0.05107
 25 Li    0.00031   -0.01180    0.03549
 26 Li    0.01969    0.02649    0.05475
 27 Li    0.02570    0.16197    0.12721
 28 Li    0.04883   -0.03033   -0.04790
 29 Li   -0.04610   -0.01875   -0.02311
 30 Li   -0.00309   -0.17825    0.04136
 31 Li    0.04455    0.03496   -0.04501
 32 Li   -0.01985    0.02772   -0.00650
 33 Li   -0.00745   -0.02529   -0.00888
 34 Li   -0.01175   -0.00229   -0.01523
 35 Li    0.01978   -0.00758   -0.00352
 36 O    -0.35233    0.82097   11.63417
 37 O     0.03736   -0.05661   -0.18786
 38 C    -2.03349    3.26583    3.05635
 39 C    -0.31294    0.12960    0.61805
 40 H     0.23541    0.18434    0.29638
 41 H    -1.77050    2.78998    1.95646
 42 H     0.01222    0.04260   -0.02181
 43 H    -0.20927    0.00179   -0.04272
 44 H     0.52495    0.96920    6.18139
 45 H    -0.10184   -0.11220    0.07932
 46 N     1.81800   -1.11199   -9.11617
 47 N     2.01409   -6.85024  -14.57678

System changes: positions 

Initializing position-dependent things.

Density initialized from wave functions
       .-----------------------.  
      /|                       |  
     / |                       |  
    /  |                       |  
   /   |                       |  
  /    |                       |  
 *     |                       |  
 |     |                       |  
 |     |                       |  
 |     |                       |  
 |     |                       |  
 |     |              H        |  
 |H    |                   H   |  
 |     |             C   C     |  
 |     |       Li  OH  Li O    |  
 |N    |                 H     |  
 |     |     Li      Li      Li|  
 |N    |  Li      Li      Li   |  
 | Li  |   Li      Li          |  
 |     |Li      Li      Li     |  
 Li    |                       |  
 |   LLi     LLi     LLi       |  
 |     |  Li      Li      Li   |  
 | Li  |   Li      Li          |  
 |     |Li      Li      Li     |  
 Li    | Li      Li            |  
 |    Li      Li      Li       |  
 |     |                       |  
 |     |                       |  
 |     |                       |  
 |     |                       |  
 |     |                       |  
 |     |                       |  
 |     .-----------------------.  
 |    /                       /   
 |   /                       /    
 |  /                       /     
 | /                       /      
 |/                       /       
 *-----------------------*        

Positions:
   0 Li     1.617037    1.617037   10.000000    ( 0.0000,  0.0000,  0.0000)
   1 Li     4.851111    1.617037   10.000000    ( 0.0000,  0.0000,  0.0000)
   2 Li     8.085185    1.617037   10.000000    ( 0.0000,  0.0000,  0.0000)
   3 Li     1.617037    4.851111   10.000000    ( 0.0000,  0.0000,  0.0000)
   4 Li     4.851111    4.851111   10.000000    ( 0.0000,  0.0000,  0.0000)
   5 Li     8.085185    4.851111   10.000000    ( 0.0000,  0.0000,  0.0000)
   6 Li     1.617037    8.085185   10.000000    ( 0.0000,  0.0000,  0.0000)
   7 Li     4.851111    8.085185   10.000000    ( 0.0000,  0.0000,  0.0000)
   8 Li     8.085185    8.085185   10.000000    ( 0.0000,  0.0000,  0.0000)
   9 Li     0.000000    0.000000   11.617037    ( 0.0000,  0.0000,  0.0000)
  10 Li     3.234074    0.000000   11.617037    ( 0.0000,  0.0000,  0.0000)
  11 Li     6.468148    0.000000   11.617037    ( 0.0000,  0.0000,  0.0000)
  12 Li     0.000000    3.234074   11.617037    ( 0.0000,  0.0000,  0.0000)
  13 Li     3.234074    3.234074   11.617037    ( 0.0000,  0.0000,  0.0000)
  14 Li     6.468148    3.234074   11.617037    ( 0.0000,  0.0000,  0.0000)
  15 Li     0.000000    6.468148   11.617037    ( 0.0000,  0.0000,  0.0000)
  16 Li     3.234074    6.468148   11.617037    ( 0.0000,  0.0000,  0.0000)
  17 Li     6.468148    6.468148   11.617037    ( 0.0000,  0.0000,  0.0000)
  18 Li     1.617626    1.617025   13.468904    ( 0.0000,  0.0000,  0.0000)
  19 Li     4.851053    1.617022   13.470163    ( 0.0000,  0.0000,  0.0000)
  20 Li     8.084662    1.617056   13.469055    ( 0.0000,  0.0000,  0.0000)
  21 Li     1.616891    4.850917   13.470219    ( 0.0000,  0.0000,  0.0000)
  22 Li     4.851087    4.851228   13.469902    ( 0.0000,  0.0000,  0.0000)
  23 Li     8.085354    4.850866   13.470331    ( 0.0000,  0.0000,  0.0000)
  24 Li     1.616861    8.085380   13.470185    ( 0.0000,  0.0000,  0.0000)
  25 Li     4.851123    8.085065   13.470009    ( 0.0000,  0.0000,  0.0000)
  26 Li     8.085348    8.085415   13.470197    ( 0.0000,  0.0000,  0.0000)
  27 Li     0.000176    0.001152   15.446732    ( 0.0000,  0.0000,  0.0000)
  28 Li     3.234543   -0.000282   15.445481    ( 0.0000,  0.0000,  0.0000)
  29 Li     6.467681   -0.000196   15.445685    ( 0.0000,  0.0000,  0.0000)
  30 Li     0.000046    3.232689   15.445928    ( 0.0000,  0.0000,  0.0000)
  31 Li     3.234544    3.234409   15.445482    ( 0.0000,  0.0000,  0.0000)
  32 Li     6.467852    3.234355   15.445764    ( 0.0000,  0.0000,  0.0000)
  33 Li    -0.000066    6.467945   15.445837    ( 0.0000,  0.0000,  0.0000)
  34 Li     3.233968    6.468115   15.445816    ( 0.0000,  0.0000,  0.0000)
  35 Li     6.468326    6.468077   15.445900    ( 0.0000,  0.0000,  0.0000)
  36 O     -0.005302    1.629902   19.736204    ( 0.0000,  0.0000,  0.0000)
  37 O     -2.897762    1.660698   19.411887    ( 0.0000,  0.0000,  0.0000)
  38 C     -0.738860    2.803854   19.258600    ( 0.0000,  0.0000,  0.0000)
  39 C     -2.141109    2.804457   19.806861    ( 0.0000,  0.0000,  0.0000)
  40 H     -0.198681    3.706489   19.529023    ( 0.0000,  0.0000,  0.0000)
  41 H     -0.773994    2.760956   18.162816    ( 0.0000,  0.0000,  0.0000)
  42 H     -2.674943    3.676510   19.426438    ( 0.0000,  0.0000,  0.0000)
  43 H     -2.090037    2.877506   20.902313    ( 0.0000,  0.0000,  0.0000)
  44 H      0.169847    1.701177   20.638498    ( 0.0000,  0.0000,  0.0000)
  45 H     -2.319160    0.893135   19.510196    ( 0.0000,  0.0000,  0.0000)
  46 N      0.010587    1.611872   17.111531    ( 0.0000,  0.0000,  0.0000)
  47 N      0.020272    1.558805   18.191143    ( 0.0000,  0.0000,  0.0000)

Unit cell:
           periodic     x           y           z      points  spacing
  1. axis:    yes    9.702222    0.000000    0.000000    60     0.1617
  2. axis:    yes    0.000000    9.702222    0.000000    60     0.1617
  3. axis:    no     0.000000    0.000000   26.601111   168     0.1583

  Lengths:   9.702222   9.702222  26.601111
  Angles:   90.000000  90.000000  90.000000

Effective grid spacing dv^(1/3) = 0.1606

     iter     time        total  log10-change:
                         energy  eigst   dens
iter:   1 12:50:05  -318.638623  -0.86
iter:   2 12:50:23  -318.539433  -0.93  -1.56
iter:   3 12:50:31  -318.501194  -1.66  -1.72
iter:   4 12:50:38  -318.489682  -1.06  -2.16
Writing to output.gpw (mode='')

iter:   5 12:50:46  -318.487477c -1.93  -2.15
iter:   6 12:50:53  -318.489369c -1.88  -2.35
iter:   7 12:51:01  -318.486805c -1.86  -2.32
iter:   8 12:51:08  -318.485074c -2.50  -2.56
iter:   9 12:51:16  -318.485159c -2.49  -2.77
Writing to output.gpw (mode='')

iter:  10 12:51:23  -318.485342c -3.01  -2.84
iter:  11 12:51:31  -318.485326c -3.28  -2.97
iter:  12 12:51:38  -318.485267c -3.45  -2.99
iter:  13 12:51:46  -318.485260c -3.72  -3.02
iter:  14 12:51:53  -318.485204c -3.65  -3.07
Writing to output.gpw (mode='')

iter:  15 12:52:01  -318.485197c -4.08  -3.36
iter:  16 12:52:09  -318.485188c -3.96  -3.42
iter:  17 12:52:16  -318.485188c -4.10  -3.54
iter:  18 12:52:24  -318.485191c -4.69  -3.75
iter:  19 12:52:31  -318.485196c -4.88  -3.83
Writing to output.gpw (mode='')

iter:  20 12:52:39  -318.485198c -4.89  -3.88
iter:  21 12:52:46  -318.485208c -4.86  -4.02c
iter:  22 12:52:54  -318.485209c -5.29  -4.12c
iter:  23 12:53:01  -318.485206c -5.15  -4.12c
iter:  24 12:53:09  -318.485209c -5.54  -4.17c
Writing to output.gpw (mode='')

iter:  25 12:53:17  -318.485208c -5.53  -4.23c
iter:  26 12:53:27  -318.485207c -5.34  -4.38c
iter:  27 12:53:39  -318.485207c -5.64  -4.59c
iter:  28 12:53:48  -318.485207c -6.02  -4.62c
iter:  29 12:53:56  -318.485208c -6.07  -4.67c
Writing to output.gpw (mode='')

iter:  30 12:54:03  -318.485208c -6.23  -4.73c
iter:  31 12:54:11  -318.485207c -6.02  -4.83c
iter:  32 12:54:18  -318.485207c -6.57  -4.86c
iter:  33 12:54:26  -318.485209c -6.44  -4.93c
iter:  34 12:54:33  -318.485208c -6.57  -4.85c
Writing to output.gpw (mode='')

iter:  35 12:54:41  -318.485208c -6.79  -5.25c
iter:  36 12:54:48  -318.485208c -6.58  -5.35c
iter:  37 12:55:03  -318.485208c -6.96  -5.51c
iter:  38 12:55:22  -318.485208c -6.97  -5.49c
iter:  39 12:55:30  -318.485208c -7.13  -5.51c
Writing to output.gpw (mode='')

iter:  40 12:55:37  -318.485208c -7.16  -5.59c
iter:  41 12:55:45  -318.485208c -7.30  -5.72c
iter:  42 12:55:52  -318.485208c -7.31  -5.73c
iter:  43 12:56:00  -318.485208c -7.40c -5.88c

Converged after 43 iterations.

Dipole moment: (-13.599563, -3.429276, 0.281762) |e|*Ang

Energy contributions relative to reference atoms: (reference = -16475.706344)

Kinetic:       +207.736915
Potential:     -187.295761
External:        +0.000000
XC:            -339.911956
Entropy (-ST):   -0.143540
Local:           +1.057364
--------------------------
Free energy:   -318.556978
Extrapolated:  -318.485208

Dipole-layer corrected work functions: 3.384925, 2.843282 eV

Showing only first 2 kpts
 Kpt  Band  Eigenvalues  Occupancy
  0    34     -3.36012    1.98551
  0    35     -3.24008    1.85099
  0    36     -2.95789    0.08424
  0    37     -2.85762    0.01177

  1    34     -3.15397    1.37882
  1    35     -3.12239    1.08263
  1    36     -3.08734    0.73856
  1    37     -3.01133    0.22702


Fermi level: -3.11410

No gap
Writing to output.gpw (mode='')


Forces in eV/Ang:
  0 Li    0.01389   -0.00119   -0.27440
  1 Li   -0.00111   -0.00188   -0.26366
  2 Li   -0.01243    0.00162   -0.27386
  3 Li    0.00214    0.00928   -0.27090
  4 Li   -0.00021    0.00264   -0.28098
  5 Li   -0.00150    0.00678   -0.27100
  6 Li    0.00583   -0.00769   -0.27194
  7 Li   -0.00259    0.00204   -0.28037
  8 Li   -0.00288   -0.00817   -0.26954
  9 Li    0.00048    0.02033    0.31211
 10 Li    0.02212   -0.01113    0.24858
 11 Li   -0.02227   -0.00358    0.25202
 12 Li    0.00201   -0.01607    0.30699
 13 Li    0.01897    0.00770    0.25651
 14 Li   -0.02071    0.00578    0.25629
 15 Li   -0.00389   -0.00116    0.24305
 16 Li   -0.02769    0.00181    0.26287
 17 Li    0.03019   -0.00312    0.27379
 18 Li    0.06558   -0.00086   -0.08962
 19 Li   -0.00596   -0.00152    0.04751
 20 Li   -0.06105    0.00047   -0.07703
 21 Li   -0.01659   -0.02002    0.05446
 22 Li   -0.00377    0.01146    0.02129
 23 Li    0.01978   -0.02751    0.06744
 24 Li   -0.02038    0.01931    0.05174
 25 Li    0.00034   -0.01233    0.03507
 26 Li    0.01959    0.02697    0.05525
 27 Li    0.02302    0.14185    0.09728
 28 Li    0.04914   -0.03000   -0.04960
 29 Li   -0.04884   -0.02032   -0.02540
 30 Li   -0.00279   -0.17585    0.02810
 31 Li    0.04597    0.03499   -0.04703
 32 Li   -0.02314    0.02884   -0.00913
 33 Li   -0.00756   -0.02508   -0.00959
 34 Li   -0.01170   -0.00262   -0.01513
 35 Li    0.02004   -0.00751   -0.00378
 36 O    -0.50129    0.91200    9.90464
 37 O     0.03717   -0.04752   -0.17641
 38 C    -1.78041    2.94566    2.82555
 39 C    -0.28404    0.13230    0.59473
 40 H     0.17512    0.21487    0.28829
 41 H    -1.56489    2.46689    2.03097
 42 H    -0.02507    0.06520   -0.02289
 43 H    -0.22963    0.01085   -0.00802
 44 H     0.36846    1.04796    5.50991
 45 H    -0.08426   -0.09203    0.07555
 46 N     1.52079   -0.73784   -9.26368
 47 N     2.28969   -6.86086  -11.83425

System changes: positions 

Initializing position-dependent things.

Density initialized from wave functions
       .-----------------------.  
      /|                       |  
     / |                       |  
    /  |                       |  
   /   |                       |  
  /    |                       |  
 *     |                       |  
 |     |                       |  
 |     |                       |  
 |     |                       |  
 |     |                       |  
 |     |              H        |  
 |H    |                   H   |  
 |     |             C   CO    |  
 |     |       Li  OH  Li      |  
 |     |                 H     |  
 |N    |     Li      Li      Li|  
 |N    |  Li      Li      Li   |  
 | Li  |   Li      Li          |  
 |     |Li      Li      Li     |  
 Li    |                       |  
 |   LLi     LLi     LLi       |  
 |     |  Li      Li      Li   |  
 | Li  |   Li      Li          |  
 |     |Li      Li      Li     |  
 Li    | Li      Li            |  
 |    Li      Li      Li       |  
 |     |                       |  
 |     |                       |  
 |     |                       |  
 |     |                       |  
 |     |                       |  
 |     |                       |  
 |     .-----------------------.  
 |    /                       /   
 |   /                       /    
 |  /                       /     
 | /                       /      
 |/                       /       
 *-----------------------*        

Positions:
   0 Li     1.617037    1.617037   10.000000    ( 0.0000,  0.0000,  0.0000)
   1 Li     4.851111    1.617037   10.000000    ( 0.0000,  0.0000,  0.0000)
   2 Li     8.085185    1.617037   10.000000    ( 0.0000,  0.0000,  0.0000)
   3 Li     1.617037    4.851111   10.000000    ( 0.0000,  0.0000,  0.0000)
   4 Li     4.851111    4.851111   10.000000    ( 0.0000,  0.0000,  0.0000)
   5 Li     8.085185    4.851111   10.000000    ( 0.0000,  0.0000,  0.0000)
   6 Li     1.617037    8.085185   10.000000    ( 0.0000,  0.0000,  0.0000)
   7 Li     4.851111    8.085185   10.000000    ( 0.0000,  0.0000,  0.0000)
   8 Li     8.085185    8.085185   10.000000    ( 0.0000,  0.0000,  0.0000)
   9 Li     0.000000    0.000000   11.617037    ( 0.0000,  0.0000,  0.0000)
  10 Li     3.234074    0.000000   11.617037    ( 0.0000,  0.0000,  0.0000)
  11 Li     6.468148    0.000000   11.617037    ( 0.0000,  0.0000,  0.0000)
  12 Li     0.000000    3.234074   11.617037    ( 0.0000,  0.0000,  0.0000)
  13 Li     3.234074    3.234074   11.617037    ( 0.0000,  0.0000,  0.0000)
  14 Li     6.468148    3.234074   11.617037    ( 0.0000,  0.0000,  0.0000)
  15 Li     0.000000    6.468148   11.617037    ( 0.0000,  0.0000,  0.0000)
  16 Li     3.234074    6.468148   11.617037    ( 0.0000,  0.0000,  0.0000)
  17 Li     6.468148    6.468148   11.617037    ( 0.0000,  0.0000,  0.0000)
  18 Li     1.617946    1.617016   13.468482    ( 0.0000,  0.0000,  0.0000)
  19 Li     4.851032    1.617013   13.470384    ( 0.0000,  0.0000,  0.0000)
  20 Li     8.084371    1.617060   13.468659    ( 0.0000,  0.0000,  0.0000)
  21 Li     1.616806    4.850809   13.470476    ( 0.0000,  0.0000,  0.0000)
  22 Li     4.851075    4.851287   13.469989    ( 0.0000,  0.0000,  0.0000)
  23 Li     8.085448    4.850741   13.470640    ( 0.0000,  0.0000,  0.0000)
  24 Li     1.616766    8.085486   13.470421    ( 0.0000,  0.0000,  0.0000)
  25 Li     4.851127    8.085002   13.470154    ( 0.0000,  0.0000,  0.0000)
  26 Li     8.085434    8.085540   13.470443    ( 0.0000,  0.0000,  0.0000)
  27 Li     0.000247    0.001574   15.446851    ( 0.0000,  0.0000,  0.0000)
  28 Li     3.234783   -0.000418   15.445233    ( 0.0000,  0.0000,  0.0000)
  29 Li     6.467414   -0.000313   15.445533    ( 0.0000,  0.0000,  0.0000)
  30 Li     0.000053    3.231900   15.445886    ( 0.0000,  0.0000,  0.0000)
  31 Li     3.234790    3.234575   15.445233    ( 0.0000,  0.0000,  0.0000)
  32 Li     6.467678    3.234507   15.445663    ( 0.0000,  0.0000,  0.0000)
  33 Li    -0.000102    6.467837   15.445773    ( 0.0000,  0.0000,  0.0000)
  34 Li     3.233917    6.468096   15.445749    ( 0.0000,  0.0000,  0.0000)
  35 Li     6.468419    6.468042   15.445876    ( 0.0000,  0.0000,  0.0000)
  36 O     -0.011437    1.637553   19.750991    ( 0.0000,  0.0000,  0.0000)
  37 O     -2.897583    1.660764   19.411420    ( 0.0000,  0.0000,  0.0000)
  38 C     -0.740433    2.807855   19.268349    ( 0.0000,  0.0000,  0.0000)
  39 C     -2.142360    2.805434   19.808564    ( 0.0000,  0.0000,  0.0000)
  40 H     -0.198728    3.708702   19.530180    ( 0.0000,  0.0000,  0.0000)
  41 H     -0.777324    2.766236   18.172822    ( 0.0000,  0.0000,  0.0000)
  42 H     -2.675755    3.677087   19.426479    ( 0.0000,  0.0000,  0.0000)
  43 H     -2.091356    2.877683   20.903162    ( 0.0000,  0.0000,  0.0000)
  44 H      0.168962    1.707614   20.655668    ( 0.0000,  0.0000,  0.0000)
  45 H     -2.319101    0.893006   19.510380    ( 0.0000,  0.0000,  0.0000)
  46 N      0.011092    1.615109   17.079185    ( 0.0000,  0.0000,  0.0000)
  47 N      0.034580    1.528978   18.168657    ( 0.0000,  0.0000,  0.0000)

Unit cell:
           periodic     x           y           z      points  spacing
  1. axis:    yes    9.702222    0.000000    0.000000    60     0.1617
  2. axis:    yes    0.000000    9.702222    0.000000    60     0.1617
  3. axis:    no     0.000000    0.000000   26.601111   168     0.1583

  Lengths:   9.702222   9.702222  26.601111
  Angles:   90.000000  90.000000  90.000000

Effective grid spacing dv^(1/3) = 0.1606

     iter     time        total  log10-change:
                         energy  eigst   dens
iter:   1 12:56:09  -319.590733  -0.87
iter:   2 12:56:17  -319.586013  -1.46  -1.97
iter:   3 12:56:24  -319.581831c -1.96  -2.11
iter:   4 12:56:32  -319.572784c -1.39  -2.37
Writing to output.gpw (mode='')

iter:   5 12:56:39  -319.573677c -1.97  -2.40
iter:   6 12:56:47  -319.571282c -2.43  -2.44
iter:   7 12:56:54  -319.571507c -2.40  -2.75
iter:   8 12:57:05  -319.571571c -2.88  -2.81
iter:   9 12:57:12  -319.571606c -3.04  -2.86
Writing to output.gpw (mode='')

iter:  10 12:57:20  -319.571261c -3.12  -2.85
iter:  11 12:57:28  -319.571257c -3.74  -3.08
iter:  12 12:57:35  -319.571337c -3.39  -3.09
iter:  13 12:57:42  -319.571311c -3.20  -3.19
iter:  14 12:57:50  -319.571204c -4.08  -3.19
Writing to output.gpw (mode='')

iter:  15 12:57:58  -319.571253c -4.06  -3.55
iter:  16 12:58:05  -319.571244c -4.51  -3.52
iter:  17 12:58:12  -319.571230c -4.36  -3.67
iter:  18 12:58:20  -319.571231c -5.07  -3.84
iter:  19 12:58:28  -319.571226c -4.89  -3.89
Writing to output.gpw (mode='')

iter:  20 12:58:35  -319.571223c -4.99  -4.01c
iter:  21 12:58:43  -319.571223c -5.21  -4.04c
iter:  22 12:58:50  -319.571226c -5.39  -4.08c
iter:  23 12:58:58  -319.571226c -5.52  -4.31c
iter:  24 12:59:05  -319.571226c -5.61  -4.37c
Writing to output.gpw (mode='')

iter:  25 12:59:13  -319.571226c -5.74  -4.41c
iter:  26 12:59:20  -319.571227c -5.99  -4.60c
iter:  27 12:59:28  -319.571227c -6.20  -4.57c
iter:  28 12:59:35  -319.571228c -6.30  -4.75c
iter:  29 12:59:43  -319.571228c -6.25  -4.91c
Writing to output.gpw (mode='')

iter:  30 12:59:50  -319.571228c -6.83  -4.99c
iter:  31 13:00:03  -319.571227c -6.59  -5.02c
iter:  32 13:00:22  -319.571227c -6.76  -5.09c
iter:  33 13:00:30  -319.571228c -6.72  -5.22c
iter:  34 13:00:37  -319.571228c -6.83  -5.36c
Writing to output.gpw (mode='')

iter:  35 13:00:45  -319.571228c -7.25  -5.41c
iter:  36 13:00:52  -319.571228c -7.42c -5.42c

Converged after 36 iterations.

Dipole moment: (-14.388388, -3.411967, 0.299732) |e|*Ang

Energy contributions relative to reference atoms: (reference = -16475.706344)

Kinetic:       +202.293105
Potential:     -183.639141
External:        +0.000000
XC:            -339.215851
Entropy (-ST):   -0.143235
Local:           +1.062276
--------------------------
Free energy:   -319.642845
Extrapolated:  -319.571228

Dipole-layer corrected work functions: 3.385713, 2.809526 eV

Showing only first 2 kpts
 Kpt  Band  Eigenvalues  Occupancy
  0    34     -3.34328    1.98541
  0    35     -3.22261    1.84826
  0    36     -2.94165    0.08463
  0    37     -2.84162    0.01188

  1    34     -3.13691    1.37383
  1    35     -3.10480    1.07172
  1    36     -3.07179    0.74725
  1    37     -2.99177    0.21490


Fermi level: -3.09762

No gap
Writing to output.gpw (mode='')


Forces in eV/Ang:
  0 Li    0.01427   -0.00134   -0.27414
  1 Li   -0.00159   -0.00175   -0.26309
  2 Li   -0.01243    0.00139   -0.27376
  3 Li    0.00244    0.00958   -0.27097
  4 Li   -0.00018    0.00329   -0.28121
  5 Li   -0.00162    0.00754   -0.27120
  6 Li    0.00600   -0.00784   -0.27225
  7 Li   -0.00247    0.00187   -0.28101
  8 Li   -0.00292   -0.00878   -0.26972
  9 Li    0.00035    0.02024    0.31308
 10 Li    0.02269   -0.01095    0.24821
 11 Li   -0.02252   -0.00398    0.25192
 12 Li    0.00193   -0.01614    0.30922
 13 Li    0.01932    0.00761    0.25636
 14 Li   -0.02066    0.00596    0.25675
 15 Li   -0.00393   -0.00022    0.24209
 16 Li   -0.02810    0.00153    0.26262
 17 Li    0.03028   -0.00302    0.27346
 18 Li    0.06638   -0.00108   -0.08945
 19 Li   -0.00546   -0.00158    0.04733
 20 Li   -0.06225    0.00004   -0.08053
 21 Li   -0.01740   -0.02008    0.05408
 22 Li   -0.00382    0.01089    0.02132
 23 Li    0.02034   -0.02684    0.06646
 24 Li   -0.02055    0.01928    0.05100
 25 Li    0.00023   -0.01225    0.03538
 26 Li    0.01955    0.02689    0.05462
 27 Li    0.02139    0.13229    0.08517
 28 Li    0.04795   -0.02881   -0.04958
 29 Li   -0.04975   -0.02060   -0.02533
 30 Li   -0.00397   -0.19145    0.03917
 31 Li    0.04536    0.03409   -0.04681
 32 Li   -0.02380    0.02844   -0.00801
 33 Li   -0.00750   -0.02541   -0.01138
 34 Li   -0.01086   -0.00287   -0.01568
 35 Li    0.01937   -0.00740   -0.00451
 36 O    -0.58252    1.03049    8.75492
 37 O     0.05166   -0.03064   -0.16406
 38 C    -1.53206    2.45998    2.42883
 39 C    -0.32488    0.18247    0.56536
 40 H     0.16835    0.31748    0.32327
 41 H    -1.32625    2.09397    1.96135
 42 H    -0.04910    0.06285   -0.00797
 43 H    -0.24993    0.01557    0.04027
 44 H     0.24361    1.07547    4.72014
 45 H    -0.06823   -0.07709    0.07091
 46 N     1.22836   -0.38764   -7.08581
 47 N     2.31973   -6.65364  -11.73125

System changes: positions 

Initializing position-dependent things.

Density initialized from wave functions
       .-----------------------.  
      /|                       |  
     / |                       |  
    /  |                       |  
   /   |                       |  
  /    |                       |  
 *     |                       |  
 |     |                       |  
 |     |                       |  
 |     |                       |  
 |     |                       |  
 |     |              H        |  
 |H    |                   H   |  
 |     |             C   CO    |  
 |     |       Li  OH  Li      |  
 |     |                 H     |  
 |N    |     Li      Li      Li|  
 |N    |  Li      Li      Li   |  
 | Li  |   Li      Li          |  
 |     |Li      Li      Li     |  
 Li    |                       |  
 |   LLi     LLi     LLi       |  
 |     |  Li      Li      Li   |  
 | Li  |   Li      Li          |  
 |     |Li      Li      Li     |  
 Li    | Li      Li            |  
 |    Li      Li      Li       |  
 |     |                       |  
 |     |                       |  
 |     |                       |  
 |     |                       |  
 |     |                       |  
 |     |                       |  
 |     .-----------------------.  
 |    /                       /   
 |   /                       /    
 |  /                       /     
 | /                       /      
 |/                       /       
 *-----------------------*        

Positions:
   0 Li     1.617037    1.617037   10.000000    ( 0.0000,  0.0000,  0.0000)
   1 Li     4.851111    1.617037   10.000000    ( 0.0000,  0.0000,  0.0000)
   2 Li     8.085185    1.617037   10.000000    ( 0.0000,  0.0000,  0.0000)
   3 Li     1.617037    4.851111   10.000000    ( 0.0000,  0.0000,  0.0000)
   4 Li     4.851111    4.851111   10.000000    ( 0.0000,  0.0000,  0.0000)
   5 Li     8.085185    4.851111   10.000000    ( 0.0000,  0.0000,  0.0000)
   6 Li     1.617037    8.085185   10.000000    ( 0.0000,  0.0000,  0.0000)
   7 Li     4.851111    8.085185   10.000000    ( 0.0000,  0.0000,  0.0000)
   8 Li     8.085185    8.085185   10.000000    ( 0.0000,  0.0000,  0.0000)
   9 Li     0.000000    0.000000   11.617037    ( 0.0000,  0.0000,  0.0000)
  10 Li     3.234074    0.000000   11.617037    ( 0.0000,  0.0000,  0.0000)
  11 Li     6.468148    0.000000   11.617037    ( 0.0000,  0.0000,  0.0000)
  12 Li     0.000000    3.234074   11.617037    ( 0.0000,  0.0000,  0.0000)
  13 Li     3.234074    3.234074   11.617037    ( 0.0000,  0.0000,  0.0000)
  14 Li     6.468148    3.234074   11.617037    ( 0.0000,  0.0000,  0.0000)
  15 Li     0.000000    6.468148   11.617037    ( 0.0000,  0.0000,  0.0000)
  16 Li     3.234074    6.468148   11.617037    ( 0.0000,  0.0000,  0.0000)
  17 Li     6.468148    6.468148   11.617037    ( 0.0000,  0.0000,  0.0000)
  18 Li     1.618274    1.617006   13.468059    ( 0.0000,  0.0000,  0.0000)
  19 Li     4.851015    1.617003   13.470608    ( 0.0000,  0.0000,  0.0000)
  20 Li     8.084068    1.617062   13.468234    ( 0.0000,  0.0000,  0.0000)
  21 Li     1.616713    4.850700   13.470734    ( 0.0000,  0.0000,  0.0000)
  22 Li     4.851062    4.851342   13.470079    ( 0.0000,  0.0000,  0.0000)
  23 Li     8.085548    4.850619   13.470948    ( 0.0000,  0.0000,  0.0000)
  24 Li     1.616669    8.085593   13.470656    ( 0.0000,  0.0000,  0.0000)
  25 Li     4.851131    8.084938   13.470305    ( 0.0000,  0.0000,  0.0000)
  26 Li     8.085521    8.085666   13.470687    ( 0.0000,  0.0000,  0.0000)
  27 Li     0.000303    0.001912   15.446869    ( 0.0000,  0.0000,  0.0000)
  28 Li     3.235014   -0.000547   15.444982    ( 0.0000,  0.0000,  0.0000)
  29 Li     6.467138   -0.000432   15.445382    ( 0.0000,  0.0000,  0.0000)
  30 Li     0.000053    3.230986   15.445927    ( 0.0000,  0.0000,  0.0000)
  31 Li     3.235033    3.234736   15.444984    ( 0.0000,  0.0000,  0.0000)
  32 Li     6.467499    3.234657   15.445572    ( 0.0000,  0.0000,  0.0000)
  33 Li    -0.000138    6.467725   15.445695    ( 0.0000,  0.0000,  0.0000)
  34 Li     3.233871    6.468075   15.445677    ( 0.0000,  0.0000,  0.0000)
  35 Li     6.468508    6.468007   15.445846    ( 0.0000,  0.0000,  0.0000)
  36 O     -0.017435    1.646001   19.762187    ( 0.0000,  0.0000,  0.0000)
  37 O     -2.897252    1.660914   19.410989    ( 0.0000,  0.0000,  0.0000)
  38 C     -0.740720    2.808588   19.274970    ( 0.0000,  0.0000,  0.0000)
  39 C     -2.144051    2.806959   19.810194    ( 0.0000,  0.0000,  0.0000)
  40 H     -0.198674    3.711795   19.531732    ( 0.0000,  0.0000,  0.0000)
  41 H     -0.779137    2.769149   18.182429    ( 0.0000,  0.0000,  0.0000)
  42 H     -2.676685    3.677574   19.426657    ( 0.0000,  0.0000,  0.0000)
  43 H     -2.092845    2.877882   20.904319    ( 0.0000,  0.0000,  0.0000)
  44 H      0.166936    1.714034   20.665880    ( 0.0000,  0.0000,  0.0000)
  45 H     -2.318967    0.892975   19.510553    ( 0.0000,  0.0000,  0.0000)
  46 N      0.010067    1.620478   17.061309    ( 0.0000,  0.0000,  0.0000)
  47 N      0.048771    1.500378   18.144560    ( 0.0000,  0.0000,  0.0000)

Unit cell:
           periodic     x           y           z      points  spacing
  1. axis:    yes    9.702222    0.000000    0.000000    60     0.1617
  2. axis:    yes    0.000000    9.702222    0.000000    60     0.1617
  3. axis:    no     0.000000    0.000000   26.601111   168     0.1583

  Lengths:   9.702222   9.702222  26.601111
  Angles:   90.000000  90.000000  90.000000

Effective grid spacing dv^(1/3) = 0.1606

     iter     time        total  log10-change:
                         energy  eigst   dens
iter:   1 13:01:01  -320.472923  -1.00
iter:   2 13:01:09  -320.415984  -1.14  -1.68
iter:   3 13:01:16  -320.392665  -1.91  -1.83
iter:   4 13:01:24  -320.388827c -1.18  -2.29
Writing to output.gpw (mode='')

iter:   5 13:01:31  -320.384152c -2.20  -2.18
iter:   6 13:01:39  -320.384045c -2.12  -2.44
iter:   7 13:01:46  -320.384233c -2.12  -2.61
iter:   8 13:01:54  -320.383293c -2.77  -2.67
iter:   9 13:02:01  -320.383122c -2.77  -2.81
Writing to output.gpw (mode='')

iter:  10 13:02:09  -320.383107c -3.32  -2.97
iter:  11 13:02:16  -320.383241c -3.36  -3.12
iter:  12 13:02:24  -320.383188c -3.38  -3.07
iter:  13 13:02:31  -320.383099c -3.68  -3.18
iter:  14 13:02:39  -320.383114c -3.85  -3.41
Writing to output.gpw (mode='')

iter:  15 13:02:46  -320.383113c -4.48  -3.54
iter:  16 13:02:54  -320.383119c -4.46  -3.60
iter:  17 13:03:01  -320.383126c -4.37  -3.61
iter:  18 13:03:09  -320.383127c -4.84  -3.87
iter:  19 13:03:16  -320.383128c -4.85  -3.88
Writing to output.gpw (mode='')

iter:  20 13:03:24  -320.383141c -4.62  -3.90
iter:  21 13:03:31  -320.383133c -5.26  -3.81
iter:  22 13:03:39  -320.383133c -5.49  -4.03c
iter:  23 13:03:46  -320.383131c -5.36  -4.05c
iter:  24 13:03:54  -320.383132c -5.75  -4.14c
Writing to output.gpw (mode='')

iter:  25 13:04:01  -320.383131c -5.58  -4.21c
iter:  26 13:04:09  -320.383130c -5.75  -4.40c
iter:  27 13:04:16  -320.383132c -6.07  -4.50c
iter:  28 13:04:24  -320.383132c -6.05  -4.49c
iter:  29 13:04:31  -320.383132c -6.17  -4.67c
Writing to output.gpw (mode='')

iter:  30 13:04:39  -320.383131c -6.25  -4.79c
iter:  31 13:04:46  -320.383132c -6.59  -4.94c
iter:  32 13:04:54  -320.383132c -6.53  -5.03c
iter:  33 13:05:07  -320.383132c -6.76  -5.09c
iter:  34 13:05:25  -320.383132c -7.03  -5.29c
Writing to output.gpw (mode='')

iter:  35 13:05:32  -320.383132c -6.96  -5.32c
iter:  36 13:05:40  -320.383132c -7.18  -5.35c
iter:  37 13:05:47  -320.383132c -7.05  -5.38c
iter:  38 13:05:55  -320.383132c -7.47c -5.41c

Converged after 38 iterations.

Dipole moment: (-14.883332, -3.424737, 0.315132) |e|*Ang

Energy contributions relative to reference atoms: (reference = -16475.706344)

Kinetic:       +200.005972
Potential:     -182.314257
External:        +0.000000
XC:            -339.071804
Entropy (-ST):   -0.142953
Local:           +1.068433
--------------------------
Free energy:   -320.454609
Extrapolated:  -320.383132

Dipole-layer corrected work functions: 3.386320, 2.780529 eV

Showing only first 2 kpts
 Kpt  Band  Eigenvalues  Occupancy
  0    34     -3.32898    1.98538
  0    35     -3.20938    1.85095
  0    36     -2.92663    0.08330
  0    37     -2.82805    0.01203

  1    34     -3.12192    1.36704
  1    35     -3.08923    1.05803
  1    36     -3.05775    0.74872
  1    37     -2.97604    0.20908


Fermi level: -3.08342

No gap
Writing to output.gpw (mode='')


Forces in eV/Ang:
  0 Li    0.01472   -0.00145   -0.27374
  1 Li   -0.00216   -0.00153   -0.26277
  2 Li   -0.01248    0.00112   -0.27344
  3 Li    0.00259    0.00961   -0.27083
  4 Li   -0.00009    0.00359   -0.28122
  5 Li   -0.00162    0.00828   -0.27117
  6 Li    0.00590   -0.00782   -0.27231
  7 Li   -0.00218    0.00189   -0.28145
  8 Li   -0.00278   -0.00935   -0.26978
  9 Li    0.00023    0.01997    0.31297
 10 Li    0.02338   -0.01070    0.24767
 11 Li   -0.02283   -0.00450    0.25166
 12 Li    0.00187   -0.01614    0.31047
 13 Li    0.01982    0.00753    0.25583
 14 Li   -0.02069    0.00621    0.25677
 15 Li   -0.00393    0.00079    0.24132
 16 Li   -0.02844    0.00125    0.26278
 17 Li    0.03021   -0.00285    0.27311
 18 Li    0.06600   -0.00135   -0.08653
 19 Li   -0.00469   -0.00163    0.04710
 20 Li   -0.06243   -0.00034   -0.08233
 21 Li   -0.01811   -0.02049    0.05438
 22 Li   -0.00382    0.01076    0.02118
 23 Li    0.02068   -0.02656    0.06620
 24 Li   -0.02043    0.01970    0.05104
 25 Li    0.00010   -0.01257    0.03510
 26 Li    0.01913    0.02705    0.05473
 27 Li    0.01842    0.10877    0.05689
 28 Li    0.04701   -0.02778   -0.05075
 29 Li   -0.05143   -0.02160   -0.02664
 30 Li   -0.00486   -0.19432    0.03642
 31 Li    0.04509    0.03325   -0.04765
 32 Li   -0.02593    0.02864   -0.00881
 33 Li   -0.00748   -0.02526   -0.01204
 34 Li   -0.01059   -0.00313   -0.01563
 35 Li    0.01935   -0.00712   -0.00486
 36 O    -0.63688    1.00379    7.54010
 37 O     0.04835   -0.01805   -0.15506
 38 C    -1.38751    2.28372    2.24325
 39 C    -0.30407    0.18607    0.53418
 40 H     0.11795    0.32601    0.32211
 41 H    -1.17535    1.84683    1.86537
 42 H    -0.07588    0.07691   -0.00410
 43 H    -0.26481    0.02242    0.07138
 44 H     0.19552    1.09027    4.25939
 45 H    -0.05493   -0.06347    0.07138
 46 N     0.96286   -0.04516   -6.89903
 47 N     2.47499   -6.59820   -9.91703

System changes: positions 

Initializing position-dependent things.

Density initialized from wave functions
       .-----------------------.  
      /|                       |  
     / |                       |  
    /  |                       |  
   /   |                       |  
  /    |                       |  
 *     |                       |  
 |     |                       |  
 |     |                       |  
 |     |                       |  
 |     |                       |  
 |     |              H        |  
 |H    |                   H   |  
 |     |             C   CO    |  
 |     |       Li  OH  Li      |  
 |     |                 H     |  
 |N    |     Li      Li      Li|  
 |N    |  Li      Li      Li   |  
 | Li  |   Li      Li          |  
 |     |Li      Li      Li     |  
 Li    |                       |  
 |   LLi     LLi     LLi       |  
 |     |  Li      Li      Li   |  
 | Li  |   Li      Li          |  
 |     |Li      Li      Li     |  
 Li    | Li      Li            |  
 |    Li      Li      Li       |  
 |     |                       |  
 |     |                       |  
 |     |                       |  
 |     |                       |  
 |     |                       |  
 |     |                       |  
 |     .-----------------------.  
 |    /                       /   
 |   /                       /    
 |  /                       /     
 | /                       /      
 |/                       /       
 *-----------------------*        

Positions:
   0 Li     1.617037    1.617037   10.000000    ( 0.0000,  0.0000,  0.0000)
   1 Li     4.851111    1.617037   10.000000    ( 0.0000,  0.0000,  0.0000)
   2 Li     8.085185    1.617037   10.000000    ( 0.0000,  0.0000,  0.0000)
   3 Li     1.617037    4.851111   10.000000    ( 0.0000,  0.0000,  0.0000)
   4 Li     4.851111    4.851111   10.000000    ( 0.0000,  0.0000,  0.0000)
   5 Li     8.085185    4.851111   10.000000    ( 0.0000,  0.0000,  0.0000)
   6 Li     1.617037    8.085185   10.000000    ( 0.0000,  0.0000,  0.0000)
   7 Li     4.851111    8.085185   10.000000    ( 0.0000,  0.0000,  0.0000)
   8 Li     8.085185    8.085185   10.000000    ( 0.0000,  0.0000,  0.0000)
   9 Li     0.000000    0.000000   11.617037    ( 0.0000,  0.0000,  0.0000)
  10 Li     3.234074    0.000000   11.617037    ( 0.0000,  0.0000,  0.0000)
  11 Li     6.468148    0.000000   11.617037    ( 0.0000,  0.0000,  0.0000)
  12 Li     0.000000    3.234074   11.617037    ( 0.0000,  0.0000,  0.0000)
  13 Li     3.234074    3.234074   11.617037    ( 0.0000,  0.0000,  0.0000)
  14 Li     6.468148    3.234074   11.617037    ( 0.0000,  0.0000,  0.0000)
  15 Li     0.000000    6.468148   11.617037    ( 0.0000,  0.0000,  0.0000)
  16 Li     3.234074    6.468148   11.617037    ( 0.0000,  0.0000,  0.0000)
  17 Li     6.468148    6.468148   11.617037    ( 0.0000,  0.0000,  0.0000)
  18 Li     1.618623    1.616994   13.467634    ( 0.0000,  0.0000,  0.0000)
  19 Li     4.851003    1.616993   13.470848    ( 0.0000,  0.0000,  0.0000)
  20 Li     8.083736    1.617056   13.467761    ( 0.0000,  0.0000,  0.0000)
  21 Li     1.616606    4.850584   13.471017    ( 0.0000,  0.0000,  0.0000)
  22 Li     4.851045    4.851396   13.470181    ( 0.0000,  0.0000,  0.0000)
  23 Li     8.085661    4.850489   13.471280    ( 0.0000,  0.0000,  0.0000)
  24 Li     1.616564    8.085706   13.470913    ( 0.0000,  0.0000,  0.0000)
  25 Li     4.851131    8.084868   13.470475    ( 0.0000,  0.0000,  0.0000)
  26 Li     8.085613    8.085805   13.470961    ( 0.0000,  0.0000,  0.0000)
  27 Li     0.000349    0.002121   15.446710    ( 0.0000,  0.0000,  0.0000)
  28 Li     3.235249   -0.000674   15.444703    ( 0.0000,  0.0000,  0.0000)
  29 Li     6.466836   -0.000564   15.445218    ( 0.0000,  0.0000,  0.0000)
  30 Li     0.000027    3.229912   15.446047    ( 0.0000,  0.0000,  0.0000)
  31 Li     3.235277    3.234898   15.444718    ( 0.0000,  0.0000,  0.0000)
  32 Li     6.467311    3.234814   15.445496    ( 0.0000,  0.0000,  0.0000)
  33 Li    -0.000177    6.467600   15.445610    ( 0.0000,  0.0000,  0.0000)
  34 Li     3.233825    6.468053   15.445596    ( 0.0000,  0.0000,  0.0000)
  35 Li     6.468604    6.467973   15.445812    ( 0.0000,  0.0000,  0.0000)
  36 O     -0.023464    1.653298   19.769871    ( 0.0000,  0.0000,  0.0000)
  37 O     -2.896953    1.661138   19.410498    ( 0.0000,  0.0000,  0.0000)
  38 C     -0.742100    2.811659   19.281357    ( 0.0000,  0.0000,  0.0000)
  39 C     -2.145599    2.808365   19.812037    ( 0.0000,  0.0000,  0.0000)
  40 H     -0.198935    3.714650   19.533450    ( 0.0000,  0.0000,  0.0000)
  41 H     -0.780821    2.771742   18.191363    ( 0.0000,  0.0000,  0.0000)
  42 H     -2.677755    3.678211   19.426806    ( 0.0000,  0.0000,  0.0000)
  43 H     -2.094550    2.878139   20.905603    ( 0.0000,  0.0000,  0.0000)
  44 H      0.165548    1.720704   20.675793    ( 0.0000,  0.0000,  0.0000)
[...]
Extrapolated:  -328.621108

Dipole-layer corrected work functions: 3.388270, 2.317107 eV

Showing only first 2 kpts
 Kpt  Band  Eigenvalues  Occupancy
  0    34     -3.04514    1.95829
  0    35     -2.87314    1.20170
  0    36     -2.83950    0.86884
  0    37     -2.72841    0.15375

  1    34     -3.17085    1.99656
  1    35     -2.80453    0.55246
  1    36     -2.76513    0.29580
  1    37     -2.73165    0.16319


Fermi level: -2.85269

No gap
Writing to output.gpw (mode='')


Forces in eV/Ang:
  0 Li    0.00263    0.00494   -0.25505
  1 Li   -0.00713   -0.00808   -0.28763
  2 Li    0.01383    0.00733   -0.28923
  3 Li   -0.00756   -0.00545   -0.30222
  4 Li    0.01296    0.01733   -0.26998
  5 Li   -0.00412    0.01469   -0.28998
  6 Li    0.01438    0.01009   -0.28179
  7 Li    0.00975   -0.00532   -0.30627
  8 Li   -0.01546   -0.01022   -0.28424
  9 Li    0.02321    0.01657    0.25020
 10 Li   -0.02775    0.04117    0.33814
 11 Li   -0.02788   -0.00632    0.30510
 12 Li    0.00798   -0.04263    0.34705
 13 Li   -0.04460   -0.03754    0.26810
 14 Li   -0.02544   -0.03630    0.25170
 15 Li    0.00634   -0.01479    0.27931
 16 Li    0.00014   -0.08223    0.28204
 17 Li   -0.02803   -0.01663    0.27892
 18 Li    0.01206   -0.00345   -0.00508
 19 Li    0.00544   -0.01573   -0.01059
 20 Li    0.00789    0.00873    0.00762
 21 Li    0.00915    0.00726   -0.00118
 22 Li    0.01209    0.00655    0.00395
 23 Li    0.00421   -0.00336    0.01112
 24 Li   -0.00096    0.01196    0.00118
 25 Li   -0.00785    0.00684    0.00042
 26 Li    0.00483   -0.00556    0.00054
 27 Li    0.00744    0.01117    0.00159
 28 Li    0.00451    0.00938    0.01698
 29 Li    0.00905    0.00073   -0.00176
 30 Li    0.02232   -0.00298   -0.00518
 31 Li   -0.00306    0.01124   -0.01363
 32 Li    0.02324    0.01151    0.01406
 33 Li   -0.00230   -0.00252   -0.01141
 34 Li   -0.01376    0.02067   -0.01210
 35 Li    0.01345    0.00182   -0.00307
 36 O     0.01919   -0.02506    0.08060
 37 O    -0.00307    0.02752   -0.00764
 38 C     0.00068   -0.02641   -0.00140
 39 C     0.00454    0.02378   -0.01365
 40 H    -0.01924    0.00891    0.00620
 41 H    -0.01486   -0.02678    0.00097
 42 H    -0.06037   -0.01065    0.00068
 43 H     0.00713    0.05034   -0.02032
 44 H     0.03046   -0.01711   -0.06996
 45 H    -0.00572    0.02975    0.01302
 46 N    -0.05134    0.03931    0.02349
 47 N     0.04688   -0.00144    0.01393

System changes: positions 

Initializing position-dependent things.

Density initialized from wave functions
       .-----------------------.  
      /|                       |  
     / |                       |  
    /  |                       |  
   /   |                       |  
  /    |                       |  
 *     |                       |  
 |     |                       |  
 |     |                       |  
 |     |                       |  
 |     |                       |  
 |     |                       |  
 |     |                 H     |  
 |     |           HH    H     |  
 |     |       Li    C Li O    |  
 |     |                       |  
 |     |     Li     OHi      Li|  
 |     |  Li      Li      Li   |  
 |   N |  Li               Li  |  
 |     NLi      Li      Li     |  
 |Li   |                       |  
 |   LLi     LLi     LLi       |  
 |     |  Li      Li      Li   |  
 | Li  |   Li      Li          |  
 |     |Li      Li      Li     |  
 Li    | Li      Li            |  
 |    Li      Li      Li       |  
 |     |                       |  
 |     |                       |  
 |     |                       |  
 |     |                       |  
 |     |                       |  
 |     |                       |  
 |     .-----------------------.  
 |    /                       /   
 |   /                       /    
 |  /                       /     
 | /                       /      
 |/                       /       
 *-----------------------*        

Positions:
   0 Li     1.617037    1.617037   10.000000    ( 0.0000,  0.0000,  0.0000)
   1 Li     4.851111    1.617037   10.000000    ( 0.0000,  0.0000,  0.0000)
   2 Li     8.085185    1.617037   10.000000    ( 0.0000,  0.0000,  0.0000)
   3 Li     1.617037    4.851111   10.000000    ( 0.0000,  0.0000,  0.0000)
   4 Li     4.851111    4.851111   10.000000    ( 0.0000,  0.0000,  0.0000)
   5 Li     8.085185    4.851111   10.000000    ( 0.0000,  0.0000,  0.0000)
   6 Li     1.617037    8.085185   10.000000    ( 0.0000,  0.0000,  0.0000)
   7 Li     4.851111    8.085185   10.000000    ( 0.0000,  0.0000,  0.0000)
   8 Li     8.085185    8.085185   10.000000    ( 0.0000,  0.0000,  0.0000)
   9 Li     0.000000    0.000000   11.617037    ( 0.0000,  0.0000,  0.0000)
  10 Li     3.234074    0.000000   11.617037    ( 0.0000,  0.0000,  0.0000)
  11 Li     6.468148    0.000000   11.617037    ( 0.0000,  0.0000,  0.0000)
  12 Li     0.000000    3.234074   11.617037    ( 0.0000,  0.0000,  0.0000)
  13 Li     3.234074    3.234074   11.617037    ( 0.0000,  0.0000,  0.0000)
  14 Li     6.468148    3.234074   11.617037    ( 0.0000,  0.0000,  0.0000)
  15 Li     0.000000    6.468148   11.617037    ( 0.0000,  0.0000,  0.0000)
  16 Li     3.234074    6.468148   11.617037    ( 0.0000,  0.0000,  0.0000)
  17 Li     6.468148    6.468148   11.617037    ( 0.0000,  0.0000,  0.0000)
  18 Li     1.582389    1.583513   13.560161    ( 0.0000,  0.0000,  0.0000)
  19 Li     4.825643    1.589025   13.537829    ( 0.0000,  0.0000,  0.0000)
  20 Li     8.036767    1.630111   13.492829    ( 0.0000,  0.0000,  0.0000)
  21 Li     1.578289    4.834901   13.489137    ( 0.0000,  0.0000,  0.0000)
  22 Li     4.816259    4.680253   13.571401    ( 0.0000,  0.0000,  0.0000)
  23 Li     8.008294    4.865846   13.470658    ( 0.0000,  0.0000,  0.0000)
  24 Li     1.649855    8.060172   13.480558    ( 0.0000,  0.0000,  0.0000)
  25 Li     4.844639    7.992599   13.447808    ( 0.0000,  0.0000,  0.0000)
  26 Li     8.148092    8.119699   13.462909    ( 0.0000,  0.0000,  0.0000)
  27 Li     0.169500    0.169328   15.562580    ( 0.0000,  0.0000,  0.0000)
  28 Li     3.278994   -0.195724   15.449900    ( 0.0000,  0.0000,  0.0000)
  29 Li     6.519054   -0.223653   15.329880    ( 0.0000,  0.0000,  0.0000)
  30 Li    -0.119036    3.352063   15.374985    ( 0.0000,  0.0000,  0.0000)
  31 Li     2.897104    2.914520   15.614382    ( 0.0000,  0.0000,  0.0000)
  32 Li     6.270846    3.175904   15.796520    ( 0.0000,  0.0000,  0.0000)
  33 Li    -0.060740    6.595909   15.411672    ( 0.0000,  0.0000,  0.0000)
  34 Li     3.291332    6.238922   15.461514    ( 0.0000,  0.0000,  0.0000)
  35 Li     6.445759    6.437718   15.398327    ( 0.0000,  0.0000,  0.0000)
  36 O     -0.342393    2.213704   19.101878    ( 0.0000,  0.0000,  0.0000)
  37 O     -2.712099    2.601502   17.510914    ( 0.0000,  0.0000,  0.0000)
  38 C     -1.022672    3.477137   19.059975    ( 0.0000,  0.0000,  0.0000)
  39 C     -2.502438    3.301056   18.757751    ( 0.0000,  0.0000,  0.0000)
  40 H     -0.897596    4.030874   19.999608    ( 0.0000,  0.0000,  0.0000)
  41 H     -0.539236    4.049471   18.264431    ( 0.0000,  0.0000,  0.0000)
  42 H     -2.981311    4.277114   18.649155    ( 0.0000,  0.0000,  0.0000)
  43 H     -3.000171    2.747694   19.563747    ( 0.0000,  0.0000,  0.0000)
  44 H     -0.553242    1.787629   19.941878    ( 0.0000,  0.0000,  0.0000)
  45 H     -2.138402    1.813413   17.497556    ( 0.0000,  0.0000,  0.0000)
  46 N      1.089943    1.988764   15.583288    ( 0.0000,  0.0000,  0.0000)
  47 N      1.973533    1.093909   15.585486    ( 0.0000,  0.0000,  0.0000)

Unit cell:
           periodic     x           y           z      points  spacing
  1. axis:    yes    9.702222    0.000000    0.000000    60     0.1617
  2. axis:    yes    0.000000    9.702222    0.000000    60     0.1617
  3. axis:    no     0.000000    0.000000   26.601111   168     0.1583

  Lengths:   9.702222   9.702222  26.601111
  Angles:   90.000000  90.000000  90.000000

Effective grid spacing dv^(1/3) = 0.1606

     iter     time        total  log10-change:
                         energy  eigst   dens
iter:   1 06:02:49  -328.645127  -1.74
iter:   2 06:02:57  -328.629296  -2.15  -1.94
iter:   3 06:03:04  -328.623057c -3.19  -2.16
iter:   4 06:03:12  -328.622478c -3.23  -2.56
Writing to output.gpw (mode='')

iter:   5 06:03:20  -328.622477c -3.24  -2.90
iter:   6 06:03:27  -328.622522c -3.24  -3.04
iter:   7 06:03:34  -328.622467c -3.53  -3.13
iter:   8 06:03:42  -328.622431c -3.90  -3.38
iter:   9 06:03:49  -328.622394c -4.22  -3.41
Writing to output.gpw (mode='')

iter:  10 06:03:58  -328.622405c -4.40  -3.60
iter:  11 06:04:05  -328.622376c -4.76  -3.68
iter:  12 06:04:13  -328.622374c -5.09  -3.78
iter:  13 06:04:20  -328.622376c -5.28  -3.82
iter:  14 06:04:28  -328.622392c -5.28  -3.89
Writing to output.gpw (mode='')

iter:  15 06:04:35  -328.622393c -5.33  -4.06c
iter:  16 06:04:43  -328.622395c -5.49  -4.10c
iter:  17 06:04:50  -328.622390c -5.69  -4.12c
iter:  18 06:05:03  -328.622391c -5.90  -4.30c
iter:  19 06:05:13  -328.622393c -5.83  -4.38c
Writing to output.gpw (mode='')

iter:  20 06:05:26  -328.622393c -6.18  -4.58c
iter:  21 06:05:33  -328.622393c -6.36  -4.57c
iter:  22 06:05:41  -328.622391c -6.33  -4.58c
iter:  23 06:05:48  -328.622391c -6.60  -4.79c
iter:  24 06:05:56  -328.622391c -6.56  -4.86c
Writing to output.gpw (mode='')

iter:  25 06:06:04  -328.622390c -6.64  -5.02c
iter:  26 06:06:11  -328.622390c -6.90  -5.09c
iter:  27 06:06:19  -328.622390c -6.99  -5.20c
iter:  28 06:06:26  -328.622390c -7.09  -5.27c
iter:  29 06:06:34  -328.622390c -7.23  -5.28c
Writing to output.gpw (mode='')

iter:  30 06:06:41  -328.622390c -7.34  -5.46c
iter:  31 06:06:49  -328.622390c -7.42c -5.60c

Converged after 31 iterations.

Dipole moment: (13.548706, 0.163148, 0.555470) |e|*Ang

Energy contributions relative to reference atoms: (reference = -16475.706344)

Kinetic:       +160.071730
Potential:     -152.235065
External:        +0.000000
XC:            -337.514573
Entropy (-ST):   -0.162273
Local:           +1.136654
--------------------------
Free energy:   -328.703526
Extrapolated:  -328.622390

Dipole-layer corrected work functions: 3.388539, 2.320736 eV

Showing only first 2 kpts
 Kpt  Band  Eigenvalues  Occupancy
  0    34     -3.04811    1.95911
  0    35     -2.87551    1.20573
  0    36     -2.84161    0.87050
  0    37     -2.73058    0.15437

  1    34     -3.17302    1.99657
  1    35     -2.80594    0.54820
  1    36     -2.76586    0.28972
  1    37     -2.73298    0.16135


Fermi level: -2.85464

No gap
Writing to output.gpw (mode='')


Forces in eV/Ang:
  0 Li    0.00248    0.00475   -0.25508
  1 Li   -0.00709   -0.00826   -0.28750
  2 Li    0.01340    0.00735   -0.28961
  3 Li   -0.00784   -0.00525   -0.30256
  4 Li    0.01283    0.01723   -0.27025
  5 Li   -0.00434    0.01449   -0.28977
  6 Li    0.01444    0.00986   -0.28148
  7 Li    0.00969   -0.00545   -0.30657
  8 Li   -0.01558   -0.01028   -0.28426
  9 Li    0.02310    0.01789    0.24844
 10 Li   -0.02680    0.04284    0.33533
 11 Li   -0.02687   -0.00627    0.30438
 12 Li    0.01101   -0.04315    0.34671
 13 Li   -0.04380   -0.03715    0.26904
 14 Li   -0.02406   -0.03567    0.24982
 15 Li    0.00549   -0.01459    0.27736
 16 Li    0.00188   -0.08257    0.28174
 17 Li   -0.02690   -0.01604    0.28105
 18 Li    0.00458    0.00586    0.00634
 19 Li    0.00490   -0.01563   -0.01253
 20 Li    0.00995    0.00655    0.01298
 21 Li    0.01078    0.00339   -0.00179
 22 Li    0.00873    0.00967    0.00346
 23 Li   -0.00243    0.00133    0.00898
 24 Li    0.00023    0.00909    0.00448
 25 Li   -0.00607    0.00454    0.00135
 26 Li    0.00419   -0.00598   -0.00106
 27 Li   -0.00703    0.00895    0.00155
 28 Li   -0.00143    0.01424    0.01818
 29 Li    0.01069    0.00362   -0.00021
 30 Li    0.01232    0.00240   -0.00174
 31 Li   -0.01524    0.00976   -0.01336
 32 Li    0.02173    0.01297    0.01093
 33 Li   -0.00241    0.00114   -0.01103
 34 Li   -0.01215    0.02020   -0.01059
 35 Li    0.01415   -0.00349   -0.00389
 36 O     0.02834   -0.00440    0.02905
 37 O     0.02585    0.01535   -0.00755
 38 C     0.01131   -0.00809   -0.01020
 39 C     0.00770    0.02807    0.00354
 40 H    -0.02758   -0.00931   -0.00650
 41 H    -0.02015   -0.00697   -0.00537
 42 H    -0.04231   -0.01799   -0.00514
 43 H    -0.00919    0.03512    0.00777
 44 H     0.01288   -0.04207   -0.00456
 45 H    -0.01571    0.04232    0.00712
 46 N    -0.01523    0.02953   -0.00734
 47 N     0.03625    0.01508    0.00786

Timing:                                      incl.     excl.
-------------------------------------------------------------------
Density initialized from wave functions:    18.895    18.891   0.0% |
 Symmetrize density:                         0.004     0.004   0.0% |
Forces:                                    100.905   100.905   0.2% |
Hamiltonian:                              1412.930     0.029   0.0% |
 Atomic:                                     0.053     0.052   0.0% |
  XC Correction:                             0.001     0.001   0.0% |
 Calculate atomic Hamiltonians:              0.088     0.088   0.0% |
 Communicate:                               26.373    26.373   0.0% |
 Hartree integrate/restrict:                 5.359     5.359   0.0% |
 Initialize Hamiltonian:                     0.000     0.000   0.0% |
 Poisson:                                   65.881    24.268   0.0% |
  Communicate from 1D:                       6.707     6.707   0.0% |
  Communicate from 2D:                       6.471     6.471   0.0% |
  Communicate to 1D:                         3.921     3.921   0.0% |
  Communicate to 2D:                         8.527     8.527   0.0% |
  FFT 1D:                                    8.119     8.119   0.0% |
  FFT 2D:                                    7.867     7.867   0.0% |
 XC 3D grid:                              1314.082   196.308   0.3% |
  VdW-DF integral:                        1117.774     8.866   0.0% |
   Convolution:                             95.766    95.766   0.2% |
   FFT:                                     41.326    41.326   0.1% |
   gather:                                 380.787   380.787   0.6% |
   hmm1:                                    34.560    34.560   0.1% |
   hmm2:                                    46.177    46.177   0.1% |
   iFFT:                                    42.719    42.719   0.1% |
   potential:                              463.905    10.991   0.0% |
    collect:                                64.702    64.702   0.1% |
    p1:                                    190.882   190.882   0.3% |
    p2:                                     92.323    92.323   0.1% |
    sum:                                   105.005   105.005   0.2% |
   splines:                                  3.668     3.668   0.0% |
 vbar:                                       1.065     1.065   0.0% |
LCAO initialization:                         1.193     0.184   0.0% |
 LCAO eigensolver:                           0.227     0.000   0.0% |
  Calculate projections:                     0.000     0.000   0.0% |
  DenseAtomicCorrection:                     0.000     0.000   0.0% |
  Distribute overlap matrix:                 0.184     0.184   0.0% |
  Orbital Layouts:                           0.041     0.041   0.0% |
  Potential matrix:                          0.001     0.001   0.0% |
  Sum over cells:                            0.001     0.001   0.0% |
 LCAO to grid:                               0.639     0.639   0.0% |
 Set positions (LCAO WFS):                   0.142     0.036   0.0% |
  Basic WFS set positions:                   0.001     0.001   0.0% |
  Basis functions set positions:             0.000     0.000   0.0% |
  P tci:                                     0.000     0.000   0.0% |
  ST tci:                                    0.011     0.011   0.0% |
  mktci:                                     0.093     0.093   0.0% |
Redistribute:                                0.143     0.143   0.0% |
SCF-cycle:                               62027.651  1392.699   2.2% ||
 Davidson:                               16154.298  4857.642   7.6% |--|
  Apply hamiltonian:                      1004.125  1004.125   1.6% ||
  Subspace diag:                          3049.289     0.949   0.0% |
   calc_h_matrix:                         1546.639   457.548   0.7% |
    Apply hamiltonian:                    1089.091  1089.091   1.7% ||
   diagonalize:                            148.720   148.720   0.2% |
   rotate_psi:                            1352.981  1352.981   2.1% ||
  calc. matrices:                         5053.159  2623.400   4.1% |-|
   Apply hamiltonian:                     2429.759  2429.759   3.8% |-|
  diagonalize:                              47.692    47.692   0.1% |
  rotate_psi:                             2142.390  2142.390   3.4% ||
 Density:                                  346.157     0.185   0.0% |
  Atomic density matrices:                  53.918    53.918   0.1% |
  Mix:                                     139.060   139.060   0.2% |
  Multipole moments:                        29.372    29.372   0.0% |
  Pseudo density:                          123.622   123.477   0.2% |
   Symmetrize density:                       0.145     0.145   0.0% |
 Hamiltonian:                            44087.503     0.950   0.0% |
  Atomic:                                    1.791     1.772   0.0% |
   XC Correction:                            0.019     0.019   0.0% |
  Calculate atomic Hamiltonians:             2.786     2.786   0.0% |
  Communicate:                             796.697   796.697   1.2% |
  Hartree integrate/restrict:              167.618   167.618   0.3% |
  Poisson:                                2030.430   754.197   1.2% |
   Communicate from 1D:                    203.905   203.905   0.3% |
   Communicate from 2D:                    206.987   206.987   0.3% |
   Communicate to 1D:                      117.328   117.328   0.2% |
   Communicate to 2D:                      248.344   248.344   0.4% |
   FFT 1D:                                 254.218   254.218   0.4% |
   FFT 2D:                                 245.451   245.451   0.4% |
  XC 3D grid:                            41055.016  6225.265   9.8% |---|
   VdW-DF integral:                      34829.751   277.397   0.4% |
    Convolution:                          2991.380  2991.380   4.7% |-|
    FFT:                                  1296.911  1296.911   2.0% ||
    gather:                              11744.316 11744.316  18.4% |------|
    hmm1:                                 1085.152  1085.152   1.7% ||
    hmm2:                                 1430.591  1430.591   2.2% ||
    iFFT:                                 1342.622  1342.622   2.1% ||
    potential:                           14661.323   342.419   0.5% |
     collect:                             2097.943  2097.943   3.3% ||
     p1:                                  5951.922  5951.922   9.3% |---|
     p2:                                  2848.154  2848.154   4.5% |-|
     sum:                                 3420.885  3420.885   5.4% |-|
    splines:                                 0.060     0.060   0.0% |
  vbar:                                     32.217    32.217   0.1% |
 Orthonormalize:                            46.993     0.033   0.0% |
  calc_s_matrix:                             6.877     6.877   0.0% |
  inverse-cholesky:                         14.020    14.020   0.0% |
  projections:                               0.005     0.005   0.0% |
  rotate_psi_s:                             26.058    26.058   0.0% |
Set symmetry:                                0.011     0.011   0.0% |
Other:                                     276.090   276.090   0.4% |
-------------------------------------------------------------------
Total:                                             63837.817 100.0%

Memory usage: 1.14 GiB
Date: Sat Mar 11 06:06:49 2023
