
  ___ ___ ___ _ _ _  
 |   |   |_  | | | | 
 | | | | | . | | | | 
 |__ |  _|___|_____|  22.8.0
 |___|_|             

User:   vazumah@c24.hercules
Date:   Tue Jan 17 23:42:00 2023
Arch:   x86_64
Pid:    5170
CWD:    /home/vazumah/Python_projects/LiNRR/Li_adsorb_studies/autocat/close_proximity_proton_donors/adsorbates/HF/ontop/9.702_9.702
Python: 3.10.8
gpaw:   /home/vazumah/.conda/envs/GPAW/lib/python3.10/site-packages/gpaw
_gpaw:  /home/vazumah/.conda/envs/GPAW/lib/python3.10/site-packages/
        _gpaw.cpython-310-x86_64-linux-gnu.so
ase:    /home/vazumah/.conda/envs/GPAW/lib/python3.10/site-packages/ase (version 3.22.1)
numpy:  /home/vazumah/.conda/envs/GPAW/lib/python3.10/site-packages/numpy (version 1.24.1)
scipy:  /home/vazumah/.conda/envs/GPAW/lib/python3.10/site-packages/scipy (version 1.10.0)
libxc:  5.2.3
units:  Angstrom and eV
cores: 24
OpenMP: True
OMP_NUM_THREADS: 1

Input parameters:
  h: 0.16
  kpts: {size: [4, 4, 1]}
  occupations: {name: fermi-dirac,
                width: 0.05}
  poissonsolver: {dipolelayer: xy}
  xc: BEEF-vdW

System changes: positions, numbers, cell, pbc, initial_charges, initial_magmoms 

Initialize ...

species:
  Li:
    name: Lithium
    id: 830b4218f175192f93f959cfc0aad614
    Z: 3.0
    valence: 1
    core: 2
    charge: 0.0
    file: /home/vazumah/.conda/envs/GPAW/share/gpaw/Li.PBE.gz
    compensation charges: {type: gauss,
                           rc: 0.33,
                           lmax: 2}
    cutoffs: {filter: 1.91,
              core: 2.55}
    valence states:
      #              energy  rcut
      - 2s(1.00)    -2.874   1.058
      - 2p(0.00)    -1.090   1.058
      -  s          24.337   1.058
  
    # Using partial waves for Li as LCAO basis

  F:
    name: Fluorine
    id: 9cd46ba2a61e170ad72278be75b55cc0
    Z: 9.0
    valence: 7
    core: 2
    charge: 0.0
    file: /home/vazumah/.conda/envs/GPAW/share/gpaw/F.PBE.gz
    compensation charges: {type: gauss,
                           rc: 0.20,
                           lmax: 2}
    cutoffs: {filter: 1.14,
              core: 0.74}
    valence states:
      #              energy  rcut
      - 2s(2.00)   -29.898   0.635
      - 2p(5.00)   -11.110   0.635
      -  s          -2.687   0.635
      -  p          16.102   0.635
      -  d           0.000   0.635
  
    # Using partial waves for F as LCAO basis

  H:
    name: Hydrogen
    id: d65de229564ff8ea4db303e23b6d1ecf
    Z: 1.0
    valence: 1
    core: 0
    charge: 0.0
    file: /home/vazumah/.conda/envs/GPAW/share/gpaw/H.PBE.gz
    compensation charges: {type: gauss,
                           rc: 0.15,
                           lmax: 2}
    cutoffs: {filter: 0.85,
              core: 0.53}
    valence states:
      #              energy  rcut
      - 1s(1.00)    -6.494   0.476
      -  s          20.717   0.476
      -  p           0.000   0.476
  
    # Using partial waves for H as LCAO basis

Reference energy: -10026.932476  # eV

Spin-paired calculation

Convergence criteria:
 Maximum [total energy] change in last 3 cyles: 0.0005 eV / electron
 Maximum integral of absolute [dens]ity change: 0.0001 electrons / valence electron
 Maximum integral of absolute [eigenst]ate change: 4e-08 eV^2 / valence electron
 Maximum number of scf [iter]ations: 333
 (Square brackets indicate name in SCF output, whereas a 'c' in
 the SCF output indicates the quantity has converged.)

Symmetries present (total): 2

  ( 1  0  0)  ( 1  0  0)
  ( 0  1  0)  ( 0 -1  0)
  ( 0  0  1)  ( 0  0  1)

16 k-points: 4 x 4 x 1 Monkhorst-Pack grid
4 k-points in the irreducible part of the Brillouin zone
       k-points in crystal coordinates                weights
   0:     0.12500000    0.12500000    0.00000000          4/16
   1:     0.12500000    0.37500000    0.00000000          4/16
   2:     0.37500000    0.12500000    0.00000000          4/16
   3:     0.37500000    0.37500000    0.00000000          4/16

Wave functions: Uniform real-space grid
  Kinetic energy operator: 6*3+1=19 point O(h^6) finite-difference Laplacian
  ScaLapack parameters: grid=1x1, blocksize=None
  Wavefunction extrapolation:
    Improved wavefunction reuse through dual PAW basis 

Occupation numbers: Fermi-Dirac:
  width: 0.0500  # eV
 

Eigensolver
   Davidson(niter=2) 

Densities:
  Coarse grid: 60*60*156 grid
  Fine grid: 120*120*312 grid
  Total Charge: 0.000000 

Density mixing:
  Method: separate
  Backend: pulay
  Linear mixing parameter: 0.05
  old densities: 5
  Damping of long wavelength oscillations: 50 

Hamiltonian:
  XC and Coulomb potentials evaluated on a 120*120*312 grid
  Using the BEEF-vdW Exchange-Correlation functional
  Interpolation: tri-quintic (5. degree polynomial)
  Poisson solver: FastPoissonSolver using
    Stencil: 6*3+1=19 point O(h^6) finite-difference Laplacian
    FFT axes: [0, 1]
    FST axes: [2]

Dipole correction along z-axis 

XC parameters: BEEF-vdW with 2 nearest neighbor stencil

Memory estimate:
  Process memory now: 148.75 MiB
  Calculator: 168.06 MiB
    Density: 57.84 MiB
      Arrays: 18.37 MiB
      Localized functions: 32.46 MiB
      Mixer: 7.00 MiB
    Hamiltonian: 14.58 MiB
      Arrays: 12.02 MiB
      XC: 0.00 MiB
      Poisson: 0.00 MiB
      vbar: 2.57 MiB
    Wavefunctions: 95.63 MiB
      Arrays psit_nG: 43.42 MiB
      Eigensolver: 50.57 MiB
      Projections: 0.02 MiB
      Projectors: 1.62 MiB

Total number of cores used: 24
Parallelization over k-points: 4
Domain decomposition: 1 x 2 x 3

Number of atoms: 38
Number of atomic orbitals: 149
Number of bands in calculation: 31
Number of valence electrons: 44
Bands to converge: occupied

... initialized

Initializing position-dependent things.

Density initialized from atomic densities
Creating initial wave functions:
  31 bands from LCAO basis set

       .-----------------------.  
      /|                       |  
     / |                       |  
    /  |                       |  
   /   |                       |  
  /    |                       |  
 *     |                       |  
 |     |                       |  
 |     |                       |  
 |     |                       |  
 |     |                       |  
 |     |                       |  
 |     |                       |  
 |     |                       |  
 F H Li|     Li      Li        |  
 |     |  Li      Li      Li   |  
 | Li  |   Li      Li          |  
 |     |Li      Li      Li     |  
 Li    | Li      Li            |  
 |   LLi     LLi     LLi       |  
 |     |  Li      Li      Li   |  
 | Li  |   Li      Li          |  
 |     |Li      Li      Li     |  
 Li    | Li      Li            |  
 |    Li      Li      Li       |  
 |     |                       |  
 |     |                       |  
 |     |                       |  
 |     |                       |  
 |     |                       |  
 |     |                       |  
 |     .-----------------------.  
 |    /                       /   
 |   /                       /    
 |  /                       /     
 | /                       /      
 |/                       /       
 *-----------------------*        

Positions:
   0 Li     1.617037    1.617037   10.000000    ( 0.0000,  0.0000,  0.0000)
   1 Li     4.851111    1.617037   10.000000    ( 0.0000,  0.0000,  0.0000)
   2 Li     8.085185    1.617037   10.000000    ( 0.0000,  0.0000,  0.0000)
   3 Li     1.617037    4.851111   10.000000    ( 0.0000,  0.0000,  0.0000)
   4 Li     4.851111    4.851111   10.000000    ( 0.0000,  0.0000,  0.0000)
   5 Li     8.085185    4.851111   10.000000    ( 0.0000,  0.0000,  0.0000)
   6 Li     1.617037    8.085185   10.000000    ( 0.0000,  0.0000,  0.0000)
   7 Li     4.851111    8.085185   10.000000    ( 0.0000,  0.0000,  0.0000)
   8 Li     8.085185    8.085185   10.000000    ( 0.0000,  0.0000,  0.0000)
   9 Li     0.000000    0.000000   11.617037    ( 0.0000,  0.0000,  0.0000)
  10 Li     3.234074    0.000000   11.617037    ( 0.0000,  0.0000,  0.0000)
  11 Li     6.468148    0.000000   11.617037    ( 0.0000,  0.0000,  0.0000)
  12 Li     0.000000    3.234074   11.617037    ( 0.0000,  0.0000,  0.0000)
  13 Li     3.234074    3.234074   11.617037    ( 0.0000,  0.0000,  0.0000)
  14 Li     6.468148    3.234074   11.617037    ( 0.0000,  0.0000,  0.0000)
  15 Li     0.000000    6.468148   11.617037    ( 0.0000,  0.0000,  0.0000)
  16 Li     3.234074    6.468148   11.617037    ( 0.0000,  0.0000,  0.0000)
  17 Li     6.468148    6.468148   11.617037    ( 0.0000,  0.0000,  0.0000)
  18 Li     1.617038    1.617038   13.469728    ( 0.0000,  0.0000,  0.0000)
  19 Li     4.851111    1.617038   13.469729    ( 0.0000,  0.0000,  0.0000)
  20 Li     8.085184    1.617038   13.469728    ( 0.0000,  0.0000,  0.0000)
  21 Li     1.617038    4.851111   13.469729    ( 0.0000,  0.0000,  0.0000)
  22 Li     4.851111    4.851111   13.469730    ( 0.0000,  0.0000,  0.0000)
  23 Li     8.085184    4.851111   13.469729    ( 0.0000,  0.0000,  0.0000)
  24 Li     1.617038    8.085184   13.469728    ( 0.0000,  0.0000,  0.0000)
  25 Li     4.851111    8.085184   13.469729    ( 0.0000,  0.0000,  0.0000)
  26 Li     8.085184    8.085184   13.469728    ( 0.0000,  0.0000,  0.0000)
  27 Li    -0.000000   -0.000000   15.445939    ( 0.0000,  0.0000,  0.0000)
  28 Li     3.234074    0.000000   15.445939    ( 0.0000,  0.0000,  0.0000)
  29 Li     6.468148    0.000000   15.445939    ( 0.0000,  0.0000,  0.0000)
  30 Li     0.000000    3.234074   15.445939    ( 0.0000,  0.0000,  0.0000)
  31 Li     3.234076    3.234076   15.445938    ( 0.0000,  0.0000,  0.0000)
  32 Li     6.468146    3.234076   15.445938    ( 0.0000,  0.0000,  0.0000)
  33 Li     0.000000    6.468148   15.445939    ( 0.0000,  0.0000,  0.0000)
  34 Li     3.234076    6.468146   15.445938    ( 0.0000,  0.0000,  0.0000)
  35 Li     6.468146    6.468146   15.445938    ( 0.0000,  0.0000,  0.0000)
  36 F      9.702222    9.702222   18.445939    ( 0.0000,  0.0000,  0.0000)
  37 H     10.702222    9.702222   18.445939    ( 0.0000,  0.0000,  0.0000)

Unit cell:
           periodic     x           y           z      points  spacing
  1. axis:    yes    9.702222    0.000000    0.000000    60     0.1617
  2. axis:    yes    0.000000    9.702222    0.000000    60     0.1617
  3. axis:    no     0.000000    0.000000   24.851111   156     0.1593

  Lengths:   9.702222   9.702222  24.851111
  Angles:   90.000000  90.000000  90.000000

Effective grid spacing dv^(1/3) = 0.1609

     iter     time        total  log10-change:
                         energy  eigst   dens
iter:   1 23:44:38  -259.151779
iter:   2 23:46:47  -197.861365  +1.99  -0.24
iter:   3 23:48:48  -165.888061  +2.08  -0.40
iter:   4 23:50:52  -262.870472  +2.98  -0.48
Writing to output.gpw (mode='')

iter:   5 23:52:54  -225.056708  +2.04  -0.28
iter:   6 23:54:52  -218.680212  +1.60  -0.57
iter:   7 23:56:54  -218.607254  +1.51  -0.81
iter:   8 23:58:52  -220.334141  +0.77  -0.92
iter:   9 00:00:56  -220.407490  +1.13  -0.93
Writing to output.gpw (mode='')

iter:  10 00:02:58  -221.264588  +0.86  -0.81
iter:  11 00:05:05  -221.779266  +0.59  -0.75
iter:  12 00:07:04  -219.133206  +0.30  -0.71
iter:  13 00:09:05  -218.694767  +0.48  -0.87
iter:  14 00:11:04  -217.983074  +0.11  -0.92
Writing to output.gpw (mode='')

iter:  15 00:13:06  -217.429482  +0.24  -1.01
iter:  16 00:15:10  -217.702742  +0.62  -1.15
iter:  17 00:17:15  -217.409336  -0.22  -1.16
iter:  18 00:18:34  -217.318013  -0.68  -1.31
iter:  19 00:20:32  -217.359513  -0.55  -1.47
Writing to output.gpw (mode='')

iter:  20 00:22:27  -217.364983  -0.84  -1.44
iter:  21 00:24:29  -217.296479  -0.72  -1.55
iter:  22 00:26:26  -217.296647  -1.02  -1.65
iter:  23 00:28:30  -217.291353c -1.24  -1.78
iter:  24 00:30:34  -217.277112c -1.57  -1.80
Writing to output.gpw (mode='')

iter:  25 00:32:48  -217.277916c -1.13  -2.01
iter:  26 00:34:49  -217.274014c -2.15  -2.09
iter:  27 00:36:46  -217.273513c -1.74  -2.23
iter:  28 00:38:40  -217.271430c -1.94  -2.19
iter:  29 00:40:41  -217.272906c -1.66  -2.36
Writing to output.gpw (mode='')

iter:  30 00:42:35  -217.269846c -2.04  -2.22
iter:  31 00:44:38  -217.269745c -2.63  -2.56
iter:  32 00:46:38  -217.269481c -2.86  -2.65
iter:  33 00:48:41  -217.269437c -2.89  -2.76
iter:  34 00:50:40  -217.269420c -3.06  -2.83
Writing to output.gpw (mode='')

iter:  35 00:52:48  -217.269371c -3.32  -2.90
iter:  36 00:54:49  -217.269307c -3.30  -2.99
iter:  37 00:56:52  -217.269303c -3.44  -3.20
iter:  38 00:59:03  -217.269262c -3.03  -3.26
iter:  39 01:01:01  -217.269259c -3.67  -3.35
Writing to output.gpw (mode='')

iter:  40 01:03:03  -217.269248c -3.70  -3.57
iter:  41 01:05:04  -217.269240c -3.58  -3.63
iter:  42 01:07:06  -217.269224c -3.48  -3.65
iter:  43 01:09:13  -217.269219c -3.72  -3.73
iter:  44 01:11:13  -217.269214c -3.83  -3.83
Writing to output.gpw (mode='')

iter:  45 01:13:10  -217.269208c -3.77  -3.92
iter:  46 01:15:15  -217.269204c -3.98  -4.03c
iter:  47 01:17:11  -217.269200c -4.19  -4.16c
iter:  48 01:19:21  -217.269196c -4.09  -4.17c
iter:  49 01:21:24  -217.269191c -3.92  -4.22c
Writing to output.gpw (mode='')

iter:  50 01:23:30  -217.269188c -4.26  -4.34c
iter:  51 01:25:39  -217.269185c -4.32  -4.37c
iter:  52 01:27:40  -217.269182c -4.34  -4.36c
iter:  53 01:29:51  -217.269180c -4.26  -4.35c
iter:  54 01:31:54  -217.269178c -4.47  -4.29c
Writing to output.gpw (mode='')

iter:  55 01:34:03  -217.269175c -4.38  -4.40c
iter:  56 01:36:02  -217.269173c -4.58  -4.37c
iter:  57 01:38:04  -217.269171c -4.50  -4.32c
iter:  58 01:40:09  -217.269169c -4.72  -4.35c
iter:  59 01:42:18  -217.269168c -4.76  -4.33c
Writing to output.gpw (mode='')

iter:  60 01:44:20  -217.269166c -4.40  -4.29c
iter:  61 01:46:25  -217.269164c -4.75  -4.24c
iter:  62 01:48:29  -217.269163c -4.96  -4.30c
iter:  63 01:50:29  -217.269162c -4.95  -4.22c
iter:  64 01:52:33  -217.269160c -4.72  -4.30c
Writing to output.gpw (mode='')

iter:  65 01:54:42  -217.269159c -5.15  -4.27c
iter:  66 01:56:44  -217.269158c -5.07  -4.31c
iter:  67 01:58:59  -217.269156c -5.10  -4.13c
iter:  68 02:01:05  -217.269156c -5.22  -4.34c
iter:  69 02:03:09  -217.269154c -5.16  -4.38c
Writing to output.gpw (mode='')

iter:  70 02:05:23  -217.269154c -5.06  -4.52c
iter:  71 02:07:21  -217.269153c -5.31  -4.63c
iter:  72 02:09:38  -217.269153c -5.35  -4.80c
iter:  73 02:11:46  -217.269152c -5.40  -4.83c
iter:  74 02:13:43  -217.269152c -5.42  -4.87c
Writing to output.gpw (mode='')

iter:  75 02:15:43  -217.269151c -5.36  -4.93c
iter:  76 02:17:42  -217.269151c -5.44  -4.99c
iter:  77 02:19:53  -217.269151c -5.59  -5.05c
iter:  78 02:22:03  -217.269151c -5.68  -5.13c
iter:  79 02:24:12  -217.269150c -5.70  -5.28c
Writing to output.gpw (mode='')

iter:  80 02:26:20  -217.269150c -5.64  -5.39c
iter:  81 02:28:20  -217.269150c -5.76  -5.62c
iter:  82 02:30:23  -217.269149c -5.83  -5.69c
iter:  83 02:32:24  -217.269149c -5.78  -5.78c
iter:  84 02:34:35  -217.269149c -5.86  -5.88c
Writing to output.gpw (mode='')

iter:  85 02:36:39  -217.269149c -5.92  -5.89c
iter:  86 02:38:47  -217.269148c -5.99  -5.89c
iter:  87 02:40:49  -217.269148c -5.99  -5.80c
iter:  88 02:42:53  -217.269148c -6.03  -5.71c
iter:  89 02:44:59  -217.269148c -6.07  -5.84c
Writing to output.gpw (mode='')

iter:  90 02:47:17  -217.269148c -6.06  -5.91c
iter:  91 02:49:21  -217.269147c -6.08  -5.97c
iter:  92 02:51:24  -217.269147c -6.19  -6.00c
iter:  93 02:53:21  -217.269147c -6.26  -6.13c
iter:  94 02:55:42  -217.269147c -6.28  -5.99c
Writing to output.gpw (mode='')

iter:  95 02:57:44  -217.269147c -6.34  -5.80c
iter:  96 02:59:44  -217.269147c -6.38  -5.74c
iter:  97 03:01:42  -217.269147c -6.36  -5.69c
iter:  98 03:03:45  -217.269147c -6.40  -5.75c
iter:  99 03:05:47  -217.269146c -6.42  -5.63c
Writing to output.gpw (mode='')

iter: 100 03:07:29  -217.269146c -6.44  -5.62c
iter: 101 03:08:00  -217.269146c -6.52  -5.63c
iter: 102 03:08:30  -217.269146c -6.53  -5.57c
iter: 103 03:09:01  -217.269146c -6.60  -5.61c
iter: 104 03:09:31  -217.269146c -6.60  -5.37c
Writing to output.gpw (mode='')

iter: 105 03:10:03  -217.269146c -6.59  -5.57c
iter: 106 03:10:42  -217.269146c -6.63  -5.84c
iter: 107 03:12:47  -217.269146c -6.70  -6.05c
iter: 108 03:14:49  -217.269146c -6.76  -6.12c
iter: 109 03:16:48  -217.269146c -6.75  -6.28c
Writing to output.gpw (mode='')

iter: 110 03:18:49  -217.269146c -6.77  -6.30c
iter: 111 03:20:58  -217.269145c -6.65  -6.37c
iter: 112 03:22:54  -217.269145c -6.78  -6.47c
iter: 113 03:25:01  -217.269145c -6.87  -6.47c
iter: 114 03:27:01  -217.269145c -6.89  -6.47c
Writing to output.gpw (mode='')

iter: 115 03:29:03  -217.269145c -6.92  -6.36c
iter: 116 03:31:05  -217.269145c -7.00  -6.50c
iter: 117 03:33:13  -217.269145c -7.02  -6.45c
iter: 118 03:35:17  -217.269145c -6.99  -6.40c
iter: 119 03:37:26  -217.269145c -6.97  -6.47c
Writing to output.gpw (mode='')

iter: 120 03:39:38  -217.269145c -7.12  -6.43c
iter: 121 03:41:44  -217.269145c -7.16  -6.30c
iter: 122 03:43:44  -217.269145c -7.12  -6.25c
iter: 123 03:45:56  -217.269145c -7.14  -6.22c
iter: 124 03:48:02  -217.269145c -7.16  -6.24c
Writing to output.gpw (mode='')

iter: 125 03:50:04  -217.269145c -7.09  -6.19c
iter: 126 03:52:07  -217.269145c -7.24  -6.14c
iter: 127 03:54:07  -217.269145c -7.27  -6.18c
iter: 128 03:56:09  -217.269145c -7.30  -6.11c
iter: 129 03:58:07  -217.269145c -7.29  -6.06c
Writing to output.gpw (mode='')

iter: 130 04:00:14  -217.269145c -7.39  -6.02c
iter: 131 04:02:12  -217.269145c -7.36  -6.05c
iter: 132 04:04:13  -217.269145c -7.44c -6.21c

Converged after 132 iterations.

Dipole moment: (-7.869927, -8.036860, -0.027709) |e|*Ang

Energy contributions relative to reference atoms: (reference = -10026.932476)

Kinetic:        +84.155609
Potential:      -73.798867
External:        +0.000000
XC:            -227.461139
Entropy (-ST):   -0.152487
Local:           -0.088504
--------------------------
Free energy:   -217.345388
Extrapolated:  -217.269145

Dipole-layer corrected work functions: 3.378601, 3.431867 eV

Showing only first 2 kpts
 Kpt  Band  Eigenvalues  Occupancy
  0    20     -3.43101    1.25221
  0    21     -3.40197    0.96733
  0    22     -3.35944    0.57163
  0    23     -3.35651    0.54797

  1    20     -3.65897    1.98757
  1    21     -3.57163    1.93075
  1    22     -3.24227    0.07399
  1    23     -3.15237    0.01265


Fermi level: -3.40523

No gap
Writing to output.gpw (mode='')


Forces in eV/Ang:
  0 Li    0.00149   -0.00184   -0.27284
  1 Li   -0.00055    0.00045   -0.27324
  2 Li   -0.00103    0.00331   -0.27173
  3 Li   -0.00140    0.00000   -0.27025
  4 Li    0.00410    0.00000   -0.27278
  5 Li   -0.00284    0.00000   -0.27175
  6 Li    0.00149    0.00184   -0.27284
  7 Li   -0.00055   -0.00045   -0.27324
  8 Li   -0.00103   -0.00331   -0.27173
  9 Li   -0.00046    0.00000    0.26897
 10 Li    0.00305    0.00000    0.25821
 11 Li   -0.00266    0.00000    0.26293
 12 Li    0.00029   -0.00030    0.26153
 13 Li   -0.00105   -0.00305    0.26422
 14 Li    0.00090    0.00629    0.25492
 15 Li    0.00029    0.00030    0.26153
 16 Li   -0.00105    0.00305    0.26422
 17 Li    0.00090   -0.00629    0.25492
 18 Li   -0.00120   -0.00272    0.03892
 19 Li    0.00530    0.00228    0.03238
 20 Li   -0.00362    0.00119    0.02083
 21 Li   -0.00041    0.00000    0.03354
 22 Li   -0.00201    0.00000    0.03558
 23 Li    0.00254    0.00000    0.04216
 24 Li   -0.00120    0.00272    0.03892
 25 Li    0.00530   -0.00228    0.03238
 26 Li   -0.00362   -0.00119    0.02083
 27 Li   -0.00521    0.00000    0.12097
 28 Li    0.00524    0.00000   -0.03391
 29 Li   -0.01239    0.00000   -0.01740
 30 Li    0.00552    0.00341   -0.01375
 31 Li   -0.00274   -0.00961   -0.01550
 32 Li   -0.00393    0.00691   -0.02642
 33 Li    0.00552   -0.00341   -0.01375
 34 Li   -0.00274    0.00961   -0.01550
 35 Li   -0.00393   -0.00691   -0.02642
 36 F     2.66624    0.00000   -0.14459
 37 H    -2.65891    0.00000   -0.05156

System changes: positions 

Initializing position-dependent things.

Density initialized from wave functions
       .-----------------------.  
      /|                       |  
     / |                       |  
    /  |                       |  
   /   |                       |  
  /    |                       |  
 *     |                       |  
 |     |                       |  
 |     |                       |  
 |     |                       |  
 |     |                       |  
 |     |                       |  
 |     |                       |  
 |     |                       |  
 F H Li|     Li      Li        |  
 |     |  Li      Li      Li   |  
 | Li  |   Li      Li          |  
 |     |Li      Li      Li     |  
 |     | Li      Li      Li    |  
 |   LLi     LLi     LLi       |  
 |     |  Li      Li      Li   |  
 | Li  |   Li      Li          |  
 |     |Li      Li      Li     |  
 Li    | Li      Li            |  
 |    Li      Li      Li       |  
 |     |                       |  
 |     |                       |  
 |     |                       |  
 |     |                       |  
 |     |                       |  
 |     |                       |  
 |     .-----------------------.  
 |    /                       /   
 |   /                       /    
 |  /                       /     
 | /                       /      
 |/                       /       
 *-----------------------*        

Positions:
   0 Li     1.617037    1.617037   10.000000    ( 0.0000,  0.0000,  0.0000)
   1 Li     4.851111    1.617037   10.000000    ( 0.0000,  0.0000,  0.0000)
   2 Li     8.085185    1.617037   10.000000    ( 0.0000,  0.0000,  0.0000)
   3 Li     1.617037    4.851111   10.000000    ( 0.0000,  0.0000,  0.0000)
   4 Li     4.851111    4.851111   10.000000    ( 0.0000,  0.0000,  0.0000)
   5 Li     8.085185    4.851111   10.000000    ( 0.0000,  0.0000,  0.0000)
   6 Li     1.617037    8.085185   10.000000    ( 0.0000,  0.0000,  0.0000)
   7 Li     4.851111    8.085185   10.000000    ( 0.0000,  0.0000,  0.0000)
   8 Li     8.085185    8.085185   10.000000    ( 0.0000,  0.0000,  0.0000)
   9 Li     0.000000    0.000000   11.617037    ( 0.0000,  0.0000,  0.0000)
  10 Li     3.234074    0.000000   11.617037    ( 0.0000,  0.0000,  0.0000)
  11 Li     6.468148    0.000000   11.617037    ( 0.0000,  0.0000,  0.0000)
  12 Li     0.000000    3.234074   11.617037    ( 0.0000,  0.0000,  0.0000)
  13 Li     3.234074    3.234074   11.617037    ( 0.0000,  0.0000,  0.0000)
  14 Li     6.468148    3.234074   11.617037    ( 0.0000,  0.0000,  0.0000)
  15 Li     0.000000    6.468148   11.617037    ( 0.0000,  0.0000,  0.0000)
  16 Li     3.234074    6.468148   11.617037    ( 0.0000,  0.0000,  0.0000)
  17 Li     6.468148    6.468148   11.617037    ( 0.0000,  0.0000,  0.0000)
  18 Li     1.617021    1.616999   13.470284    ( 0.0000,  0.0000,  0.0000)
  19 Li     4.851187    1.617071   13.470192    ( 0.0000,  0.0000,  0.0000)
  20 Li     8.085132    1.617055   13.470025    ( 0.0000,  0.0000,  0.0000)
  21 Li     1.617033    4.851111   13.470209    ( 0.0000,  0.0000,  0.0000)
  22 Li     4.851082    4.851111   13.470239    ( 0.0000,  0.0000,  0.0000)
  23 Li     8.085220    4.851111   13.470332    ( 0.0000,  0.0000,  0.0000)
  24 Li     1.617021    8.085223   13.470284    ( 0.0000,  0.0000,  0.0000)
  25 Li     4.851187    8.085151   13.470192    ( 0.0000,  0.0000,  0.0000)
  26 Li     8.085132    8.085167   13.470025    ( 0.0000,  0.0000,  0.0000)
  27 Li    -0.000074   -0.000000   15.447668    ( 0.0000,  0.0000,  0.0000)
  28 Li     3.234149    0.000000   15.445454    ( 0.0000,  0.0000,  0.0000)
  29 Li     6.467971    0.000000   15.445690    ( 0.0000,  0.0000,  0.0000)
  30 Li     0.000079    3.234122   15.445742    ( 0.0000,  0.0000,  0.0000)
  31 Li     3.234037    3.233939   15.445717    ( 0.0000,  0.0000,  0.0000)
  32 Li     6.468089    3.234175   15.445561    ( 0.0000,  0.0000,  0.0000)
  33 Li     0.000079    6.468100   15.445742    ( 0.0000,  0.0000,  0.0000)
  34 Li     3.234037    6.468283   15.445717    ( 0.0000,  0.0000,  0.0000)
  35 Li     6.468089    6.468047   15.445561    ( 0.0000,  0.0000,  0.0000)
  36 F      9.740311    9.702222   18.443874    ( 0.0000,  0.0000,  0.0000)
  37 H     10.664238    9.702222   18.445203    ( 0.0000,  0.0000,  0.0000)

Unit cell:
           periodic     x           y           z      points  spacing
  1. axis:    yes    9.702222    0.000000    0.000000    60     0.1617
  2. axis:    yes    0.000000    9.702222    0.000000    60     0.1617
  3. axis:    no     0.000000    0.000000   24.851111   156     0.1593

  Lengths:   9.702222   9.702222  24.851111
  Angles:   90.000000  90.000000  90.000000

Effective grid spacing dv^(1/3) = 0.1609

     iter     time        total  log10-change:
                         energy  eigst   dens
iter:   1 04:06:30  -217.741230  -0.79
iter:   2 04:08:37  -217.470406  -0.39  -1.21
iter:   3 04:10:34  -217.419820  -1.31  -1.46
iter:   4 04:12:41  -217.388990  -0.54  -1.76
Writing to output.gpw (mode='')

iter:   5 04:14:42  -217.374232  -1.27  -1.67
iter:   6 04:16:43  -217.379640c -0.73  -1.92
iter:   7 04:18:34  -217.366754c -1.15  -1.91
iter:   8 04:20:38  -217.368607c -1.46  -2.20
iter:   9 04:22:47  -217.363251c -1.88  -2.09
Writing to output.gpw (mode='')

iter:  10 04:24:58  -217.362746c -2.69  -2.57
iter:  11 04:27:06  -217.362869c -2.83  -2.66
iter:  12 04:28:55  -217.362868c -3.06  -2.70
iter:  13 04:30:56  -217.362923c -3.19  -2.77
iter:  14 04:33:10  -217.363027c -3.08  -2.86
Writing to output.gpw (mode='')

iter:  15 04:35:14  -217.363015c -3.57  -2.98
iter:  16 04:37:14  -217.363043c -3.51  -3.08
iter:  17 04:39:19  -217.363067c -3.78  -3.23
iter:  18 04:41:21  -217.363082c -3.79  -3.29
iter:  19 04:43:23  -217.363090c -3.97  -3.36
Writing to output.gpw (mode='')

iter:  20 04:45:29  -217.363103c -4.09  -3.43
iter:  21 04:47:38  -217.363109c -4.32  -3.51
iter:  22 04:49:56  -217.363111c -4.59  -3.59
iter:  23 04:52:07  -217.363108c -4.56  -3.66
iter:  24 04:54:08  -217.363107c -4.54  -3.79
Writing to output.gpw (mode='')

iter:  25 04:56:22  -217.363108c -4.83  -3.90
iter:  26 04:58:35  -217.363109c -4.88  -3.95
iter:  27 05:00:42  -217.363107c -5.19  -4.20c
iter:  28 05:02:43  -217.363109c -5.43  -4.27c
iter:  29 05:04:48  -217.363109c -5.32  -4.27c
Writing to output.gpw (mode='')

iter:  30 05:06:55  -217.363109c -5.39  -4.32c
iter:  31 05:08:50  -217.363110c -5.52  -4.36c
iter:  32 05:10:56  -217.363110c -5.62  -4.38c
iter:  33 05:12:54  -217.363110c -5.64  -4.43c
iter:  34 05:15:06  -217.363112c -5.75  -4.47c
Writing to output.gpw (mode='')

iter:  35 05:17:01  -217.363111c -6.12  -4.48c
iter:  36 05:18:53  -217.363111c -5.89  -4.52c
iter:  37 05:20:50  -217.363111c -5.98  -4.59c
iter:  38 05:22:54  -217.363112c -6.30  -4.60c
iter:  39 05:24:56  -217.363111c -6.39  -4.82c
Writing to output.gpw (mode='')

iter:  40 05:26:56  -217.363111c -6.36  -5.03c
iter:  41 05:28:55  -217.363111c -6.32  -5.14c
iter:  42 05:30:59  -217.363111c -6.43  -5.27c
iter:  43 05:33:00  -217.363111c -6.35  -5.34c
iter:  44 05:35:00  -217.363111c -6.52  -5.45c
Writing to output.gpw (mode='')

iter:  45 05:37:01  -217.363111c -6.56  -5.51c
iter:  46 05:39:05  -217.363111c -6.63  -5.49c
iter:  47 05:41:11  -217.363111c -6.60  -5.58c
iter:  48 05:43:12  -217.363111c -6.76  -5.60c
iter:  49 05:45:13  -217.363111c -6.88  -5.62c
Writing to output.gpw (mode='')

iter:  50 05:47:09  -217.363111c -6.77  -5.59c
iter:  51 05:49:12  -217.363111c -6.79  -5.59c
iter:  52 05:51:19  -217.363111c -6.95  -5.64c
iter:  53 05:53:21  -217.363111c -6.93  -5.55c
iter:  54 05:55:29  -217.363111c -7.01  -5.53c
Writing to output.gpw (mode='')

iter:  55 05:57:32  -217.363111c -7.07  -5.55c
iter:  56 05:59:31  -217.363111c -7.20  -5.63c
iter:  57 06:01:36  -217.363111c -7.20  -5.71c
iter:  58 06:03:39  -217.363111c -7.12  -5.82c
iter:  59 06:05:43  -217.363111c -7.14  -5.77c
Writing to output.gpw (mode='')

iter:  60 06:07:38  -217.363111c -7.25  -6.13c
iter:  61 06:09:43  -217.363111c -7.28  -6.16c
iter:  62 06:11:46  -217.363111c -7.29  -6.15c
iter:  63 06:13:41  -217.363111c -7.28  -6.23c
iter:  64 06:15:37  -217.363111c -7.30  -6.31c
Writing to output.gpw (mode='')

iter:  65 06:17:32  -217.363111c -7.48c -6.40c

Converged after 65 iterations.

Dipole moment: (-11.135260, -8.010752, 0.000505) |e|*Ang

Energy contributions relative to reference atoms: (reference = -10026.932476)

Kinetic:        +87.533022
Potential:      -76.338496
External:        +0.000000
XC:            -228.391214
Entropy (-ST):   -0.152570
Local:           -0.090138
--------------------------
Free energy:   -217.439396
Extrapolated:  -217.363111

Dipole-layer corrected work functions: 3.379596, 3.378625 eV

Showing only first 2 kpts
 Kpt  Band  Eigenvalues  Occupancy
  0    20     -3.40240    1.22882
  0    21     -3.37730    0.98191
  0    22     -3.33360    0.57392
  0    23     -3.33102    0.55304

  1    20     -3.63244    1.98747
  1    21     -3.54585    1.93121
  1    22     -3.21575    0.07342
  1    23     -3.12581    0.01254


Fermi level: -3.37911

No gap

Forces in eV/Ang:
  0 Li    0.00142   -0.00162   -0.27259
  1 Li   -0.00066    0.00020   -0.27336
  2 Li   -0.00083    0.00294   -0.27170
  3 Li   -0.00135    0.00000   -0.27099
  4 Li    0.00344    0.00000   -0.27303
  5 Li   -0.00220    0.00000   -0.27199
  6 Li    0.00142    0.00162   -0.27259
  7 Li   -0.00066   -0.00020   -0.27336
  8 Li   -0.00083   -0.00294   -0.27170
  9 Li   -0.00024    0.00000    0.26786
 10 Li    0.00298    0.00000    0.25794
 11 Li   -0.00278    0.00000    0.26275
 12 Li    0.00027   -0.00007    0.26136
 13 Li   -0.00107   -0.00292    0.26418
 14 Li    0.00091    0.00527    0.25625
 15 Li    0.00027    0.00007    0.26136
 16 Li   -0.00107    0.00292    0.26418
 17 Li    0.00091   -0.00527    0.25625
 18 Li   -0.00154   -0.00303    0.04013
 19 Li    0.00457    0.00213    0.03201
 20 Li   -0.00269    0.00054    0.02279
 21 Li   -0.00033    0.00000    0.03261
 22 Li   -0.00168    0.00000    0.03396
 23 Li    0.00209    0.00000    0.04011
 24 Li   -0.00154    0.00303    0.04013
 25 Li    0.00457   -0.00213    0.03201
 26 Li   -0.00269   -0.00054    0.02279
 27 Li   -0.00790    0.00000    0.09790
 28 Li    0.00865    0.00000   -0.04145
 29 Li   -0.01254    0.00000   -0.01909
 30 Li    0.00522    0.00375   -0.01628
 31 Li   -0.00278   -0.00908   -0.01672
 32 Li   -0.00345    0.00574   -0.02569
 33 Li    0.00522   -0.00375   -0.01628
 34 Li   -0.00278    0.00908   -0.01672
 35 Li   -0.00345   -0.00574   -0.02569
 36 F    -0.56293    0.00000   -0.11014
 37 H     0.59487    0.00000   -0.01947

System changes: positions 

Initializing position-dependent things.

Density initialized from wave functions
       .-----------------------.  
      /|                       |  
     / |                       |  
    /  |                       |  
   /   |                       |  
  /    |                       |  
 *     |                       |  
 |     |                       |  
 |     |                       |  
 |     |                       |  
 |     |                       |  
 |     |                       |  
 |     |                       |  
 |     |                       |  
 F H Li|     Li      Li        |  
 |     |  Li      Li      Li   |  
 | Li  |   Li      Li          |  
 |     |Li      Li      Li     |  
 |     | Li      Li      Li    |  
 |   LLi     LLi     LLi       |  
 |     |  Li      Li      Li   |  
 | Li  |   Li      Li          |  
 |     |Li      Li      Li     |  
 Li    | Li      Li            |  
 |    Li      Li      Li       |  
 |     |                       |  
 |     |                       |  
 |     |                       |  
 |     |                       |  
 |     |                       |  
 |     |                       |  
 |     .-----------------------.  
 |    /                       /   
 |   /                       /    
 |  /                       /     
 | /                       /      
 |/                       /       
 *-----------------------*        

Positions:
   0 Li     1.617037    1.617037   10.000000    ( 0.0000,  0.0000,  0.0000)
   1 Li     4.851111    1.617037   10.000000    ( 0.0000,  0.0000,  0.0000)
   2 Li     8.085185    1.617037   10.000000    ( 0.0000,  0.0000,  0.0000)
   3 Li     1.617037    4.851111   10.000000    ( 0.0000,  0.0000,  0.0000)
   4 Li     4.851111    4.851111   10.000000    ( 0.0000,  0.0000,  0.0000)
   5 Li     8.085185    4.851111   10.000000    ( 0.0000,  0.0000,  0.0000)
   6 Li     1.617037    8.085185   10.000000    ( 0.0000,  0.0000,  0.0000)
   7 Li     4.851111    8.085185   10.000000    ( 0.0000,  0.0000,  0.0000)
   8 Li     8.085185    8.085185   10.000000    ( 0.0000,  0.0000,  0.0000)
   9 Li     0.000000    0.000000   11.617037    ( 0.0000,  0.0000,  0.0000)
  10 Li     3.234074    0.000000   11.617037    ( 0.0000,  0.0000,  0.0000)
  11 Li     6.468148    0.000000   11.617037    ( 0.0000,  0.0000,  0.0000)
  12 Li     0.000000    3.234074   11.617037    ( 0.0000,  0.0000,  0.0000)
  13 Li     3.234074    3.234074   11.617037    ( 0.0000,  0.0000,  0.0000)
  14 Li     6.468148    3.234074   11.617037    ( 0.0000,  0.0000,  0.0000)
  15 Li     0.000000    6.468148   11.617037    ( 0.0000,  0.0000,  0.0000)
  16 Li     3.234074    6.468148   11.617037    ( 0.0000,  0.0000,  0.0000)
  17 Li     6.468148    6.468148   11.617037    ( 0.0000,  0.0000,  0.0000)
  18 Li     1.617003    1.616964   13.470758    ( 0.0000,  0.0000,  0.0000)
  19 Li     4.851241    1.617096   13.470570    ( 0.0000,  0.0000,  0.0000)
  20 Li     8.085100    1.617061   13.470295    ( 0.0000,  0.0000,  0.0000)
  21 Li     1.617029    4.851111   13.470594    ( 0.0000,  0.0000,  0.0000)
  22 Li     4.851062    4.851111   13.470640    ( 0.0000,  0.0000,  0.0000)
  23 Li     8.085245    4.851111   13.470806    ( 0.0000,  0.0000,  0.0000)
  24 Li     1.617003    8.085258   13.470758    ( 0.0000,  0.0000,  0.0000)
  25 Li     4.851241    8.085126   13.470570    ( 0.0000,  0.0000,  0.0000)
  26 Li     8.085100    8.085161   13.470295    ( 0.0000,  0.0000,  0.0000)
  27 Li    -0.000168   -0.000000   15.448825    ( 0.0000,  0.0000,  0.0000)
  28 Li     3.234251    0.000000   15.444965    ( 0.0000,  0.0000,  0.0000)
  29 Li     6.467823    0.000000   15.445465    ( 0.0000,  0.0000,  0.0000)
  30 Li     0.000141    3.234167   15.445550    ( 0.0000,  0.0000,  0.0000)
  31 Li     3.234005    3.233832   15.445519    ( 0.0000,  0.0000,  0.0000)
  32 Li     6.468049    3.234243   15.445257    ( 0.0000,  0.0000,  0.0000)
  33 Li     0.000141    6.468055   15.445550    ( 0.0000,  0.0000,  0.0000)
  34 Li     3.234005    6.468390   15.445519    ( 0.0000,  0.0000,  0.0000)
  35 Li     6.468049    6.467979   15.445257    ( 0.0000,  0.0000,  0.0000)
  36 F      9.733792    9.702222   18.442571    ( 0.0000,  0.0000,  0.0000)
  37 H     10.671133    9.702222   18.444971    ( 0.0000,  0.0000,  0.0000)

Unit cell:
           periodic     x           y           z      points  spacing
  1. axis:    yes    9.702222    0.000000    0.000000    60     0.1617
  2. axis:    yes    0.000000    9.702222    0.000000    60     0.1617
  3. axis:    no     0.000000    0.000000   24.851111   156     0.1593

  Lengths:   9.702222   9.702222  24.851111
  Angles:   90.000000  90.000000  90.000000

Effective grid spacing dv^(1/3) = 0.1609

     iter     time        total  log10-change:
                         energy  eigst   dens
iter:   1 06:19:47  -217.374742  -1.89
iter:   2 06:21:44  -217.369881  -2.09  -2.05
iter:   3 06:23:43  -217.368407c -3.17  -2.25
iter:   4 06:25:38  -217.367854c -2.05  -2.52
Writing to output.gpw (mode='')

iter:   5 06:27:46  -217.366765c -2.46  -2.31
iter:   6 06:29:47  -217.366877c -2.06  -2.61
iter:   7 06:31:50  -217.366414c -2.83  -2.63
iter:   8 06:33:48  -217.366465c -3.06  -2.96
iter:   9 06:35:20  -217.366274c -3.52  -2.89
Writing to output.gpw (mode='')

iter:  10 06:37:21  -217.366267c -4.21  -3.31
iter:  11 06:39:17  -217.366265c -4.37  -3.39
iter:  12 06:41:17  -217.366262c -4.59  -3.43
iter:  13 06:43:24  -217.366258c -4.80  -3.48
iter:  14 06:45:21  -217.366262c -4.67  -3.53
Writing to output.gpw (mode='')

iter:  15 06:47:22  -217.366259c -5.10  -3.57
iter:  16 06:49:23  -217.366259c -5.09  -3.72
iter:  17 06:51:28  -217.366261c -5.34  -3.86
iter:  18 06:53:35  -217.366258c -5.07  -3.94
iter:  19 06:55:43  -217.366258c -5.83  -4.24c
Writing to output.gpw (mode='')

iter:  20 06:57:51  -217.366259c -5.98  -4.31c
iter:  21 07:00:02  -217.366259c -6.26  -4.36c
iter:  22 07:02:01  -217.366259c -6.32  -4.54c
iter:  23 07:03:58  -217.366259c -6.38  -4.61c
iter:  24 07:06:01  -217.366259c -6.52  -4.64c
Writing to output.gpw (mode='')

iter:  25 07:08:08  -217.366259c -6.57  -4.66c
iter:  26 07:10:03  -217.366260c -6.75  -4.71c
iter:  27 07:12:04  -217.366260c -7.06  -4.91c
iter:  28 07:14:05  -217.366260c -7.34  -5.03c
iter:  29 07:16:08  -217.366260c -7.15  -5.08c
Writing to output.gpw (mode='')

iter:  30 07:18:23  -217.366260c -7.25  -5.20c
iter:  31 07:20:32  -217.366260c -7.43c -5.21c

Converged after 31 iterations.

Dipole moment: (-10.624204, -8.015945, -0.003130) |e|*Ang

Energy contributions relative to reference atoms: (reference = -10026.932476)

Kinetic:        +86.850612
Potential:      -75.837382
External:        +0.000000
XC:            -228.213701
Entropy (-ST):   -0.152567
Local:           -0.089505
--------------------------
Free energy:   -217.442543
Extrapolated:  -217.366260

Dipole-layer corrected work functions: 3.379418, 3.385435 eV

Showing only first 2 kpts
 Kpt  Band  Eigenvalues  Occupancy
  0    20     -3.40605    1.23197
  0    21     -3.38035    0.97926
  0    22     -3.33697    0.57439
  0    23     -3.33437    0.55327

  1    20     -3.63568    1.98745
  1    21     -3.54911    1.93113
  1    22     -3.21906    0.07342
  1    23     -3.12904    0.01251


Fermi level: -3.38243

No gap
Writing to output.gpw (mode='')


Forces in eV/Ang:
  0 Li    0.00143   -0.00166   -0.27264
  1 Li   -0.00064    0.00025   -0.27342
  2 Li   -0.00087    0.00301   -0.27172
  3 Li   -0.00134    0.00000   -0.27096
  4 Li    0.00354    0.00000   -0.27305
  5 Li   -0.00231    0.00000   -0.27203
  6 Li    0.00143    0.00166   -0.27264
  7 Li   -0.00064   -0.00025   -0.27342
  8 Li   -0.00087   -0.00301   -0.27172
  9 Li   -0.00021    0.00000    0.26828
 10 Li    0.00302    0.00000    0.25845
 11 Li   -0.00284    0.00000    0.26310
 12 Li    0.00030   -0.00007    0.26179
 13 Li   -0.00112   -0.00300    0.26466
 14 Li    0.00093    0.00551    0.25645
 15 Li    0.00030    0.00007    0.26179
 16 Li   -0.00112    0.00300    0.26466
 17 Li    0.00093   -0.00551    0.25645
 18 Li   -0.00176   -0.00316    0.03920
 19 Li    0.00460    0.00216    0.03103
 20 Li   -0.00252    0.00038    0.02216
 21 Li   -0.00031    0.00000    0.03184
 22 Li   -0.00178    0.00000    0.03318
 23 Li    0.00216    0.00000    0.03928
 24 Li   -0.00176    0.00316    0.03920
 25 Li    0.00460   -0.00216    0.03103
 26 Li   -0.00252   -0.00038    0.02216
 27 Li   -0.00755    0.00000    0.10134
 28 Li    0.00810    0.00000   -0.03965
 29 Li   -0.01247    0.00000   -0.01839
 30 Li    0.00517    0.00371   -0.01543
 31 Li   -0.00274   -0.00905   -0.01597
 32 Li   -0.00344    0.00577   -0.02515
 33 Li    0.00517   -0.00371   -0.01543
 34 Li   -0.00274    0.00905   -0.01597
 35 Li   -0.00344   -0.00577   -0.02515
 36 F     0.18190    0.00000   -0.10385
 37 H    -0.14071    0.00000   -0.02621

System changes: positions 

Initializing position-dependent things.

Density initialized from wave functions
       .-----------------------.  
      /|                       |  
     / |                       |  
    /  |                       |  
   /   |                       |  
  /    |                       |  
 *     |                       |  
 |     |                       |  
 |     |                       |  
 |     |                       |  
 |     |                       |  
 |     |                       |  
 |     |                       |  
 |     |                       |  
 F H Li|     Li      Li        |  
 |     |  Li      Li      Li   |  
 | Li  |   Li      Li          |  
 |     |Li      Li      Li     |  
 |     | Li      Li      Li    |  
 |   LLi     LLi     LLi       |  
 |     |  Li      Li      Li   |  
 | Li  |   Li      Li          |  
 |     |Li      Li      Li     |  
 Li    | Li      Li            |  
 |    Li      Li      Li       |  
 |     |                       |  
 |     |                       |  
 |     |                       |  
 |     |                       |  
 |     |                       |  
 |     |                       |  
 |     .-----------------------.  
 |    /                       /   
 |   /                       /    
 |  /                       /     
 | /                       /      
 |/                       /       
 *-----------------------*        

Positions:
   0 Li     1.617037    1.617037   10.000000    ( 0.0000,  0.0000,  0.0000)
   1 Li     4.851111    1.617037   10.000000    ( 0.0000,  0.0000,  0.0000)
   2 Li     8.085185    1.617037   10.000000    ( 0.0000,  0.0000,  0.0000)
   3 Li     1.617037    4.851111   10.000000    ( 0.0000,  0.0000,  0.0000)
   4 Li     4.851111    4.851111   10.000000    ( 0.0000,  0.0000,  0.0000)
   5 Li     8.085185    4.851111   10.000000    ( 0.0000,  0.0000,  0.0000)
   6 Li     1.617037    8.085185   10.000000    ( 0.0000,  0.0000,  0.0000)
   7 Li     4.851111    8.085185   10.000000    ( 0.0000,  0.0000,  0.0000)
   8 Li     8.085185    8.085185   10.000000    ( 0.0000,  0.0000,  0.0000)
   9 Li     0.000000    0.000000   11.617037    ( 0.0000,  0.0000,  0.0000)
  10 Li     3.234074    0.000000   11.617037    ( 0.0000,  0.0000,  0.0000)
  11 Li     6.468148    0.000000   11.617037    ( 0.0000,  0.0000,  0.0000)
  12 Li     0.000000    3.234074   11.617037    ( 0.0000,  0.0000,  0.0000)
  13 Li     3.234074    3.234074   11.617037    ( 0.0000,  0.0000,  0.0000)
  14 Li     6.468148    3.234074   11.617037    ( 0.0000,  0.0000,  0.0000)
  15 Li     0.000000    6.468148   11.617037    ( 0.0000,  0.0000,  0.0000)
  16 Li     3.234074    6.468148   11.617037    ( 0.0000,  0.0000,  0.0000)
  17 Li     6.468148    6.468148   11.617037    ( 0.0000,  0.0000,  0.0000)
  18 Li     1.616980    1.616922   13.471280    ( 0.0000,  0.0000,  0.0000)
  19 Li     4.851302    1.617125   13.470984    ( 0.0000,  0.0000,  0.0000)
  20 Li     8.085067    1.617067   13.470590    ( 0.0000,  0.0000,  0.0000)
  21 Li     1.617025    4.851111   13.471018    ( 0.0000,  0.0000,  0.0000)
  22 Li     4.851039    4.851111   13.471082    ( 0.0000,  0.0000,  0.0000)
  23 Li     8.085273    4.851111   13.471329    ( 0.0000,  0.0000,  0.0000)
  24 Li     1.616980    8.085300   13.471280    ( 0.0000,  0.0000,  0.0000)
  25 Li     4.851302    8.085097   13.470984    ( 0.0000,  0.0000,  0.0000)
  26 Li     8.085067    8.085155   13.470590    ( 0.0000,  0.0000,  0.0000)
  27 Li    -0.000268   -0.000000   15.450167    ( 0.0000,  0.0000,  0.0000)
  28 Li     3.234359    0.000000   15.444436    ( 0.0000,  0.0000,  0.0000)
  29 Li     6.467657    0.000000   15.445220    ( 0.0000,  0.0000,  0.0000)
  30 Li     0.000209    3.234216   15.445344    ( 0.0000,  0.0000,  0.0000)
  31 Li     3.233968    3.233712   15.445306    ( 0.0000,  0.0000,  0.0000)
  32 Li     6.468003    3.234320   15.444922    ( 0.0000,  0.0000,  0.0000)
  33 Li     0.000209    6.468006   15.445344    ( 0.0000,  0.0000,  0.0000)
  34 Li     3.233968    6.468510   15.445306    ( 0.0000,  0.0000,  0.0000)
  35 Li     6.468003    6.467902   15.444922    ( 0.0000,  0.0000,  0.0000)
  36 F      9.735224    9.702222   18.441182    ( 0.0000,  0.0000,  0.0000)
  37 H     10.670233    9.702222   18.444632    ( 0.0000,  0.0000,  0.0000)

Unit cell:
           periodic     x           y           z      points  spacing
  1. axis:    yes    9.702222    0.000000    0.000000    60     0.1617
  2. axis:    yes    0.000000    9.702222    0.000000    60     0.1617
  3. axis:    no     0.000000    0.000000   24.851111   156     0.1593

  Lengths:   9.702222   9.702222  24.851111
  Angles:   90.000000  90.000000  90.000000

Effective grid spacing dv^(1/3) = 0.1609

     iter     time        total  log10-change:
                         energy  eigst   dens
iter:   1 07:22:48  -217.369143  -2.59
iter:   2 07:24:43  -217.367220  -2.89  -2.30
iter:   3 07:26:55  -217.367036c -4.21  -2.68
iter:   4 07:28:59  -217.367003c -3.25  -3.14
Writing to output.gpw (mode='')

iter:   5 07:31:01  -217.366968c -4.20  -3.12
iter:   6 07:33:02  -217.367007c -3.80  -3.28
iter:   7 07:35:02  -217.366962c -4.00  -3.30
iter:   8 07:37:03  -217.366966c -4.49  -3.70
iter:   9 07:38:59  -217.366973c -5.04  -3.61
Writing to output.gpw (mode='')

iter:  10 07:40:54  -217.366969c -5.63  -4.05c
iter:  11 07:42:55  -217.366970c -5.83  -4.13c
iter:  12 07:44:51  -217.366970c -5.94  -4.15c
iter:  13 07:46:46  -217.366972c -5.91  -4.23c
iter:  14 07:48:47  -217.366972c -6.04  -4.36c
Writing to output.gpw (mode='')

iter:  15 07:50:55  -217.366972c -6.26  -4.58c
iter:  16 07:52:55  -217.366973c -6.44  -4.69c
iter:  17 07:55:04  -217.366973c -6.42  -4.71c
iter:  18 07:57:17  -217.366973c -6.55  -4.75c
iter:  19 07:59:17  -217.366973c -6.97  -4.94c
Writing to output.gpw (mode='')

iter:  20 08:01:21  -217.366973c -6.82  -5.00c
iter:  21 08:03:22  -217.366973c -7.19  -5.11c
iter:  22 08:05:19  -217.366973c -6.79  -5.20c
iter:  23 08:07:32  -217.366972c -7.15  -5.11c
iter:  24 08:09:37  -217.366973c -7.71c -5.57c

Converged after 24 iterations.

Dipole moment: (-10.738406, -8.015085, -0.001867) |e|*Ang

Energy contributions relative to reference atoms: (reference = -10026.932476)

Kinetic:        +86.970772
Potential:      -75.925964
External:        +0.000000
XC:            -228.245478
Entropy (-ST):   -0.152578
Local:           -0.090013
--------------------------
Free energy:   -217.443262
Extrapolated:  -217.366973

Dipole-layer corrected work functions: 3.379477, 3.383065 eV

Showing only first 2 kpts
 Kpt  Band  Eigenvalues  Occupancy
  0    20     -3.40482    1.23121
  0    21     -3.37919    0.97920
  0    22     -3.33592    0.57520
  0    23     -3.33333    0.55425

  1    20     -3.63437    1.98741
  1    21     -3.54795    1.93112
  1    22     -3.21786    0.07336
  1    23     -3.12772    0.01247


Fermi level: -3.38127

No gap
Writing to output.gpw (mode='')


Forces in eV/Ang:
  0 Li    0.00144   -0.00165   -0.27266
  1 Li   -0.00065    0.00024   -0.27346
  2 Li   -0.00087    0.00299   -0.27171
  3 Li   -0.00133    0.00000   -0.27102
  4 Li    0.00351    0.00000   -0.27306
  5 Li   -0.00228    0.00000   -0.27207
  6 Li    0.00144    0.00165   -0.27266
  7 Li   -0.00065   -0.00024   -0.27346
  8 Li   -0.00087   -0.00299   -0.27171
  9 Li   -0.00015    0.00000    0.26848
 10 Li    0.00303    0.00000    0.25886
 11 Li   -0.00291    0.00000    0.26337
 12 Li    0.00033   -0.00003    0.26214
 13 Li   -0.00116   -0.00305    0.26507
 14 Li    0.00094    0.00554    0.25687
 15 Li    0.00033    0.00003    0.26214
 16 Li   -0.00116    0.00305    0.26507
 17 Li    0.00094   -0.00554    0.25687
 18 Li   -0.00201   -0.00331    0.03849
 19 Li    0.00451    0.00215    0.03008
 20 Li   -0.00224    0.00015    0.02192
 21 Li   -0.00028    0.00000    0.03101
 22 Li   -0.00181    0.00000    0.03226
 23 Li    0.00215    0.00000    0.03821
 24 Li   -0.00201    0.00331    0.03849
 25 Li    0.00451   -0.00215    0.03008
 26 Li   -0.00224   -0.00015    0.02192
 27 Li   -0.00765    0.00000    0.10054
 28 Li    0.00813    0.00000   -0.03916
 29 Li   -0.01240    0.00000   -0.01805
 30 Li    0.00504    0.00372   -0.01509
 31 Li   -0.00268   -0.00891   -0.01555
 32 Li   -0.00334    0.00562   -0.02460
 33 Li    0.00504   -0.00372   -0.01509
 34 Li   -0.00268    0.00891   -0.01555
 35 Li   -0.00334   -0.00562   -0.02460
 36 F     0.05653    0.00000   -0.09835
 37 H    -0.01846    0.00000   -0.02481

System changes: positions 

Initializing position-dependent things.

Density initialized from wave functions
       .-----------------------.  
      /|                       |  
     / |                       |  
    /  |                       |  
   /   |                       |  
  /    |                       |  
 *     |                       |  
 |     |                       |  
 |     |                       |  
 |     |                       |  
 |     |                       |  
 |     |                       |  
 |     |                       |  
 |     |                       |  
 F H Li|     Li      Li        |  
 |     |  Li      Li      Li   |  
 | Li  |   Li      Li          |  
 |     |Li      Li      Li     |  
 |     | Li      Li      Li    |  
 |   LLi     LLi     LLi       |  
 |     |  Li      Li      Li   |  
 | Li  |   Li      Li          |  
 |     |Li      Li      Li     |  
 Li    | Li      Li            |  
 |    Li      Li      Li       |  
 |     |                       |  
 |     |                       |  
 |     |                       |  
 |     |                       |  
 |     |                       |  
 |     |                       |  
 |     .-----------------------.  
 |    /                       /   
 |   /                       /    
 |  /                       /     
 | /                       /      
 |/                       /       
 *-----------------------*        

Positions:
   0 Li     1.617037    1.617037   10.000000    ( 0.0000,  0.0000,  0.0000)
   1 Li     4.851111    1.617037   10.000000    ( 0.0000,  0.0000,  0.0000)
   2 Li     8.085185    1.617037   10.000000    ( 0.0000,  0.0000,  0.0000)
   3 Li     1.617037    4.851111   10.000000    ( 0.0000,  0.0000,  0.0000)
   4 Li     4.851111    4.851111   10.000000    ( 0.0000,  0.0000,  0.0000)
   5 Li     8.085185    4.851111   10.000000    ( 0.0000,  0.0000,  0.0000)
   6 Li     1.617037    8.085185   10.000000    ( 0.0000,  0.0000,  0.0000)
   7 Li     4.851111    8.085185   10.000000    ( 0.0000,  0.0000,  0.0000)
   8 Li     8.085185    8.085185   10.000000    ( 0.0000,  0.0000,  0.0000)
   9 Li     0.000000    0.000000   11.617037    ( 0.0000,  0.0000,  0.0000)
  10 Li     3.234074    0.000000   11.617037    ( 0.0000,  0.0000,  0.0000)
  11 Li     6.468148    0.000000   11.617037    ( 0.0000,  0.0000,  0.0000)
  12 Li     0.000000    3.234074   11.617037    ( 0.0000,  0.0000,  0.0000)
  13 Li     3.234074    3.234074   11.617037    ( 0.0000,  0.0000,  0.0000)
  14 Li     6.468148    3.234074   11.617037    ( 0.0000,  0.0000,  0.0000)
  15 Li     0.000000    6.468148   11.617037    ( 0.0000,  0.0000,  0.0000)
  16 Li     3.234074    6.468148   11.617037    ( 0.0000,  0.0000,  0.0000)
  17 Li     6.468148    6.468148   11.617037    ( 0.0000,  0.0000,  0.0000)
  18 Li     1.616857    1.616711   13.473802    ( 0.0000,  0.0000,  0.0000)
  19 Li     4.851597    1.617265   13.472966    ( 0.0000,  0.0000,  0.0000)
  20 Li     8.084913    1.617083   13.472022    ( 0.0000,  0.0000,  0.0000)
  21 Li     1.617006    4.851111   13.473056    ( 0.0000,  0.0000,  0.0000)
  22 Li     4.850923    4.851111   13.473204    ( 0.0000,  0.0000,  0.0000)
  23 Li     8.085413    4.851111   13.473841    ( 0.0000,  0.0000,  0.0000)
  24 Li     1.616857    8.085511   13.473802    ( 0.0000,  0.0000,  0.0000)
  25 Li     4.851597    8.084957   13.472966    ( 0.0000,  0.0000,  0.0000)
  26 Li     8.084913    8.085139   13.472022    ( 0.0000,  0.0000,  0.0000)
  27 Li    -0.000764   -0.000000   15.456702    ( 0.0000,  0.0000,  0.0000)
  28 Li     3.234889    0.000000   15.441872    ( 0.0000,  0.0000,  0.0000)
  29 Li     6.466850    0.000000   15.444036    ( 0.0000,  0.0000,  0.0000)
  30 Li     0.000540    3.234458   15.444352    ( 0.0000,  0.0000,  0.0000)
  31 Li     3.233792    3.233129   15.444282    ( 0.0000,  0.0000,  0.0000)
  32 Li     6.467783    3.234688   15.443308    ( 0.0000,  0.0000,  0.0000)
  33 Li     0.000540    6.467764   15.444352    ( 0.0000,  0.0000,  0.0000)
  34 Li     3.233792    6.469093   15.444282    ( 0.0000,  0.0000,  0.0000)
  35 Li     6.467783    6.467534   15.443308    ( 0.0000,  0.0000,  0.0000)
  36 F      9.738490    9.702222   18.434622    ( 0.0000,  0.0000,  0.0000)
  37 H     10.669462    9.702222   18.443017    ( 0.0000,  0.0000,  0.0000)

Unit cell:
           periodic     x           y           z      points  spacing
  1. axis:    yes    9.702222    0.000000    0.000000    60     0.1617
  2. axis:    yes    0.000000    9.702222    0.000000    60     0.1617
  3. axis:    no     0.000000    0.000000   24.851111   156     0.1593

  Lengths:   9.702222   9.702222  24.851111
  Angles:   90.000000  90.000000  90.000000

Effective grid spacing dv^(1/3) = 0.1609

     iter     time        total  log10-change:
                         energy  eigst   dens
iter:   1 08:11:59  -217.393083  -1.54
iter:   2 08:14:01  -217.371550  -2.01  -1.75
iter:   3 08:16:00  -217.369078  -3.30  -2.19
iter:   4 08:18:10  -217.368801c -2.58  -2.73
Writing to output.gpw (mode='')

iter:   5 08:20:15  -217.368810c -3.23  -3.02
iter:   6 08:22:19  -217.368867c -3.41  -2.99
iter:   7 08:24:20  -217.368825c -3.08  -3.10
iter:   8 08:26:25  -217.368838c -4.22  -3.27
iter:   9 08:28:30  -217.368861c -4.06  -3.53
Writing to output.gpw (mode='')

iter:  10 08:30:32  -217.368856c -4.74  -3.57
iter:  11 08:32:30  -217.368854c -4.34  -3.63
iter:  12 08:34:32  -217.368861c -4.77  -3.70
iter:  13 08:36:31  -217.368867c -5.18  -3.80
iter:  14 08:38:32  -217.368865c -5.39  -3.99
Writing to output.gpw (mode='')

iter:  15 08:40:35  -217.368867c -5.63  -4.09c
iter:  16 08:42:33  -217.368873c -5.48  -4.09c
iter:  17 08:44:36  -217.368869c -5.79  -4.12c
iter:  18 08:46:41  -217.368869c -5.84  -4.48c
iter:  19 08:48:53  -217.368870c -6.05  -4.47c
Writing to output.gpw (mode='')

iter:  20 08:50:55  -217.368869c -5.94  -4.52c
iter:  21 08:53:00  -217.368870c -6.16  -4.67c
iter:  22 08:55:09  -217.368870c -6.28  -4.80c
iter:  23 08:57:11  -217.368869c -5.93  -4.93c
iter:  24 08:59:23  -217.368870c -6.63  -5.02c
Writing to output.gpw (mode='')

iter:  25 09:01:36  -217.368870c -6.41  -5.06c
iter:  26 09:03:41  -217.368870c -6.78  -5.09c
iter:  27 09:05:43  -217.368870c -6.66  -5.07c
iter:  28 09:07:44  -217.368870c -6.93  -4.94c
iter:  29 09:09:45  -217.368870c -7.08  -4.95c
Writing to output.gpw (mode='')

iter:  30 09:12:04  -217.368870c -7.38  -5.21c
iter:  31 09:14:09  -217.368870c -7.50c -5.26c

Converged after 31 iterations.

Dipole moment: (-10.994670, -8.013642, 0.001314) |e|*Ang

Energy contributions relative to reference atoms: (reference = -10026.932476)

Kinetic:        +87.187489
Potential:      -76.086102
External:        +0.000000
XC:            -228.303831
Entropy (-ST):   -0.152625
Local:           -0.090113
--------------------------
Free energy:   -217.445183
Extrapolated:  -217.368870

Dipole-layer corrected work functions: 3.379484, 3.376959 eV

Showing only first 2 kpts
 Kpt  Band  Eigenvalues  Occupancy
  0    20     -3.40154    1.22907
  0    21     -3.37597    0.97753
  0    22     -3.33334    0.57903
  0    23     -3.33083    0.55865

  1    20     -3.63067    1.98725
  1    21     -3.54486    1.93107
  1    22     -3.21460    0.07305
  1    23     -3.12394    0.01230


Fermi level: -3.37822

No gap
Writing to output.gpw (mode='')


Forces in eV/Ang:
  0 Li    0.00146   -0.00162   -0.27272
  1 Li   -0.00063    0.00028   -0.27375
  2 Li   -0.00090    0.00299   -0.27175
  3 Li   -0.00128    0.00000   -0.27134
  4 Li    0.00346    0.00000   -0.27322
  5 Li   -0.00227    0.00000   -0.27236
  6 Li    0.00146    0.00162   -0.27272
  7 Li   -0.00063   -0.00028   -0.27375
  8 Li   -0.00090   -0.00299   -0.27175
  9 Li    0.00012    0.00000    0.26950
 10 Li    0.00314    0.00000    0.26097
 11 Li   -0.00324    0.00000    0.26473
 12 Li    0.00045    0.00013    0.26390
 13 Li   -0.00138   -0.00330    0.26715
 14 Li    0.00104    0.00580    0.25875
 15 Li    0.00045   -0.00013    0.26390
 16 Li   -0.00138    0.00330    0.26715
 17 Li    0.00104   -0.00580    0.25875
 18 Li   -0.00320   -0.00405    0.03505
 19 Li    0.00413    0.00216    0.02550
 20 Li   -0.00090   -0.00097    0.02060
 21 Li   -0.00011    0.00000    0.02700
 22 Li   -0.00200    0.00000    0.02780
 23 Li    0.00212    0.00000    0.03310
 24 Li   -0.00320    0.00405    0.03505
 25 Li    0.00413   -0.00216    0.02550
 26 Li   -0.00090    0.00097    0.02060
 27 Li   -0.00788    0.00000    0.09877
 28 Li    0.00797    0.00000   -0.03601
 29 Li   -0.01206    0.00000   -0.01612
 30 Li    0.00447    0.00378   -0.01307
 31 Li   -0.00243   -0.00827   -0.01318
 32 Li   -0.00292    0.00492   -0.02170
 33 Li    0.00447   -0.00378   -0.01307
 34 Li   -0.00243    0.00827   -0.01318
 35 Li   -0.00292   -0.00492   -0.02170
 36 F    -0.17169    0.00000   -0.08846
 37 H     0.19895    0.00000   -0.02069

System changes: positions 

Initializing position-dependent things.

Density initialized from wave functions
       .-----------------------.  
      /|                       |  
     / |                       |  
    /  |                       |  
   /   |                       |  
  /    |                       |  
 *     |                       |  
 |     |                       |  
 |     |                       |  
 |     |                       |  
 |     |                       |  
 |     |                       |  
 |     |                       |  
 |     |                       |  
 F H Li|     Li      Li        |  
 |     |  Li      Li      Li   |  
 | Li  |   Li      Li          |  
 |     |Li      Li      Li     |  
 |     | Li      Li      Li    |  
 |   LLi     LLi     LLi       |  
 |     |  Li      Li      Li   |  
 | Li  |   Li      Li          |  
 |     |Li      Li      Li     |  
 Li    | Li      Li            |  
 |    Li      Li      Li       |  
 |     |                       |  
 |     |                       |  
 |     |                       |  
 |     |                       |  
 |     |                       |  
 |     |                       |  
 |     .-----------------------.  
 |    /                       /   
 |   /                       /    
 |  /                       /     
 | /                       /      
 |/                       /       
 *-----------------------*        

Positions:
   0 Li     1.617037    1.617037   10.000000    ( 0.0000,  0.0000,  0.0000)
   1 Li     4.851111    1.617037   10.000000    ( 0.0000,  0.0000,  0.0000)
   2 Li     8.085185    1.617037   10.000000    ( 0.0000,  0.0000,  0.0000)
   3 Li     1.617037    4.851111   10.000000    ( 0.0000,  0.0000,  0.0000)
   4 Li     4.851111    4.851111   10.000000    ( 0.0000,  0.0000,  0.0000)
   5 Li     8.085185    4.851111   10.000000    ( 0.0000,  0.0000,  0.0000)
   6 Li     1.617037    8.085185   10.000000    ( 0.0000,  0.0000,  0.0000)
   7 Li     4.851111    8.085185   10.000000    ( 0.0000,  0.0000,  0.0000)
   8 Li     8.085185    8.085185   10.000000    ( 0.0000,  0.0000,  0.0000)
   9 Li     0.000000    0.000000   11.617037    ( 0.0000,  0.0000,  0.0000)
  10 Li     3.234074    0.000000   11.617037    ( 0.0000,  0.0000,  0.0000)
  11 Li     6.468148    0.000000   11.617037    ( 0.0000,  0.0000,  0.0000)
  12 Li     0.000000    3.234074   11.617037    ( 0.0000,  0.0000,  0.0000)
  13 Li     3.234074    3.234074   11.617037    ( 0.0000,  0.0000,  0.0000)
  14 Li     6.468148    3.234074   11.617037    ( 0.0000,  0.0000,  0.0000)
  15 Li     0.000000    6.468148   11.617037    ( 0.0000,  0.0000,  0.0000)
  16 Li     3.234074    6.468148   11.617037    ( 0.0000,  0.0000,  0.0000)
  17 Li     6.468148    6.468148   11.617037    ( 0.0000,  0.0000,  0.0000)
  18 Li     1.616518    1.616167   13.479977    ( 0.0000,  0.0000,  0.0000)
  19 Li     4.852321    1.617612   13.477767    ( 0.0000,  0.0000,  0.0000)
  20 Li     8.084569    1.617092   13.475546    ( 0.0000,  0.0000,  0.0000)
  21 Li     1.616964    4.851111   13.478014    ( 0.0000,  0.0000,  0.0000)
  22 Li     4.850628    4.851111   13.478357    ( 0.0000,  0.0000,  0.0000)
  23 Li     8.085759    4.851111   13.479947    ( 0.0000,  0.0000,  0.0000)
  24 Li     1.616518    8.086055   13.479977    ( 0.0000,  0.0000,  0.0000)
  25 Li     4.852321    8.084610   13.477767    ( 0.0000,  0.0000,  0.0000)
  26 Li     8.084569    8.085130   13.475546    ( 0.0000,  0.0000,  0.0000)
  27 Li    -0.002001   -0.000000   15.472918    ( 0.0000,  0.0000,  0.0000)
  28 Li     3.236199    0.000000   15.435590    ( 0.0000,  0.0000,  0.0000)
  29 Li     6.464851    0.000000   15.441147    ( 0.0000,  0.0000,  0.0000)
  30 Li     0.001347    3.235060   15.441943    ( 0.0000,  0.0000,  0.0000)
  31 Li     3.233362    3.231699   15.441804    ( 0.0000,  0.0000,  0.0000)
  32 Li     6.467249    3.235586   15.439376    ( 0.0000,  0.0000,  0.0000)
  33 Li     0.001347    6.467162   15.441943    ( 0.0000,  0.0000,  0.0000)
  34 Li     3.233362    6.470523   15.441804    ( 0.0000,  0.0000,  0.0000)
  35 Li     6.467249    6.466636   15.439376    ( 0.0000,  0.0000,  0.0000)
  36 F      9.743430    9.702222   18.418512    ( 0.0000,  0.0000,  0.0000)
  37 H     10.670466    9.702222   18.439091    ( 0.0000,  0.0000,  0.0000)

Unit cell:
           periodic     x           y           z      points  spacing
  1. axis:    yes    9.702222    0.000000    0.000000    60     0.1617
  2. axis:    yes    0.000000    9.702222    0.000000    60     0.1617
  3. axis:    no     0.000000    0.000000   24.851111   156     0.1593

  Lengths:   9.702222   9.702222  24.851111
  Angles:   90.000000  90.000000  90.000000

Effective grid spacing dv^(1/3) = 0.1609

     iter     time        total  log10-change:
                         energy  eigst   dens
iter:   1 09:16:35  -217.479615  -0.91
iter:   2 09:18:45  -217.383060  -1.48  -1.42
iter:   3 09:20:43  -217.373093  -2.72  -1.90
iter:   4 09:22:49  -217.372176c -2.29  -2.46
Writing to output.gpw (mode='')

iter:   5 09:24:57  -217.372357c -2.34  -2.83
iter:   6 09:26:53  -217.372492c -3.06  -2.83
iter:   7 09:28:54  -217.372600c -2.44  -2.92
iter:   8 09:31:02  -217.372563c -3.38  -2.88
iter:   9 09:33:07  -217.372632c -3.34  -3.22
Writing to output.gpw (mode='')

iter:  10 09:35:13  -217.372638c -3.55  -3.35
iter:  11 09:37:18  -217.372651c -3.86  -3.28
iter:  12 09:38:29  -217.372679c -3.72  -3.29
iter:  13 09:40:27  -217.372697c -4.57  -3.41
iter:  14 09:42:22  -217.372691c -4.40  -3.43
Writing to output.gpw (mode='')

iter:  15 09:44:20  -217.372697c -4.76  -3.59
iter:  16 09:46:28  -217.372702c -4.83  -3.82
iter:  17 09:48:32  -217.372704c -4.76  -3.86
iter:  18 09:50:31  -217.372703c -5.36  -3.90
iter:  19 09:52:33  -217.372703c -5.40  -4.07c
Writing to output.gpw (mode='')

iter:  20 09:54:31  -217.372705c -5.29  -4.19c
iter:  21 09:56:32  -217.372705c -5.51  -4.22c
iter:  22 09:58:32  -217.372705c -5.72  -4.28c
iter:  23 10:00:35  -217.372705c -5.69  -4.36c
iter:  24 10:02:35  -217.372705c -6.26  -4.74c
Writing to output.gpw (mode='')

iter:  25 10:04:34  -217.372705c -6.28  -4.84c
iter:  26 10:06:33  -217.372706c -6.33  -4.91c
iter:  27 10:08:28  -217.372706c -6.41  -5.00c
iter:  28 10:10:30  -217.372705c -6.43  -5.06c
iter:  29 10:12:30  -217.372705c -6.65  -5.17c
Writing to output.gpw (mode='')

iter:  30 10:14:34  -217.372706c -6.80  -5.20c
iter:  31 10:16:34  -217.372706c -6.87  -5.20c
iter:  32 10:18:41  -217.372706c -6.99  -5.24c
iter:  33 10:20:49  -217.372706c -7.04  -5.24c
iter:  34 10:22:57  -217.372706c -6.92  -5.21c
Writing to output.gpw (mode='')

iter:  35 10:25:09  -217.372706c -7.24  -5.02c
iter:  36 10:27:12  -217.372706c -7.22  -5.05c
iter:  37 10:27:59  -217.372706c -7.29  -5.02c
iter:  38 10:30:09  -217.372706c -7.47c -5.01c

Converged after 38 iterations.

Dipole moment: (-11.371470, -8.012409, 0.007592) |e|*Ang

Energy contributions relative to reference atoms: (reference = -10026.932476)

Kinetic:        +87.417277
Potential:      -76.256120
External:        +0.000000
XC:            -228.367361
Entropy (-ST):   -0.152741
Local:           -0.090131
--------------------------
Free energy:   -217.449077
Extrapolated:  -217.372706

Dipole-layer corrected work functions: 3.379545, 3.364949 eV

Showing only first 2 kpts
 Kpt  Band  Eigenvalues  Occupancy
  0    20     -3.39522    1.22573
  0    21     -3.36951    0.97268
  0    22     -3.32853    0.58867
  0    23     -3.32608    0.56859

  1    20     -3.62310    1.98684
  1    21     -3.53874    1.93088
  1    22     -3.20814    0.07238
  1    23     -3.11621    0.01187


Fermi level: -3.37225

No gap
Writing to output.gpw (mode='')


Forces in eV/Ang:
  0 Li    0.00151   -0.00157   -0.27294
  1 Li   -0.00058    0.00039   -0.27453
  2 Li   -0.00100    0.00302   -0.27185
  3 Li   -0.00112    0.00000   -0.27213
  4 Li    0.00339    0.00000   -0.27366
  5 Li   -0.00231    0.00000   -0.27311
  6 Li    0.00151    0.00157   -0.27294
  7 Li   -0.00058   -0.00039   -0.27453
  8 Li   -0.00100   -0.00302   -0.27185
  9 Li    0.00076    0.00000    0.27201
 10 Li    0.00334    0.00000    0.26608
 11 Li   -0.00398    0.00000    0.26804
 12 Li    0.00075    0.00049    0.26817
 13 Li   -0.00195   -0.00396    0.27216
 14 Li    0.00131    0.00650    0.26322
 15 Li    0.00075   -0.00049    0.26817
 16 Li   -0.00195    0.00396    0.27216
 17 Li    0.00131   -0.00650    0.26322
 18 Li   -0.00615   -0.00587    0.02662
 19 Li    0.00325    0.00222    0.01432
 20 Li    0.00235   -0.00367    0.01721
 21 Li    0.00027    0.00000    0.01726
 22 Li   -0.00250    0.00000    0.01701
 23 Li    0.00211    0.00000    0.02079
 24 Li   -0.00615    0.00587    0.02662
 25 Li    0.00325   -0.00222    0.01432
 26 Li    0.00235    0.00367    0.01721
 27 Li   -0.00826    0.00000    0.09625
 28 Li    0.00738    0.00000   -0.02797
 29 Li   -0.01122    0.00000   -0.01141
 30 Li    0.00310    0.00389   -0.00812
 31 Li   -0.00181   -0.00674   -0.00742
 32 Li   -0.00193    0.00330   -0.01477
 33 Li    0.00310   -0.00389   -0.00812
 34 Li   -0.00181    0.00674   -0.00742
 35 Li   -0.00193   -0.00330   -0.01477
 36 F    -0.38422    0.00000   -0.13981
 37 H     0.41175    0.00000   -0.01223

System changes: positions 

Initializing position-dependent things.

Density initialized from wave functions
       .-----------------------.  
      /|                       |  
     / |                       |  
    /  |                       |  
   /   |                       |  
  /    |                       |  
 *     |                       |  
 |     |                       |  
 |     |                       |  
 |     |                       |  
 |     |                       |  
 |     |                       |  
 |     |                       |  
 |     |                       |  
 F H Li|     Li      Li        |  
 |     |  Li      Li      Li   |  
 | Li  |   Li      Li          |  
 |     |Li      Li      Li     |  
 |     | Li      Li      Li    |  
 |   LLi     LLi     LLi       |  
 |     |  Li      Li      Li   |  
 | Li  |   Li      Li          |  
 |     |Li      Li      Li     |  
 Li    | Li      Li            |  
 |    Li      Li      Li       |  
 |     |                       |  
 |     |                       |  
 |     |                       |  
 |     |                       |  
 |     |                       |  
 |     |                       |  
 |     .-----------------------.  
 |    /                       /   
 |   /                       /    
 |  /                       /     
 | /                       /      
 |/                       /       
 *-----------------------*        

Positions:
   0 Li     1.617037    1.617037   10.000000    ( 0.0000,  0.0000,  0.0000)
   1 Li     4.851111    1.617037   10.000000    ( 0.0000,  0.0000,  0.0000)
   2 Li     8.085185    1.617037   10.000000    ( 0.0000,  0.0000,  0.0000)
   3 Li     1.617037    4.851111   10.000000    ( 0.0000,  0.0000,  0.0000)
   4 Li     4.851111    4.851111   10.000000    ( 0.0000,  0.0000,  0.0000)
   5 Li     8.085185    4.851111   10.000000    ( 0.0000,  0.0000,  0.0000)
   6 Li     1.617037    8.085185   10.000000    ( 0.0000,  0.0000,  0.0000)
   7 Li     4.851111    8.085185   10.000000    ( 0.0000,  0.0000,  0.0000)
   8 Li     8.085185    8.085185   10.000000    ( 0.0000,  0.0000,  0.0000)
   9 Li     0.000000    0.000000   11.617037    ( 0.0000,  0.0000,  0.0000)
  10 Li     3.234074    0.000000   11.617037    ( 0.0000,  0.0000,  0.0000)
  11 Li     6.468148    0.000000   11.617037    ( 0.0000,  0.0000,  0.0000)
  12 Li     0.000000    3.234074   11.617037    ( 0.0000,  0.0000,  0.0000)
  13 Li     3.234074    3.234074   11.617037    ( 0.0000,  0.0000,  0.0000)
  14 Li     6.468148    3.234074   11.617037    ( 0.0000,  0.0000,  0.0000)
  15 Li     0.000000    6.468148   11.617037    ( 0.0000,  0.0000,  0.0000)
  16 Li     3.234074    6.468148   11.617037    ( 0.0000,  0.0000,  0.0000)
  17 Li     6.468148    6.468148   11.617037    ( 0.0000,  0.0000,  0.0000)
  18 Li     1.615673    1.614865   13.494211    ( 0.0000,  0.0000,  0.0000)
  19 Li     4.853991    1.618424   13.488749    ( 0.0000,  0.0000,  0.0000)
  20 Li     8.083826    1.617065   13.483694    ( 0.0000,  0.0000,  0.0000)
  21 Li     1.616873    4.851111   13.489387    ( 0.0000,  0.0000,  0.0000)
  22 Li     4.849932    4.851111   13.490165    ( 0.0000,  0.0000,  0.0000)
  23 Li     8.086567    4.851111   13.493950    ( 0.0000,  0.0000,  0.0000)
  24 Li     1.615673    8.087357   13.494211    ( 0.0000,  0.0000,  0.0000)
  25 Li     4.853991    8.083798   13.488749    ( 0.0000,  0.0000,  0.0000)
  26 Li     8.083826    8.085157   13.483694    ( 0.0000,  0.0000,  0.0000)
  27 Li    -0.004890   -0.000000   15.510673    ( 0.0000,  0.0000,  0.0000)
  28 Li     3.239240    0.000000   15.421105    ( 0.0000,  0.0000,  0.0000)
  29 Li     6.460210    0.000000   15.434504    ( 0.0000,  0.0000,  0.0000)
  30 Li     0.003203    3.236465   15.436423    ( 0.0000,  0.0000,  0.0000)
  31 Li     3.232371    3.228392   15.436137    ( 0.0000,  0.0000,  0.0000)
  32 Li     6.466022    3.237650   15.430342    ( 0.0000,  0.0000,  0.0000)
  33 Li     0.003203    6.465757   15.436423    ( 0.0000,  0.0000,  0.0000)
  34 Li     3.232371    6.473830   15.436137    ( 0.0000,  0.0000,  0.0000)
  35 Li     6.466022    6.464572   15.430342    ( 0.0000,  0.0000,  0.0000)
  36 F      9.753451    9.702222   18.379788    ( 0.0000,  0.0000,  0.0000)
  37 H     10.674387    9.702222   18.430082    ( 0.0000,  0.0000,  0.0000)

Unit cell:
           periodic     x           y           z      points  spacing
  1. axis:    yes    9.702222    0.000000    0.000000    60     0.1617
  2. axis:    yes    0.000000    9.702222    0.000000    60     0.1617
  3. axis:    no     0.000000    0.000000   24.851111   156     0.1593

  Lengths:   9.702222   9.702222  24.851111
  Angles:   90.000000  90.000000  90.000000

Effective grid spacing dv^(1/3) = 0.1609

     iter     time        total  log10-change:
                         energy  eigst   dens
iter:   1 10:32:41  -217.885539  -0.22
iter:   2 10:34:41  -217.410452  -0.95  -1.10
iter:   3 10:36:44  -217.380963  -2.02  -1.65
iter:   4 10:38:47  -217.377390  -1.55  -2.12
Writing to output.gpw (mode='')

iter:   5 10:40:50  -217.378376c -1.65  -2.35
iter:   6 10:42:50  -217.378931c -2.47  -2.49
iter:   7 10:44:50  -217.379931c -1.73  -2.52
iter:   8 10:46:53  -217.379214c -2.51  -2.45
iter:   9 10:48:55  -217.379520c -2.59  -2.92
Writing to output.gpw (mode='')

iter:  10 10:50:54  -217.379560c -3.03  -2.94
iter:  11 10:53:01  -217.379723c -2.65  -3.05
iter:  12 10:54:59  -217.379763c -3.09  -2.90
iter:  13 10:57:10  -217.379801c -3.47  -3.20
iter:  14 10:59:26  -217.379812c -3.75  -3.24
Writing to output.gpw (mode='')

iter:  15 11:01:40  -217.379822c -3.72  -3.32
iter:  16 11:03:50  -217.379848c -3.81  -3.49
iter:  17 11:05:47  -217.379863c -3.90  -3.55
iter:  18 11:07:48  -217.379866c -4.34  -3.58
iter:  19 11:09:49  -217.379875c -4.20  -3.74
Writing to output.gpw (mode='')

iter:  20 11:11:50  -217.379876c -4.61  -3.77
iter:  21 11:13:56  -217.379876c -4.49  -3.77
iter:  22 11:16:06  -217.379879c -4.86  -3.84
iter:  23 11:18:10  -217.379882c -5.25  -3.88
iter:  24 11:20:13  -217.379877c -4.84  -4.06c
Writing to output.gpw (mode='')

iter:  25 11:22:21  -217.379880c -5.39  -4.27c
iter:  26 11:24:20  -217.379880c -5.50  -4.35c
iter:  27 11:26:27  -217.379881c -5.64  -4.36c
iter:  28 11:28:34  -217.379881c -5.77  -4.43c
iter:  29 11:30:39  -217.379881c -5.96  -4.60c
Writing to output.gpw (mode='')

iter:  30 11:32:42  -217.379882c -6.05  -4.62c
iter:  31 11:34:49  -217.379883c -6.08  -4.65c
iter:  32 11:36:52  -217.379882c -6.01  -4.68c
iter:  33 11:38:52  -217.379884c -6.29  -4.64c
iter:  34 11:40:52  -217.379884c -6.38  -4.84c
Writing to output.gpw (mode='')

iter:  35 11:42:49  -217.379885c -6.50  -4.91c
iter:  36 11:44:59  -217.379884c -6.46  -4.91c
iter:  37 11:47:06  -217.379885c -6.53  -5.27c
iter:  38 11:49:06  -217.379885c -6.68  -5.27c
iter:  39 11:51:09  -217.379884c -6.55  -5.36c
Writing to output.gpw (mode='')

iter:  40 11:53:15  -217.379885c -6.79  -5.42c
iter:  41 11:55:18  -217.379884c -6.75  -5.39c
iter:  42 11:57:20  -217.379884c -6.93  -5.17c
iter:  43 11:59:20  -217.379884c -6.90  -5.14c
iter:  44 12:01:26  -217.379884c -6.74  -5.10c
Writing to output.gpw (mode='')

iter:  45 12:03:41  -217.379884c -6.94  -5.04c
iter:  46 12:05:40  -217.379884c -7.07  -5.01c
iter:  47 12:07:40  -217.379884c -7.28  -4.95c
iter:  48 12:09:39  -217.379885c -7.31  -5.08c
iter:  49 12:11:45  -217.379885c -7.35  -5.12c
Writing to output.gpw (mode='')

iter:  50 12:13:50  -217.379885c -7.28  -5.10c
iter:  51 12:15:51  -217.379885c -7.30  -5.12c
iter:  52 12:17:54  -217.379885c -7.59c -5.28c

Converged after 52 iterations.

Dipole moment: (-12.094310, -8.010910, 0.021301) |e|*Ang

Energy contributions relative to reference atoms: (reference = -10026.932476)

Kinetic:        +87.776305
Potential:      -76.522744
External:        +0.000000
XC:            -228.466611
Entropy (-ST):   -0.153023
Local:           -0.090324
--------------------------
Free energy:   -217.456396
Extrapolated:  -217.379885

Dipole-layer corrected work functions: 3.379262, 3.338313 eV

Showing only first 2 kpts
 Kpt  Band  Eigenvalues  Occupancy
  0    20     -3.38108    1.21934
  0    21     -3.35493    0.96140
  0    22     -3.31797    0.61305
  0    23     -3.31505    0.58851

  1    20     -3.60606    1.98587
  1    21     -3.52484    1.93029
  1    22     -3.19365    0.07095
  1    23     -3.09885    0.01099


Fermi level: -3.35879

No gap
Writing to output.gpw (mode='')


Forces in eV/Ang:
  0 Li    0.00165   -0.00147   -0.27341
  1 Li   -0.00046    0.00062   -0.27617
  2 Li   -0.00126    0.00309   -0.27203
  3 Li   -0.00081    0.00000   -0.27373
  4 Li    0.00322    0.00000   -0.27450
  5 Li   -0.00236    0.00000   -0.27471
  6 Li    0.00165    0.00147   -0.27341
  7 Li   -0.00046   -0.00062   -0.27617
  8 Li   -0.00126   -0.00309   -0.27203
  9 Li    0.00221    0.00000    0.27767
 10 Li    0.00381    0.00000    0.27786
 11 Li   -0.00568    0.00000    0.27569
 12 Li    0.00141    0.00127    0.27801
 13 Li   -0.00324   -0.00544    0.28368
 14 Li    0.00192    0.00808    0.27348
 15 Li    0.00141   -0.00127    0.27801
 16 Li   -0.00324    0.00544    0.28368
 17 Li    0.00192   -0.00808    0.27348
 18 Li   -0.01300   -0.00995    0.00725
 19 Li    0.00132    0.00246   -0.01122
 20 Li    0.00961   -0.00975    0.00953
 21 Li    0.00122    0.00000   -0.00475
 22 Li   -0.00384    0.00000   -0.00751
 23 Li    0.00220    0.00000   -0.00721
 24 Li   -0.01300    0.00995    0.00725
 25 Li    0.00132   -0.00246   -0.01122
 26 Li    0.00961    0.00975    0.00953
 27 Li   -0.00839    0.00000    0.09264
 28 Li    0.00586    0.00000   -0.00865
 29 Li   -0.00911    0.00000   -0.00015
 30 Li   -0.00007    0.00416    0.00368
 31 Li   -0.00031   -0.00317    0.00618
 32 Li    0.00033   -0.00040    0.00153
 33 Li   -0.00007   -0.00416    0.00368
 34 Li   -0.00031    0.00317    0.00618
 35 Li    0.00033    0.00040    0.00153
 36 F    -0.72024    0.00000   -0.16245
 37 H     0.70947    0.00000    0.01720

System changes: positions 

Initializing position-dependent things.

Density initialized from wave functions
       .-----------------------.  
      /|                       |  
     / |                       |  
    /  |                       |  
   /   |                       |  
  /    |                       |  
 *     |                       |  
 |     |                       |  
 |     |                       |  
 |     |                       |  
 |     |                       |  
 |     |                       |  
 |     |                       |  
 |     |                       |  
 F H Li|     Li      Li        |  
 |     |  Li      Li      Li   |  
 | Li  |   Li      Li          |  
 |     |Li      Li      Li     |  
 |     | Li      Li      Li    |  
 |   LLi     LLi     LLi       |  
 |     |  Li      Li      Li   |  
 | Li  |   Li      Li          |  
 |     |Li      Li      Li     |  
 Li    | Li      Li            |  
 |    Li      Li      Li       |  
 |     |                       |  
 |     |                       |  
 |     |                       |  
 |     |                       |  
 |     |                       |  
 |     |                       |  
 |     .-----------------------.  
 |    /                       /   
 |   /                       /    
 |  /                       /     
 | /                       /      
 |/                       /       
 *-----------------------*        

Positions:
   0 Li     1.617037    1.617037   10.000000    ( 0.0000,  0.0000,  0.0000)
   1 Li     4.851111    1.617037   10.000000    ( 0.0000,  0.0000,  0.0000)
   2 Li     8.085185    1.617037   10.000000    ( 0.0000,  0.0000,  0.0000)
   3 Li     1.617037    4.851111   10.000000    ( 0.0000,  0.0000,  0.0000)
   4 Li     4.851111    4.851111   10.000000    ( 0.0000,  0.0000,  0.0000)
   5 Li     8.085185    4.851111   10.000000    ( 0.0000,  0.0000,  0.0000)
   6 Li     1.617037    8.085185   10.000000    ( 0.0000,  0.0000,  0.0000)
   7 Li     4.851111    8.085185   10.000000    ( 0.0000,  0.0000,  0.0000)
   8 Li     8.085185    8.085185   10.000000    ( 0.0000,  0.0000,  0.0000)
   9 Li     0.000000    0.000000   11.617037    ( 0.0000,  0.0000,  0.0000)
  10 Li     3.234074    0.000000   11.617037    ( 0.0000,  0.0000,  0.0000)
  11 Li     6.468148    0.000000   11.617037    ( 0.0000,  0.0000,  0.0000)
  12 Li     0.000000    3.234074   11.617037    ( 0.0000,  0.0000,  0.0000)
  13 Li     3.234074    3.234074   11.617037    ( 0.0000,  0.0000,  0.0000)
  14 Li     6.468148    3.234074   11.617037    ( 0.0000,  0.0000,  0.0000)
  15 Li     0.000000    6.468148   11.617037    ( 0.0000,  0.0000,  0.0000)
  16 Li     3.234074    6.468148   11.617037    ( 0.0000,  0.0000,  0.0000)
  17 Li     6.468148    6.468148   11.617037    ( 0.0000,  0.0000,  0.0000)
  18 Li     1.614710    1.613485   13.508300    ( 0.0000,  0.0000,  0.0000)
  19 Li     4.855651    1.619250   13.499451    ( 0.0000,  0.0000,  0.0000)
  20 Li     8.083189    1.616941   13.491813    ( 0.0000,  0.0000,  0.0000)
  21 Li     1.616796    4.851111   13.500543    ( 0.0000,  0.0000,  0.0000)
  22 Li     4.849205    4.851111   13.501720    ( 0.0000,  0.0000,  0.0000)
  23 Li     8.087386    4.851111   13.507670    ( 0.0000,  0.0000,  0.0000)
  24 Li     1.614710    8.088737   13.508300    ( 0.0000,  0.0000,  0.0000)
  25 Li     4.855651    8.082972   13.499451    ( 0.0000,  0.0000,  0.0000)
  26 Li     8.083189    8.085281   13.491813    ( 0.0000,  0.0000,  0.0000)
  27 Li    -0.007809   -0.000000   15.548823    ( 0.0000,  0.0000,  0.0000)
  28 Li     3.242289    0.000000   15.406768    ( 0.0000,  0.0000,  0.0000)
  29 Li     6.455550    0.000000   15.427967    ( 0.0000,  0.0000,  0.0000)
[...]
iter:  12 03:28:43  -217.577445c -4.28  -3.57
iter:  13 03:29:54  -217.577448c -4.89  -3.62
iter:  14 03:31:55  -217.577455c -5.13  -3.68
Writing to output.gpw (mode='')

iter:  15 03:33:54  -217.577458c -5.21  -3.84
iter:  16 03:35:51  -217.577458c -5.44  -3.94
iter:  17 03:37:44  -217.577460c -5.31  -3.95
iter:  18 03:39:39  -217.577461c -5.40  -4.13c
iter:  19 03:41:38  -217.577462c -5.62  -4.20c
Writing to output.gpw (mode='')

iter:  20 03:43:33  -217.577462c -5.95  -4.33c
iter:  21 03:45:35  -217.577462c -5.93  -4.37c
iter:  22 03:47:31  -217.577462c -6.07  -4.59c
iter:  23 03:49:34  -217.577462c -6.39  -4.61c
iter:  24 03:51:30  -217.577461c -6.42  -4.65c
Writing to output.gpw (mode='')

iter:  25 03:53:35  -217.577461c -6.41  -4.82c
iter:  26 03:55:35  -217.577461c -6.67  -5.02c
iter:  27 03:57:39  -217.577461c -6.81  -5.04c
iter:  28 03:59:43  -217.577461c -6.79  -5.08c
iter:  29 04:01:50  -217.577461c -6.99  -5.19c
Writing to output.gpw (mode='')

iter:  30 04:03:50  -217.577461c -7.11  -5.32c
iter:  31 04:05:54  -217.577461c -7.17  -5.35c
iter:  32 04:08:01  -217.577461c -7.21  -5.38c
iter:  33 04:09:57  -217.577461c -7.56c -5.55c

Converged after 33 iterations.

Dipole moment: (-12.639295, -7.998333, 0.009173) |e|*Ang

Energy contributions relative to reference atoms: (reference = -10026.932476)

Kinetic:        +87.997704
Potential:      -76.761284
External:        +0.000000
XC:            -228.645849
Entropy (-ST):   -0.152240
Local:           -0.091911
--------------------------
Free energy:   -217.653581
Extrapolated:  -217.577461

Dipole-layer corrected work functions: 3.375418, 3.357784 eV

Showing only first 2 kpts
 Kpt  Band  Eigenvalues  Occupancy
  0    20     -3.40515    1.36743
  0    21     -3.36016    0.93568
  0    22     -3.32546    0.61033
  0    23     -3.31429    0.51988

  1    20     -3.61177    1.98527
  1    21     -3.52520    1.91953
  1    22     -3.20640    0.07803
  1    23     -3.10517    0.01067


Fermi level: -3.36660

No gap
Writing to output.gpw (mode='')


Forces in eV/Ang:
  0 Li    0.00386   -0.00231   -0.27346
  1 Li    0.00111    0.00005   -0.28003
  2 Li   -0.00201    0.00471   -0.26911
  3 Li   -0.00179    0.00000   -0.27666
  4 Li    0.00519    0.00000   -0.26364
  5 Li   -0.00019    0.00000   -0.27715
  6 Li    0.00386    0.00231   -0.27346
  7 Li    0.00111   -0.00005   -0.28003
  8 Li   -0.00201   -0.00471   -0.26911
  9 Li   -0.00641    0.00000    0.26289
 10 Li   -0.01087    0.00000    0.29117
 11 Li   -0.01455    0.00000    0.27707
 12 Li    0.00322   -0.00353    0.28776
 13 Li   -0.03360   -0.01213    0.28532
 14 Li    0.01108    0.01984    0.26179
 15 Li    0.00322    0.00353    0.28776
 16 Li   -0.03360    0.01213    0.28532
 17 Li    0.01108   -0.01984    0.26179
 18 Li   -0.00129    0.00071   -0.00208
 19 Li   -0.00039   -0.00608    0.00861
 20 Li   -0.00328    0.00105    0.00233
 21 Li    0.00385    0.00000    0.00102
 22 Li   -0.00235    0.00000    0.00107
 23 Li    0.00306    0.00000    0.00210
 24 Li   -0.00129   -0.00071   -0.00208
 25 Li   -0.00039    0.00608    0.00861
 26 Li   -0.00328   -0.00105    0.00233
 27 Li    0.01348    0.00000    0.01164
 28 Li    0.00790    0.00000   -0.01692
 29 Li   -0.00599    0.00000   -0.01398
 30 Li   -0.00009   -0.00584   -0.00288
 31 Li    0.00065    0.00250   -0.00458
 32 Li   -0.00108   -0.00043   -0.00478
 33 Li   -0.00009    0.00584   -0.00288
 34 Li    0.00065   -0.00250   -0.00458
 35 Li   -0.00108    0.00043   -0.00478
 36 F     0.09959    0.00000    0.01714
 37 H    -0.02138    0.00000    0.00130

System changes: positions 

Initializing position-dependent things.

Density initialized from wave functions
       .-----------------------.  
      /|                       |  
     / |                       |  
    /  |                       |  
   /   |                       |  
  /    |                       |  
 *     |                       |  
 |     |                       |  
 |     |                       |  
 |     |                       |  
 |     |                       |  
 |     |                       |  
 |     |                       |  
 |     |                       |  
 |     |     Li      Li      Li|  
 F  H  |  Li      Li      Li   |  
 |     |   Li      Li      Li  |  
 |     |Li      Li      LLi    |  
 |     | Li      Li            |  
 |   LLi     LLi     LLi       |  
 |     |  Li      Li      Li   |  
 | Li  |   Li      Li          |  
 |     |Li      Li      Li     |  
 Li    | Li      Li            |  
 |    Li      Li      Li       |  
 |     |                       |  
 |     |                       |  
 |     |                       |  
 |     |                       |  
 |     |                       |  
 |     |                       |  
 |     .-----------------------.  
 |    /                       /   
 |   /                       /    
 |  /                       /     
 | /                       /      
 |/                       /       
 *-----------------------*        

Positions:
   0 Li     1.617037    1.617037   10.000000    ( 0.0000,  0.0000,  0.0000)
   1 Li     4.851111    1.617037   10.000000    ( 0.0000,  0.0000,  0.0000)
   2 Li     8.085185    1.617037   10.000000    ( 0.0000,  0.0000,  0.0000)
   3 Li     1.617037    4.851111   10.000000    ( 0.0000,  0.0000,  0.0000)
   4 Li     4.851111    4.851111   10.000000    ( 0.0000,  0.0000,  0.0000)
   5 Li     8.085185    4.851111   10.000000    ( 0.0000,  0.0000,  0.0000)
   6 Li     1.617037    8.085185   10.000000    ( 0.0000,  0.0000,  0.0000)
   7 Li     4.851111    8.085185   10.000000    ( 0.0000,  0.0000,  0.0000)
   8 Li     8.085185    8.085185   10.000000    ( 0.0000,  0.0000,  0.0000)
   9 Li     0.000000    0.000000   11.617037    ( 0.0000,  0.0000,  0.0000)
  10 Li     3.234074    0.000000   11.617037    ( 0.0000,  0.0000,  0.0000)
  11 Li     6.468148    0.000000   11.617037    ( 0.0000,  0.0000,  0.0000)
  12 Li     0.000000    3.234074   11.617037    ( 0.0000,  0.0000,  0.0000)
  13 Li     3.234074    3.234074   11.617037    ( 0.0000,  0.0000,  0.0000)
  14 Li     6.468148    3.234074   11.617037    ( 0.0000,  0.0000,  0.0000)
  15 Li     0.000000    6.468148   11.617037    ( 0.0000,  0.0000,  0.0000)
  16 Li     3.234074    6.468148   11.617037    ( 0.0000,  0.0000,  0.0000)
  17 Li     6.468148    6.468148   11.617037    ( 0.0000,  0.0000,  0.0000)
  18 Li     1.572163    1.593305   13.532564    ( 0.0000,  0.0000,  0.0000)
  19 Li     4.837560    1.649428   13.454435    ( 0.0000,  0.0000,  0.0000)
  20 Li     8.076197    1.605345   13.485346    ( 0.0000,  0.0000,  0.0000)
  21 Li     1.619961    4.851111   13.497496    ( 0.0000,  0.0000,  0.0000)
  22 Li     4.848653    4.851111   13.490720    ( 0.0000,  0.0000,  0.0000)
  23 Li     8.082355    4.851111   13.491605    ( 0.0000,  0.0000,  0.0000)
  24 Li     1.572163    8.108917   13.532564    ( 0.0000,  0.0000,  0.0000)
  25 Li     4.837560    8.052794   13.454435    ( 0.0000,  0.0000,  0.0000)
  26 Li     8.076197    8.096877   13.485346    ( 0.0000,  0.0000,  0.0000)
  27 Li    -0.194660   -0.000000   15.643615    ( 0.0000,  0.0000,  0.0000)
  28 Li     3.246989    0.000000   15.375163    ( 0.0000,  0.0000,  0.0000)
  29 Li     6.344065    0.000000   15.400893    ( 0.0000,  0.0000,  0.0000)
  30 Li    -0.004633    3.275408   15.437309    ( 0.0000,  0.0000,  0.0000)
  31 Li     3.237922    3.214698   15.457028    ( 0.0000,  0.0000,  0.0000)
  32 Li     6.471141    3.233752   15.421760    ( 0.0000,  0.0000,  0.0000)
  33 Li    -0.004633    6.426814   15.437309    ( 0.0000,  0.0000,  0.0000)
  34 Li     3.237922    6.487524   15.457028    ( 0.0000,  0.0000,  0.0000)
  35 Li     6.471141    6.468470   15.421760    ( 0.0000,  0.0000,  0.0000)
  36 F      9.900124    9.702222   17.552133    ( 0.0000,  0.0000,  0.0000)
  37 H     10.852234    9.702222   17.515433    ( 0.0000,  0.0000,  0.0000)

Unit cell:
           periodic     x           y           z      points  spacing
  1. axis:    yes    9.702222    0.000000    0.000000    60     0.1617
  2. axis:    yes    0.000000    9.702222    0.000000    60     0.1617
  3. axis:    no     0.000000    0.000000   24.851111   156     0.1593

  Lengths:   9.702222   9.702222  24.851111
  Angles:   90.000000  90.000000  90.000000

Effective grid spacing dv^(1/3) = 0.1609

     iter     time        total  log10-change:
                         energy  eigst   dens
iter:   1 04:12:12  -217.593761  -1.54
iter:   2 04:14:15  -217.580060  -2.27  -1.85
iter:   3 04:16:33  -217.578928c -3.01  -2.27
iter:   4 04:18:39  -217.578030c -2.83  -2.49
Writing to output.gpw (mode='')

iter:   5 04:20:36  -217.577959c -3.42  -2.80
iter:   6 04:22:33  -217.577941c -3.09  -2.90
iter:   7 04:24:33  -217.577935c -3.24  -2.97
iter:   8 04:26:39  -217.577883c -3.84  -3.02
iter:   9 04:28:47  -217.577886c -4.28  -3.37
Writing to output.gpw (mode='')

iter:  10 04:30:53  -217.577884c -4.80  -3.42
iter:  11 04:32:49  -217.577874c -4.51  -3.47
iter:  12 04:34:59  -217.577879c -4.83  -3.84
iter:  13 04:37:00  -217.577881c -5.11  -3.85
iter:  14 04:39:06  -217.577890c -5.17  -3.90
Writing to output.gpw (mode='')

iter:  15 04:41:16  -217.577892c -5.13  -4.01c
iter:  16 04:43:16  -217.577891c -5.62  -4.11c
iter:  17 04:45:21  -217.577891c -5.77  -4.16c
iter:  18 04:47:27  -217.577891c -5.82  -4.18c
iter:  19 04:49:23  -217.577889c -5.73  -4.37c
Writing to output.gpw (mode='')

iter:  20 04:51:21  -217.577889c -6.17  -4.36c
iter:  21 04:53:19  -217.577890c -6.12  -4.42c
iter:  22 04:55:17  -217.577889c -6.34  -4.43c
iter:  23 04:57:14  -217.577890c -6.39  -4.53c
iter:  24 04:59:13  -217.577890c -6.56  -4.81c
Writing to output.gpw (mode='')

iter:  25 05:01:09  -217.577891c -6.59  -4.89c
iter:  26 05:03:14  -217.577890c -6.53  -5.00c
iter:  27 05:05:13  -217.577890c -6.83  -5.27c
iter:  28 05:07:19  -217.577890c -6.97  -5.27c
iter:  29 05:09:23  -217.577890c -6.85  -5.25c
Writing to output.gpw (mode='')

iter:  30 05:11:37  -217.577890c -7.20  -5.18c
iter:  31 05:13:39  -217.577890c -7.12  -5.15c
iter:  32 05:15:36  -217.577890c -7.50c -5.13c

Converged after 32 iterations.

Dipole moment: (-12.662945, -7.998931, 0.013204) |e|*Ang

Energy contributions relative to reference atoms: (reference = -10026.932476)

Kinetic:        +88.100528
Potential:      -76.837977
External:        +0.000000
XC:            -228.672476
Entropy (-ST):   -0.152310
Local:           -0.091811
--------------------------
Free energy:   -217.654045
Extrapolated:  -217.577890

Dipole-layer corrected work functions: 3.375201, 3.349818 eV

Showing only first 2 kpts
 Kpt  Band  Eigenvalues  Occupancy
  0    20     -3.40118    1.36855
  0    21     -3.35547    0.92974
  0    22     -3.32179    0.61390
  0    23     -3.31086    0.52499

  1    20     -3.60722    1.98513
  1    21     -3.52128    1.91980
  1    22     -3.20217    0.07782
  1    23     -3.10059    0.01056


Fermi level: -3.36251

No gap
Writing to output.gpw (mode='')


Forces in eV/Ang:
  0 Li    0.00412   -0.00217   -0.27359
  1 Li    0.00116    0.00058   -0.28013
  2 Li   -0.00194    0.00453   -0.26920
  3 Li   -0.00211    0.00000   -0.27770
  4 Li    0.00543    0.00000   -0.26388
  5 Li   -0.00008    0.00000   -0.27716
  6 Li    0.00412    0.00217   -0.27359
  7 Li    0.00116   -0.00058   -0.28013
  8 Li   -0.00194   -0.00453   -0.26920
  9 Li   -0.00389    0.00000    0.26365
 10 Li   -0.01286    0.00000    0.29435
 11 Li   -0.02001    0.00000    0.27735
 12 Li    0.00223   -0.00363    0.29027
 13 Li   -0.03735   -0.00930    0.28829
 14 Li    0.01240    0.02088    0.26160
 15 Li    0.00223    0.00363    0.29027
 16 Li   -0.03735    0.00930    0.28829
 17 Li    0.01240   -0.02088    0.26160
 18 Li   -0.00178    0.00219   -0.01297
 19 Li    0.00277   -0.01531    0.00796
 20 Li    0.00256   -0.00042    0.01071
 21 Li    0.01397    0.00000   -0.00635
 22 Li   -0.00879    0.00000   -0.00287
 23 Li    0.00515    0.00000   -0.01201
 24 Li   -0.00178   -0.00219   -0.01297
 25 Li    0.00277    0.01531    0.00796
 26 Li    0.00256    0.00042    0.01071
 27 Li    0.00567    0.00000   -0.00116
 28 Li    0.01449    0.00000   -0.01700
 29 Li   -0.00286    0.00000   -0.01651
 30 Li   -0.00244   -0.00493    0.00153
 31 Li   -0.00038    0.00225   -0.00130
 32 Li   -0.00178   -0.00247    0.00046
 33 Li   -0.00244    0.00493    0.00153
 34 Li   -0.00038   -0.00225   -0.00130
 35 Li   -0.00178    0.00247    0.00046
 36 F     0.01479    0.00000    0.01528
 37 H     0.04650    0.00000   -0.00736

Timing:                                      incl.     excl.
-------------------------------------------------------------------
Density initialized from wave functions:    88.183    64.327   0.0% |
 Symmetrize density:                        23.856    23.856   0.0% |
Forces:                                    250.818   250.818   0.1% |
Hamiltonian:                              6719.119     0.012   0.0% |
 Atomic:                                    11.020     0.141   0.0% |
  XC Correction:                            10.879    10.879   0.0% |
 Calculate atomic Hamiltonians:             20.541    20.541   0.0% |
 Communicate:                               24.674    24.674   0.0% |
 Hartree integrate/restrict:                10.130    10.130   0.0% |
 Initialize Hamiltonian:                     0.000     0.000   0.0% |
 Poisson:                                  163.593    68.584   0.0% |
  Communicate from 1D:                      18.132    18.132   0.0% |
  Communicate from 2D:                      19.047    19.047   0.0% |
  Communicate to 1D:                        10.841    10.841   0.0% |
  Communicate to 2D:                        18.447    18.447   0.0% |
  FFT 1D:                                   14.569    14.569   0.0% |
  FFT 2D:                                   13.973    13.973   0.0% |
 XC 3D grid:                              6487.810   402.440   0.1% |
  VdW-DF integral:                        6085.370    14.816   0.0% |
   Convolution:                            400.900   400.900   0.1% |
   FFT:                                     74.789    74.789   0.0% |
   gather:                                4807.531  4807.531   1.7% ||
   hmm1:                                    63.110    63.110   0.0% |
   hmm2:                                    93.069    93.069   0.0% |
   iFFT:                                    73.223    73.223   0.0% |
   potential:                              543.560     3.910   0.0% |
    collect:                                74.047    74.047   0.0% |
    p1:                                    196.483   196.483   0.1% |
    p2:                                    133.010   133.010   0.0% |
    sum:                                   136.111   136.111   0.0% |
   splines:                                 14.371    14.371   0.0% |
 vbar:                                       1.339     1.339   0.0% |
LCAO initialization:                         5.503     0.251   0.0% |
 LCAO eigensolver:                           2.336     0.001   0.0% |
  Calculate projections:                     0.000     0.000   0.0% |
  DenseAtomicCorrection:                     0.000     0.000   0.0% |
  Distribute overlap matrix:                 2.151     2.151   0.0% |
  Orbital Layouts:                           0.114     0.114   0.0% |
  Potential matrix:                          0.053     0.053   0.0% |
  Sum over cells:                            0.017     0.017   0.0% |
 LCAO to grid:                               2.082     2.082   0.0% |
 Set positions (LCAO WFS):                   0.834     0.668   0.0% |
  Basic WFS set positions:                   0.006     0.006   0.0% |
  Basis functions set positions:             0.001     0.001   0.0% |
  P tci:                                     0.001     0.001   0.0% |
  ST tci:                                    0.077     0.077   0.0% |
  mktci:                                     0.082     0.082   0.0% |
Redistribute:                                0.120     0.120   0.0% |
SCF-cycle:                               271383.171  3291.919   1.2% |
 Davidson:                               47515.912 23812.011   8.5% |--|
  Apply hamiltonian:                      2793.781  2793.781   1.0% |
  Subspace diag:                          5574.004     0.625   0.0% |
   calc_h_matrix:                         3518.868   779.496   0.3% |
    Apply hamiltonian:                    2739.372  2739.372   1.0% |
   diagonalize:                            391.679   391.679   0.1% |
   rotate_psi:                            1662.832  1662.832   0.6% |
  calc. matrices:                        12014.195  6650.180   2.4% ||
   Apply hamiltonian:                     5364.015  5364.015   1.9% ||
  diagonalize:                              21.344    21.344   0.0% |
  rotate_psi:                             3300.577  3300.577   1.2% |
 Density:                                 1801.619     0.128   0.0% |
  Atomic density matrices:                 271.210   271.210   0.1% |
  Mix:                                     464.963   464.963   0.2% |
  Multipole moments:                        18.656    18.656   0.0% |
  Pseudo density:                         1046.662   351.946   0.1% |
   Symmetrize density:                     694.716   694.716   0.2% |
 Hamiltonian:                            218685.115     0.717   0.0% |
  Atomic:                                  360.748     3.582   0.0% |
   XC Correction:                          357.166   357.166   0.1% |
  Calculate atomic Hamiltonians:           669.355   669.355   0.2% |
  Communicate:                             825.557   825.557   0.3% |
  Hartree integrate/restrict:              317.989   317.989   0.1% |
  Poisson:                                5349.542  2229.043   0.8% |
   Communicate from 1D:                    609.270   609.270   0.2% |
   Communicate from 2D:                    618.356   618.356   0.2% |
   Communicate to 1D:                      354.237   354.237   0.1% |
   Communicate to 2D:                      615.659   615.659   0.2% |
   FFT 1D:                                 476.660   476.660   0.2% |
   FFT 2D:                                 446.318   446.318   0.2% |
  XC 3D grid:                            211117.287 13290.705   4.8% |-|
   VdW-DF integral:                      197826.582   493.916   0.2% |
    Convolution:                         13207.327 13207.327   4.7% |-|
    FFT:                                  2458.337  2458.337   0.9% |
    gather:                              156241.533 156241.533  56.0% |---------------------|
    hmm1:                                 2110.038  2110.038   0.8% |
    hmm2:                                 3067.216  3067.216   1.1% |
    iFFT:                                 2424.313  2424.313   0.9% |
    potential:                           17823.880   133.441   0.0% |
     collect:                             2436.870  2436.870   0.9% |
     p1:                                  6514.587  6514.587   2.3% ||
     p2:                                  4367.115  4367.115   1.6% ||
     sum:                                 4371.867  4371.867   1.6% ||
    splines:                                 0.021     0.021   0.0% |
  vbar:                                     43.919    43.919   0.0% |
 Orthonormalize:                            88.605     0.035   0.0% |
  calc_s_matrix:                            11.536    11.536   0.0% |
  inverse-cholesky:                          5.715     5.715   0.0% |
  projections:                              46.007    46.007   0.0% |
  rotate_psi_s:                             25.313    25.313   0.0% |
Set symmetry:                                0.004     0.004   0.0% |
Other:                                     774.022   774.022   0.3% |
-------------------------------------------------------------------
Total:                                             279220.939 100.0%

Memory usage: 1.16 GiB
Date: Sat Jan 21 05:15:41 2023
