
  ___ ___ ___ _ _ _  
 |   |   |_  | | | | 
 | | | | | . | | | | 
 |__ |  _|___|_____|  22.8.0
 |___|_|             

User:   vazumah@f001
Date:   Tue Feb 28 01:20:14 2023
Arch:   x86_64
Pid:    41292
CWD:    /home/vazumah/Research_Projects/LiMEAS/LiNRR_proton_donors/N2_with_proton_donor/Li_BCC_100/adsorbates/CH3CH2OH_z_recalcs/ontop/9.702_9.702/N2_x
Python: 3.10.6
gpaw:   /home/vazumah/anaconda3/envs/NAME/lib/python3.10/site-packages/gpaw
_gpaw:  /home/vazumah/anaconda3/envs/NAME/lib/python3.10/site-packages/
        _gpaw.cpython-310-x86_64-linux-gnu.so
ase:    /home/vazumah/anaconda3/envs/NAME/lib/python3.10/site-packages/ase (version 3.22.1)
numpy:  /home/vazumah/anaconda3/envs/NAME/lib/python3.10/site-packages/numpy (version 1.23.3)
scipy:  /home/vazumah/anaconda3/envs/NAME/lib/python3.10/site-packages/scipy (version 1.9.1)
libxc:  5.2.3
units:  Angstrom and eV
cores: 32
OpenMP: True
OMP_NUM_THREADS: 1

Input parameters:
  h: 0.16
  kpts: {size: [4, 4, 1]}
  occupations: {name: fermi-dirac,
                width: 0.05}
  poissonsolver: {dipolelayer: xy}
  xc: BEEF-vdW

System changes: positions, numbers, cell, pbc, initial_charges, initial_magmoms 

Initialize ...

species:
  Li:
    name: Lithium
    id: 830b4218f175192f93f959cfc0aad614
    Z: 3.0
    valence: 1
    core: 2
    charge: 0.0
    file: /home/vazumah/anaconda3/envs/NAME/share/gpaw/Li.PBE.gz
    compensation charges: {type: gauss,
                           rc: 0.33,
                           lmax: 2}
    cutoffs: {filter: 1.91,
              core: 2.55}
    valence states:
      #              energy  rcut
      - 2s(1.00)    -2.874   1.058
      - 2p(0.00)    -1.090   1.058
      -  s          24.337   1.058
  
    # Using partial waves for Li as LCAO basis

  O:
    name: Oxygen
    id: 32ecd46bf208036f09c70b0ec9a88b78
    Z: 8.0
    valence: 6
    core: 2
    charge: 0.0
    file: /home/vazumah/anaconda3/envs/NAME/share/gpaw/O.PBE.gz
    compensation charges: {type: gauss,
                           rc: 0.21,
                           lmax: 2}
    cutoffs: {filter: 1.17,
              core: 0.83}
    valence states:
      #              energy  rcut
      - 2s(2.00)   -23.961   0.688
      - 2p(4.00)    -9.029   0.598
      -  s           3.251   0.688
      -  p          18.182   0.598
      -  d           0.000   0.619
  
    # Using partial waves for O as LCAO basis

  C:
    name: Carbon
    id: 4aa54d4b901d75f77cc0ea3eec22967b
    Z: 6.0
    valence: 4
    core: 2
    charge: 0.0
    file: /home/vazumah/anaconda3/envs/NAME/share/gpaw/C.PBE.gz
    compensation charges: {type: gauss,
                           rc: 0.20,
                           lmax: 2}
    cutoffs: {filter: 1.14,
              core: 1.14}
    valence states:
      #              energy  rcut
      - 2s(2.00)   -13.751   0.635
      - 2p(2.00)    -5.284   0.635
      -  s          13.461   0.635
      -  p          21.927   0.635
      -  d           0.000   0.635
  
    # Using partial waves for C as LCAO basis

  H:
    name: Hydrogen
    id: d65de229564ff8ea4db303e23b6d1ecf
    Z: 1.0
    valence: 1
    core: 0
    charge: 0.0
    file: /home/vazumah/anaconda3/envs/NAME/share/gpaw/H.PBE.gz
    compensation charges: {type: gauss,
                           rc: 0.15,
                           lmax: 2}
    cutoffs: {filter: 0.85,
              core: 0.53}
    valence states:
      #              energy  rcut
      - 1s(1.00)    -6.494   0.476
      -  s          20.717   0.476
      -  p           0.000   0.476
  
    # Using partial waves for H as LCAO basis

  N:
    name: Nitrogen
    id: f7500608b86eaa90eef8b1d9a670dc53
    Z: 7.0
    valence: 5
    core: 2
    charge: 0.0
    file: /home/vazumah/anaconda3/envs/NAME/share/gpaw/N.PBE.gz
    compensation charges: {type: gauss,
                           rc: 0.18,
                           lmax: 2}
    cutoffs: {filter: 1.11,
              core: 0.96}
    valence states:
      #              energy  rcut
      - 2s(2.00)   -18.583   0.603
      - 2p(3.00)    -7.089   0.529
      -  s           8.629   0.603
      -  p          20.123   0.529
      -  d           0.000   0.577
  
    # Using partial waves for N as LCAO basis

Reference energy: -14434.854043  # eV

Spin-paired calculation

Convergence criteria:
 Maximum [total energy] change in last 3 cyles: 0.0005 eV / electron
 Maximum integral of absolute [dens]ity change: 0.0001 electrons / valence electron
 Maximum integral of absolute [eigenst]ate change: 4e-08 eV^2 / valence electron
 Maximum number of scf [iter]ations: 333
 (Square brackets indicate name in SCF output, whereas a 'c' in
 the SCF output indicates the quantity has converged.)

Symmetries present (total): 1

  ( 1  0  0)
  ( 0  1  0)
  ( 0  0  1)

16 k-points: 4 x 4 x 1 Monkhorst-Pack grid
8 k-points in the irreducible part of the Brillouin zone
       k-points in crystal coordinates                weights
   0:     0.12500000   -0.37500000    0.00000000          2/16
   1:     0.12500000   -0.12500000    0.00000000          2/16
   2:     0.12500000    0.12500000    0.00000000          2/16
   3:     0.12500000    0.37500000    0.00000000          2/16
   4:     0.37500000   -0.37500000    0.00000000          2/16
   5:     0.37500000   -0.12500000    0.00000000          2/16
   6:     0.37500000    0.12500000    0.00000000          2/16
   7:     0.37500000    0.37500000    0.00000000          2/16

Wave functions: Uniform real-space grid
  Kinetic energy operator: 6*3+1=19 point O(h^6) finite-difference Laplacian
  ScaLapack parameters: grid=1x1, blocksize=None
  Wavefunction extrapolation:
    Improved wavefunction reuse through dual PAW basis 

Occupation numbers: Fermi-Dirac:
  width: 0.0500  # eV
 

Eigensolver
   Davidson(niter=2) 

Densities:
  Coarse grid: 60*60*164 grid
  Fine grid: 120*120*328 grid
  Total Charge: 0.000000 

Density mixing:
  Method: separate
  Backend: pulay
  Linear mixing parameter: 0.05
  old densities: 5
  Damping of long wavelength oscillations: 50 

Hamiltonian:
  XC and Coulomb potentials evaluated on a 120*120*328 grid
  Using the BEEF-vdW Exchange-Correlation functional
  Interpolation: tri-quintic (5. degree polynomial)
  Poisson solver: FastPoissonSolver using
    Stencil: 6*3+1=19 point O(h^6) finite-difference Laplacian
    FFT axes: [0, 1]
    FST axes: [2]

Dipole correction along z-axis 

XC parameters: BEEF-vdW with 2 nearest neighbor stencil

Memory estimate:
  Process memory now: 220.71 MiB
  Calculator: 320.00 MiB
    Density: 89.88 MiB
      Arrays: 28.89 MiB
      Localized functions: 50.00 MiB
      Mixer: 10.99 MiB
    Hamiltonian: 22.85 MiB
      Arrays: 18.90 MiB
      XC: 0.00 MiB
      Poisson: 0.00 MiB
      vbar: 3.95 MiB
    Wavefunctions: 207.27 MiB
      Arrays psit_nG: 96.68 MiB
      Eigensolver: 107.96 MiB
      Projections: 0.05 MiB
      Projectors: 2.58 MiB

Total number of cores used: 32
Parallelization over k-points: 8
Domain decomposition: 1 x 1 x 4

Number of atoms: 47
Number of atomic orbitals: 170
Number of bands in calculation: 44
Number of valence electrons: 66
Bands to converge: occupied

... initialized

Initializing position-dependent things.

Density initialized from atomic densities
Creating initial wave functions:
  44 bands from LCAO basis set

       .-----------------------.  
      /|                       |  
     / H                       |  
    /  |                       |  
   /   |                       |  
  /    |H                   H C|  
 *     |                       |  
 |     |                       |  
 |     |               H       |  
 C  H  |                       |  
 |     |                       |  
 |     |                    N  N  
 O     |               H       |  
 |     |                       |  
 |     |                       |  
 |   Li|     Li      Li        |  
 |     |                       |  
 | Li  |  LLi     LLi     Li   |  
 |     |                       |  
 Li    |LLi     LLi     Li     |  
 |   Li|     Li      Li        |  
 |    Li  Li  Li  Li  Li  Li   |  
 | Li  |   Li      Li          |  
 |     |Li      Li      Li     |  
 Li    | Li      Li            |  
 |    Li      Li      Li       |  
 |     |                       |  
 |     |                       |  
 |     |                       |  
 |     |                       |  
 |     |                       |  
 |     |                       |  
 |     .-----------------------.  
 |    /                       /   
 |   /                       /    
 |  /                       /     
 | /                       /      
 |/                       /       
 *-----------------------*        

Positions:
   0 Li     1.617037    1.617037   10.000000    ( 0.0000,  0.0000,  0.0000)
   1 Li     4.851111    1.617037   10.000000    ( 0.0000,  0.0000,  0.0000)
   2 Li     8.085185    1.617037   10.000000    ( 0.0000,  0.0000,  0.0000)
   3 Li     1.617037    4.851111   10.000000    ( 0.0000,  0.0000,  0.0000)
   4 Li     4.851111    4.851111   10.000000    ( 0.0000,  0.0000,  0.0000)
   5 Li     8.085185    4.851111   10.000000    ( 0.0000,  0.0000,  0.0000)
   6 Li     1.617037    8.085185   10.000000    ( 0.0000,  0.0000,  0.0000)
   7 Li     4.851111    8.085185   10.000000    ( 0.0000,  0.0000,  0.0000)
   8 Li     8.085185    8.085185   10.000000    ( 0.0000,  0.0000,  0.0000)
   9 Li     0.000000    0.000000   11.617037    ( 0.0000,  0.0000,  0.0000)
  10 Li     3.234074    0.000000   11.617037    ( 0.0000,  0.0000,  0.0000)
  11 Li     6.468148    0.000000   11.617037    ( 0.0000,  0.0000,  0.0000)
  12 Li     0.000000    3.234074   11.617037    ( 0.0000,  0.0000,  0.0000)
  13 Li     3.234074    3.234074   11.617037    ( 0.0000,  0.0000,  0.0000)
  14 Li     6.468148    3.234074   11.617037    ( 0.0000,  0.0000,  0.0000)
  15 Li     0.000000    6.468148   11.617037    ( 0.0000,  0.0000,  0.0000)
  16 Li     3.234074    6.468148   11.617037    ( 0.0000,  0.0000,  0.0000)
  17 Li     6.468148    6.468148   11.617037    ( 0.0000,  0.0000,  0.0000)
  18 Li     1.617038    1.617038   13.469728    ( 0.0000,  0.0000,  0.0000)
  19 Li     4.851111    1.617038   13.469729    ( 0.0000,  0.0000,  0.0000)
  20 Li     8.085184    1.617038   13.469728    ( 0.0000,  0.0000,  0.0000)
  21 Li     1.617038    4.851111   13.469729    ( 0.0000,  0.0000,  0.0000)
  22 Li     4.851111    4.851111   13.469730    ( 0.0000,  0.0000,  0.0000)
  23 Li     8.085184    4.851111   13.469729    ( 0.0000,  0.0000,  0.0000)
  24 Li     1.617038    8.085184   13.469728    ( 0.0000,  0.0000,  0.0000)
  25 Li     4.851111    8.085184   13.469729    ( 0.0000,  0.0000,  0.0000)
  26 Li     8.085184    8.085184   13.469728    ( 0.0000,  0.0000,  0.0000)
  27 Li    -0.000000   -0.000000   15.445939    ( 0.0000,  0.0000,  0.0000)
  28 Li     3.234074    0.000000   15.445939    ( 0.0000,  0.0000,  0.0000)
  29 Li     6.468148    0.000000   15.445939    ( 0.0000,  0.0000,  0.0000)
  30 Li     0.000000    3.234074   15.445939    ( 0.0000,  0.0000,  0.0000)
  31 Li     3.234076    3.234076   15.445938    ( 0.0000,  0.0000,  0.0000)
  32 Li     6.468146    3.234076   15.445938    ( 0.0000,  0.0000,  0.0000)
  33 Li     0.000000    6.468148   15.445939    ( 0.0000,  0.0000,  0.0000)
  34 Li     3.234076    6.468146   15.445938    ( 0.0000,  0.0000,  0.0000)
  35 Li     6.468146    6.468146   15.445938    ( 0.0000,  0.0000,  0.0000)
  36 O      9.702222    9.702222   21.445939    ( 0.0000,  0.0000,  0.0000)
  37 C      9.697924    8.885465   22.628347    ( 0.0000,  0.0000,  0.0000)
  38 C      9.712457    9.705083   23.912561    ( 0.0000,  0.0000,  0.0000)
  39 H      8.837764    8.201929   22.619724    ( 0.0000,  0.0000,  0.0000)
  40 H     10.600719    8.275739   22.552958    ( 0.0000,  0.0000,  0.0000)
  41 H      9.727892    9.051137   24.789488    ( 0.0000,  0.0000,  0.0000)
  42 H     10.589275   10.354106   23.947273    ( 0.0000,  0.0000,  0.0000)
  43 H      8.819896   10.333571   23.982749    ( 0.0000,  0.0000,  0.0000)
  44 H      8.933997   10.285199   21.485106    ( 0.0000,  0.0000,  0.0000)
  45 N      9.702000    9.702000   16.945939    ( 0.0000,  0.0000,  0.0000)
  46 N      8.605378    9.702000   16.945939    ( 0.0000,  0.0000,  0.0000)

Unit cell:
           periodic     x           y           z      points  spacing
  1. axis:    yes    9.702222    0.000000    0.000000    60     0.1617
  2. axis:    yes    0.000000    9.702222    0.000000    60     0.1617
  3. axis:    no     0.000000    0.000000   26.351111   164     0.1607

  Lengths:   9.702222   9.702222  26.351111
  Angles:   90.000000  90.000000  90.000000

Effective grid spacing dv^(1/3) = 0.1614

     iter     time        total  log10-change:
                         energy  eigst   dens
iter:   1 01:21:15  -624.059055
iter:   2 01:21:49   -34.753641  +2.56  +0.01
iter:   3 01:22:19   169.648289  +3.03  -0.16
iter:   4 01:22:59    67.810424  +3.16  -0.19
Writing to output.gpw (mode='')

iter:   5 01:23:29  -227.035861  +3.12  -0.20
iter:   6 01:24:26  -368.507649  +2.84  -0.33
iter:   7 01:24:59  -340.667867  +2.47  -0.31
iter:   8 01:25:32  -359.063963  +2.33  -0.41
iter:   9 01:26:07  -457.896178  +2.43  -0.36
Writing to output.gpw (mode='')

iter:  10 01:26:46  -338.549381  +1.87  -0.27
iter:  11 01:27:21  -324.897139  +1.73  -0.55
iter:  12 01:27:52  -328.536329  +1.57  -0.66
iter:  13 01:28:27  -323.227434  +1.57  -0.62
iter:  14 01:29:03  -316.576509  +0.97  -0.56
Writing to output.gpw (mode='')

iter:  15 01:29:38  -314.483668  +1.14  -0.68
iter:  16 01:30:13  -314.049196  +0.92  -0.72
iter:  17 01:30:47  -314.460387  +1.11  -0.66
iter:  18 01:31:27  -314.083027  +0.90  -0.72
iter:  19 01:32:01  -312.799380  +0.11  -0.81
Writing to output.gpw (mode='')

iter:  20 01:32:36  -309.772537  +0.58  -0.85
iter:  21 01:33:06  -308.997836  -0.31  -0.88
iter:  22 01:33:40  -307.852621  +0.44  -0.95
iter:  23 01:34:12  -307.945005  -0.09  -1.03
iter:  24 01:34:45  -308.061024  -0.21  -1.02
Writing to output.gpw (mode='')

iter:  25 01:35:23  -309.070593  +0.19  -0.98
iter:  26 01:35:57  -308.527684  -0.42  -0.90
iter:  27 01:36:28  -308.210386  -0.70  -0.94
iter:  28 01:36:59  -308.062516  -0.47  -0.96
iter:  29 01:37:30  -307.811308  -0.03  -0.99
Writing to output.gpw (mode='')

iter:  30 01:38:01  -307.043510  +0.13  -1.00
iter:  31 01:38:35  -306.894261  +0.25  -1.16
iter:  32 01:39:04  -306.729643  -0.37  -1.27
iter:  33 01:39:35  -306.746869  -0.37  -1.39
iter:  34 01:40:07  -306.632635  -0.43  -1.43
Writing to output.gpw (mode='')

iter:  35 01:40:39  -306.637924  -1.09  -1.71
iter:  36 01:41:23  -306.621170c -1.12  -1.78
iter:  37 01:42:10  -306.611815c -1.33  -1.88
iter:  38 01:42:50  -306.611290c -1.74  -2.13
iter:  39 01:43:32  -306.614002c -1.70  -2.24
Writing to output.gpw (mode='')

iter:  40 01:44:13  -306.614845c -2.04  -2.24
iter:  41 01:44:47  -306.619728c -1.88  -2.30
iter:  42 01:45:22  -306.620867c -2.15  -2.52
iter:  43 01:45:55  -306.622449c -2.21  -2.54
iter:  44 01:46:32  -306.623511c -2.25  -2.58
Writing to output.gpw (mode='')

iter:  45 01:47:04  -306.625764c -2.19  -2.62
iter:  46 01:47:35  -306.627704c -2.37  -2.82
iter:  47 01:48:29  -306.628791c -2.45  -2.91
iter:  48 01:48:59  -306.629465c -2.30  -2.95
iter:  49 01:49:40  -306.630114c -2.54  -2.97
Writing to output.gpw (mode='')

iter:  50 01:50:34  -306.630363c -2.66  -2.95
iter:  51 01:51:07  -306.631073c -2.61  -2.93
iter:  52 01:51:41  -306.631946c -2.71  -2.87
iter:  53 01:52:17  -306.631607c -2.84  -2.91
iter:  54 01:52:49  -306.632167c -2.83  -2.85
Writing to output.gpw (mode='')

iter:  55 01:53:21  -306.632354c -2.76  -2.92
iter:  56 01:53:52  -306.633354c -2.97  -2.90
iter:  57 01:54:21  -306.633753c -2.95  -3.10
iter:  58 01:54:54  -306.633947c -3.04  -3.21
iter:  59 01:55:27  -306.634104c -3.07  -3.20
Writing to output.gpw (mode='')

iter:  60 01:56:02  -306.634273c -2.98  -3.23
iter:  61 01:56:34  -306.634445c -3.11  -3.37
iter:  62 01:57:04  -306.634486c -3.16  -3.27
iter:  63 01:57:52  -306.634475c -3.12  -3.33
iter:  64 01:58:36  -306.634601c -3.35  -3.31
Writing to output.gpw (mode='')

iter:  65 01:59:11  -306.634646c -3.38  -3.41
iter:  66 01:59:47  -306.634760c -3.33  -3.41
iter:  67 02:00:18  -306.634837c -3.41  -3.48
iter:  68 02:00:52  -306.634903c -3.50  -3.54
iter:  69 02:01:25  -306.634980c -3.42  -3.60
Writing to output.gpw (mode='')

iter:  70 02:02:01  -306.635030c -3.56  -3.76
iter:  71 02:02:33  -306.635070c -3.53  -3.79
iter:  72 02:03:03  -306.635145c -3.76  -3.77
iter:  73 02:03:35  -306.635173c -3.69  -3.85
iter:  74 02:04:05  -306.635199c -3.72  -3.72
Writing to output.gpw (mode='')

iter:  75 02:04:37  -306.635236c -3.52  -3.68
iter:  76 02:05:12  -306.635264c -3.82  -3.61
iter:  77 02:05:59  -306.635281c -3.86  -3.73
iter:  78 02:06:38  -306.635301c -3.94  -3.74
iter:  79 02:07:13  -306.635317c -3.98  -3.63
Writing to output.gpw (mode='')

iter:  80 02:07:46  -306.635328c -4.20  -3.87
iter:  81 02:08:18  -306.635335c -4.05  -3.87
iter:  82 02:08:54  -306.635344c -4.14  -3.88
iter:  83 02:09:26  -306.635352c -4.03  -3.83
iter:  84 02:09:57  -306.635358c -4.23  -3.86
Writing to output.gpw (mode='')

iter:  85 02:10:28  -306.635370c -3.98  -3.84
iter:  86 02:11:02  -306.635373c -4.34  -3.81
iter:  87 02:11:45  -306.635384c -4.15  -3.81
iter:  88 02:12:19  -306.635378c -4.43  -3.82
iter:  89 02:12:51  -306.635393c -4.39  -3.70
Writing to output.gpw (mode='')

iter:  90 02:13:24  -306.635391c -4.48  -3.78
iter:  91 02:13:57  -306.635396c -4.42  -3.77
iter:  92 02:14:27  -306.635405c -4.35  -3.81
iter:  93 02:15:00  -306.635413c -4.45  -3.85
iter:  94 02:15:31  -306.635420c -4.50  -3.91
Writing to output.gpw (mode='')

iter:  95 02:15:59  -306.635431c -4.62  -3.98
iter:  96 02:16:32  -306.635433c -4.74  -4.15c
iter:  97 02:17:06  -306.635434c -4.76  -4.23c
iter:  98 02:17:45  -306.635433c -4.54  -4.25c
iter:  99 02:18:21  -306.635431c -4.82  -4.35c
Writing to output.gpw (mode='')

iter: 100 02:18:55  -306.635430c -4.92  -4.48c
iter: 101 02:19:29  -306.635431c -4.87  -4.53c
iter: 102 02:20:02  -306.635432c -4.80  -4.61c
iter: 103 02:20:36  -306.635433c -5.10  -4.69c
iter: 104 02:21:08  -306.635433c -4.99  -4.72c
Writing to output.gpw (mode='')

iter: 105 02:21:41  -306.635433c -5.19  -4.71c
iter: 106 02:22:12  -306.635434c -4.97  -4.65c
iter: 107 02:22:45  -306.635435c -4.94  -4.71c
iter: 108 02:23:26  -306.635435c -5.35  -4.78c
iter: 109 02:24:01  -306.635436c -5.13  -4.77c
Writing to output.gpw (mode='')

iter: 110 02:24:32  -306.635437c -5.40  -4.79c
iter: 111 02:25:04  -306.635437c -5.36  -4.91c
iter: 112 02:25:42  -306.635437c -5.37  -5.03c
iter: 113 02:26:15  -306.635437c -5.58  -5.05c
iter: 114 02:26:45  -306.635437c -5.53  -5.18c
Writing to output.gpw (mode='')

iter: 115 02:27:35  -306.635437c -5.48  -5.27c
iter: 116 02:28:06  -306.635437c -5.71  -5.33c
iter: 117 02:28:44  -306.635438c -5.66  -5.37c
iter: 118 02:29:15  -306.635438c -5.83  -5.48c
iter: 119 02:29:49  -306.635438c -5.73  -5.59c
Writing to output.gpw (mode='')

iter: 120 02:30:21  -306.635438c -5.87  -5.61c
iter: 121 02:30:57  -306.635438c -5.67  -5.57c
iter: 122 02:31:29  -306.635438c -5.90  -5.62c
iter: 123 02:32:00  -306.635438c -5.92  -5.57c
iter: 124 02:32:33  -306.635438c -5.69  -5.46c
Writing to output.gpw (mode='')

iter: 125 02:33:03  -306.635438c -5.87  -5.41c
iter: 126 02:33:38  -306.635438c -6.14  -5.44c
iter: 127 02:34:12  -306.635438c -6.14  -5.40c
iter: 128 02:34:54  -306.635438c -6.08  -5.36c
iter: 129 02:35:29  -306.635438c -6.07  -5.29c
Writing to output.gpw (mode='')

iter: 130 02:36:15  -306.635438c -6.36  -5.30c
iter: 131 02:37:00  -306.635438c -6.24  -5.28c
iter: 132 02:37:31  -306.635438c -6.44  -5.20c
iter: 133 02:38:04  -306.635438c -6.38  -5.20c
iter: 134 02:38:36  -306.635438c -6.51  -5.31c
Writing to output.gpw (mode='')

iter: 135 02:39:10  -306.635438c -6.55  -5.22c
iter: 136 02:39:45  -306.635438c -6.47  -5.24c
iter: 137 02:40:19  -306.635438c -6.58  -5.33c
iter: 138 02:40:50  -306.635438c -6.60  -5.22c
iter: 139 02:41:19  -306.635438c -6.55  -5.22c
Writing to output.gpw (mode='')

iter: 140 02:42:15  -306.635438c -6.77  -5.31c
iter: 141 02:42:56  -306.635438c -6.52  -5.27c
iter: 142 02:43:34  -306.635438c -6.74  -5.33c
iter: 143 02:44:06  -306.635438c -6.78  -5.25c
iter: 144 02:44:42  -306.635438c -6.77  -5.31c
Writing to output.gpw (mode='')

iter: 145 02:45:15  -306.635438c -6.95  -5.32c
iter: 146 02:45:50  -306.635439c -6.66  -5.29c
iter: 147 02:46:21  -306.635439c -6.65  -5.34c
iter: 148 02:46:55  -306.635439c -6.80  -5.45c
iter: 149 02:47:28  -306.635439c -6.84  -5.54c
Writing to output.gpw (mode='')

iter: 150 02:48:00  -306.635439c -7.01  -5.64c
iter: 151 02:48:32  -306.635439c -7.24  -5.83c
iter: 152 02:49:04  -306.635439c -7.05  -5.93c
iter: 153 02:49:37  -306.635439c -7.10  -6.02c
iter: 154 02:50:18  -306.635439c -6.94  -6.12c
Writing to output.gpw (mode='')

iter: 155 02:51:02  -306.635439c -7.10  -6.14c
iter: 156 02:51:35  -306.635439c -7.35  -6.19c
iter: 157 02:52:12  -306.635439c -7.37  -6.29c
iter: 158 02:52:46  -306.635439c -7.32  -6.32c
iter: 159 02:53:19  -306.635439c -7.28  -6.36c
Writing to output.gpw (mode='')

iter: 160 02:54:02  -306.635439c -7.38  -6.42c
iter: 161 02:54:47  -306.635439c -7.39  -6.45c
iter: 162 02:55:21  -306.635439c -7.61c -6.53c

Converged after 162 iterations.

Dipole moment: (-16.333196, -16.788917, 0.388341) |e|*Ang

Energy contributions relative to reference atoms: (reference = -14434.854043)

Kinetic:       +166.843024
Potential:     -156.544196
External:        +0.000000
XC:            -317.654795
Entropy (-ST):   -0.147796
Local:           +0.794425
--------------------------
Free energy:   -306.709337
Extrapolated:  -306.635439

Dipole-layer corrected work functions: 3.401719, 2.655194 eV

Showing only first 2 kpts
 Kpt  Band  Eigenvalues  Occupancy
  0    31     -3.28116    1.98732
  0    32     -3.16445    1.87637
  0    33     -2.86835    0.07817
  0    34     -2.80353    0.02201

  1    31     -3.07654    1.44690
  1    32     -3.02922    1.00765
  1    33     -2.98586    0.59805
  1    34     -2.92545    0.22607


Fermi level: -3.02846

Gap: 0.004 eV
Transition (v -> c):
  (s=0, k=1, n=32, [0.12, -0.12, 0.00]) -> (s=0, k=4, n=33, [0.38, -0.38, 0.00])
Writing to output.gpw (mode='')


Forces in eV/Ang:
  0 Li    0.01685    0.00373   -0.27528
  1 Li   -0.00698   -0.00657   -0.26435
  2 Li   -0.00850    0.01262   -0.27050
  3 Li   -0.00923   -0.00003   -0.26574
  4 Li    0.00378   -0.00002   -0.28691
  5 Li   -0.00186   -0.00006   -0.27194
  6 Li    0.01688   -0.00371   -0.27526
  7 Li   -0.00702    0.00659   -0.26417
  8 Li   -0.00850   -0.01254   -0.27045
  9 Li    0.00334    0.00006    0.32774
 10 Li    0.00650   -0.00006    0.25073
 11 Li   -0.02270    0.00003    0.24965
 12 Li   -0.00564    0.01088    0.25817
 13 Li    0.00592    0.01255    0.24864
 14 Li    0.00423   -0.00069    0.26027
 15 Li   -0.00558   -0.01093    0.25853
 16 Li    0.00593   -0.01247    0.24837
 17 Li    0.00419    0.00061    0.26049
 18 Li    0.01000    0.01836   -0.02981
 19 Li    0.00009   -0.00856    0.06603
 20 Li   -0.00602   -0.02278   -0.02339
 21 Li   -0.00623   -0.00001    0.07175
 22 Li    0.00087    0.00022    0.01263
 23 Li    0.01057   -0.00004    0.06864
 24 Li    0.01014   -0.01834   -0.02996
 25 Li    0.00011    0.00839    0.06591
 26 Li   -0.00618    0.02285   -0.02390
 27 Li    0.64327    0.00032   -7.75621
 28 Li    0.03752    0.00010   -0.02485
 29 Li    0.15133    0.00007    0.09522
 30 Li    0.01988    0.11218   -0.07035
 31 Li    0.01259    0.00195   -0.03345
 32 Li   -0.04186    0.05001   -0.04838
 33 Li    0.01989   -0.11158   -0.06752
 34 Li    0.01256   -0.00207   -0.03364
 35 Li   -0.04178   -0.04984   -0.04675
 36 O     0.00990   -0.03879   -0.00542
 37 C     0.00144    0.10447    0.00220
 38 C     0.00546   -0.22853    0.00773
 39 H     0.00920    0.02800   -0.01379
 40 H    -0.00814    0.00140   -0.01007
 41 H    -0.01221    0.16445   -0.54887
 42 H    -0.00400   -0.00759   -0.03173
 43 H    -0.00283   -0.00391   -0.01418
 44 H    -0.00182   -0.01395   -0.02066
 45 N     5.02152   -0.00222    7.09141
 46 N    -5.79063    0.00162    0.86835

System changes: positions 

Initializing position-dependent things.

Density initialized from wave functions
       .-----------------------.  
      /|                       |  
     / H                       |  
    /  |                       |  
   /   |                       |  
  /    |H                   H C|  
 *     O                       |  
 |     |                       |  
 |     |               H       |  
 C  H  |                       |  
 |     |                       |  
 |     N                    N  |  
 |     |               H       |  
 |     |                       |  
 |     |                       |  
 |   Li|     Li      Li        |  
 |     |                       |  
 | Li  |  LLi     LLi     Li   |  
 |     |                       |  
 Li    |LLi     LLi     Li     |  
 |   Li|     Li      Li        |  
 |    Li  Li  Li  Li  Li  Li   |  
 | Li  |   Li      Li          |  
 |     |Li      Li      Li     |  
 Li    | Li      Li            |  
 |    Li      Li      Li       |  
 |     |                       |  
 |     |                       |  
 |     |                       |  
 |     |                       |  
 |     |                       |  
 |     |                       |  
 |     .-----------------------.  
 |    /                       /   
 |   /                       /    
 |  /                       /     
 | /                       /      
 |/                       /       
 *-----------------------*        

Positions:
   0 Li     1.617037    1.617037   10.000000    ( 0.0000,  0.0000,  0.0000)
   1 Li     4.851111    1.617037   10.000000    ( 0.0000,  0.0000,  0.0000)
   2 Li     8.085185    1.617037   10.000000    ( 0.0000,  0.0000,  0.0000)
   3 Li     1.617037    4.851111   10.000000    ( 0.0000,  0.0000,  0.0000)
   4 Li     4.851111    4.851111   10.000000    ( 0.0000,  0.0000,  0.0000)
   5 Li     8.085185    4.851111   10.000000    ( 0.0000,  0.0000,  0.0000)
   6 Li     1.617037    8.085185   10.000000    ( 0.0000,  0.0000,  0.0000)
   7 Li     4.851111    8.085185   10.000000    ( 0.0000,  0.0000,  0.0000)
   8 Li     8.085185    8.085185   10.000000    ( 0.0000,  0.0000,  0.0000)
   9 Li     0.000000    0.000000   11.617037    ( 0.0000,  0.0000,  0.0000)
  10 Li     3.234074    0.000000   11.617037    ( 0.0000,  0.0000,  0.0000)
  11 Li     6.468148    0.000000   11.617037    ( 0.0000,  0.0000,  0.0000)
  12 Li     0.000000    3.234074   11.617037    ( 0.0000,  0.0000,  0.0000)
  13 Li     3.234074    3.234074   11.617037    ( 0.0000,  0.0000,  0.0000)
  14 Li     6.468148    3.234074   11.617037    ( 0.0000,  0.0000,  0.0000)
  15 Li     0.000000    6.468148   11.617037    ( 0.0000,  0.0000,  0.0000)
  16 Li     3.234074    6.468148   11.617037    ( 0.0000,  0.0000,  0.0000)
  17 Li     6.468148    6.468148   11.617037    ( 0.0000,  0.0000,  0.0000)
  18 Li     1.617084    1.617123   13.469591    ( 0.0000,  0.0000,  0.0000)
  19 Li     4.851111    1.616999   13.470033    ( 0.0000,  0.0000,  0.0000)
  20 Li     8.085156    1.616933   13.469620    ( 0.0000,  0.0000,  0.0000)
  21 Li     1.617010    4.851111   13.470060    ( 0.0000,  0.0000,  0.0000)
  22 Li     4.851115    4.851112   13.469788    ( 0.0000,  0.0000,  0.0000)
  23 Li     8.085232    4.851111   13.470045    ( 0.0000,  0.0000,  0.0000)
  24 Li     1.617085    8.085099   13.469590    ( 0.0000,  0.0000,  0.0000)
  25 Li     4.851112    8.085222   13.470033    ( 0.0000,  0.0000,  0.0000)
  26 Li     8.085155    8.085289   13.469618    ( 0.0000,  0.0000,  0.0000)
  27 Li     0.002961    0.000001   15.410235    ( 0.0000,  0.0000,  0.0000)
  28 Li     3.234246    0.000000   15.445824    ( 0.0000,  0.0000,  0.0000)
  29 Li     6.468845    0.000000   15.446377    ( 0.0000,  0.0000,  0.0000)
  30 Li     0.000092    3.234590   15.445615    ( 0.0000,  0.0000,  0.0000)
  31 Li     3.234134    3.234085   15.445784    ( 0.0000,  0.0000,  0.0000)
  32 Li     6.467953    3.234307   15.445715    ( 0.0000,  0.0000,  0.0000)
  33 Li     0.000092    6.467635   15.445628    ( 0.0000,  0.0000,  0.0000)
  34 Li     3.234134    6.468136   15.445783    ( 0.0000,  0.0000,  0.0000)
  35 Li     6.467953    6.467916   15.445723    ( 0.0000,  0.0000,  0.0000)
  36 O      9.702268    9.702043   21.445914    ( 0.0000,  0.0000,  0.0000)
  37 C      9.697930    8.885946   22.628357    ( 0.0000,  0.0000,  0.0000)
  38 C      9.712482    9.704031   23.912597    ( 0.0000,  0.0000,  0.0000)
  39 H      8.837806    8.202058   22.619660    ( 0.0000,  0.0000,  0.0000)
  40 H     10.600682    8.275745   22.552912    ( 0.0000,  0.0000,  0.0000)
  41 H      9.727836    9.051894   24.786962    ( 0.0000,  0.0000,  0.0000)
  42 H     10.589257   10.354071   23.947127    ( 0.0000,  0.0000,  0.0000)
  43 H      8.819883   10.333553   23.982684    ( 0.0000,  0.0000,  0.0000)
  44 H      8.933989   10.285135   21.485011    ( 0.0000,  0.0000,  0.0000)
  45 N      9.725116    9.701990   16.978584    ( 0.0000,  0.0000,  0.0000)
  46 N      8.578722    9.702007   16.949937    ( 0.0000,  0.0000,  0.0000)

Unit cell:
           periodic     x           y           z      points  spacing
  1. axis:    yes    9.702222    0.000000    0.000000    60     0.1617
  2. axis:    yes    0.000000    9.702222    0.000000    60     0.1617
  3. axis:    no     0.000000    0.000000   26.351111   164     0.1607

  Lengths:   9.702222   9.702222  26.351111
  Angles:   90.000000  90.000000  90.000000

Effective grid spacing dv^(1/3) = 0.1614

     iter     time        total  log10-change:
                         energy  eigst   dens
iter:   1 02:56:03  -310.336315  +0.40
iter:   2 02:56:41  -308.313029  +0.22  -1.02
iter:   3 02:57:23  -307.304010  -0.61  -1.10
iter:   4 02:57:54  -307.223042  -1.05  -1.66
Writing to output.gpw (mode='')

iter:   5 02:58:30  -307.215674  -1.36  -1.95
iter:   6 02:59:01  -307.204859c -1.05  -2.10
iter:   7 02:59:31  -307.204218c -1.59  -2.17
iter:   8 03:00:08  -307.203965c -1.86  -2.27
iter:   9 03:00:40  -307.202759c -1.88  -2.31
Writing to output.gpw (mode='')

iter:  10 03:01:20  -307.202848c -2.33  -2.56
iter:  11 03:01:53  -307.203192c -2.44  -2.67
iter:  12 03:02:25  -307.203507c -2.51  -2.74
iter:  13 03:02:57  -307.203789c -2.59  -2.96
iter:  14 03:03:43  -307.203992c -2.78  -3.03
Writing to output.gpw (mode='')

iter:  15 03:04:16  -307.204155c -2.93  -3.15
iter:  16 03:04:48  -307.204268c -2.99  -3.17
iter:  17 03:05:37  -307.204417c -3.04  -3.24
iter:  18 03:06:09  -307.204482c -3.26  -3.21
iter:  19 03:06:43  -307.204590c -3.35  -3.32
Writing to output.gpw (mode='')

iter:  20 03:07:17  -307.204621c -3.41  -3.25
iter:  21 03:07:48  -307.204663c -3.72  -3.54
iter:  22 03:08:19  -307.204692c -3.59  -3.58
iter:  23 03:08:55  -307.204724c -3.78  -3.62
iter:  24 03:09:32  -307.204752c -3.76  -3.85
Writing to output.gpw (mode='')

iter:  25 03:10:03  -307.204768c -3.93  -3.75
iter:  26 03:10:37  -307.204782c -3.93  -3.92
iter:  27 03:11:10  -307.204801c -4.16  -3.95
iter:  28 03:11:59  -307.204804c -4.10  -3.85
iter:  29 03:12:31  -307.204810c -4.13  -3.97
Writing to output.gpw (mode='')

iter:  30 03:13:05  -307.204816c -4.26  -4.05c
iter:  31 03:13:39  -307.204822c -4.39  -4.10c
iter:  32 03:14:29  -307.204825c -4.33  -4.10c
iter:  33 03:15:05  -307.204832c -4.58  -4.13c
iter:  34 03:15:45  -307.204832c -4.47  -4.09c
Writing to output.gpw (mode='')

iter:  35 03:16:28  -307.204836c -4.74  -4.14c
iter:  36 03:16:59  -307.204841c -4.84  -4.11c
iter:  37 03:17:45  -307.204841c -4.89  -4.06c
iter:  38 03:18:23  -307.204845c -4.92  -4.08c
iter:  39 03:19:00  -307.204841c -4.99  -4.08c
Writing to output.gpw (mode='')

iter:  40 03:19:33  -307.204839c -4.93  -4.14c
iter:  41 03:20:05  -307.204834c -5.06  -4.18c
iter:  42 03:20:50  -307.204840c -5.29  -4.27c
iter:  43 03:21:24  -307.204837c -5.33  -4.33c
iter:  44 03:22:10  -307.204839c -5.69  -4.60c
Writing to output.gpw (mode='')

iter:  45 03:22:45  -307.204839c -5.69  -4.65c
iter:  46 03:23:16  -307.204838c -5.58  -4.67c
iter:  47 03:23:50  -307.204838c -5.55  -4.75c
iter:  48 03:24:23  -307.204838c -5.67  -4.84c
iter:  49 03:24:52  -307.204838c -5.84  -4.84c
Writing to output.gpw (mode='')

iter:  50 03:25:24  -307.204839c -5.83  -4.89c
iter:  51 03:25:54  -307.204839c -6.15  -5.08c
iter:  52 03:26:28  -307.204839c -5.71  -5.10c
iter:  53 03:27:02  -307.204839c -5.90  -5.19c
iter:  54 03:27:33  -307.204839c -5.96  -5.21c
Writing to output.gpw (mode='')

iter:  55 03:28:06  -307.204838c -6.10  -5.23c
iter:  56 03:28:39  -307.204838c -6.51  -5.26c
iter:  57 03:29:13  -307.204838c -6.36  -5.33c
iter:  58 03:29:44  -307.204839c -6.58  -5.32c
iter:  59 03:30:19  -307.204838c -6.46  -5.44c
Writing to output.gpw (mode='')

iter:  60 03:30:52  -307.204838c -6.55  -5.49c
iter:  61 03:31:27  -307.204838c -6.44  -5.51c
iter:  62 03:31:59  -307.204838c -6.50  -5.54c
iter:  63 03:32:33  -307.204838c -6.64  -5.58c
iter:  64 03:33:13  -307.204838c -6.93  -5.57c
Writing to output.gpw (mode='')

iter:  65 03:33:48  -307.204838c -6.81  -5.51c
iter:  66 03:34:23  -307.204838c -6.96  -5.47c
iter:  67 03:35:15  -307.204838c -7.05  -5.52c
iter:  68 03:35:49  -307.204838c -7.27  -5.38c
iter:  69 03:36:22  -307.204838c -7.21  -5.40c
Writing to output.gpw (mode='')

iter:  70 03:36:54  -307.204838c -7.39  -5.46c
iter:  71 03:37:27  -307.204837c -7.37  -5.42c
iter:  72 03:37:59  -307.204838c -7.61c -5.52c

Converged after 72 iterations.

Dipole moment: (-18.676449, -16.708477, 0.337350) |e|*Ang

Energy contributions relative to reference atoms: (reference = -14434.854043)

Kinetic:       +157.772769
Potential:     -149.560319
External:        +0.000000
XC:            -316.122835
Entropy (-ST):   -0.148624
Local:           +0.779859
--------------------------
Free energy:   -307.279150
Extrapolated:  -307.204838

Dipole-layer corrected work functions: 3.405637, 2.757136 eV

Showing only first 2 kpts
 Kpt  Band  Eigenvalues  Occupancy
  0    31     -3.32872    1.98589
  0    32     -3.21135    1.86163
  0    33     -2.93144    0.09494
  0    34     -2.85663    0.02208

  1    31     -3.13320    1.47623
  1    32     -3.07825    0.96865
  1    33     -3.04209    0.62607
  1    34     -2.96501    0.17772


Fermi level: -3.08139

No gap
Writing to output.gpw (mode='')


Forces in eV/Ang:
  0 Li    0.01787    0.00367   -0.27756
  1 Li   -0.00738   -0.00681   -0.26458
  2 Li   -0.00934    0.01259   -0.27265
  3 Li   -0.00806   -0.00003   -0.26585
  4 Li    0.00382   -0.00002   -0.28888
  5 Li   -0.00183   -0.00006   -0.27187
  6 Li    0.01789   -0.00365   -0.27754
  7 Li   -0.00742    0.00683   -0.26442
  8 Li   -0.00934   -0.01251   -0.27261
  9 Li    0.00358    0.00006    0.33559
 10 Li    0.00845   -0.00006    0.24977
 11 Li   -0.02299    0.00003    0.25213
 12 Li   -0.00570    0.00916    0.26218
 13 Li    0.00590    0.01401    0.24809
 14 Li    0.00387    0.00181    0.26009
 15 Li   -0.00564   -0.00920    0.26255
 16 Li    0.00590   -0.01395    0.24786
 17 Li    0.00386   -0.00189    0.26031
 18 Li    0.01917    0.02212   -0.04377
 19 Li    0.00024   -0.00801    0.06402
 20 Li   -0.01414   -0.01635   -0.04057
 21 Li   -0.00755   -0.00002    0.07247
 22 Li    0.00035    0.00023    0.01434
 23 Li    0.01117   -0.00005    0.07053
 24 Li    0.01931   -0.02209   -0.04391
 25 Li    0.00024    0.00784    0.06386
 26 Li   -0.01429    0.01644   -0.04105
 27 Li    0.36265   -0.00012   -5.59980
 28 Li    0.01625    0.00010   -0.01243
 29 Li    0.20320    0.00001    0.14428
 30 Li    0.01906    0.09637   -0.05306
 31 Li    0.01471    0.00456   -0.03377
 32 Li   -0.04327    0.05034   -0.04616
 33 Li    0.01901   -0.09569   -0.05006
 34 Li    0.01467   -0.00467   -0.03391
 35 Li   -0.04312   -0.05011   -0.04436
 36 O     0.00857   -0.03316    0.00598
 37 C     0.00269    0.08055   -0.01606
 38 C     0.00307   -0.13038   -0.05721
 39 H     0.01106    0.02939   -0.01338
 40 H    -0.01193    0.00435   -0.00954
 41 H    -0.01127    0.10521   -0.46581
 42 H    -0.01491   -0.01899   -0.03068
 43 H     0.00955   -0.01580   -0.01448
 44 H     0.00239   -0.01806   -0.02731
 45 N    -0.33281    0.00045    5.23355
 46 N    -0.16991   -0.00000    0.49678

System changes: positions 

Initializing position-dependent things.

Density initialized from wave functions
       .-----------------------.  
      /|                       |  
     / H                       |  
    /  |                       |  
   /   |                       |  
  /    |H                   H C|  
 *     O                       |  
 |     |                       |  
 |     |               H       |  
 C  H  |                       |  
 |     |                       |  
 |     N                    N  |  
 |     |               H       |  
 |     |                       |  
 |     |                       |  
 |   Li|     Li      Li        |  
 |     |                       |  
 | Li  |  LLi     LLi     Li   |  
 |     |                       |  
 Li    |LLi     LLi     Li     |  
 |   Li|     Li      Li        |  
 |    Li  Li  Li  Li  Li  Li   |  
 | Li  |   Li      Li          |  
 |     |Li      Li      Li     |  
 Li    | Li      Li            |  
 |    Li      Li      Li       |  
 |     |                       |  
 |     |                       |  
 |     |                       |  
 |     |                       |  
 |     |                       |  
 |     |                       |  
 |     .-----------------------.  
 |    /                       /   
 |   /                       /    
 |  /                       /     
 | /                       /      
 |/                       /       
 *-----------------------*        

Positions:
   0 Li     1.617037    1.617037   10.000000    ( 0.0000,  0.0000,  0.0000)
   1 Li     4.851111    1.617037   10.000000    ( 0.0000,  0.0000,  0.0000)
   2 Li     8.085185    1.617037   10.000000    ( 0.0000,  0.0000,  0.0000)
   3 Li     1.617037    4.851111   10.000000    ( 0.0000,  0.0000,  0.0000)
   4 Li     4.851111    4.851111   10.000000    ( 0.0000,  0.0000,  0.0000)
   5 Li     8.085185    4.851111   10.000000    ( 0.0000,  0.0000,  0.0000)
   6 Li     1.617037    8.085185   10.000000    ( 0.0000,  0.0000,  0.0000)
   7 Li     4.851111    8.085185   10.000000    ( 0.0000,  0.0000,  0.0000)
   8 Li     8.085185    8.085185   10.000000    ( 0.0000,  0.0000,  0.0000)
   9 Li     0.000000    0.000000   11.617037    ( 0.0000,  0.0000,  0.0000)
  10 Li     3.234074    0.000000   11.617037    ( 0.0000,  0.0000,  0.0000)
  11 Li     6.468148    0.000000   11.617037    ( 0.0000,  0.0000,  0.0000)
  12 Li     0.000000    3.234074   11.617037    ( 0.0000,  0.0000,  0.0000)
  13 Li     3.234074    3.234074   11.617037    ( 0.0000,  0.0000,  0.0000)
  14 Li     6.468148    3.234074   11.617037    ( 0.0000,  0.0000,  0.0000)
  15 Li     0.000000    6.468148   11.617037    ( 0.0000,  0.0000,  0.0000)
  16 Li     3.234074    6.468148   11.617037    ( 0.0000,  0.0000,  0.0000)
  17 Li     6.468148    6.468148   11.617037    ( 0.0000,  0.0000,  0.0000)
  18 Li     1.617232    1.617289   13.469258    ( 0.0000,  0.0000,  0.0000)
  19 Li     4.851113    1.616940   13.470505    ( 0.0000,  0.0000,  0.0000)
  20 Li     8.085046    1.616817   13.469309    ( 0.0000,  0.0000,  0.0000)
  21 Li     1.616953    4.851111   13.470596    ( 0.0000,  0.0000,  0.0000)
  22 Li     4.851117    4.851114   13.469896    ( 0.0000,  0.0000,  0.0000)
  23 Li     8.085315    4.851110   13.470568    ( 0.0000,  0.0000,  0.0000)
  24 Li     1.617234    8.084934   13.469256    ( 0.0000,  0.0000,  0.0000)
  25 Li     4.851113    8.085280   13.470503    ( 0.0000,  0.0000,  0.0000)
  26 Li     8.085044    8.085406   13.469303    ( 0.0000,  0.0000,  0.0000)
  27 Li     0.005451    0.000000   15.370312    ( 0.0000,  0.0000,  0.0000)
  28 Li     3.234352    0.000001   15.445741    ( 0.0000,  0.0000,  0.0000)
  29 Li     6.470382    0.000000   15.447477    ( 0.0000,  0.0000,  0.0000)
  30 Li     0.000232    3.235292   15.445235    ( 0.0000,  0.0000,  0.0000)
  31 Li     3.234245    3.234121   15.445534    ( 0.0000,  0.0000,  0.0000)
  32 Li     6.467632    3.234679   15.445376    ( 0.0000,  0.0000,  0.0000)
  33 Li     0.000231    6.466938   15.445270    ( 0.0000,  0.0000,  0.0000)
  34 Li     3.234244    6.468100   15.445532    ( 0.0000,  0.0000,  0.0000)
  35 Li     6.467634    6.467546   15.445397    ( 0.0000,  0.0000,  0.0000)
  36 O      9.702330    9.701802   21.445966    ( 0.0000,  0.0000,  0.0000)
  37 C      9.697951    8.886525   22.628226    ( 0.0000,  0.0000,  0.0000)
  38 C      9.712504    9.703134   23.912130    ( 0.0000,  0.0000,  0.0000)
  39 H      8.837889    8.202276   22.619562    ( 0.0000,  0.0000,  0.0000)
  40 H     10.600591    8.275780   22.552842    ( 0.0000,  0.0000,  0.0000)
  41 H      9.727753    9.052631   24.783575    ( 0.0000,  0.0000,  0.0000)
  42 H     10.589139   10.353923   23.946901    ( 0.0000,  0.0000,  0.0000)
  43 H      8.819962   10.333428   23.982577    ( 0.0000,  0.0000,  0.0000)
  44 H      8.934009   10.284998   21.484805    ( 0.0000,  0.0000,  0.0000)
  45 N      9.719018    9.701995   17.016002    ( 0.0000,  0.0000,  0.0000)
  46 N      8.581285    9.702006   16.953356    ( 0.0000,  0.0000,  0.0000)

Unit cell:
           periodic     x           y           z      points  spacing
  1. axis:    yes    9.702222    0.000000    0.000000    60     0.1617
  2. axis:    yes    0.000000    9.702222    0.000000    60     0.1617
  3. axis:    no     0.000000    0.000000   26.351111   164     0.1607

  Lengths:   9.702222   9.702222  26.351111
  Angles:   90.000000  90.000000  90.000000

Effective grid spacing dv^(1/3) = 0.1614

     iter     time        total  log10-change:
                         energy  eigst   dens
iter:   1 03:38:41  -307.578981  -0.97
iter:   2 03:39:13  -307.572030  -1.48  -2.09
iter:   3 03:39:45  -307.569588c -1.97  -2.12
iter:   4 03:40:21  -307.565565c -2.18  -2.26
Writing to output.gpw (mode='')

iter:   5 03:40:56  -307.564833c -2.44  -2.46
iter:   6 03:41:28  -307.564192c -2.37  -2.56
iter:   7 03:42:02  -307.563481c -3.19  -2.63
iter:   8 03:42:48  -307.563587c -2.72  -2.91
iter:   9 03:43:22  -307.563490c -3.67  -2.90
Writing to output.gpw (mode='')

iter:  10 03:43:55  -307.563532c -3.64  -3.07
iter:  11 03:44:48  -307.563513c -3.72  -3.20
iter:  12 03:45:37  -307.563542c -4.05  -3.28
iter:  13 03:46:11  -307.563545c -4.13  -3.38
iter:  14 03:46:55  -307.563545c -4.66  -3.64
Writing to output.gpw (mode='')

iter:  15 03:47:32  -307.563539c -4.74  -3.68
iter:  16 03:48:05  -307.563531c -4.82  -3.74
iter:  17 03:48:40  -307.563530c -4.99  -3.80
iter:  18 03:49:14  -307.563537c -5.01  -3.87
iter:  19 03:49:48  -307.563537c -5.44  -4.20c
Writing to output.gpw (mode='')

iter:  20 03:50:29  -307.563534c -5.53  -4.22c
iter:  21 03:50:59  -307.563536c -5.54  -4.41c
iter:  22 03:51:32  -307.563538c -5.62  -4.49c
iter:  23 03:52:02  -307.563539c -5.82  -4.49c
iter:  24 03:52:35  -307.563536c -5.94  -4.53c
Writing to output.gpw (mode='')

iter:  25 03:53:09  -307.563537c -6.17  -4.76c
iter:  26 03:53:42  -307.563539c -6.05  -4.85c
iter:  27 03:54:15  -307.563538c -6.38  -4.82c
iter:  28 03:55:01  -307.563538c -6.23  -4.96c
iter:  29 03:55:35  -307.563538c -6.18  -5.03c
Writing to output.gpw (mode='')

iter:  30 03:56:10  -307.563538c -6.55  -5.09c
iter:  31 03:56:42  -307.563538c -6.61  -5.13c
iter:  32 03:57:15  -307.563538c -6.64  -5.22c
iter:  33 03:57:49  -307.563538c -6.73  -5.28c
iter:  34 03:58:21  -307.563538c -6.85  -5.43c
Writing to output.gpw (mode='')

iter:  35 03:58:56  -307.563538c -6.76  -5.52c
iter:  36 03:59:35  -307.563538c -6.88  -5.56c
iter:  37 04:00:09  -307.563538c -6.81  -5.63c
iter:  38 04:00:45  -307.563538c -6.97  -5.66c
iter:  39 04:01:20  -307.563538c -6.89  -5.77c
Writing to output.gpw (mode='')

iter:  40 04:01:54  -307.563538c -7.32  -5.85c
iter:  41 04:02:27  -307.563538c -7.40c -5.88c

Converged after 41 iterations.

Dipole moment: (-18.142549, -16.621775, 0.343814) |e|*Ang

Energy contributions relative to reference atoms: (reference = -14434.854043)

Kinetic:       +156.689452
Potential:     -149.038298
External:        +0.000000
XC:            -315.911711
Entropy (-ST):   -0.147958
Local:           +0.770998
--------------------------
Free energy:   -307.637517
Extrapolated:  -307.563538

Dipole-layer corrected work functions: 3.405177, 2.744248 eV

Showing only first 2 kpts
 Kpt  Band  Eigenvalues  Occupancy
  0    31     -3.32068    1.98550
  0    32     -3.20799    1.86993
  0    33     -2.92193    0.08996
  0    34     -2.84521    0.02010

  1    31     -3.12146    1.43617
  1    32     -3.07265    0.97938
  1    33     -3.03797    0.64824
  1    34     -2.95891    0.17960


Fermi level: -3.07471

No gap
Writing to output.gpw (mode='')


Forces in eV/Ang:
  0 Li    0.01810    0.00307   -0.27807
  1 Li   -0.00773   -0.00717   -0.26431
  2 Li   -0.00946    0.01283   -0.27352
  3 Li   -0.00755   -0.00003   -0.26635
  4 Li    0.00389   -0.00003   -0.29000
  5 Li   -0.00117   -0.00007   -0.27083
  6 Li    0.01813   -0.00306   -0.27804
  7 Li   -0.00778    0.00720   -0.26414
  8 Li   -0.00946   -0.01275   -0.27348
  9 Li    0.00202    0.00007    0.34103
 10 Li    0.01040   -0.00006    0.24693
 11 Li   -0.02148    0.00003    0.25598
 12 Li   -0.00458    0.00990    0.26315
 13 Li    0.00586    0.01208    0.24915
 14 Li    0.00218    0.00565    0.25845
 15 Li   -0.00452   -0.00995    0.26352
 16 Li    0.00586   -0.01201    0.24892
 17 Li    0.00216   -0.00574    0.25866
 18 Li    0.02397    0.02299   -0.04502
 19 Li    0.00281   -0.00743    0.06343
 20 Li   -0.02105   -0.00580   -0.05207
 21 Li   -0.00542   -0.00001    0.06905
 22 Li   -0.00178    0.00022    0.01470
 23 Li    0.01013   -0.00005    0.07045
 24 Li    0.02410   -0.02295   -0.04515
 25 Li    0.00282    0.00726    0.06328
 26 Li   -0.02119    0.00589   -0.05253
 27 Li    0.32370   -0.00034   -3.93711
 28 Li    0.01025    0.00009   -0.01267
 29 Li    0.19425    0.00001    0.13617
 30 Li    0.01949    0.09676   -0.05539
 31 Li    0.01409    0.00326   -0.03295
 32 Li   -0.04182    0.04881   -0.04708
 33 Li    0.01945   -0.09607   -0.05243
 34 Li    0.01404   -0.00337   -0.03310
 35 Li   -0.04168   -0.04859   -0.04532
 36 O     0.00396   -0.02010   -0.00580
 37 C     0.00424    0.04484   -0.02649
 38 C    -0.00031   -0.03334   -0.12104
 39 H     0.01313    0.03124   -0.01393
 40 H    -0.01530    0.00757   -0.00976
 41 H    -0.00979    0.04101   -0.37477
 42 H    -0.02054   -0.02592   -0.03069
 43 H     0.01712   -0.02370   -0.01603
 44 H     0.00615   -0.01942   -0.02748
 45 N     0.17498   -0.00011    3.67128
 46 N    -0.64899    0.00012    0.39074

System changes: positions 

Initializing position-dependent things.

Density initialized from wave functions
       .-----------------------.  
      /|                       |  
     / H                       |  
    /  |                       |  
   /   |                       |  
  /    |H                   H C|  
 *     O                       |  
 |     |                       |  
 |     |               H       |  
 C  H  |                       |  
 |     |                       |  
 |     N                    N  |  
 |     |               H       |  
 |     Li                      |  
 |     |                       |  
 |   Li|     Li      Li        |  
 |     |                       |  
 | Li  |  LLi     LLi     Li   |  
 |     |                       |  
 |     |LLi     LLi     Li     |  
 |   Li|     Li      Li        |  
 |    Li  Li  Li  Li  Li  Li   |  
 | Li  |   Li      Li          |  
 |     |Li      Li      Li     |  
 Li    | Li      Li            |  
 |    Li      Li      Li       |  
 |     |                       |  
 |     |                       |  
 |     |                       |  
 |     |                       |  
 |     |                       |  
 |     |                       |  
 |     .-----------------------.  
 |    /                       /   
 |   /                       /    
 |  /                       /     
 | /                       /      
 |/                       /       
 *-----------------------*        

Positions:
   0 Li     1.617037    1.617037   10.000000    ( 0.0000,  0.0000,  0.0000)
   1 Li     4.851111    1.617037   10.000000    ( 0.0000,  0.0000,  0.0000)
   2 Li     8.085185    1.617037   10.000000    ( 0.0000,  0.0000,  0.0000)
   3 Li     1.617037    4.851111   10.000000    ( 0.0000,  0.0000,  0.0000)
   4 Li     4.851111    4.851111   10.000000    ( 0.0000,  0.0000,  0.0000)
   5 Li     8.085185    4.851111   10.000000    ( 0.0000,  0.0000,  0.0000)
   6 Li     1.617037    8.085185   10.000000    ( 0.0000,  0.0000,  0.0000)
   7 Li     4.851111    8.085185   10.000000    ( 0.0000,  0.0000,  0.0000)
   8 Li     8.085185    8.085185   10.000000    ( 0.0000,  0.0000,  0.0000)
   9 Li     0.000000    0.000000   11.617037    ( 0.0000,  0.0000,  0.0000)
  10 Li     3.234074    0.000000   11.617037    ( 0.0000,  0.0000,  0.0000)
  11 Li     6.468148    0.000000   11.617037    ( 0.0000,  0.0000,  0.0000)
  12 Li     0.000000    3.234074   11.617037    ( 0.0000,  0.0000,  0.0000)
  13 Li     3.234074    3.234074   11.617037    ( 0.0000,  0.0000,  0.0000)
  14 Li     6.468148    3.234074   11.617037    ( 0.0000,  0.0000,  0.0000)
  15 Li     0.000000    6.468148   11.617037    ( 0.0000,  0.0000,  0.0000)
  16 Li     3.234074    6.468148   11.617037    ( 0.0000,  0.0000,  0.0000)
  17 Li     6.468148    6.468148   11.617037    ( 0.0000,  0.0000,  0.0000)
  18 Li     1.617607    1.617616   13.468608    ( 0.0000,  0.0000,  0.0000)
  19 Li     4.851168    1.616843   13.471368    ( 0.0000,  0.0000,  0.0000)
  20 Li     8.084700    1.616815   13.468492    ( 0.0000,  0.0000,  0.0000)
  21 Li     1.616890    4.851111   13.471523    ( 0.0000,  0.0000,  0.0000)
  22 Li     4.851079    4.851117   13.470102    ( 0.0000,  0.0000,  0.0000)
  23 Li     8.085449    4.851110   13.471537    ( 0.0000,  0.0000,  0.0000)
  24 Li     1.617610    8.084607   13.468604    ( 0.0000,  0.0000,  0.0000)
  25 Li     4.851168    8.085375   13.471364    ( 0.0000,  0.0000,  0.0000)
  26 Li     8.084696    8.085410   13.468480    ( 0.0000,  0.0000,  0.0000)
  27 Li     0.009155   -0.000006   15.330484    ( 0.0000,  0.0000,  0.0000)
  28 Li     3.234418    0.000002   15.445587    ( 0.0000,  0.0000,  0.0000)
  29 Li     6.473082    0.000000   15.449380    ( 0.0000,  0.0000,  0.0000)
  30 Li     0.000500    3.236594   15.444491    ( 0.0000,  0.0000,  0.0000)
  31 Li     3.234438    3.234162   15.445087    ( 0.0000,  0.0000,  0.0000)
  32 Li     6.467065    3.235339   15.444728    ( 0.0000,  0.0000,  0.0000)
  33 Li     0.000499    6.465646   15.444566    ( 0.0000,  0.0000,  0.0000)
  34 Li     3.234436    6.468057   15.445083    ( 0.0000,  0.0000,  0.0000)
  35 Li     6.467069    6.466888   15.444773    ( 0.0000,  0.0000,  0.0000)
  36 O      9.702353    9.701618   21.445833    ( 0.0000,  0.0000,  0.0000)
  37 C      9.698021    8.886875   22.627765    ( 0.0000,  0.0000,  0.0000)
  38 C      9.712474    9.703456   23.909957    ( 0.0000,  0.0000,  0.0000)
  39 H      8.838085    8.202719   22.619368    ( 0.0000,  0.0000,  0.0000)
  40 H     10.600353    8.275909   22.552707    ( 0.0000,  0.0000,  0.0000)
  41 H      9.727630    9.052688   24.779149    ( 0.0000,  0.0000,  0.0000)
  42 H     10.588803   10.353504   23.946481    ( 0.0000,  0.0000,  0.0000)
  43 H      8.820266   10.333032   23.982347    ( 0.0000,  0.0000,  0.0000)
  44 H      8.934125   10.284716   21.484415    ( 0.0000,  0.0000,  0.0000)
  45 N      9.715184    9.701995   17.053336    ( 0.0000,  0.0000,  0.0000)
  46 N      8.579264    9.702006   16.957400    ( 0.0000,  0.0000,  0.0000)

Unit cell:
           periodic     x           y           z      points  spacing
  1. axis:    yes    9.702222    0.000000    0.000000    60     0.1617
  2. axis:    yes    0.000000    9.702222    0.000000    60     0.1617
  3. axis:    no     0.000000    0.000000   26.351111   164     0.1607

  Lengths:   9.702222   9.702222  26.351111
  Angles:   90.000000  90.000000  90.000000

Effective grid spacing dv^(1/3) = 0.1614

     iter     time        total  log10-change:
                         energy  eigst   dens
iter:   1 04:03:13  -307.829439  -0.97
iter:   2 04:03:52  -307.826522  -1.58  -2.02
iter:   3 04:04:25  -307.820985c -2.24  -2.10
iter:   4 04:04:58  -307.819522c -2.31  -2.44
Writing to output.gpw (mode='')

iter:   5 04:05:29  -307.818840c -2.20  -2.56
iter:   6 04:06:00  -307.817888c -2.75  -2.62
iter:   7 04:06:35  -307.817700c -3.06  -2.80
iter:   8 04:07:09  -307.817704c -3.19  -3.05
iter:   9 04:07:41  -307.817651c -3.45  -3.08
Writing to output.gpw (mode='')

iter:  10 04:08:11  -307.817690c -3.80  -3.26
iter:  11 04:08:44  -307.817705c -4.13  -3.29
iter:  12 04:09:12  -307.817705c -4.34  -3.39
iter:  13 04:09:45  -307.817704c -4.19  -3.38
iter:  14 04:10:18  -307.817709c -4.73  -3.69
Writing to output.gpw (mode='')

iter:  15 04:11:04  -307.817706c -4.89  -3.70
iter:  16 04:11:36  -307.817691c -4.67  -3.73
iter:  17 04:12:11  -307.817695c -5.23  -4.03c
iter:  18 04:12:41  -307.817699c -5.23  -4.09c
iter:  19 04:13:16  -307.817700c -5.17  -4.21c
Writing to output.gpw (mode='')

iter:  20 04:13:45  -307.817701c -5.29  -4.23c
iter:  21 04:14:14  -307.817701c -5.41  -4.33c
iter:  22 04:14:46  -307.817699c -5.63  -4.46c
iter:  23 04:15:23  -307.817699c -5.95  -4.56c
iter:  24 04:15:58  -307.817699c -5.84  -4.58c
Writing to output.gpw (mode='')

iter:  25 04:16:32  -307.817699c -6.03  -4.75c
iter:  26 04:17:04  -307.817699c -5.99  -4.79c
iter:  27 04:17:36  -307.817700c -6.16  -4.83c
iter:  28 04:18:10  -307.817700c -6.05  -4.89c
iter:  29 04:18:48  -307.817700c -6.42  -4.93c
Writing to output.gpw (mode='')

iter:  30 04:19:27  -307.817700c -6.41  -4.87c
iter:  31 04:20:17  -307.817700c -6.44  -4.94c
iter:  32 04:20:45  -307.817700c -6.39  -4.96c
iter:  33 04:21:20  -307.817700c -6.51  -4.99c
iter:  34 04:21:50  -307.817700c -6.70  -4.95c
Writing to output.gpw (mode='')

iter:  35 04:22:22  -307.817700c -6.90  -4.96c
iter:  36 04:22:55  -307.817700c -6.97  -4.96c
iter:  37 04:23:30  -307.817700c -6.80  -4.94c
iter:  38 04:24:03  -307.817699c -6.50  -4.96c
iter:  39 04:24:33  -307.817699c -6.85  -4.99c
Writing to output.gpw (mode='')

iter:  40 04:25:07  -307.817699c -7.20  -5.03c
iter:  41 04:25:38  -307.817699c -7.19  -5.03c
iter:  42 04:26:10  -307.817699c -7.36  -5.02c
iter:  43 04:26:42  -307.817699c -7.31  -5.01c
iter:  44 04:27:16  -307.817700c -7.13  -5.00c
Writing to output.gpw (mode='')

iter:  45 04:27:49  -307.817700c -7.32  -4.98c
iter:  46 04:28:37  -307.817699c -7.60c -4.96c

Converged after 46 iterations.

Dipole moment: (-17.833803, -16.638692, 0.342999) |e|*Ang

Energy contributions relative to reference atoms: (reference = -14434.854043)

Kinetic:       +155.147569
Potential:     -148.050679
External:        +0.000000
XC:            -315.606358
Entropy (-ST):   -0.147408
Local:           +0.765473
--------------------------
Free energy:   -307.891403
Extrapolated:  -307.817699

Dipole-layer corrected work functions: 3.405079, 2.745718 eV

Showing only first 2 kpts
 Kpt  Band  Eigenvalues  Occupancy
  0    31     -3.31884    1.98475
  0    32     -3.21107    1.87563
  0    33     -2.92097    0.08716
  0    34     -2.84270    0.01887

  1    31     -3.11945    1.41409
  1    32     -3.07371    0.98315
  1    33     -3.04064    0.66578
  1    34     -2.95816    0.17497


Fermi level: -3.07540

No gap
Writing to output.gpw (mode='')


Forces in eV/Ang:
  0 Li    0.01830    0.00255   -0.27884
  1 Li   -0.00807   -0.00739   -0.26407
  2 Li   -0.00952    0.01311   -0.27456
  3 Li   -0.00708   -0.00004   -0.26664
  4 Li    0.00389   -0.00003   -0.29110
  5 Li   -0.00073   -0.00007   -0.26995
  6 Li    0.01833   -0.00254   -0.27881
  7 Li   -0.00812    0.00741   -0.26390
  8 Li   -0.00952   -0.01303   -0.27452
  9 Li    0.00074    0.00007    0.34578
 10 Li    0.01199   -0.00006    0.24470
 11 Li   -0.02039    0.00003    0.25952
 12 Li   -0.00357    0.01048    0.26442
 13 Li    0.00604    0.01065    0.25016
 14 Li    0.00058    0.00930    0.25717
 15 Li   -0.00349   -0.01053    0.26478
 16 Li    0.00605   -0.01057    0.24992
 17 Li    0.00055   -0.00939    0.25737
 18 Li    0.02949    0.02524   -0.04804
 19 Li    0.00531   -0.00744    0.06230
 20 Li   -0.02785    0.00458   -0.06306
 21 Li   -0.00352    0.00000    0.06510
 22 Li   -0.00367    0.00022    0.01449
 23 Li    0.00927   -0.00004    0.06933
 24 Li    0.02961   -0.02520   -0.04815
 25 Li    0.00532    0.00727    0.06216
 26 Li   -0.02798   -0.00450   -0.06350
 27 Li    0.26148   -0.00046   -2.69424
 28 Li    0.00372    0.00009   -0.01089
 29 Li    0.19294    0.00001    0.13550
 30 Li    0.01937    0.09295   -0.05452
 31 Li    0.01345    0.00263   -0.03185
 32 Li   -0.04031    0.04728   -0.04705
 33 Li    0.01933   -0.09226   -0.05160
 34 Li    0.01339   -0.00273   -0.03200
 35 Li   -0.04017   -0.04707   -0.04531
 36 O     0.00944   -0.01805   -0.02766
 37 C     0.00158    0.03830   -0.04641
 38 C    -0.00436   -0.01987   -0.11967
 39 H     0.00837    0.02651   -0.01398
 40 H    -0.00978    0.00499   -0.01048
 41 H    -0.00790    0.00945   -0.31864
 42 H    -0.00478   -0.01243   -0.03592
 43 H     0.00316   -0.01214   -0.02277
 44 H     0.00151   -0.01543   -0.02749
 45 N    -0.02265    0.00055    2.60258
 46 N    -0.38653   -0.00011    0.29525

System changes: positions 

Initializing position-dependent things.

Density initialized from wave functions
       .-----------------------.  
      /|                       |  
     / H                       |  
    /  |                       |  
   /   |                       |  
  /    |H                   H C|  
 *     O                       |  
 |     |                       |  
 |     |               H       |  
 C  H  |                       |  
 |     |                       |  
 |     N                    N  |  
 |     |               H       |  
 |     Li                      |  
 |     |                       |  
 |   Li|     Li      Li        |  
 |     |                       |  
 | Li  |  LLi     LLi     Li   |  
 |     |                       |  
 |     |LLi     LLi     Li     |  
 |   Li|     Li      Li        |  
 |    Li  Li  Li  Li  Li  Li   |  
 | Li  |   Li      Li          |  
 |     |Li      Li      Li     |  
 Li    | Li      Li            |  
 |    Li      Li      Li       |  
 |     |                       |  
 |     |                       |  
 |     |                       |  
 |     |                       |  
 |     |                       |  
 |     |                       |  
 |     .-----------------------.  
 |    /                       /   
 |   /                       /    
 |  /                       /     
 | /                       /      
 |/                       /       
 *-----------------------*        

Positions:
   0 Li     1.617037    1.617037   10.000000    ( 0.0000,  0.0000,  0.0000)
   1 Li     4.851111    1.617037   10.000000    ( 0.0000,  0.0000,  0.0000)
   2 Li     8.085185    1.617037   10.000000    ( 0.0000,  0.0000,  0.0000)
   3 Li     1.617037    4.851111   10.000000    ( 0.0000,  0.0000,  0.0000)
   4 Li     4.851111    4.851111   10.000000    ( 0.0000,  0.0000,  0.0000)
   5 Li     8.085185    4.851111   10.000000    ( 0.0000,  0.0000,  0.0000)
   6 Li     1.617037    8.085185   10.000000    ( 0.0000,  0.0000,  0.0000)
   7 Li     4.851111    8.085185   10.000000    ( 0.0000,  0.0000,  0.0000)
   8 Li     8.085185    8.085185   10.000000    ( 0.0000,  0.0000,  0.0000)
   9 Li     0.000000    0.000000   11.617037    ( 0.0000,  0.0000,  0.0000)
  10 Li     3.234074    0.000000   11.617037    ( 0.0000,  0.0000,  0.0000)
  11 Li     6.468148    0.000000   11.617037    ( 0.0000,  0.0000,  0.0000)
  12 Li     0.000000    3.234074   11.617037    ( 0.0000,  0.0000,  0.0000)
  13 Li     3.234074    3.234074   11.617037    ( 0.0000,  0.0000,  0.0000)
  14 Li     6.468148    3.234074   11.617037    ( 0.0000,  0.0000,  0.0000)
  15 Li     0.000000    6.468148   11.617037    ( 0.0000,  0.0000,  0.0000)
  16 Li     3.234074    6.468148   11.617037    ( 0.0000,  0.0000,  0.0000)
  17 Li     6.468148    6.468148   11.617037    ( 0.0000,  0.0000,  0.0000)
  18 Li     1.618252    1.618139   13.467605    ( 0.0000,  0.0000,  0.0000)
  19 Li     4.851294    1.616697   13.472621    ( 0.0000,  0.0000,  0.0000)
  20 Li     8.084076    1.616991   13.467110    ( 0.0000,  0.0000,  0.0000)
  21 Li     1.616831    4.851111   13.472816    ( 0.0000,  0.0000,  0.0000)
  22 Li     4.850989    4.851121   13.470400    ( 0.0000,  0.0000,  0.0000)
  23 Li     8.085630    4.851109   13.472941    ( 0.0000,  0.0000,  0.0000)
  24 Li     1.618257    8.084084   13.467599    ( 0.0000,  0.0000,  0.0000)
  25 Li     4.851294    8.085517   13.472614    ( 0.0000,  0.0000,  0.0000)
  26 Li     8.084070    8.085235   13.467089    ( 0.0000,  0.0000,  0.0000)
  27 Li     0.013725   -0.000018   15.290746    ( 0.0000,  0.0000,  0.0000)
  28 Li     3.234418    0.000004   15.445386    ( 0.0000,  0.0000,  0.0000)
  29 Li     6.477005    0.000001   15.452144    ( 0.0000,  0.0000,  0.0000)
  30 Li     0.000894    3.238450   15.443400    ( 0.0000,  0.0000,  0.0000)
  31 Li     3.234708    3.234211   15.444448    ( 0.0000,  0.0000,  0.0000)
  32 Li     6.466258    3.236286   15.443774    ( 0.0000,  0.0000,  0.0000)
  33 Li     0.000892    6.463804   15.443535    ( 0.0000,  0.0000,  0.0000)
  34 Li     3.234706    6.468006   15.444441    ( 0.0000,  0.0000,  0.0000)
  35 Li     6.466264    6.465946   15.443854    ( 0.0000,  0.0000,  0.0000)
  36 O      9.702515    9.701347   21.445204    ( 0.0000,  0.0000,  0.0000)
  37 C      9.698064    8.887377   22.626721    ( 0.0000,  0.0000,  0.0000)
  38 C      9.712358    9.703842   23.907023    ( 0.0000,  0.0000,  0.0000)
  39 H      8.838268    8.203267   22.619082    ( 0.0000,  0.0000,  0.0000)
  40 H     10.600131    8.276034   22.552495    ( 0.0000,  0.0000,  0.0000)
  41 H      9.727482    9.052355   24.773453    ( 0.0000,  0.0000,  0.0000)
  42 H     10.588661   10.353197   23.945754    ( 0.0000,  0.0000,  0.0000)
  43 H      8.820391   10.332723   23.981872    ( 0.0000,  0.0000,  0.0000)
  44 H      8.934184   10.284391   21.483848    ( 0.0000,  0.0000,  0.0000)
  45 N      9.709653    9.702006   17.092422    ( 0.0000,  0.0000,  0.0000)
  46 N      8.577151    9.702002   16.962061    ( 0.0000,  0.0000,  0.0000)

Unit cell:
           periodic     x           y           z      points  spacing
  1. axis:    yes    9.702222    0.000000    0.000000    60     0.1617
  2. axis:    yes    0.000000    9.702222    0.000000    60     0.1617
  3. axis:    no     0.000000    0.000000   26.351111   164     0.1607

  Lengths:   9.702222   9.702222  26.351111
  Angles:   90.000000  90.000000  90.000000

Effective grid spacing dv^(1/3) = 0.1614

     iter     time        total  log10-change:
                         energy  eigst   dens
iter:   1 04:29:18  -308.011890  -0.98
iter:   2 04:30:01  -308.007309  -1.56  -1.99
iter:   3 04:30:34  -308.001446c -2.20  -2.09
iter:   4 04:31:07  -307.999637c -2.30  -2.41
Writing to output.gpw (mode='')

iter:   5 04:31:39  -307.998527c -2.16  -2.53
iter:   6 04:32:12  -307.997566c -2.71  -2.62
iter:   7 04:32:43  -307.997380c -3.04  -2.81
iter:   8 04:33:13  -307.997375c -3.14  -3.02
iter:   9 04:33:46  -307.997285c -3.51  -3.05
Writing to output.gpw (mode='')

iter:  10 04:34:20  -307.997323c -3.76  -3.29
iter:  11 04:34:51  -307.997338c -4.08  -3.29
iter:  12 04:35:25  -307.997338c -4.33  -3.37
iter:  13 04:35:58  -307.997327c -4.20  -3.37
iter:  14 04:36:28  -307.997343c -4.49  -3.71
Writing to output.gpw (mode='')

iter:  15 04:37:00  -307.997342c -4.75  -3.72
iter:  16 04:37:33  -307.997338c -4.59  -3.74
iter:  17 04:38:06  -307.997330c -4.94  -3.84
iter:  18 04:38:38  -307.997331c -5.13  -4.17c
iter:  19 04:39:11  -307.997328c -5.35  -4.19c
Writing to output.gpw (mode='')

iter:  20 04:40:03  -307.997328c -5.45  -4.25c
iter:  21 04:40:38  -307.997328c -5.50  -4.33c
iter:  22 04:41:13  -307.997330c -5.66  -4.35c
iter:  23 04:41:43  -307.997330c -5.97  -4.57c
iter:  24 04:42:16  -307.997328c -5.74  -4.60c
Writing to output.gpw (mode='')

iter:  25 04:42:47  -307.997327c -5.87  -4.67c
iter:  26 04:43:18  -307.997328c -5.99  -4.77c
iter:  27 04:44:04  -307.997329c -6.02  -4.92c
iter:  28 04:44:39  -307.997329c -6.31  -5.05c
iter:  29 04:45:15  -307.997329c -6.23  -5.09c
Writing to output.gpw (mode='')

iter:  30 04:45:50  -307.997329c -6.32  -5.22c
iter:  31 04:46:27  -307.997329c -6.66  -5.27c
iter:  32 04:47:05  -307.997329c -6.73  -5.28c
iter:  33 04:47:40  -307.997329c -6.62  -5.23c
iter:  34 04:48:14  -307.997329c -6.79  -5.25c
Writing to output.gpw (mode='')

iter:  35 04:48:46  -307.997329c -6.68  -5.22c
iter:  36 04:49:19  -307.997329c -6.88  -5.21c
iter:  37 04:49:55  -307.997329c -7.13  -5.18c
iter:  38 04:50:28  -307.997330c -7.04  -5.16c
iter:  39 04:51:00  -307.997329c -7.16  -5.13c
Writing to output.gpw (mode='')

iter:  40 04:51:32  -307.997329c -7.13  -5.09c
iter:  41 04:52:03  -307.997330c -7.29  -5.14c
iter:  42 04:52:40  -307.997329c -7.28  -5.08c
iter:  43 04:53:14  -307.997329c -7.19  -5.11c
iter:  44 04:53:48  -307.997329c -7.35  -5.11c
Writing to output.gpw (mode='')

iter:  45 04:54:23  -307.997329c -7.42c -5.19c

Converged after 45 iterations.

Dipole moment: (-17.367383, -16.654760, 0.342643) |e|*Ang

Energy contributions relative to reference atoms: (reference = -14434.854043)

Kinetic:       +153.994531
Potential:     -147.327808
External:        +0.000000
XC:            -315.352758
Entropy (-ST):   -0.146813
Local:           +0.762113
--------------------------
Free energy:   -308.070736
Extrapolated:  -307.997329

Dipole-layer corrected work functions: 3.404756, 2.746078 eV

Showing only first 2 kpts
 Kpt  Band  Eigenvalues  Occupancy
  0    31     -3.31663    1.98406
  0    32     -3.21382    1.88185
  0    33     -2.91872    0.08346
  0    34     -2.84014    0.01793

  1    31     -3.11729    1.39590
  1    32     -3.07406    0.98640
  1    33     -3.04223    0.67977
  1    34     -2.95692    0.17097


Fermi level: -3.07542

No gap

Forces in eV/Ang:
  0 Li    0.01833    0.00203   -0.27956
  1 Li   -0.00839   -0.00755   -0.26378
  2 Li   -0.00946    0.01335   -0.27555
  3 Li   -0.00680   -0.00003   -0.26682
  4 Li    0.00379   -0.00003   -0.29219
  5 Li   -0.00033   -0.00008   -0.26905
  6 Li    0.01837   -0.00203   -0.27953
  7 Li   -0.00845    0.00757   -0.26361
  8 Li   -0.00945   -0.01327   -0.27550
  9 Li   -0.00040    0.00007    0.34961
 10 Li    0.01327   -0.00006    0.24281
 11 Li   -0.01952    0.00003    0.26289
 12 Li   -0.00250    0.01122    0.26559
 13 Li    0.00641    0.00927    0.25121
 14 Li   -0.00105    0.01292    0.25600
 15 Li   -0.00243   -0.01128    0.26595
 16 Li    0.00642   -0.00919    0.25096
 17 Li   -0.00108   -0.01301    0.25619
 18 Li    0.03514    0.02836   -0.05100
 19 Li    0.00796   -0.00795    0.06086
 20 Li   -0.03413    0.01492   -0.07239
 21 Li   -0.00143    0.00002    0.06028
 22 Li   -0.00557    0.00022    0.01386
 23 Li    0.00846   -0.00002    0.06699
 24 Li    0.03525   -0.02833   -0.05110
 25 Li    0.00797    0.00778    0.06073
 26 Li   -0.03424   -0.01485   -0.07279
 27 Li    0.20518   -0.00054   -1.76701
 28 Li   -0.00119    0.00008   -0.00894
 29 Li    0.19116    0.00001    0.13405
 30 Li    0.01898    0.08765   -0.05343
 31 Li    0.01238    0.00203   -0.03024
 32 Li   -0.03842    0.04548   -0.04644
 33 Li    0.01894   -0.08696   -0.05057
 34 Li    0.01231   -0.00213   -0.03038
 35 Li   -0.03828   -0.04528   -0.04475
 36 O     0.00542   -0.00923   -0.05211
 37 C     0.00312    0.02681   -0.06449
 38 C    -0.00492    0.00353   -0.11229
 39 H     0.00339    0.02179   -0.01665
 40 H    -0.00627    0.00380   -0.01269
 41 H    -0.00428   -0.02401   -0.25535
 42 H     0.00367   -0.00365   -0.04216
 43 H    -0.00748   -0.00274   -0.03095
 44 H     0.00487   -0.01602   -0.03001
 45 N    -0.23291    0.00137    1.75279
 46 N    -0.17985   -0.00010    0.22868

System changes: positions 

Initializing position-dependent things.

Density initialized from wave functions
       .-----------------------.  
      /|                       |  
     / H                       |  
    /  |                       |  
   /   |                       |  
  /    |H                   H C|  
 *     O                       |  
 |     |                       |  
 |     |               H       |  
 C  H  |                       |  
 |     |                       |  
 |     |                    N  N  
 |     |               H       |  
 |     Li                      |  
 |     |                       |  
 |   Li|     Li      Li        |  
 |     |                       |  
 | Li  |  LLi     LLi     Li   |  
 |     |                       |  
 |     |LLi     LLi     Li     |  
 |   Li|     Li      Li        |  
 |    Li  Li  Li  Li  Li  Li   |  
 | Li  |   Li      Li          |  
 |     |Li      Li      Li     |  
 Li    | Li      Li            |  
 |    Li      Li      Li       |  
 |     |                       |  
 |     |                       |  
 |     |                       |  
 |     |                       |  
 |     |                       |  
 |     |                       |  
 |     .-----------------------.  
 |    /                       /   
 |   /                       /    
 |  /                       /     
 | /                       /      
 |/                       /       
 *-----------------------*        

Positions:
   0 Li     1.617037    1.617037   10.000000    ( 0.0000,  0.0000,  0.0000)
   1 Li     4.851111    1.617037   10.000000    ( 0.0000,  0.0000,  0.0000)
   2 Li     8.085185    1.617037   10.000000    ( 0.0000,  0.0000,  0.0000)
   3 Li     1.617037    4.851111   10.000000    ( 0.0000,  0.0000,  0.0000)
   4 Li     4.851111    4.851111   10.000000    ( 0.0000,  0.0000,  0.0000)
   5 Li     8.085185    4.851111   10.000000    ( 0.0000,  0.0000,  0.0000)
   6 Li     1.617037    8.085185   10.000000    ( 0.0000,  0.0000,  0.0000)
   7 Li     4.851111    8.085185   10.000000    ( 0.0000,  0.0000,  0.0000)
   8 Li     8.085185    8.085185   10.000000    ( 0.0000,  0.0000,  0.0000)
   9 Li     0.000000    0.000000   11.617037    ( 0.0000,  0.0000,  0.0000)
  10 Li     3.234074    0.000000   11.617037    ( 0.0000,  0.0000,  0.0000)
  11 Li     6.468148    0.000000   11.617037    ( 0.0000,  0.0000,  0.0000)
  12 Li     0.000000    3.234074   11.617037    ( 0.0000,  0.0000,  0.0000)
  13 Li     3.234074    3.234074   11.617037    ( 0.0000,  0.0000,  0.0000)
  14 Li     6.468148    3.234074   11.617037    ( 0.0000,  0.0000,  0.0000)
  15 Li     0.000000    6.468148   11.617037    ( 0.0000,  0.0000,  0.0000)
  16 Li     3.234074    6.468148   11.617037    ( 0.0000,  0.0000,  0.0000)
  17 Li     6.468148    6.468148   11.617037    ( 0.0000,  0.0000,  0.0000)
  18 Li     1.619205    1.618892   13.466229    ( 0.0000,  0.0000,  0.0000)
  19 Li     4.851509    1.616492   13.474255    ( 0.0000,  0.0000,  0.0000)
  20 Li     8.083140    1.617410   13.465124    ( 0.0000,  0.0000,  0.0000)
  21 Li     1.616794    4.851111   13.474439    ( 0.0000,  0.0000,  0.0000)
  22 Li     4.850836    4.851127   13.470780    ( 0.0000,  0.0000,  0.0000)
  23 Li     8.085855    4.851108   13.474753    ( 0.0000,  0.0000,  0.0000)
  24 Li     1.619213    8.083332   13.466221    ( 0.0000,  0.0000,  0.0000)
  25 Li     4.851510    8.085718   13.474244    ( 0.0000,  0.0000,  0.0000)
  26 Li     8.083131    8.084818   13.465093    ( 0.0000,  0.0000,  0.0000)
  27 Li     0.018952   -0.000034   15.251809    ( 0.0000,  0.0000,  0.0000)
  28 Li     3.234348    0.000006   15.445148    ( 0.0000,  0.0000,  0.0000)
  29 Li     6.482145    0.000001   15.455752    ( 0.0000,  0.0000,  0.0000)
  30 Li     0.001407    3.240815   15.441966    ( 0.0000,  0.0000,  0.0000)
  31 Li     3.235045    3.234263   15.443633    ( 0.0000,  0.0000,  0.0000)
  32 Li     6.465225    3.237506   15.442521    ( 0.0000,  0.0000,  0.0000)
  33 Li     0.001404    6.461458   15.442178    ( 0.0000,  0.0000,  0.0000)
  34 Li     3.235041    6.467952   15.443622    ( 0.0000,  0.0000,  0.0000)
  35 Li     6.465235    6.464731   15.442647    ( 0.0000,  0.0000,  0.0000)
  36 O      9.702655    9.701140   21.443880    ( 0.0000,  0.0000,  0.0000)
  37 C      9.698149    8.887899   22.625001    ( 0.0000,  0.0000,  0.0000)
  38 C      9.712203    9.704556   23.903470    ( 0.0000,  0.0000,  0.0000)
  39 H      8.838403    8.203892   22.618649    ( 0.0000,  0.0000,  0.0000)
  40 H     10.599917    8.276166   22.552167    ( 0.0000,  0.0000,  0.0000)
  41 H      9.727357    9.051406   24.766945    ( 0.0000,  0.0000,  0.0000)
  42 H     10.588666   10.352993   23.944660    ( 0.0000,  0.0000,  0.0000)
  43 H      8.820313   10.332532   23.981078    ( 0.0000,  0.0000,  0.0000)
  44 H      8.934321   10.283953   21.483049    ( 0.0000,  0.0000,  0.0000)
  45 N      9.701595    9.702038   17.131601    ( 0.0000,  0.0000,  0.0000)
  46 N      8.574693    9.701998   16.967416    ( 0.0000,  0.0000,  0.0000)

Unit cell:
           periodic     x           y           z      points  spacing
  1. axis:    yes    9.702222    0.000000    0.000000    60     0.1617
  2. axis:    yes    0.000000    9.702222    0.000000    60     0.1617
  3. axis:    no     0.000000    0.000000   26.351111   164     0.1607

  Lengths:   9.702222   9.702222  26.351111
  Angles:   90.000000  90.000000  90.000000

Effective grid spacing dv^(1/3) = 0.1614

     iter     time        total  log10-change:
                         energy  eigst   dens
iter:   1 04:55:06  -308.130606  -0.99
iter:   2 04:55:36  -308.126960  -1.59  -2.02
iter:   3 04:56:08  -308.123022c -2.18  -2.13
iter:   4 04:56:39  -308.120394c -2.25  -2.38
Writing to output.gpw (mode='')

iter:   5 04:57:11  -308.119444c -2.13  -2.56
iter:   6 04:57:47  -308.118509c -2.79  -2.62
iter:   7 04:58:25  -308.118395c -3.04  -2.84
iter:   8 04:58:58  -308.118355c -3.16  -2.98
iter:   9 04:59:32  -308.118287c -3.50  -3.06
Writing to output.gpw (mode='')

iter:  10 05:00:07  -308.118277c -3.73  -3.16
iter:  11 05:00:41  -308.118294c -4.05  -3.31
iter:  12 05:01:15  -308.118293c -4.31  -3.43
iter:  13 05:01:44  -308.118285c -4.29  -3.43
iter:  14 05:02:20  -308.118292c -4.51  -3.66
Writing to output.gpw (mode='')

iter:  15 05:02:53  -308.118293c -4.91  -3.80
iter:  16 05:03:29  -308.118295c -4.84  -3.83
iter:  17 05:04:13  -308.118293c -4.87  -3.87
iter:  18 05:04:48  -308.118284c -5.09  -3.91
iter:  19 05:05:21  -308.118283c -5.27  -4.09c
Writing to output.gpw (mode='')

iter:  20 05:05:54  -308.118282c -5.44  -4.17c
iter:  21 05:06:26  -308.118283c -5.59  -4.26c
iter:  22 05:06:58  -308.118283c -5.64  -4.30c
iter:  23 05:07:29  -308.118282c -5.82  -4.34c
iter:  24 05:08:00  -308.118282c -6.03  -4.56c
Writing to output.gpw (mode='')

iter:  25 05:08:33  -308.118284c -6.07  -4.56c
iter:  26 05:09:06  -308.118283c -5.91  -4.69c
iter:  27 05:09:55  -308.118284c -6.17  -4.69c
iter:  28 05:10:26  -308.118284c -6.32  -4.90c
iter:  29 05:11:00  -308.118283c -6.20  -4.97c
Writing to output.gpw (mode='')

iter:  30 05:11:31  -308.118283c -6.36  -5.11c
iter:  31 05:12:12  -308.118284c -6.48  -5.16c
iter:  32 05:12:46  -308.118284c -6.47  -5.20c
iter:  33 05:13:18  -308.118284c -6.58  -5.22c
iter:  34 05:13:52  -308.118284c -6.73  -5.30c
Writing to output.gpw (mode='')

iter:  35 05:14:24  -308.118284c -6.84  -5.41c
iter:  36 05:14:59  -308.118284c -6.84  -5.45c
iter:  37 05:15:32  -308.118284c -6.90  -5.58c
iter:  38 05:16:05  -308.118284c -7.11  -5.61c
iter:  39 05:16:42  -308.118284c -7.19  -5.65c
Writing to output.gpw (mode='')

iter:  40 05:17:15  -308.118284c -7.19  -5.66c
iter:  41 05:17:49  -308.118284c -7.43c -5.58c

Converged after 41 iterations.

Dipole moment: (-16.639128, -16.704020, 0.343728) |e|*Ang

Energy contributions relative to reference atoms: (reference = -14434.854043)

Kinetic:       +153.270347
Potential:     -146.909592
External:        +0.000000
XC:            -315.166312
Entropy (-ST):   -0.146225
Local:           +0.760385
--------------------------
Free energy:   -308.191397
Extrapolated:  -308.118284

Dipole-layer corrected work functions: 3.404226, 2.743463 eV

Showing only first 2 kpts
 Kpt  Band  Eigenvalues  Occupancy
  0    31     -3.31358    1.98359
  0    32     -3.21531    1.88847
  0    33     -2.91431    0.07904
  0    34     -2.83664    0.01726

  1    31     -3.11369    1.37862
  1    32     -3.07282    0.98980
  1    33     -3.04186    0.69067
  1    34     -2.95452    0.16843


Fermi level: -3.07384

No gap
Writing to output.gpw (mode='')


Forces in eV/Ang:
  0 Li    0.01827    0.00161   -0.28025
  1 Li   -0.00869   -0.00762   -0.26339
  2 Li   -0.00933    0.01363   -0.27644
  3 Li   -0.00665   -0.00003   -0.26687
  4 Li    0.00360   -0.00003   -0.29313
  5 Li   -0.00001   -0.00008   -0.26812
  6 Li    0.01830   -0.00161   -0.28022
  7 Li   -0.00875    0.00763   -0.26322
  8 Li   -0.00932   -0.01354   -0.27639
  9 Li   -0.00138    0.00007    0.35240
 10 Li    0.01430   -0.00006    0.24128
 11 Li   -0.01902    0.00004    0.26582
 12 Li   -0.00147    0.01220    0.26655
 13 Li    0.00714    0.00813    0.25221
 14 Li   -0.00281    0.01644    0.25498
 15 Li   -0.00140   -0.01227    0.26690
 16 Li    0.00715   -0.00804    0.25195
 17 Li   -0.00285   -0.01653    0.25516
 18 Li    0.04084    0.03231   -0.05377
 19 Li    0.01064   -0.00881    0.05911
 20 Li   -0.03970    0.02475   -0.07946
 21 Li    0.00086    0.00003    0.05464
 22 Li   -0.00727    0.00022    0.01259
 23 Li    0.00747    0.00000    0.06329
 24 Li    0.04095   -0.03230   -0.05386
 25 Li    0.01065    0.00865    0.05899
 26 Li   -0.03981   -0.02470   -0.07982
 27 Li    0.15520   -0.00056   -1.09820
 28 Li   -0.00401    0.00007   -0.00738
 29 Li    0.18820   -0.00000    0.13114
 30 Li    0.01827    0.08129   -0.05253
 31 Li    0.01097    0.00143   -0.02836
 32 Li   -0.03619    0.04348   -0.04551
 33 Li    0.01824   -0.08061   -0.04975
 34 Li    0.01089   -0.00152   -0.02850
 35 Li   -0.03605   -0.04329   -0.04387
 36 O     0.00675   -0.00842   -0.07507
 37 C     0.00307    0.02258   -0.07666
 38 C    -0.00380    0.01255   -0.09291
 39 H    -0.00059    0.01761   -0.02175
 40 H    -0.00148    0.00235   -0.01756
 41 H     0.00009   -0.04681   -0.19922
 42 H     0.01021    0.00502   -0.04831
 43 H    -0.01614    0.00605   -0.03960
 44 H     0.00210   -0.01103   -0.03383
 45 N    -0.26686    0.00207    1.11818
 46 N    -0.08332    0.00012    0.17862

System changes: positions 

Initializing position-dependent things.

Density initialized from wave functions
       .-----------------------.  
      /|                       |  
     / H                       |  
    /  |                       |  
   /   |                       |  
  /    |H                   H C|  
 *     O                       |  
 |     |                       |  
 |     |               H       |  
 C  H  |                       |  
 |     |                       |  
 |     |                    N  N  
 |     |               H       |  
 |     |                       |  
 |     Li                      |  
 |   Li|     Li      Li        |  
 |     |                       |  
 | Li  |  LLi     LLi     Li   |  
 |     |                       |  
 |     |LLi     LLi     Li     |  
 |   Li|     Li      Li        |  
 |    Li  Li  Li  Li  Li  Li   |  
 | Li  |   Li      Li          |  
 |     |Li      Li      Li     |  
 Li    | Li      Li            |  
 |    Li      Li      Li       |  
 |     |                       |  
 |     |                       |  
[...]
iter:  21 21:35:22  -308.891497c -7.11  -5.02c
iter:  22 21:35:49  -308.891497c -7.17  -5.16c
iter:  23 21:36:16  -308.891497c -7.17  -5.23c
iter:  24 21:36:43  -308.891497c -7.26  -5.27c
Writing to output.gpw (mode='')

iter:  25 21:37:10  -308.891497c -7.60c -5.36c

Converged after 25 iterations.

Dipole moment: (-10.841849, -15.752062, 0.090915) |e|*Ang

Energy contributions relative to reference atoms: (reference = -14434.854043)

Kinetic:       +150.557045
Potential:     -146.184184
External:        +0.000000
XC:            -313.955512
Entropy (-ST):   -0.147019
Local:           +0.764664
--------------------------
Free energy:   -308.965007
Extrapolated:  -308.891497

Dipole-layer corrected work functions: 3.407275, 3.232506 eV

Showing only first 2 kpts
 Kpt  Band  Eigenvalues  Occupancy
  0    31     -3.57725    1.98844
  0    32     -3.50192    1.94887
  0    33     -3.14022    0.05354
  0    34     -3.09292    0.02113

  1    31     -3.34523    1.24809
  1    32     -3.29698    0.77481
  1    33     -3.29226    0.73048
  1    34     -3.24387    0.35881


Fermi level: -3.31989

No gap

Forces in eV/Ang:
  0 Li    0.00427   -0.00077   -0.27692
  1 Li   -0.00927    0.00126   -0.26581
  2 Li    0.00335    0.00536   -0.26707
  3 Li   -0.00191   -0.00200   -0.27892
  4 Li   -0.00155   -0.00064   -0.28221
  5 Li   -0.00057    0.00212   -0.27672
  6 Li    0.00160   -0.00220   -0.27920
  7 Li   -0.00497   -0.00343   -0.26479
  8 Li    0.00191   -0.00992   -0.26570
  9 Li    0.01270   -0.00368    0.27743
 10 Li    0.00236   -0.00232    0.24886
 11 Li    0.00167    0.00206    0.25658
 12 Li    0.00658    0.00811    0.26892
 13 Li    0.01355   -0.01174    0.26489
 14 Li   -0.01142    0.01346    0.26998
 15 Li   -0.00727    0.01313    0.26298
 16 Li    0.02285    0.02981    0.25819
 17 Li   -0.00890    0.00651    0.25514
 18 Li   -0.00765   -0.00546    0.00526
 19 Li    0.00412   -0.00203    0.00877
 20 Li    0.00285   -0.00622    0.00986
 21 Li    0.00470   -0.00013    0.00048
 22 Li    0.00191   -0.00025    0.00276
 23 Li    0.00513   -0.00089    0.00499
 24 Li   -0.00496    0.00874    0.00749
 25 Li   -0.00000    0.00519    0.00842
 26 Li    0.00722    0.00698    0.00661
 27 Li   -0.02270   -0.00155   -0.00533
 28 Li   -0.00383    0.00237    0.00226
 29 Li    0.01086   -0.01452   -0.00993
 30 Li    0.00765   -0.00712    0.00602
 31 Li   -0.00386    0.00141    0.01661
 32 Li    0.00008   -0.00695    0.01153
 33 Li    0.00705    0.00246    0.00726
 34 Li   -0.00501   -0.00466    0.01031
 35 Li    0.00058   -0.00534    0.00801
 36 O    -0.01386    0.03589   -0.02091
 37 C     0.00111    0.01305   -0.00108
 38 C    -0.00451    0.00111   -0.00366
 39 H    -0.01752    0.00668   -0.01364
 40 H     0.00288    0.01756   -0.00579
 41 H     0.01437    0.00420    0.00056
 42 H    -0.00907    0.00550   -0.00666
 43 H     0.00583   -0.01429    0.00004
 44 H     0.01256   -0.02991   -0.00350
 45 N     0.00801   -0.03459    0.04234
 46 N     0.00059    0.00937   -0.00981

System changes: positions 

Initializing position-dependent things.

Density initialized from wave functions
       .-----------------------.  
      /|                       |  
     / |                       |  
    /  |                       |  
   /   |                     H |  
  /    |                       C  
 *     |                       |  
 |     CH                   H  |  
 |     HO                      |  
 |     |                       |  
 | H   |                       |  
 |     |               H       |  
 |     |                       |  
 |     |                       |  
 |     |                       |  
 |     |     Li     NLi      Li|  
 |     |                       |  
 |     |  LLi     LNi     LLi  |  
 |     |                       |  
 Li    |LLi     LLi     Li     |  
 |   Li|     Li      Li        |  
 |    Li  Li  Li  Li  Li  Li   |  
 | Li  |   Li      Li          |  
 |     |Li      Li      Li     |  
 Li    | Li      Li            |  
 |    Li      Li      Li       |  
 |     |                       |  
 |     |                       |  
 |     |                       |  
 |     |                       |  
 |     |                       |  
 |     |                       |  
 |     .-----------------------.  
 |    /                       /   
 |   /                       /    
 |  /                       /     
 | /                       /      
 |/                       /       
 *-----------------------*        

Positions:
   0 Li     1.617037    1.617037   10.000000    ( 0.0000,  0.0000,  0.0000)
   1 Li     4.851111    1.617037   10.000000    ( 0.0000,  0.0000,  0.0000)
   2 Li     8.085185    1.617037   10.000000    ( 0.0000,  0.0000,  0.0000)
   3 Li     1.617037    4.851111   10.000000    ( 0.0000,  0.0000,  0.0000)
   4 Li     4.851111    4.851111   10.000000    ( 0.0000,  0.0000,  0.0000)
   5 Li     8.085185    4.851111   10.000000    ( 0.0000,  0.0000,  0.0000)
   6 Li     1.617037    8.085185   10.000000    ( 0.0000,  0.0000,  0.0000)
   7 Li     4.851111    8.085185   10.000000    ( 0.0000,  0.0000,  0.0000)
   8 Li     8.085185    8.085185   10.000000    ( 0.0000,  0.0000,  0.0000)
   9 Li     0.000000    0.000000   11.617037    ( 0.0000,  0.0000,  0.0000)
  10 Li     3.234074    0.000000   11.617037    ( 0.0000,  0.0000,  0.0000)
  11 Li     6.468148    0.000000   11.617037    ( 0.0000,  0.0000,  0.0000)
  12 Li     0.000000    3.234074   11.617037    ( 0.0000,  0.0000,  0.0000)
  13 Li     3.234074    3.234074   11.617037    ( 0.0000,  0.0000,  0.0000)
  14 Li     6.468148    3.234074   11.617037    ( 0.0000,  0.0000,  0.0000)
  15 Li     0.000000    6.468148   11.617037    ( 0.0000,  0.0000,  0.0000)
  16 Li     3.234074    6.468148   11.617037    ( 0.0000,  0.0000,  0.0000)
  17 Li     6.468148    6.468148   11.617037    ( 0.0000,  0.0000,  0.0000)
  18 Li     1.642157    1.621092   13.459292    ( 0.0000,  0.0000,  0.0000)
  19 Li     4.874627    1.598417   13.488968    ( 0.0000,  0.0000,  0.0000)
  20 Li     8.076227    1.618983   13.456059    ( 0.0000,  0.0000,  0.0000)
  21 Li     1.622208    4.862867   13.466607    ( 0.0000,  0.0000,  0.0000)
  22 Li     4.835685    4.871612   13.458279    ( 0.0000,  0.0000,  0.0000)
  23 Li     8.081357    4.873811   13.454575    ( 0.0000,  0.0000,  0.0000)
  24 Li     1.640994    8.073415   13.460718    ( 0.0000,  0.0000,  0.0000)
  25 Li     4.880595    8.123051   13.502918    ( 0.0000,  0.0000,  0.0000)
  26 Li     8.066814    8.110136   13.480882    ( 0.0000,  0.0000,  0.0000)
  27 Li     0.089647    0.000859   15.368739    ( 0.0000,  0.0000,  0.0000)
  28 Li     3.260717    0.000207   15.442018    ( 0.0000,  0.0000,  0.0000)
  29 Li     6.517520    0.072481   15.589686    ( 0.0000,  0.0000,  0.0000)
  30 Li    -0.001602    3.257014   15.356477    ( 0.0000,  0.0000,  0.0000)
  31 Li     3.237323    3.224310   15.392855    ( 0.0000,  0.0000,  0.0000)
  32 Li     6.454957    3.316989   15.363963    ( 0.0000,  0.0000,  0.0000)
  33 Li    -0.013182    6.471833   15.400856    ( 0.0000,  0.0000,  0.0000)
  34 Li     3.237972    6.476674   15.419681    ( 0.0000,  0.0000,  0.0000)
  35 Li     6.461616    6.492582   15.402546    ( 0.0000,  0.0000,  0.0000)
  36 O     10.426780    9.081634   20.191538    ( 0.0000,  0.0000,  0.0000)
  37 C      9.900920    8.570815   21.425228    ( 0.0000,  0.0000,  0.0000)
  38 C      9.596489    9.668436   22.436703    ( 0.0000,  0.0000,  0.0000)
  39 H      9.003744    7.966430   21.238254    ( 0.0000,  0.0000,  0.0000)
  40 H     10.673665    7.900369   21.807580    ( 0.0000,  0.0000,  0.0000)
  41 H      9.196189    9.235276   23.357337    ( 0.0000,  0.0000,  0.0000)
  42 H     10.500166   10.231327   22.676944    ( 0.0000,  0.0000,  0.0000)
  43 H      8.850082   10.364468   22.042567    ( 0.0000,  0.0000,  0.0000)
  44 H      9.764339    9.678299   19.820051    ( 0.0000,  0.0000,  0.0000)
  45 N      7.585979   10.161323   18.513422    ( 0.0000,  0.0000,  0.0000)
  46 N      7.175474   10.019704   17.486522    ( 0.0000,  0.0000,  0.0000)

Unit cell:
           periodic     x           y           z      points  spacing
  1. axis:    yes    9.702222    0.000000    0.000000    60     0.1617
  2. axis:    yes    0.000000    9.702222    0.000000    60     0.1617
  3. axis:    no     0.000000    0.000000   26.351111   164     0.1607

  Lengths:   9.702222   9.702222  26.351111
  Angles:   90.000000  90.000000  90.000000

Effective grid spacing dv^(1/3) = 0.1614

     iter     time        total  log10-change:
                         energy  eigst   dens
iter:   1 21:37:45  -308.893824  -2.51
iter:   2 21:38:12  -308.892641  -3.11  -2.44
iter:   3 21:38:39  -308.892188c -3.79  -2.64
iter:   4 21:39:07  -308.891953c -3.87  -2.87
Writing to output.gpw (mode='')

iter:   5 21:39:34  -308.891933c -4.24  -3.21
iter:   6 21:40:01  -308.891908c -3.82  -3.31
iter:   7 21:40:28  -308.891926c -3.99  -3.48
iter:   8 21:40:55  -308.891928c -4.71  -3.54
iter:   9 21:41:22  -308.891922c -5.22  -3.74
Writing to output.gpw (mode='')

iter:  10 21:41:49  -308.891916c -5.22  -3.86
iter:  11 21:42:16  -308.891913c -5.36  -4.02c
iter:  12 21:42:43  -308.891914c -5.54  -4.14c
iter:  13 21:43:10  -308.891916c -5.97  -4.18c
iter:  14 21:43:37  -308.891916c -6.08  -4.32c
Writing to output.gpw (mode='')

iter:  15 21:44:04  -308.891916c -5.93  -4.44c
iter:  16 21:44:31  -308.891917c -6.39  -4.51c
iter:  17 21:44:58  -308.891918c -6.45  -4.66c
iter:  18 21:45:25  -308.891918c -6.56  -4.85c
iter:  19 21:45:52  -308.891918c -6.72  -4.86c
Writing to output.gpw (mode='')

iter:  20 21:46:19  -308.891918c -6.84  -4.99c
iter:  21 21:46:46  -308.891918c -7.25  -5.15c
iter:  22 21:47:13  -308.891918c -7.24  -5.19c
iter:  23 21:47:40  -308.891918c -7.43c -5.28c

Converged after 23 iterations.

Dipole moment: (-10.773898, -15.760559, 0.088387) |e|*Ang

Energy contributions relative to reference atoms: (reference = -14434.854043)

Kinetic:       +150.525588
Potential:     -146.160265
External:        +0.000000
XC:            -313.948403
Entropy (-ST):   -0.147058
Local:           +0.764690
--------------------------
Free energy:   -308.965447
Extrapolated:  -308.891918

Dipole-layer corrected work functions: 3.407275, 3.237364 eV

Showing only first 2 kpts
 Kpt  Band  Eigenvalues  Occupancy
  0    31     -3.57933    1.98836
  0    32     -3.50429    1.94881
  0    33     -3.14281    0.05371
  0    34     -3.09526    0.02110

  1    31     -3.34754    1.24695
  1    32     -3.29950    0.77566
  1    33     -3.29497    0.73313
  1    34     -3.24626    0.35857


Fermi level: -3.32232

No gap
Writing to output.gpw (mode='')


Forces in eV/Ang:
  0 Li    0.00432   -0.00072   -0.27694
  1 Li   -0.00920    0.00133   -0.26569
  2 Li    0.00335    0.00545   -0.26721
  3 Li   -0.00201   -0.00201   -0.27888
  4 Li   -0.00166   -0.00074   -0.28276
  5 Li   -0.00057    0.00208   -0.27639
  6 Li    0.00159   -0.00228   -0.27924
  7 Li   -0.00489   -0.00338   -0.26476
  8 Li    0.00188   -0.00994   -0.26586
  9 Li    0.01227   -0.00372    0.27868
 10 Li    0.00274   -0.00214    0.24915
 11 Li    0.00128    0.00214    0.25702
 12 Li    0.00744    0.00902    0.26760
 13 Li    0.01458   -0.01036    0.26578
 14 Li   -0.01214    0.01506    0.26979
 15 Li   -0.00678    0.01260    0.26267
 16 Li    0.02447    0.02862    0.26018
 17 Li   -0.00947    0.00486    0.25641
 18 Li   -0.00916   -0.00674    0.00602
 19 Li    0.00417   -0.00138    0.00800
 20 Li    0.00324   -0.00890    0.01300
 21 Li    0.00622   -0.00018   -0.00112
 22 Li   -0.00156    0.00093   -0.00068
 23 Li    0.00210   -0.00005    0.00269
 24 Li   -0.00678    0.00850    0.00809
 25 Li   -0.00076    0.00277    0.00658
 26 Li    0.00824    0.00820    0.00743
 27 Li   -0.02041   -0.00052   -0.00495
 28 Li   -0.00358    0.00235    0.00359
 29 Li    0.01267   -0.01347   -0.00703
 30 Li    0.00674   -0.00850    0.00620
 31 Li   -0.00195    0.00238    0.01617
 32 Li    0.00061   -0.00813    0.01216
 33 Li    0.00643    0.00361    0.00610
 34 Li   -0.00263   -0.00489    0.01000
 35 Li    0.00031   -0.00411    0.00893
 36 O    -0.01436    0.03038   -0.02897
 37 C     0.01843    0.00653    0.00992
 38 C    -0.00148   -0.01093   -0.00871
 39 H    -0.01757    0.00252   -0.02251
 40 H    -0.00510    0.01658   -0.00298
 41 H     0.01806    0.01527    0.00434
 42 H    -0.01551    0.00697   -0.00028
 43 H     0.00426   -0.00797    0.00324
 44 H     0.00423   -0.02188   -0.01121
 45 N    -0.00674   -0.04162    0.01072
 46 N     0.00346    0.00721    0.01534

Timing:                                      incl.     excl.
-------------------------------------------------------------------
Density initialized from wave functions:    97.872    97.867   0.1% |
 Symmetrize density:                         0.005     0.005   0.0% |
Forces:                                    424.395   424.395   0.3% |
Hamiltonian:                              2792.199     0.032   0.0% |
 Atomic:                                    11.928     0.133   0.0% |
  XC Correction:                            11.796    11.796   0.0% |
 Calculate atomic Hamiltonians:              9.043     9.043   0.0% |
 Communicate:                               31.045    31.045   0.0% |
 Hartree integrate/restrict:                 8.900     8.900   0.0% |
 Initialize Hamiltonian:                     0.000     0.000   0.0% |
 Poisson:                                  228.240   109.697   0.1% |
  Communicate from 1D:                      12.314    12.314   0.0% |
  Communicate from 2D:                      22.957    22.957   0.0% |
  Communicate to 1D:                         4.673     4.673   0.0% |
  Communicate to 2D:                        23.877    23.877   0.0% |
  FFT 1D:                                   27.715    27.715   0.0% |
  FFT 2D:                                   27.006    27.006   0.0% |
 XC 3D grid:                              2501.173   558.613   0.3% |
  VdW-DF integral:                        1942.559    15.927   0.0% |
   Convolution:                            213.316   213.316   0.1% |
   FFT:                                     76.196    76.196   0.0% |
   gather:                                 942.656   942.656   0.6% |
   hmm1:                                    57.610    57.610   0.0% |
   hmm2:                                    74.478    74.478   0.0% |
   iFFT:                                    76.483    76.483   0.0% |
   potential:                              478.631    10.267   0.0% |
    collect:                                42.900    42.900   0.0% |
    p1:                                    213.677   213.677   0.1% |
    p2:                                    107.923   107.923   0.1% |
    sum:                                   103.864   103.864   0.1% |
   splines:                                  7.262     7.262   0.0% |
 vbar:                                       1.838     1.838   0.0% |
LCAO initialization:                         4.912     0.395   0.0% |
 LCAO eigensolver:                           1.351     0.001   0.0% |
  Calculate projections:                     0.000     0.000   0.0% |
  DenseAtomicCorrection:                     0.000     0.000   0.0% |
  Distribute overlap matrix:                 1.319     1.319   0.0% |
  Orbital Layouts:                           0.022     0.022   0.0% |
  Potential matrix:                          0.003     0.003   0.0% |
  Sum over cells:                            0.006     0.006   0.0% |
 LCAO to grid:                               2.715     2.715   0.0% |
 Set positions (LCAO WFS):                   0.450     0.293   0.0% |
  Basic WFS set positions:                   0.003     0.003   0.0% |
  Basis functions set positions:             0.000     0.000   0.0% |
  P tci:                                     0.001     0.001   0.0% |
  ST tci:                                    0.091     0.091   0.0% |
  mktci:                                     0.063     0.063   0.0% |
Redistribute:                                0.124     0.124   0.0% |
SCF-cycle:                               155986.876  5138.663   3.2% ||
 Davidson:                               58240.125 21713.354  13.6% |----|
  Apply hamiltonian:                      4708.767  4708.767   2.9% ||
  Subspace diag:                          9255.305     1.377   0.0% |
   calc_h_matrix:                         5833.825   909.665   0.6% |
    Apply hamiltonian:                    4924.161  4924.161   3.1% ||
   diagonalize:                            134.732   134.732   0.1% |
   rotate_psi:                            3285.370  3285.370   2.1% ||
  calc. matrices:                        17594.424  7161.394   4.5% |-|
   Apply hamiltonian:                    10433.030 10433.030   6.5% |--|
  diagonalize:                              38.941    38.941   0.0% |
  rotate_psi:                             4929.334  4929.334   3.1% ||
 Density:                                 1112.643     0.212   0.0% |
  Atomic density matrices:                  90.348    90.348   0.1% |
  Mix:                                     540.609   540.609   0.3% |
  Multipole moments:                         4.928     4.928   0.0% |
  Pseudo density:                          476.547   476.319   0.3% |
   Symmetrize density:                       0.228     0.228   0.0% |
 Hamiltonian:                            91389.718     1.057   0.0% |
  Atomic:                                  393.290     4.604   0.0% |
   XC Correction:                          388.686   388.686   0.2% |
  Calculate atomic Hamiltonians:           287.132   287.132   0.2% |
  Communicate:                            1159.380  1159.380   0.7% |
  Hartree integrate/restrict:              286.668   286.668   0.2% |
  Poisson:                                7455.607  3599.110   2.2% ||
   Communicate from 1D:                    398.105   398.105   0.2% |
   Communicate from 2D:                    761.356   761.356   0.5% |
   Communicate to 1D:                      149.374   149.374   0.1% |
   Communicate to 2D:                      783.846   783.846   0.5% |
   FFT 1D:                                 903.014   903.014   0.6% |
   FFT 2D:                                 860.803   860.803   0.5% |
  XC 3D grid:                            81747.303 18135.327  11.3% |----|
   VdW-DF integral:                      63611.976   506.546   0.3% |
    Convolution:                          6870.607  6870.607   4.3% |-|
    FFT:                                  2427.856  2427.856   1.5% ||
    gather:                              31446.030 31446.030  19.6% |-------|
    hmm1:                                 1808.628  1808.628   1.1% |
    hmm2:                                 2340.343  2340.343   1.5% ||
    iFFT:                                 2485.851  2485.851   1.6% ||
    potential:                           15726.052   330.264   0.2% |
     collect:                             1413.589  1413.589   0.9% |
     p1:                                  6910.954  6910.954   4.3% |-|
     p2:                                  3460.501  3460.501   2.2% ||
     sum:                                 3610.744  3610.744   2.3% ||
    splines:                                 0.063     0.063   0.0% |
  vbar:                                     59.281    59.281   0.0% |
 Orthonormalize:                           105.726     0.039   0.0% |
  calc_s_matrix:                            13.713    13.713   0.0% |
  inverse-cholesky:                         35.601    35.601   0.0% |
  projections:                               0.013     0.013   0.0% |
  rotate_psi_s:                             56.361    56.361   0.0% |
Set symmetry:                                0.047     0.047   0.0% |
Other:                                     742.200   742.200   0.5% |
-------------------------------------------------------------------
Total:                                             160048.626 100.0%

Memory usage: 1.49 GiB
Date: Wed Mar  1 21:47:43 2023
