
  ___ ___ ___ _ _ _  
 |   |   |_  | | | | 
 | | | | | . | | | | 
 |__ |  _|___|_____|  22.8.0
 |___|_|             

User:   vazumah@c07.hercules
Date:   Wed Apr  5 10:31:07 2023
Arch:   x86_64
Pid:    3327
CWD:    /home/vazumah/Python_projects/LiNRR/Li_adsorb_studies/proton_donors/N2_with_proton_donor/Li_BCC_100/adsorbates/CH3CH2OH_z_recalcs/ontop/9.702_9.702/N2_x
Python: 3.10.8
gpaw:   /home/vazumah/.conda/envs/GPAW/lib/python3.10/site-packages/gpaw
_gpaw:  /home/vazumah/.conda/envs/GPAW/lib/python3.10/site-packages/
        _gpaw.cpython-310-x86_64-linux-gnu.so
ase:    /home/vazumah/.conda/envs/GPAW/lib/python3.10/site-packages/ase (version 3.22.1)
numpy:  /home/vazumah/.conda/envs/GPAW/lib/python3.10/site-packages/numpy (version 1.24.1)
scipy:  /home/vazumah/.conda/envs/GPAW/lib/python3.10/site-packages/scipy (version 1.10.0)
libxc:  5.2.3
units:  Angstrom and eV
cores: 24
OpenMP: True
OMP_NUM_THREADS: 1

Input parameters:
  convergence: {bands: -10}
  h: 0.16
  kpts: {size: [4, 4, 1]}
  occupations: {name: fermi-dirac,
                width: 0.05}
  poissonsolver: {dipolelayer: xy}
  xc: BEEF-vdW

System changes: positions, numbers, cell, pbc, initial_charges, initial_magmoms 

Initialize ...

species:
  Li:
    name: Lithium
    id: 830b4218f175192f93f959cfc0aad614
    Z: 3.0
    valence: 1
    core: 2
    charge: 0.0
    file: /home/vazumah/.conda/envs/GPAW/share/gpaw/Li.PBE.gz
    compensation charges: {type: gauss,
                           rc: 0.33,
                           lmax: 2}
    cutoffs: {filter: 1.91,
              core: 2.55}
    valence states:
      #              energy  rcut
      - 2s(1.00)    -2.874   1.058
      - 2p(0.00)    -1.090   1.058
      -  s          24.337   1.058
  
    # Using partial waves for Li as LCAO basis

  O:
    name: Oxygen
    id: 32ecd46bf208036f09c70b0ec9a88b78
    Z: 8.0
    valence: 6
    core: 2
    charge: 0.0
    file: /home/vazumah/.conda/envs/GPAW/share/gpaw/O.PBE.gz
    compensation charges: {type: gauss,
                           rc: 0.21,
                           lmax: 2}
    cutoffs: {filter: 1.17,
              core: 0.83}
    valence states:
      #              energy  rcut
      - 2s(2.00)   -23.961   0.688
      - 2p(4.00)    -9.029   0.598
      -  s           3.251   0.688
      -  p          18.182   0.598
      -  d           0.000   0.619
  
    # Using partial waves for O as LCAO basis

  C:
    name: Carbon
    id: 4aa54d4b901d75f77cc0ea3eec22967b
    Z: 6.0
    valence: 4
    core: 2
    charge: 0.0
    file: /home/vazumah/.conda/envs/GPAW/share/gpaw/C.PBE.gz
    compensation charges: {type: gauss,
                           rc: 0.20,
                           lmax: 2}
    cutoffs: {filter: 1.14,
              core: 1.14}
    valence states:
      #              energy  rcut
      - 2s(2.00)   -13.751   0.635
      - 2p(2.00)    -5.284   0.635
      -  s          13.461   0.635
      -  p          21.927   0.635
      -  d           0.000   0.635
  
    # Using partial waves for C as LCAO basis

  H:
    name: Hydrogen
    id: d65de229564ff8ea4db303e23b6d1ecf
    Z: 1.0
    valence: 1
    core: 0
    charge: 0.0
    file: /home/vazumah/.conda/envs/GPAW/share/gpaw/H.PBE.gz
    compensation charges: {type: gauss,
                           rc: 0.15,
                           lmax: 2}
    cutoffs: {filter: 0.85,
              core: 0.53}
    valence states:
      #              energy  rcut
      - 1s(1.00)    -6.494   0.476
      -  s          20.717   0.476
      -  p           0.000   0.476
  
    # Using partial waves for H as LCAO basis

  N:
    name: Nitrogen
    id: f7500608b86eaa90eef8b1d9a670dc53
    Z: 7.0
    valence: 5
    core: 2
    charge: 0.0
    file: /home/vazumah/.conda/envs/GPAW/share/gpaw/N.PBE.gz
    compensation charges: {type: gauss,
                           rc: 0.18,
                           lmax: 2}
    cutoffs: {filter: 1.11,
              core: 0.96}
    valence states:
      #              energy  rcut
      - 2s(2.00)   -18.583   0.603
      - 2p(3.00)    -7.089   0.529
      -  s           8.629   0.603
      -  p          20.123   0.529
      -  d           0.000   0.577
  
    # Using partial waves for N as LCAO basis

Reference energy: -14434.854043  # eV

Spin-paired calculation

Convergence criteria:
 Maximum [total energy] change in last 3 cyles: 0.0005 eV / electron
 Maximum integral of absolute [dens]ity change: 0.0001 electrons / valence electron
 Maximum integral of absolute [eigenst]ate change: 4e-08 eV^2 / valence electron
 Maximum number of scf [iter]ations: 333
 (Square brackets indicate name in SCF output, whereas a 'c' in
 the SCF output indicates the quantity has converged.)

Symmetries present (total): 1

  ( 1  0  0)
  ( 0  1  0)
  ( 0  0  1)

16 k-points: 4 x 4 x 1 Monkhorst-Pack grid
8 k-points in the irreducible part of the Brillouin zone
       k-points in crystal coordinates                weights
   0:     0.12500000   -0.37500000    0.00000000          2/16
   1:     0.12500000   -0.12500000    0.00000000          2/16
   2:     0.12500000    0.12500000    0.00000000          2/16
   3:     0.12500000    0.37500000    0.00000000          2/16
   4:     0.37500000   -0.37500000    0.00000000          2/16
   5:     0.37500000   -0.12500000    0.00000000          2/16
   6:     0.37500000    0.12500000    0.00000000          2/16
   7:     0.37500000    0.37500000    0.00000000          2/16

Wave functions: Uniform real-space grid
  Kinetic energy operator: 6*3+1=19 point O(h^6) finite-difference Laplacian
  ScaLapack parameters: grid=1x1, blocksize=None
  Wavefunction extrapolation:
    Improved wavefunction reuse through dual PAW basis 

Occupation numbers: Fermi-Dirac:
  width: 0.0500  # eV
 

Eigensolver
   Davidson(niter=2) 

Densities:
  Coarse grid: 60*60*164 grid
  Fine grid: 120*120*328 grid
  Total Charge: 0.000000 

Density mixing:
  Method: separate
  Backend: pulay
  Linear mixing parameter: 0.05
  old densities: 5
  Damping of long wavelength oscillations: 50 

Hamiltonian:
  XC and Coulomb potentials evaluated on a 120*120*328 grid
  Using the BEEF-vdW Exchange-Correlation functional
  Interpolation: tri-quintic (5. degree polynomial)
  Poisson solver: FastPoissonSolver using
    Stencil: 6*3+1=19 point O(h^6) finite-difference Laplacian
    FFT axes: [0, 1]
    FST axes: [2]

Dipole correction along z-axis 

XC parameters: BEEF-vdW with 2 nearest neighbor stencil

Memory estimate:
  Process memory now: 242.75 MiB
  Calculator: 430.76 MiB
    Density: 120.39 MiB
      Arrays: 38.89 MiB
      Localized functions: 66.67 MiB
      Mixer: 14.83 MiB
    Hamiltonian: 30.70 MiB
      Arrays: 25.43 MiB
      XC: 0.00 MiB
      Poisson: 0.00 MiB
      vbar: 5.27 MiB
    Wavefunctions: 279.67 MiB
      Arrays psit_nG: 130.52 MiB
      Eigensolver: 145.65 MiB
      Projections: 0.06 MiB
      Projectors: 3.44 MiB

Total number of cores used: 24
Parallelization over k-points: 8
Domain decomposition: 1 x 1 x 3

Number of atoms: 47
Number of atomic orbitals: 170
Number of bands in calculation: 44
Number of valence electrons: 66
Bands to converge: 34

... initialized

Initializing position-dependent things.

Density initialized from atomic densities
Creating initial wave functions:
  44 bands from LCAO basis set

       .-----------------------.  
      /|                       |  
     / |                       |  
    /  |                       |  
   /   |                     H |  
  /    |                       C  
 *     |                       |  
 |     CH                   H  |  
 |     HO                      |  
 |     |                       |  
 | H   |                       |  
 |     |               H       |  
 |     |                       |  
 |     |                       |  
 |     |                       |  
 |     |     Li     NLi      Li|  
 |     |                       |  
 |     |  LLi     LNi     LLi  |  
 |     |                       |  
 Li    |LLi     LLi     Li     |  
 |   Li|     Li      Li        |  
 |    Li  Li  Li  Li  Li  Li   |  
 | Li  |   Li      Li          |  
 |     |Li      Li      Li     |  
 Li    | Li      Li            |  
 |    Li      Li      Li       |  
 |     |                       |  
 |     |                       |  
 |     |                       |  
 |     |                       |  
 |     |                       |  
 |     |                       |  
 |     .-----------------------.  
 |    /                       /   
 |   /                       /    
 |  /                       /     
 | /                       /      
 |/                       /       
 *-----------------------*        

Positions:
   0 Li     1.617037    1.617037   10.000000    ( 0.0000,  0.0000,  0.0000)
   1 Li     4.851111    1.617037   10.000000    ( 0.0000,  0.0000,  0.0000)
   2 Li     8.085185    1.617037   10.000000    ( 0.0000,  0.0000,  0.0000)
   3 Li     1.617037    4.851111   10.000000    ( 0.0000,  0.0000,  0.0000)
   4 Li     4.851111    4.851111   10.000000    ( 0.0000,  0.0000,  0.0000)
   5 Li     8.085185    4.851111   10.000000    ( 0.0000,  0.0000,  0.0000)
   6 Li     1.617037    8.085185   10.000000    ( 0.0000,  0.0000,  0.0000)
   7 Li     4.851111    8.085185   10.000000    ( 0.0000,  0.0000,  0.0000)
   8 Li     8.085185    8.085185   10.000000    ( 0.0000,  0.0000,  0.0000)
   9 Li     0.000000    0.000000   11.617037    ( 0.0000,  0.0000,  0.0000)
  10 Li     3.234074    0.000000   11.617037    ( 0.0000,  0.0000,  0.0000)
  11 Li     6.468148    0.000000   11.617037    ( 0.0000,  0.0000,  0.0000)
  12 Li     0.000000    3.234074   11.617037    ( 0.0000,  0.0000,  0.0000)
  13 Li     3.234074    3.234074   11.617037    ( 0.0000,  0.0000,  0.0000)
  14 Li     6.468148    3.234074   11.617037    ( 0.0000,  0.0000,  0.0000)
  15 Li     0.000000    6.468148   11.617037    ( 0.0000,  0.0000,  0.0000)
  16 Li     3.234074    6.468148   11.617037    ( 0.0000,  0.0000,  0.0000)
  17 Li     6.468148    6.468148   11.617037    ( 0.0000,  0.0000,  0.0000)
  18 Li     1.642157    1.621092   13.459292    ( 0.0000,  0.0000,  0.0000)
  19 Li     4.874627    1.598417   13.488968    ( 0.0000,  0.0000,  0.0000)
  20 Li     8.076227    1.618983   13.456059    ( 0.0000,  0.0000,  0.0000)
  21 Li     1.622208    4.862867   13.466607    ( 0.0000,  0.0000,  0.0000)
  22 Li     4.835685    4.871612   13.458279    ( 0.0000,  0.0000,  0.0000)
  23 Li     8.081357    4.873811   13.454575    ( 0.0000,  0.0000,  0.0000)
  24 Li     1.640994    8.073415   13.460718    ( 0.0000,  0.0000,  0.0000)
  25 Li     4.880595    8.123051   13.502918    ( 0.0000,  0.0000,  0.0000)
  26 Li     8.066814    8.110136   13.480882    ( 0.0000,  0.0000,  0.0000)
  27 Li     0.089647    0.000859   15.368739    ( 0.0000,  0.0000,  0.0000)
  28 Li     3.260717    0.000207   15.442018    ( 0.0000,  0.0000,  0.0000)
  29 Li     6.517520    0.072481   15.589686    ( 0.0000,  0.0000,  0.0000)
  30 Li    -0.001602    3.257014   15.356477    ( 0.0000,  0.0000,  0.0000)
  31 Li     3.237323    3.224310   15.392855    ( 0.0000,  0.0000,  0.0000)
  32 Li     6.454957    3.316989   15.363963    ( 0.0000,  0.0000,  0.0000)
  33 Li    -0.013182    6.471833   15.400856    ( 0.0000,  0.0000,  0.0000)
  34 Li     3.237972    6.476674   15.419681    ( 0.0000,  0.0000,  0.0000)
  35 Li     6.461616    6.492582   15.402546    ( 0.0000,  0.0000,  0.0000)
  36 O     10.426780    9.081634   20.191538    ( 0.0000,  0.0000,  0.0000)
  37 C      9.900920    8.570815   21.425228    ( 0.0000,  0.0000,  0.0000)
  38 C      9.596489    9.668436   22.436703    ( 0.0000,  0.0000,  0.0000)
  39 H      9.003744    7.966430   21.238254    ( 0.0000,  0.0000,  0.0000)
  40 H     10.673665    7.900369   21.807580    ( 0.0000,  0.0000,  0.0000)
  41 H      9.196189    9.235276   23.357337    ( 0.0000,  0.0000,  0.0000)
  42 H     10.500166   10.231327   22.676944    ( 0.0000,  0.0000,  0.0000)
  43 H      8.850082   10.364468   22.042567    ( 0.0000,  0.0000,  0.0000)
  44 H      9.764339    9.678299   19.820051    ( 0.0000,  0.0000,  0.0000)
  45 N      7.585979   10.161323   18.513422    ( 0.0000,  0.0000,  0.0000)
  46 N      7.175474   10.019704   17.486522    ( 0.0000,  0.0000,  0.0000)

Unit cell:
           periodic     x           y           z      points  spacing
  1. axis:    yes    9.702222    0.000000    0.000000    60     0.1617
  2. axis:    yes    0.000000    9.702222    0.000000    60     0.1617
  3. axis:    no     0.000000    0.000000   26.351111   164     0.1607

  Lengths:   9.702222   9.702222  26.351111
  Angles:   90.000000  90.000000  90.000000

Effective grid spacing dv^(1/3) = 0.1614

     iter     time        total  log10-change:
                         energy  eigst   dens
iter:   1 10:34:47  -637.444916  +1.30
iter:   2 10:37:29     9.190037  +2.60  +0.03
iter:   3 10:40:09   232.979583  +3.23  -0.11
iter:   4 10:42:45    14.508956  +3.52  -0.14
iter:   5 10:45:26  -205.374755  +3.18  -0.10
iter:   6 10:48:16  -300.779797  +2.83  -0.31
iter:   7 10:50:59  -330.585190  +2.48  -0.43
iter:   8 10:53:39  -359.585939  +2.28  -0.48
iter:   9 10:56:18  -489.849282  +2.57  -0.42
iter:  10 10:59:02  -473.278971  +2.19  -0.27
iter:  11 11:01:46  -308.011801  +2.06  -0.25
iter:  12 11:04:21  -312.298445  +1.57  -0.79
iter:  13 11:06:55  -316.365899  +0.92  -0.79
iter:  14 11:09:34  -417.182025  +2.36  -0.80
iter:  15 11:12:14  -307.994473  +1.67  -0.30
iter:  16 11:14:53  -308.530251  +1.40  -0.87
iter:  17 11:17:28  -310.226829  +1.52  -0.94
iter:  18 11:20:04  -309.658655  +0.80  -0.99
iter:  19 11:22:44  -311.083242  +0.51  -1.03
iter:  20 11:25:23  -309.696297  +0.43  -0.89
iter:  21 11:28:00  -310.483633  +0.68  -1.06
iter:  22 11:30:33  -313.466501  +0.74  -1.03
iter:  23 11:33:13  -308.822896  -0.01  -0.82
iter:  24 11:35:48  -308.839134  -0.20  -1.44
iter:  25 11:38:23  -308.889143  -0.12  -1.51
iter:  26 11:40:58  -308.872159  -0.58  -1.52
iter:  27 11:43:35  -308.842638  -0.72  -1.58
iter:  28 11:46:12  -308.826785  -0.76  -1.65
iter:  29 11:48:53  -308.841150c -0.79  -1.80
iter:  30 11:51:30  -308.836945c -0.94  -1.83
iter:  31 11:54:06  -308.841400c -1.23  -2.06
iter:  32 11:56:57  -308.844902c -1.06  -2.11
iter:  33 11:59:41  -308.849135c -1.23  -2.23
iter:  34 12:02:26  -308.854362c -1.47  -2.35
iter:  35 12:05:05  -308.859002c -1.58  -2.43
iter:  36 12:07:43  -308.864160c -1.52  -2.60
iter:  37 12:10:26  -308.867499c -1.82  -2.71
iter:  38 12:13:03  -308.871669c -1.63  -2.78
iter:  39 12:15:41  -308.874297c -1.92  -2.93
iter:  40 12:18:23  -308.877074c -1.76  -2.96
iter:  41 12:21:06  -308.879472c -1.81  -3.09
iter:  42 12:23:45  -308.881229c -2.11  -3.16
iter:  43 12:26:20  -308.882631c -2.10  -3.19
iter:  44 12:28:55  -308.883740c -2.33  -3.19
iter:  45 12:31:29  -308.884835c -2.29  -3.09
iter:  46 12:34:08  -308.885663c -2.44  -3.05
iter:  47 12:36:39  -308.886518c -2.41  -2.99
iter:  48 12:39:18  -308.887180c -2.43  -2.99
iter:  49 12:41:56  -308.887909c -2.45  -2.97
iter:  50 12:44:32  -308.888432c -2.62  -2.91
iter:  51 12:47:06  -308.888852c -2.74  -2.89
iter:  52 12:49:43  -308.889296c -2.70  -2.87
iter:  53 12:52:17  -308.889764c -2.37  -2.89
iter:  54 12:54:59  -308.890143c -2.75  -2.91
iter:  55 12:57:36  -308.890289c -2.63  -2.85
iter:  56 13:00:16  -308.890506c -2.95  -2.97
iter:  57 13:02:59  -308.890668c -2.98  -3.03
iter:  58 13:05:40  -308.890893c -2.70  -3.06
iter:  59 13:08:13  -308.891053c -2.90  -3.13
iter:  60 13:10:51  -308.891244c -2.71  -3.24
iter:  61 13:13:33  -308.891325c -3.13  -3.33
iter:  62 13:16:18  -308.891390c -3.27  -3.35
iter:  63 13:18:51  -308.891447c -3.25  -3.42
iter:  64 13:21:35  -308.891497c -3.36  -3.46
iter:  65 13:24:12  -308.891557c -3.41  -3.62
iter:  66 13:26:50  -308.891596c -3.52  -3.66
iter:  67 13:29:23  -308.891642c -3.33  -3.73
iter:  68 13:31:56  -308.891679c -3.48  -3.93
iter:  69 13:34:31  -308.891712c -3.44  -4.07c
iter:  70 13:37:15  -308.891735c -3.78  -4.10c
iter:  71 13:39:57  -308.891764c -3.74  -4.17c
iter:  72 13:42:47  -308.891782c -3.92  -4.27c
iter:  73 13:45:21  -308.891797c -3.98  -4.38c
iter:  74 13:47:50  -308.891814c -3.86  -4.43c
iter:  75 13:50:33  -308.891828c -3.81  -4.47c
iter:  76 13:53:16  -308.891840c -4.10  -4.50c
iter:  77 13:55:46  -308.891850c -4.03  -4.54c
iter:  78 13:58:22  -308.891861c -3.84  -4.57c
iter:  79 14:00:50  -308.891868c -4.25  -4.60c
iter:  80 14:03:25  -308.891876c -4.20  -4.56c
iter:  81 14:06:06  -308.891881c -4.34  -4.64c
iter:  82 14:08:44  -308.891886c -4.28  -4.67c
iter:  83 14:11:19  -308.891890c -4.47  -4.69c
iter:  84 14:14:01  -308.891894c -4.36  -4.65c
iter:  85 14:16:45  -308.891897c -4.28  -4.63c
iter:  86 14:19:20  -308.891900c -4.61  -4.61c
iter:  87 14:22:02  -308.891902c -4.59  -4.55c
iter:  88 14:24:35  -308.891905c -4.77  -4.46c
iter:  89 14:27:18  -308.891906c -4.81  -4.55c
iter:  90 14:29:55  -308.891908c -4.78  -4.47c
iter:  91 14:32:27  -308.891910c -4.88  -4.60c
iter:  92 14:35:04  -308.891911c -4.95  -4.59c
iter:  93 14:37:43  -308.891912c -4.93  -4.56c
iter:  94 14:40:22  -308.891912c -5.02  -4.58c
iter:  95 14:43:05  -308.891913c -4.81  -4.55c
iter:  96 14:45:41  -308.891914c -5.12  -4.53c
iter:  97 14:48:24  -308.891914c -5.23  -4.53c
iter:  98 14:51:05  -308.891915c -5.21  -4.46c
iter:  99 14:53:43  -308.891916c -5.19  -4.46c
iter: 100 14:56:19  -308.891916c -5.32  -4.56c
iter: 101 14:58:47  -308.891917c -5.16  -4.51c
iter: 102 15:01:27  -308.891917c -5.11  -4.52c
iter: 103 15:04:05  -308.891918c -5.39  -4.61c
iter: 104 15:06:48  -308.891918c -5.47  -4.74c
iter: 105 15:09:29  -308.891918c -5.43  -4.75c
iter: 106 15:12:03  -308.891918c -5.66  -4.87c
iter: 107 15:14:40  -308.891918c -5.71  -5.02c
iter: 108 15:17:16  -308.891918c -5.70  -5.10c
iter: 109 15:19:58  -308.891918c -5.61  -5.14c
iter: 110 15:22:37  -308.891918c -5.98  -5.21c
iter: 111 15:25:26  -308.891918c -5.83  -5.42c
iter: 112 15:28:10  -308.891918c -5.78  -5.48c
iter: 113 15:30:44  -308.891918c -5.84  -5.52c
iter: 114 15:33:36  -308.891919c -5.91  -5.67c
iter: 115 15:36:21  -308.891919c -5.98  -5.78c
iter: 116 15:39:00  -308.891919c -6.24  -5.82c
iter: 117 15:41:37  -308.891919c -6.25  -5.77c
iter: 118 15:44:17  -308.891919c -6.32  -5.73c
iter: 119 15:46:59  -308.891919c -6.29  -5.65c
iter: 120 15:49:38  -308.891919c -6.26  -5.64c
iter: 121 15:52:22  -308.891918c -6.48  -5.61c
iter: 122 15:55:07  -308.891918c -6.38  -5.51c
iter: 123 15:57:50  -308.891919c -6.56  -5.55c
iter: 124 16:00:33  -308.891918c -6.77  -5.78c
iter: 125 16:03:12  -308.891918c -6.69  -5.74c
iter: 126 16:05:54  -308.891918c -6.59  -5.70c
iter: 127 16:08:32  -308.891918c -6.54  -5.62c
iter: 128 16:11:09  -308.891918c -6.85  -5.56c
iter: 129 16:13:37  -308.891918c -6.98  -5.61c
iter: 130 16:16:10  -308.891918c -6.71  -5.63c
iter: 131 16:18:49  -308.891918c -6.85  -5.68c
iter: 132 16:21:29  -308.891918c -6.94  -5.53c
iter: 133 16:24:12  -308.891918c -7.14  -5.75c
iter: 134 16:26:39  -308.891918c -7.13  -5.76c
iter: 135 16:29:10  -308.891918c -7.24  -5.59c
iter: 136 16:31:50  -308.891918c -7.26  -5.97c
iter: 137 16:34:24  -308.891918c -7.17  -6.03c
iter: 138 16:37:03  -308.891918c -7.25  -6.09c
iter: 139 16:39:37  -308.891918c -7.29  -6.11c
iter: 140 16:42:11  -308.891918c -7.25  -6.22c
iter: 141 16:44:55  -308.891918c -7.38  -6.31c
iter: 142 16:47:33  -308.891918c -7.50c -6.37c

Converged after 142 iterations.

Dipole moment: (-10.773910, -15.760564, 0.088367) |e|*Ang

Energy contributions relative to reference atoms: (reference = -14434.854043)

Kinetic:       +150.526220
Potential:     -146.160810
External:        +0.000000
XC:            -313.948496
Entropy (-ST):   -0.147058
Local:           +0.764697
--------------------------
Free energy:   -308.965447
Extrapolated:  -308.891918

Dipole-layer corrected work functions: 3.407245, 3.237374 eV

Showing only first 2 kpts
 Kpt  Band  Eigenvalues  Occupancy
  0    31     -3.57932    1.98836
  0    32     -3.50428    1.94881
  0    33     -3.14281    0.05371
  0    34     -3.09525    0.02109

  1    31     -3.34753    1.24697
  1    32     -3.29949    0.77566
  1    33     -3.29496    0.73311
  1    34     -3.24625    0.35857


Fermi level: -3.32231

No gap
Writing to top.gpw (mode='all')

Timing:                              incl.     excl.
-----------------------------------------------------------
Hamiltonian:                       130.375     0.000   0.0% |
 Atomic:                             0.101     0.001   0.0% |
  XC Correction:                     0.100     0.100   0.0% |
 Calculate atomic Hamiltonians:      0.411     0.411   0.0% |
 Communicate:                        0.519     0.519   0.0% |
 Hartree integrate/restrict:         0.133     0.133   0.0% |
 Initialize Hamiltonian:             0.000     0.000   0.0% |
 Poisson:                            4.234     1.705   0.0% |
  Communicate from 1D:               0.244     0.244   0.0% |
  Communicate from 2D:               0.624     0.624   0.0% |
  Communicate to 1D:                 0.150     0.150   0.0% |
  Communicate to 2D:                 0.572     0.572   0.0% |
  FFT 1D:                            0.371     0.371   0.0% |
  FFT 2D:                            0.569     0.569   0.0% |
 XC 3D grid:                       124.949     9.945   0.0% |
  VdW-DF integral:                 115.004     0.251   0.0% |
   Convolution:                      5.359     5.359   0.0% |
   FFT:                              0.492     0.492   0.0% |
   gather:                          85.628    85.628   0.3% |
   hmm1:                             0.887     0.887   0.0% |
   hmm2:                             0.839     0.839   0.0% |
   iFFT:                             0.874     0.874   0.0% |
   potential:                        8.036     0.098   0.0% |
    collect:                         0.876     0.876   0.0% |
    p1:                              3.444     3.444   0.0% |
    p2:                              1.710     1.710   0.0% |
    sum:                             1.908     1.908   0.0% |
   splines:                         12.638    12.638   0.0% |
 vbar:                               0.026     0.026   0.0% |
LCAO initialization:                12.720     0.869   0.0% |
 LCAO eigensolver:                   3.087     0.001   0.0% |
  Calculate projections:             0.000     0.000   0.0% |
  DenseAtomicCorrection:             0.000     0.000   0.0% |
  Distribute overlap matrix:         2.827     2.827   0.0% |
  Orbital Layouts:                   0.058     0.058   0.0% |
  Potential matrix:                  0.196     0.196   0.0% |
  Sum over cells:                    0.004     0.004   0.0% |
 LCAO to grid:                       6.727     6.727   0.0% |
 Set positions (LCAO WFS):           2.038     1.650   0.0% |
  Basic WFS set positions:           0.004     0.004   0.0% |
  Basis functions set positions:     0.001     0.001   0.0% |
  P tci:                             0.001     0.001   0.0% |
  ST tci:                            0.260     0.260   0.0% |
  mktci:                             0.123     0.123   0.0% |
SCF-cycle:                       22423.278   263.355   0.9% |
 Davidson:                        6880.976  2730.604   9.7% |---|
  Apply hamiltonian:               421.970   421.970   1.5% ||
  Subspace diag:                   969.843     0.032   0.0% |
   calc_h_matrix:                  587.089   171.243   0.6% |
    Apply hamiltonian:             415.846   415.846   1.5% ||
   diagonalize:                     37.645    37.645   0.1% |
   rotate_psi:                     345.077   345.077   1.2% |
  calc. matrices:                 2077.198  1300.524   4.6% |-|
   Apply hamiltonian:              776.674   776.674   2.8% ||
  diagonalize:                       3.021     3.021   0.0% |
  rotate_psi:                      678.340   678.340   2.4% ||
 Density:                          149.633     0.006   0.0% |
  Atomic density matrices:          39.400    39.400   0.1% |
  Mix:                              45.536    45.536   0.2% |
  Multipole moments:                 0.650     0.650   0.0% |
  Pseudo density:                   64.040    64.035   0.2% |
   Symmetrize density:               0.005     0.005   0.0% |
 Hamiltonian:                    15124.284     0.051   0.0% |
  Atomic:                           22.048     0.332   0.0% |
   XC Correction:                   21.716    21.716   0.1% |
  Calculate atomic Hamiltonians:    73.989    73.989   0.3% |
  Communicate:                      83.288    83.288   0.3% |
  Hartree integrate/restrict:       25.712    25.712   0.1% |
  Poisson:                         592.494   261.773   0.9% |
   Communicate from 1D:             40.926    40.926   0.1% |
   Communicate from 2D:             72.374    72.374   0.3% |
   Communicate to 1D:               17.372    17.372   0.1% |
   Communicate to 2D:               68.611    68.611   0.2% |
   FFT 1D:                          74.296    74.296   0.3% |
   FFT 2D:                          57.141    57.141   0.2% |
  XC 3D grid:                    14320.347  1417.033   5.0% |-|
   VdW-DF integral:              12903.314    29.252   0.1% |
    Convolution:                   802.662   802.662   2.8% ||
    FFT:                           134.252   134.252   0.5% |
    gather:                      10393.015 10393.015  36.8% |--------------|
    hmm1:                          144.355   144.355   0.5% |
    hmm2:                          193.624   193.624   0.7% |
    iFFT:                          143.988   143.988   0.5% |
    potential:                    1062.163    12.025   0.0% |
     collect:                       98.548    98.548   0.3% |
     p1:                           420.289   420.289   1.5% ||
     p2:                           279.134   279.134   1.0% |
     sum:                          252.166   252.166   0.9% |
    splines:                         0.001     0.001   0.0% |
  vbar:                              6.356     6.356   0.0% |
 Orthonormalize:                     5.030     0.000   0.0% |
  calc_s_matrix:                     0.644     0.644   0.0% |
  inverse-cholesky:                  0.132     0.132   0.0% |
  projections:                       3.451     3.451   0.0% |
  rotate_psi_s:                      0.802     0.802   0.0% |
Set symmetry:                        0.002     0.002   0.0% |
Other:                            5670.788  5670.788  20.1% |-------|
-----------------------------------------------------------
Total:                                     28237.164 100.0%

Memory usage: 1.90 GiB
Date: Wed Apr  5 18:21:45 2023
