
  ___ ___ ___ _ _ _  
 |   |   |_  | | | | 
 | | | | | . | | | | 
 |__ |  _|___|_____|  22.8.0
 |___|_|             

User:   vazumah@r265.ib.bridges2.psc.edu
Date:   Fri Mar 10 11:14:10 2023
Arch:   x86_64
Pid:    10930
CWD:    /jet/home/vazumah/Calcs/LiMEAS/proton_donors/methanol_x/bridge/8.085_1.617/N2_z
Python: 3.11.0
gpaw:   /jet/home/vazumah/.conda/envs/GPAW_mpich/lib/python3.11/site-packages/gpaw
_gpaw:  /jet/home/vazumah/.conda/envs/GPAW_mpich/lib/python3.11/site-packages/
        _gpaw.cpython-311-x86_64-linux-gnu.so
ase:    /jet/home/vazumah/.conda/envs/GPAW_mpich/lib/python3.11/site-packages/ase (version 3.22.1)
numpy:  /jet/home/vazumah/.conda/envs/GPAW_mpich/lib/python3.11/site-packages/numpy (version 1.24.2)
scipy:  /jet/home/vazumah/.conda/envs/GPAW_mpich/lib/python3.11/site-packages/scipy (version 1.10.1)
libxc:  5.2.3
units:  Angstrom and eV
cores: 128
OpenMP: True
OMP_NUM_THREADS: 1

Input parameters:
  h: 0.16
  kpts: {size: [4, 4, 1]}
  occupations: {name: fermi-dirac,
                width: 0.05}
  poissonsolver: {dipolelayer: xy}
  xc: BEEF-vdW

System changes: positions, numbers, cell, pbc, initial_charges, initial_magmoms 

Initialize ...

species:
  Li:
    name: Lithium
    id: 830b4218f175192f93f959cfc0aad614
    Z: 3.0
    valence: 1
    core: 2
    charge: 0.0
    file: /jet/home/vazumah/datasets/gpaw-setups-0.9.20000/Li.PBE.gz
    compensation charges: {type: gauss,
                           rc: 0.33,
                           lmax: 2}
    cutoffs: {filter: 1.91,
              core: 2.55}
    valence states:
      #              energy  rcut
      - 2s(1.00)    -2.874   1.058
      - 2p(0.00)    -1.090   1.058
      -  s          24.337   1.058
  
    # Using partial waves for Li as LCAO basis

  O:
    name: Oxygen
    id: 32ecd46bf208036f09c70b0ec9a88b78
    Z: 8.0
    valence: 6
    core: 2
    charge: 0.0
    file: /jet/home/vazumah/datasets/gpaw-setups-0.9.20000/O.PBE.gz
    compensation charges: {type: gauss,
                           rc: 0.21,
                           lmax: 2}
    cutoffs: {filter: 1.17,
              core: 0.83}
    valence states:
      #              energy  rcut
      - 2s(2.00)   -23.961   0.688
      - 2p(4.00)    -9.029   0.598
      -  s           3.251   0.688
      -  p          18.182   0.598
      -  d           0.000   0.619
  
    # Using partial waves for O as LCAO basis

  C:
    name: Carbon
    id: 4aa54d4b901d75f77cc0ea3eec22967b
    Z: 6.0
    valence: 4
    core: 2
    charge: 0.0
    file: /jet/home/vazumah/datasets/gpaw-setups-0.9.20000/C.PBE.gz
    compensation charges: {type: gauss,
                           rc: 0.20,
                           lmax: 2}
    cutoffs: {filter: 1.14,
              core: 1.14}
    valence states:
      #              energy  rcut
      - 2s(2.00)   -13.751   0.635
      - 2p(2.00)    -5.284   0.635
      -  s          13.461   0.635
      -  p          21.927   0.635
      -  d           0.000   0.635
  
    # Using partial waves for C as LCAO basis

  H:
    name: Hydrogen
    id: d65de229564ff8ea4db303e23b6d1ecf
    Z: 1.0
    valence: 1
    core: 0
    charge: 0.0
    file: /jet/home/vazumah/datasets/gpaw-setups-0.9.20000/H.PBE.gz
    compensation charges: {type: gauss,
                           rc: 0.15,
                           lmax: 2}
    cutoffs: {filter: 0.85,
              core: 0.53}
    valence states:
      #              energy  rcut
      - 1s(1.00)    -6.494   0.476
      -  s          20.717   0.476
      -  p           0.000   0.476
  
    # Using partial waves for H as LCAO basis

  N:
    name: Nitrogen
    id: f7500608b86eaa90eef8b1d9a670dc53
    Z: 7.0
    valence: 5
    core: 2
    charge: 0.0
    file: /jet/home/vazumah/datasets/gpaw-setups-0.9.20000/N.PBE.gz
    compensation charges: {type: gauss,
                           rc: 0.18,
                           lmax: 2}
    cutoffs: {filter: 1.11,
              core: 0.96}
    valence states:
      #              energy  rcut
      - 2s(2.00)   -18.583   0.603
      - 2p(3.00)    -7.089   0.529
      -  s           8.629   0.603
      -  p          20.123   0.529
      -  d           0.000   0.577
  
    # Using partial waves for N as LCAO basis

Reference energy: -13382.245603  # eV

Spin-paired calculation

Convergence criteria:
 Maximum [total energy] change in last 3 cyles: 0.0005 eV / electron
 Maximum integral of absolute [dens]ity change: 0.0001 electrons / valence electron
 Maximum integral of absolute [eigenst]ate change: 4e-08 eV^2 / valence electron
 Maximum number of scf [iter]ations: 333
 (Square brackets indicate name in SCF output, whereas a 'c' in
 the SCF output indicates the quantity has converged.)

Symmetries present (total): 1

  ( 1  0  0)
  ( 0  1  0)
  ( 0  0  1)

16 k-points: 4 x 4 x 1 Monkhorst-Pack grid
8 k-points in the irreducible part of the Brillouin zone
       k-points in crystal coordinates                weights
   0:     0.12500000   -0.37500000    0.00000000          2/16
   1:     0.12500000   -0.12500000    0.00000000          2/16
   2:     0.12500000    0.12500000    0.00000000          2/16
   3:     0.12500000    0.37500000    0.00000000          2/16
   4:     0.37500000   -0.37500000    0.00000000          2/16
   5:     0.37500000   -0.12500000    0.00000000          2/16
   6:     0.37500000    0.12500000    0.00000000          2/16
   7:     0.37500000    0.37500000    0.00000000          2/16

Wave functions: Uniform real-space grid
  Kinetic energy operator: 6*3+1=19 point O(h^6) finite-difference Laplacian
  ScaLapack parameters: grid=1x1, blocksize=None
  Wavefunction extrapolation:
    Improved wavefunction reuse through dual PAW basis 

Occupation numbers: Fermi-Dirac:
  width: 0.0500  # eV
 

Eigensolver
   Davidson(niter=2) 

Densities:
  Coarse grid: 60*60*168 grid
  Fine grid: 120*120*336 grid
  Total Charge: 0.000000 

Density mixing:
  Method: separate
  Backend: pulay
  Linear mixing parameter: 0.05
  old densities: 5
  Damping of long wavelength oscillations: 50 

Hamiltonian:
  XC and Coulomb potentials evaluated on a 120*120*336 grid
  Using the BEEF-vdW Exchange-Correlation functional
  Interpolation: tri-quintic (5. degree polynomial)
  Poisson solver: FastPoissonSolver using
    Stencil: 6*3+1=19 point O(h^6) finite-difference Laplacian
    FFT axes: [0, 1]
    FST axes: [2]

Dipole correction along z-axis 

XC parameters: BEEF-vdW with 2 nearest neighbor stencil

Memory estimate:
  Process memory now: 127.76 MiB
  Calculator: 77.36 MiB
    Density: 22.77 MiB
      Arrays: 7.40 MiB
      Localized functions: 12.55 MiB
      Mixer: 2.82 MiB
    Hamiltonian: 5.83 MiB
      Arrays: 4.84 MiB
      XC: 0.00 MiB
      Poisson: 0.00 MiB
      vbar: 0.99 MiB
    Wavefunctions: 48.76 MiB
      Arrays psit_nG: 22.52 MiB
      Eigensolver: 25.58 MiB
      Projections: 0.01 MiB
      Projectors: 0.64 MiB

Total number of cores used: 128
Parallelization over k-points: 8
Domain decomposition: 2 x 2 x 4

Number of atoms: 44
Number of atomic orbitals: 164
Number of bands in calculation: 40
Number of valence electrons: 60
Bands to converge: occupied

... initialized

Initializing position-dependent things.

Density initialized from atomic densities
Creating initial wave functions:
  40 bands from LCAO basis set

       .-----------------------.  
      /|                       |  
     / |                       |  
    /  |                       |  
   /   |                       |  
  /    |                       |  
 *     |                       |  
 |     |                       |  
 |     |                       |  
 |     |                       |  
 |     |                       |  
 |     |                       |  
 |H    |                       |  
 | H   |                       |  
 |     |             HO   C    |  
 |H    |              N        |  
 |   Li|     Li      Li        |  
 |     |  Li      Li  N   Li   |  
 | Li  |   Li      Li          |  
 |     |Li      Li      Li     |  
 Li    | Li      Li            |  
 |   LLi     LLi     LLi       |  
 |     |  Li      Li      Li   |  
 | Li  |   Li      Li          |  
 |     |Li      Li      Li     |  
 Li    | Li      Li            |  
 |    Li      Li      Li       |  
 |     |                       |  
 |     |                       |  
 |     |                       |  
 |     |                       |  
 |     |                       |  
 |     |                       |  
 |     .-----------------------.  
 |    /                       /   
 |   /                       /    
 |  /                       /     
 | /                       /      
 |/                       /       
 *-----------------------*        

Positions:
   0 Li     1.617037    1.617037   10.000000    ( 0.0000,  0.0000,  0.0000)
   1 Li     4.851111    1.617037   10.000000    ( 0.0000,  0.0000,  0.0000)
   2 Li     8.085185    1.617037   10.000000    ( 0.0000,  0.0000,  0.0000)
   3 Li     1.617037    4.851111   10.000000    ( 0.0000,  0.0000,  0.0000)
   4 Li     4.851111    4.851111   10.000000    ( 0.0000,  0.0000,  0.0000)
   5 Li     8.085185    4.851111   10.000000    ( 0.0000,  0.0000,  0.0000)
   6 Li     1.617037    8.085185   10.000000    ( 0.0000,  0.0000,  0.0000)
   7 Li     4.851111    8.085185   10.000000    ( 0.0000,  0.0000,  0.0000)
   8 Li     8.085185    8.085185   10.000000    ( 0.0000,  0.0000,  0.0000)
   9 Li     0.000000    0.000000   11.617037    ( 0.0000,  0.0000,  0.0000)
  10 Li     3.234074    0.000000   11.617037    ( 0.0000,  0.0000,  0.0000)
  11 Li     6.468148    0.000000   11.617037    ( 0.0000,  0.0000,  0.0000)
  12 Li     0.000000    3.234074   11.617037    ( 0.0000,  0.0000,  0.0000)
  13 Li     3.234074    3.234074   11.617037    ( 0.0000,  0.0000,  0.0000)
  14 Li     6.468148    3.234074   11.617037    ( 0.0000,  0.0000,  0.0000)
  15 Li     0.000000    6.468148   11.617037    ( 0.0000,  0.0000,  0.0000)
  16 Li     3.234074    6.468148   11.617037    ( 0.0000,  0.0000,  0.0000)
  17 Li     6.468148    6.468148   11.617037    ( 0.0000,  0.0000,  0.0000)
  18 Li     1.617038    1.617038   13.469728    ( 0.0000,  0.0000,  0.0000)
  19 Li     4.851111    1.617038   13.469729    ( 0.0000,  0.0000,  0.0000)
  20 Li     8.085184    1.617038   13.469728    ( 0.0000,  0.0000,  0.0000)
  21 Li     1.617038    4.851111   13.469729    ( 0.0000,  0.0000,  0.0000)
  22 Li     4.851111    4.851111   13.469730    ( 0.0000,  0.0000,  0.0000)
  23 Li     8.085184    4.851111   13.469729    ( 0.0000,  0.0000,  0.0000)
  24 Li     1.617038    8.085184   13.469728    ( 0.0000,  0.0000,  0.0000)
  25 Li     4.851111    8.085184   13.469729    ( 0.0000,  0.0000,  0.0000)
  26 Li     8.085184    8.085184   13.469728    ( 0.0000,  0.0000,  0.0000)
  27 Li    -0.000000   -0.000000   15.445939    ( 0.0000,  0.0000,  0.0000)
  28 Li     3.234074    0.000000   15.445939    ( 0.0000,  0.0000,  0.0000)
  29 Li     6.468148    0.000000   15.445939    ( 0.0000,  0.0000,  0.0000)
  30 Li     0.000000    3.234074   15.445939    ( 0.0000,  0.0000,  0.0000)
  31 Li     3.234076    3.234076   15.445938    ( 0.0000,  0.0000,  0.0000)
  32 Li     6.468146    3.234076   15.445938    ( 0.0000,  0.0000,  0.0000)
  33 Li     0.000000    6.468148   15.445939    ( 0.0000,  0.0000,  0.0000)
  34 Li     3.234076    6.468146   15.445938    ( 0.0000,  0.0000,  0.0000)
  35 Li     6.468146    6.468146   15.445938    ( 0.0000,  0.0000,  0.0000)
  36 O      8.085185    1.617037   19.645939    ( 0.0000,  0.0000,  0.0000)
  37 C      9.515148    1.601963   19.651439    ( 0.0000,  0.0000,  0.0000)
  38 H      9.919419    0.852010   18.964289    ( 0.0000,  0.0000,  0.0000)
  39 H      9.918660    1.423554   20.653228    ( 0.0000,  0.0000,  0.0000)
  40 H      9.834591    2.587678   19.318510    ( 0.0000,  0.0000,  0.0000)
  41 H      7.773530    0.753908   19.936944    ( 0.0000,  0.0000,  0.0000)
  42 N      8.085000    1.617000   17.195939    ( 0.0000,  0.0000,  0.0000)
  43 N      8.085000    1.617000   18.292561    ( 0.0000,  0.0000,  0.0000)

Unit cell:
           periodic     x           y           z      points  spacing
  1. axis:    yes    9.702222    0.000000    0.000000    60     0.1617
  2. axis:    yes    0.000000    9.702222    0.000000    60     0.1617
  3. axis:    no     0.000000    0.000000   26.601111   168     0.1583

  Lengths:   9.702222   9.702222  26.601111
  Angles:   90.000000  90.000000  90.000000

Effective grid spacing dv^(1/3) = 0.1606

     iter     time        total  log10-change:
                         energy  eigst   dens
iter:   1 11:14:25  -487.107659
iter:   2 11:14:32  -127.900676  +2.42  -0.04
iter:   3 11:14:47   -98.118366  +3.37  -0.18
iter:   4 11:14:54  -222.802292  +3.10  -0.17
Writing to output.gpw (mode='')

iter:   5 11:15:01  -183.744630  +2.69  -0.18
iter:   6 11:15:08  -229.841311  +2.54  -0.62
iter:   7 11:15:15  -261.115273  +2.21  -0.62
iter:   8 11:15:22  -285.411384  +1.98  -0.72
iter:   9 11:15:29  -306.953396  +1.98  -0.60
Writing to output.gpw (mode='')

iter:  10 11:15:36  -283.786898  +1.51  -0.59
iter:  11 11:15:43  -275.297485  +1.19  -0.68
iter:  12 11:15:50  -276.608675  +0.76  -0.81
iter:  13 11:15:57  -276.010353  +1.05  -0.84
iter:  14 11:16:04  -274.851035  +0.41  -0.79
Writing to output.gpw (mode='')

iter:  15 11:16:11  -275.597230  +0.42  -0.87
iter:  16 11:16:18  -272.727768  +0.99  -0.83
iter:  17 11:16:25  -272.684346  +0.41  -1.07
iter:  18 11:16:32  -272.402331  +0.05  -1.09
iter:  19 11:16:39  -272.453860  -0.11  -1.18
Writing to output.gpw (mode='')

iter:  20 11:16:46  -272.578855  +0.38  -1.19
iter:  21 11:16:53  -272.431644  -0.39  -1.22
iter:  22 11:17:00  -272.289482  -0.22  -1.28
iter:  23 11:17:07  -272.294991  -0.30  -1.44
iter:  24 11:17:15  -272.376297  -0.30  -1.60
Writing to output.gpw (mode='')

iter:  25 11:17:22  -272.377179  -0.59  -1.62
iter:  26 11:17:29  -272.347749c -0.64  -1.68
iter:  27 11:17:36  -272.377199c -0.89  -1.85
iter:  28 11:17:43  -272.405882  -0.88  -1.81
iter:  29 11:17:50  -272.389020c -0.98  -1.74
Writing to output.gpw (mode='')

iter:  30 11:17:57  -272.409512c -1.13  -1.86
iter:  31 11:18:04  -272.420139  -1.20  -1.80
iter:  32 11:18:11  -272.420881c -1.05  -1.78
iter:  33 11:18:18  -272.427845c -1.49  -1.76
iter:  34 11:18:25  -272.434020c -1.42  -1.77
Writing to output.gpw (mode='')

iter:  35 11:18:32  -272.436515c -1.45  -1.77
iter:  36 11:18:39  -272.450750c -1.41  -1.77
iter:  37 11:18:46  -272.474702  -1.18  -1.76
iter:  38 11:18:53  -272.448045c -1.37  -1.63
iter:  39 11:19:00  -272.448880c -1.38  -1.78
Writing to output.gpw (mode='')

iter:  40 11:19:07  -272.459711c -1.10  -1.82
iter:  41 11:19:14  -272.474018c -1.28  -1.86
iter:  42 11:19:21  -272.472652c -1.25  -1.78
iter:  43 11:19:28  -272.458735c -1.38  -1.81
iter:  44 11:19:42  -272.469979c -1.54  -1.82
Writing to output.gpw (mode='')

iter:  45 11:19:52  -272.492206  -0.92  -1.77
iter:  46 11:19:59  -272.475893c -1.86  -1.67
iter:  47 11:20:06  -272.457910  -1.38  -1.72
iter:  48 11:20:13  -272.457568c -1.58  -1.95
iter:  49 11:20:20  -272.453129c -1.66  -2.07
Writing to output.gpw (mode='')

iter:  50 11:20:27  -272.461368c -1.17  -2.22
iter:  51 11:20:34  -272.453487c -1.89  -2.09
iter:  52 11:20:41  -272.453795c -2.35  -2.43
iter:  53 11:20:48  -272.454792c -2.32  -2.49
iter:  54 11:20:55  -272.455000c -2.54  -2.73
Writing to output.gpw (mode='')

iter:  55 11:21:02  -272.454975c -2.36  -2.78
iter:  56 11:21:12  -272.455181c -2.78  -2.78
iter:  57 11:21:19  -272.455578c -2.56  -2.84
iter:  58 11:21:26  -272.455549c -2.92  -3.06
iter:  59 11:21:33  -272.455599c -3.02  -3.13
Writing to output.gpw (mode='')

iter:  60 11:21:40  -272.455708c -3.23  -3.18
iter:  61 11:21:47  -272.455823c -3.00  -3.17
iter:  62 11:21:54  -272.455898c -3.35  -3.12
iter:  63 11:22:01  -272.455907c -3.33  -3.16
iter:  64 11:22:08  -272.455996c -3.33  -3.20
Writing to output.gpw (mode='')

iter:  65 11:22:15  -272.456064c -3.36  -3.13
iter:  66 11:22:22  -272.456156c -3.35  -3.18
iter:  67 11:22:29  -272.456218c -3.47  -3.18
iter:  68 11:22:36  -272.456311c -3.52  -3.21
iter:  69 11:22:43  -272.456420c -3.58  -3.26
Writing to output.gpw (mode='')

iter:  70 11:22:50  -272.456415c -3.86  -3.36
iter:  71 11:22:57  -272.456454c -3.74  -3.49
iter:  72 11:23:05  -272.456446c -3.55  -3.55
iter:  73 11:23:12  -272.456459c -3.86  -3.65
iter:  74 11:23:19  -272.456499c -3.97  -3.72
Writing to output.gpw (mode='')

iter:  75 11:23:26  -272.456499c -3.91  -3.82
iter:  76 11:23:33  -272.456503c -3.64  -3.97
iter:  77 11:23:41  -272.456517c -4.05  -4.06c
iter:  78 11:23:50  -272.456527c -4.25  -4.10c
iter:  79 11:24:05  -272.456550c -4.05  -4.14c
Writing to output.gpw (mode='')

iter:  80 11:24:12  -272.456545c -4.38  -4.28c
iter:  81 11:24:19  -272.456552c -4.47  -4.48c
iter:  82 11:24:26  -272.456550c -4.20  -4.45c
iter:  83 11:24:33  -272.456555c -4.22  -4.34c
iter:  84 11:24:46  -272.456557c -4.37  -4.38c
Writing to output.gpw (mode='')

iter:  85 11:24:53  -272.456558c -4.28  -4.33c
iter:  86 11:25:00  -272.456565c -4.40  -4.25c
iter:  87 11:25:07  -272.456565c -4.70  -4.28c
iter:  88 11:25:14  -272.456563c -4.48  -4.23c
iter:  89 11:25:21  -272.456568c -4.83  -4.18c
Writing to output.gpw (mode='')

iter:  90 11:25:29  -272.456567c -4.95  -4.13c
iter:  91 11:25:36  -272.456572c -4.79  -4.16c
iter:  92 11:25:43  -272.456557c -4.68  -4.17c
iter:  93 11:25:50  -272.456583c -4.94  -4.05c
iter:  94 11:25:57  -272.456590c -5.14  -4.07c
Writing to output.gpw (mode='')

iter:  95 11:26:04  -272.456588c -5.27  -4.10c
iter:  96 11:26:11  -272.456592c -5.15  -4.08c
iter:  97 11:26:18  -272.456596c -5.12  -4.21c
iter:  98 11:26:25  -272.456595c -5.11  -4.31c
iter:  99 11:26:32  -272.456595c -4.98  -4.34c
Writing to output.gpw (mode='')

iter: 100 11:26:39  -272.456595c -5.10  -4.35c
iter: 101 11:26:46  -272.456594c -5.29  -4.35c
iter: 102 11:26:53  -272.456593c -5.41  -4.36c
iter: 103 11:27:00  -272.456593c -5.53  -4.36c
iter: 104 11:27:07  -272.456591c -5.48  -4.34c
Writing to output.gpw (mode='')

iter: 105 11:27:14  -272.456590c -5.40  -4.36c
iter: 106 11:27:21  -272.456591c -5.60  -4.38c
iter: 107 11:27:28  -272.456591c -5.39  -4.38c
iter: 108 11:27:35  -272.456591c -5.52  -4.36c
iter: 109 11:27:42  -272.456592c -5.57  -4.36c
Writing to output.gpw (mode='')

iter: 110 11:27:50  -272.456589c -5.94  -4.50c
iter: 111 11:27:57  -272.456586c -5.79  -4.61c
iter: 112 11:28:04  -272.456585c -5.68  -4.72c
iter: 113 11:28:11  -272.456587c -5.68  -4.79c
iter: 114 11:28:18  -272.456587c -5.78  -4.94c
Writing to output.gpw (mode='')

iter: 115 11:28:25  -272.456586c -6.01  -5.07c
iter: 116 11:28:32  -272.456587c -5.74  -5.13c
iter: 117 11:28:39  -272.456587c -5.82  -5.19c
iter: 118 11:28:46  -272.456587c -5.82  -5.19c
iter: 119 11:28:53  -272.456587c -6.06  -5.22c
Writing to output.gpw (mode='')

iter: 120 11:29:00  -272.456586c -6.11  -5.22c
iter: 121 11:29:07  -272.456587c -6.18  -5.31c
iter: 122 11:29:14  -272.456587c -6.35  -5.49c
iter: 123 11:29:21  -272.456587c -6.38  -5.54c
iter: 124 11:29:28  -272.456586c -6.41  -5.51c
Writing to output.gpw (mode='')

iter: 125 11:29:40  -272.456586c -6.49  -5.45c
iter: 126 11:29:49  -272.456586c -6.42  -5.44c
iter: 127 11:29:56  -272.456586c -6.45  -5.35c
iter: 128 11:30:03  -272.456585c -6.29  -5.33c
iter: 129 11:30:10  -272.456585c -6.26  -5.35c
Writing to output.gpw (mode='')

iter: 130 11:30:17  -272.456585c -6.45  -5.35c
iter: 131 11:30:24  -272.456585c -6.58  -5.35c
iter: 132 11:30:31  -272.456585c -6.65  -5.28c
iter: 133 11:30:38  -272.456586c -6.74  -5.38c
iter: 134 11:30:45  -272.456586c -6.79  -5.59c
Writing to output.gpw (mode='')

iter: 135 11:30:53  -272.456586c -6.79  -5.61c
iter: 136 11:31:00  -272.456585c -6.70  -5.62c
iter: 137 11:31:07  -272.456585c -6.70  -5.65c
iter: 138 11:31:14  -272.456585c -6.92  -5.81c
iter: 139 11:31:21  -272.456586c -6.81  -5.86c
Writing to output.gpw (mode='')

iter: 140 11:31:28  -272.456585c -6.83  -6.01c
iter: 141 11:31:35  -272.456585c -6.96  -6.09c
iter: 142 11:31:42  -272.456585c -6.87  -6.19c
iter: 143 11:31:49  -272.456585c -7.04  -6.13c
iter: 144 11:31:56  -272.456585c -7.04  -6.05c
Writing to output.gpw (mode='')

iter: 145 11:32:03  -272.456585c -7.07  -6.17c
iter: 146 11:32:10  -272.456585c -7.06  -6.23c
iter: 147 11:32:17  -272.456585c -7.14  -6.41c
iter: 148 11:32:24  -272.456585c -7.16  -6.43c
iter: 149 11:32:31  -272.456585c -7.17  -6.48c
Writing to output.gpw (mode='')

iter: 150 11:32:38  -272.456585c -7.16  -6.64c
iter: 151 11:32:45  -272.456585c -7.21  -6.66c
iter: 152 11:32:53  -272.456585c -7.24  -6.58c
iter: 153 11:33:00  -272.456585c -7.34  -6.60c
iter: 154 11:33:06  -272.456585c -7.35  -6.52c
Writing to output.gpw (mode='')

iter: 155 11:33:14  -272.456585c -7.31  -6.49c
iter: 156 11:33:21  -272.456585c -7.34  -6.41c
iter: 157 11:33:28  -272.456585c -7.35  -6.31c
iter: 158 11:33:35  -272.456585c -7.32  -6.30c
iter: 159 11:33:42  -272.456585c -7.46c -6.29c

Converged after 159 iterations.

Dipole moment: (-0.406322, -5.182631, 0.235175) |e|*Ang

Energy contributions relative to reference atoms: (reference = -13382.245603)

Kinetic:       +161.321105
Potential:     -143.099967
External:        +0.000000
XC:            -291.242121
Entropy (-ST):   -0.186601
Local:           +0.657699
--------------------------
Free energy:   -272.549885
Extrapolated:  -272.456585

Dipole-layer corrected work functions: 3.375906, 2.923819 eV

Showing only first 2 kpts
 Kpt  Band  Eigenvalues  Occupancy
  0    28     -3.30980    1.92158
  0    29     -3.23954    1.71472
  0    30     -3.02608    0.15518
  0    31     -2.95793    0.04214

  1    28     -3.25531    1.78355
  1    29     -3.15234    1.02472
  1    30     -3.12768    0.78177
  1    31     -3.04771    0.22951


Fermi level: -3.14986

No gap
Writing to output.gpw (mode='')


Forces in eV/Ang:
  0 Li    0.02103   -0.00110   -0.27200
  1 Li   -0.02344    0.00088   -0.27258
  2 Li    0.00353    0.00368   -0.28474
  3 Li   -0.00074   -0.00378   -0.27859
  4 Li    0.00458    0.00180   -0.27307
  5 Li   -0.00288    0.02039   -0.27012
  6 Li    0.00273    0.00424   -0.27299
  7 Li    0.00018   -0.00197   -0.27615
  8 Li   -0.00098   -0.02327   -0.27330
  9 Li    0.00120    0.00096    0.29012
 10 Li   -0.00531    0.00228    0.25666
 11 Li    0.00427    0.00193    0.30098
 12 Li    0.00548    0.00416    0.28287
 13 Li   -0.00702   -0.00638    0.26385
 14 Li    0.00098    0.00322    0.28504
 15 Li   -0.00698   -0.00588    0.26634
 16 Li    0.00182    0.00383    0.24955
 17 Li    0.00240   -0.00561    0.25396
 18 Li   -0.00785   -0.00292    0.05278
 19 Li    0.00124   -0.00335    0.02401
 20 Li    0.00010    0.00598   -0.13452
 21 Li   -0.00009    0.00358    0.03053
 22 Li    0.00292   -0.00712    0.04325
 23 Li   -0.00285   -0.00828    0.04707
 24 Li   -0.00646    0.00174    0.03974
 25 Li    0.00517    0.00755    0.03905
 26 Li   -0.00376   -0.00130    0.02340
 27 Li    0.01179   -0.01587    0.01760
 28 Li   -0.01798    0.01827   -0.00537
 29 Li    0.00850    0.00229    0.07076
 30 Li    0.02855    0.02380    0.01397
 31 Li   -0.01271   -0.02037   -0.00517
 32 Li   -0.01802    0.01688    0.02735
 33 Li   -0.01333   -0.00233   -0.00280
 34 Li    0.00155    0.00190   -0.02078
 35 Li    0.01342   -0.00574   -0.00859
 36 O    -0.91074    0.25799   11.65994
 37 C     4.23804    0.44623    1.63799
 38 H    -0.20538   -0.01961    0.24484
 39 H    -0.60981   -0.03778    0.10398
 40 H    -0.06862   -0.07364    0.04944
 41 H    -1.35158   -2.84264    2.34409
 42 N    -1.62140   -1.51686   -9.76057
 43 N     0.53377    3.76022   -6.48596

System changes: positions 

Initializing position-dependent things.

Density initialized from wave functions
       .-----------------------.  
      /|                       |  
     / |                       |  
    /  |                       |  
   /   |                       |  
  /    |                       |  
 *     |                       |  
 |     |                       |  
 |     |                       |  
 |     |                       |  
 |     |                       |  
 |     |                       |  
 |H    |                       |  
 | H   |                       |  
 |     Li            HO   C    |  
 |H    |              N        |  
 |     |     Li      Li      Li|  
 |     |  Li      Li  N   Li   |  
 | Li  |   Li      Li          |  
 |     |Li      Li      Li     |  
 |     | Li      Li            |  
 |   LLi     LLi     LLi       |  
 |     |  Li      Li      Li   |  
 | Li  |   Li      Li          |  
 |     |Li      Li      Li     |  
 Li    | Li      Li            |  
 |    Li      Li      Li       |  
 |     |                       |  
 |     |                       |  
 |     |                       |  
 |     |                       |  
 |     |                       |  
 |     |                       |  
 |     .-----------------------.  
 |    /                       /   
 |   /                       /    
 |  /                       /     
 | /                       /      
 |/                       /       
 *-----------------------*        

Positions:
   0 Li     1.617037    1.617037   10.000000    ( 0.0000,  0.0000,  0.0000)
   1 Li     4.851111    1.617037   10.000000    ( 0.0000,  0.0000,  0.0000)
   2 Li     8.085185    1.617037   10.000000    ( 0.0000,  0.0000,  0.0000)
   3 Li     1.617037    4.851111   10.000000    ( 0.0000,  0.0000,  0.0000)
   4 Li     4.851111    4.851111   10.000000    ( 0.0000,  0.0000,  0.0000)
   5 Li     8.085185    4.851111   10.000000    ( 0.0000,  0.0000,  0.0000)
   6 Li     1.617037    8.085185   10.000000    ( 0.0000,  0.0000,  0.0000)
   7 Li     4.851111    8.085185   10.000000    ( 0.0000,  0.0000,  0.0000)
   8 Li     8.085185    8.085185   10.000000    ( 0.0000,  0.0000,  0.0000)
   9 Li     0.000000    0.000000   11.617037    ( 0.0000,  0.0000,  0.0000)
  10 Li     3.234074    0.000000   11.617037    ( 0.0000,  0.0000,  0.0000)
  11 Li     6.468148    0.000000   11.617037    ( 0.0000,  0.0000,  0.0000)
  12 Li     0.000000    3.234074   11.617037    ( 0.0000,  0.0000,  0.0000)
  13 Li     3.234074    3.234074   11.617037    ( 0.0000,  0.0000,  0.0000)
  14 Li     6.468148    3.234074   11.617037    ( 0.0000,  0.0000,  0.0000)
  15 Li     0.000000    6.468148   11.617037    ( 0.0000,  0.0000,  0.0000)
  16 Li     3.234074    6.468148   11.617037    ( 0.0000,  0.0000,  0.0000)
  17 Li     6.468148    6.468148   11.617037    ( 0.0000,  0.0000,  0.0000)
  18 Li     1.617011    1.617028   13.469908    ( 0.0000,  0.0000,  0.0000)
  19 Li     4.851115    1.617027   13.469812    ( 0.0000,  0.0000,  0.0000)
  20 Li     8.085184    1.617059   13.469268    ( 0.0000,  0.0000,  0.0000)
  21 Li     1.617038    4.851123   13.469834    ( 0.0000,  0.0000,  0.0000)
  22 Li     4.851121    4.851087   13.469878    ( 0.0000,  0.0000,  0.0000)
  23 Li     8.085174    4.851083   13.469890    ( 0.0000,  0.0000,  0.0000)
  24 Li     1.617016    8.085190   13.469864    ( 0.0000,  0.0000,  0.0000)
  25 Li     4.851129    8.085209   13.469863    ( 0.0000,  0.0000,  0.0000)
  26 Li     8.085171    8.085179   13.469808    ( 0.0000,  0.0000,  0.0000)
  27 Li     0.000040   -0.000054   15.446000    ( 0.0000,  0.0000,  0.0000)
  28 Li     3.234012    0.000062   15.445920    ( 0.0000,  0.0000,  0.0000)
  29 Li     6.468177    0.000008   15.446181    ( 0.0000,  0.0000,  0.0000)
  30 Li     0.000098    3.234155   15.445987    ( 0.0000,  0.0000,  0.0000)
  31 Li     3.234033    3.234007   15.445920    ( 0.0000,  0.0000,  0.0000)
  32 Li     6.468084    3.234134   15.446032    ( 0.0000,  0.0000,  0.0000)
  33 Li    -0.000046    6.468140   15.445929    ( 0.0000,  0.0000,  0.0000)
  34 Li     3.234082    6.468152   15.445867    ( 0.0000,  0.0000,  0.0000)
  35 Li     6.468191    6.468126   15.445909    ( 0.0000,  0.0000,  0.0000)
  36 O      8.082071    1.617919   19.685808    ( 0.0000,  0.0000,  0.0000)
  37 C      9.529639    1.603489   19.657039    ( 0.0000,  0.0000,  0.0000)
  38 H      9.918717    0.851943   18.965126    ( 0.0000,  0.0000,  0.0000)
  39 H      9.916575    1.423425   20.653583    ( 0.0000,  0.0000,  0.0000)
  40 H      9.834357    2.587426   19.318679    ( 0.0000,  0.0000,  0.0000)
  41 H      7.768908    0.744188   19.944959    ( 0.0000,  0.0000,  0.0000)
  42 N      8.079456    1.611813   17.162565    ( 0.0000,  0.0000,  0.0000)
  43 N      8.086825    1.629857   18.270384    ( 0.0000,  0.0000,  0.0000)

Unit cell:
           periodic     x           y           z      points  spacing
  1. axis:    yes    9.702222    0.000000    0.000000    60     0.1617
  2. axis:    yes    0.000000    9.702222    0.000000    60     0.1617
  3. axis:    no     0.000000    0.000000   26.601111   168     0.1583

  Lengths:   9.702222   9.702222  26.601111
  Angles:   90.000000  90.000000  90.000000

Effective grid spacing dv^(1/3) = 0.1606

     iter     time        total  log10-change:
                         energy  eigst   dens
iter:   1 11:33:50  -274.581922  -0.10
iter:   2 11:33:57  -274.933036  -0.02  -1.13
iter:   3 11:34:05  -273.863444  -0.19  -1.00
iter:   4 11:34:12  -273.858946  -0.52  -1.58
Writing to output.gpw (mode='')

iter:   5 11:34:19  -273.743288  -0.62  -1.59
iter:   6 11:34:26  -273.758528  -1.01  -1.77
iter:   7 11:34:33  -273.693801  -1.22  -1.69
iter:   8 11:34:47  -273.677884  -0.91  -1.94
iter:   9 11:34:54  -273.690672c -1.32  -2.20
Writing to output.gpw (mode='')

iter:  10 11:35:01  -273.701038c -1.32  -2.04
iter:  11 11:35:08  -273.679913c -1.80  -2.02
iter:  12 11:35:15  -273.679455c -1.56  -2.32
iter:  13 11:35:22  -273.679388c -2.35  -2.60
iter:  14 11:35:29  -273.679797c -2.60  -2.54
Writing to output.gpw (mode='')

iter:  15 11:35:36  -273.680365c -2.52  -2.54
iter:  16 11:35:43  -273.679784c -2.89  -2.53
iter:  17 11:35:50  -273.682683c -2.30  -2.55
iter:  18 11:35:57  -273.681749c -2.87  -2.41
iter:  19 11:36:04  -273.681189c -3.10  -2.43
Writing to output.gpw (mode='')

iter:  20 11:36:11  -273.679031c -2.48  -2.47
iter:  21 11:36:18  -273.679363c -2.69  -2.66
iter:  22 11:36:25  -273.678642c -3.00  -2.72
iter:  23 11:36:32  -273.678747c -2.79  -2.85
iter:  24 11:36:39  -273.678832c -3.30  -2.91
Writing to output.gpw (mode='')

iter:  25 11:36:47  -273.679090c -3.76  -2.96
iter:  26 11:36:54  -273.679037c -3.40  -2.89
iter:  27 11:37:01  -273.678999c -3.39  -3.19
iter:  28 11:37:09  -273.678953c -3.79  -3.28
iter:  29 11:37:16  -273.678942c -3.71  -3.40
Writing to output.gpw (mode='')

iter:  30 11:37:23  -273.678966c -3.80  -3.49
iter:  31 11:37:30  -273.678968c -4.27  -3.58
iter:  32 11:37:37  -273.678970c -4.45  -3.59
iter:  33 11:37:44  -273.678978c -4.63  -3.61
iter:  34 11:37:51  -273.679007c -4.60  -3.65
Writing to output.gpw (mode='')

iter:  35 11:37:58  -273.678991c -4.93  -3.71
iter:  36 11:38:05  -273.679006c -4.24  -3.78
iter:  37 11:38:12  -273.679013c -4.94  -3.70
iter:  38 11:38:19  -273.679018c -4.74  -3.82
iter:  39 11:38:26  -273.679018c -5.07  -3.92
Writing to output.gpw (mode='')

iter:  40 11:38:33  -273.679014c -5.35  -3.92
iter:  41 11:38:40  -273.679019c -5.44  -3.96
iter:  42 11:38:47  -273.679019c -5.40  -4.23c
iter:  43 11:38:55  -273.679015c -5.74  -4.51c
iter:  44 11:39:02  -273.679017c -5.69  -4.64c
Writing to output.gpw (mode='')

iter:  45 11:39:09  -273.679015c -5.99  -4.63c
iter:  46 11:39:16  -273.679016c -6.05  -4.78c
iter:  47 11:39:23  -273.679016c -6.09  -4.81c
iter:  48 11:39:30  -273.679016c -6.16  -4.92c
iter:  49 11:39:43  -273.679017c -6.23  -5.08c
Writing to output.gpw (mode='')

iter:  50 11:39:51  -273.679016c -6.12  -5.21c
iter:  51 11:39:58  -273.679017c -6.51  -5.21c
iter:  52 11:40:05  -273.679017c -6.61  -5.24c
iter:  53 11:40:12  -273.679017c -6.65  -5.18c
iter:  54 11:40:19  -273.679017c -6.47  -5.18c
Writing to output.gpw (mode='')

iter:  55 11:40:26  -273.679017c -6.52  -5.14c
iter:  56 11:40:34  -273.679017c -6.67  -5.06c
iter:  57 11:40:41  -273.679017c -6.92  -5.10c
iter:  58 11:40:48  -273.679017c -6.48  -5.07c
iter:  59 11:40:55  -273.679017c -6.87  -4.95c
Writing to output.gpw (mode='')

iter:  60 11:41:02  -273.679017c -6.75  -4.99c
iter:  61 11:41:09  -273.679017c -7.04  -5.01c
iter:  62 11:41:16  -273.679017c -7.22  -5.18c
iter:  63 11:41:23  -273.679017c -7.17  -5.12c
iter:  64 11:41:30  -273.679017c -7.20  -5.33c
Writing to output.gpw (mode='')

iter:  65 11:41:37  -273.679017c -7.23  -5.40c
iter:  66 11:41:44  -273.679017c -7.26  -5.48c
iter:  67 11:41:52  -273.679017c -7.37  -5.57c
iter:  68 11:41:59  -273.679017c -7.36  -5.63c
iter:  69 11:42:06  -273.679017c -7.42c -5.77c

Converged after 69 iterations.

Dipole moment: (-0.926900, -4.954049, 0.221407) |e|*Ang

Energy contributions relative to reference atoms: (reference = -13382.245603)

Kinetic:       +162.155058
Potential:     -144.930023
External:        +0.000000
XC:            -291.470494
Entropy (-ST):   -0.161991
Local:           +0.647438
--------------------------
Free energy:   -273.760012
Extrapolated:  -273.679017

Dipole-layer corrected work functions: 3.383705, 2.958086 eV

Showing only first 2 kpts
 Kpt  Band  Eigenvalues  Occupancy
  0    28     -3.36737    1.96145
  0    29     -3.28778    1.82392
  0    30     -3.02246    0.09772
  0    31     -2.95230    0.02494

  1    28     -3.26563    1.73858
  1    29     -3.17320    1.02309
  1    30     -3.15166    0.80999
  1    31     -3.06015    0.19684


Fermi level: -3.17090

No gap
Writing to output.gpw (mode='')


Forces in eV/Ang:
  0 Li    0.02496   -0.00050   -0.27130
  1 Li   -0.02729    0.00037   -0.27225
  2 Li    0.00357    0.00296   -0.28139
  3 Li   -0.00040   -0.00323   -0.27952
  4 Li    0.00370    0.00224   -0.27604
  5 Li   -0.00231    0.02547   -0.26998
  6 Li    0.00212    0.00306   -0.27588
  7 Li    0.00059   -0.00280   -0.27728
  8 Li   -0.00146   -0.02724   -0.27348
  9 Li   -0.00019    0.00058    0.29206
 10 Li   -0.00559    0.00455    0.25106
 11 Li    0.00589    0.00298    0.30141
 12 Li    0.00526    0.00409    0.28315
 13 Li   -0.00723   -0.00936    0.25744
 14 Li    0.00112    0.00213    0.28845
 15 Li   -0.00937   -0.00617    0.25902
 16 Li    0.00339    0.00507    0.25586
 17 Li    0.00377   -0.00588    0.24673
 18 Li   -0.00667   -0.00336    0.05520
 19 Li   -0.00200   -0.00294    0.02594
 20 Li    0.00186    0.00695   -0.13747
 21 Li   -0.00331    0.00005    0.03475
 22 Li    0.00620   -0.01099    0.04523
 23 Li   -0.00356   -0.00688    0.04846
 24 Li   -0.01016    0.00504    0.04196
 25 Li    0.01050    0.01270    0.04506
 26 Li   -0.00376   -0.00513    0.02762
 27 Li    0.02326   -0.02881   -0.00463
 28 Li   -0.01657    0.02091   -0.01099
 29 Li   -0.00212   -0.00730    0.04179
 30 Li    0.04969    0.04455   -0.01531
 31 Li   -0.01287   -0.02336   -0.01032
 32 Li   -0.03140    0.02726    0.01045
 33 Li   -0.01721   -0.00151   -0.00989
 34 Li    0.00192    0.00204   -0.01904
 35 Li    0.01667   -0.00358   -0.01614
 36 O    -0.73637   -0.77065   15.21640
 37 C     2.57327    0.19859    1.39816
 38 H    -0.13656   -0.03072    0.21826
 39 H    -0.29423   -0.03585    0.30112
 40 H     0.01311    0.03951    0.03574
 41 H    -0.78366   -1.81808    1.87444
 42 N    -1.83331   -1.76383   -6.28831
 43 N     1.17967    4.16107  -12.83551

System changes: positions 

Initializing position-dependent things.

Density initialized from wave functions
       .-----------------------.  
      /|                       |  
     / |                       |  
    /  |                       |  
   /   |                       |  
  /    |                       |  
 *     |                       |  
 |     |                       |  
 |     |                       |  
 |     |                       |  
 |     |                       |  
 |     |                       |  
 |H    |                       |  
 | H   |                       |  
 |     Li            HO   C    |  
 |H    |              N        |  
 |     |     Li      Li      Li|  
 |     |  Li      Li  N   Li   |  
 | Li  |   Li      Li          |  
 |     |Li      Li      Li     |  
 |     | Li      Li            |  
 |   LLi     LLi     LLi       |  
 |     |  Li      Li      Li   |  
 | Li  |   Li      Li          |  
 |     |Li      Li      Li     |  
 Li    | Li      Li            |  
 |    Li      Li      Li       |  
 |     |                       |  
 |     |                       |  
 |     |                       |  
 |     |                       |  
 |     |                       |  
 |     |                       |  
 |     .-----------------------.  
 |    /                       /   
 |   /                       /    
 |  /                       /     
 | /                       /      
 |/                       /       
 *-----------------------*        

Positions:
   0 Li     1.617037    1.617037   10.000000    ( 0.0000,  0.0000,  0.0000)
   1 Li     4.851111    1.617037   10.000000    ( 0.0000,  0.0000,  0.0000)
   2 Li     8.085185    1.617037   10.000000    ( 0.0000,  0.0000,  0.0000)
   3 Li     1.617037    4.851111   10.000000    ( 0.0000,  0.0000,  0.0000)
   4 Li     4.851111    4.851111   10.000000    ( 0.0000,  0.0000,  0.0000)
   5 Li     8.085185    4.851111   10.000000    ( 0.0000,  0.0000,  0.0000)
   6 Li     1.617037    8.085185   10.000000    ( 0.0000,  0.0000,  0.0000)
   7 Li     4.851111    8.085185   10.000000    ( 0.0000,  0.0000,  0.0000)
   8 Li     8.085185    8.085185   10.000000    ( 0.0000,  0.0000,  0.0000)
   9 Li     0.000000    0.000000   11.617037    ( 0.0000,  0.0000,  0.0000)
  10 Li     3.234074    0.000000   11.617037    ( 0.0000,  0.0000,  0.0000)
  11 Li     6.468148    0.000000   11.617037    ( 0.0000,  0.0000,  0.0000)
  12 Li     0.000000    3.234074   11.617037    ( 0.0000,  0.0000,  0.0000)
  13 Li     3.234074    3.234074   11.617037    ( 0.0000,  0.0000,  0.0000)
  14 Li     6.468148    3.234074   11.617037    ( 0.0000,  0.0000,  0.0000)
  15 Li     0.000000    6.468148   11.617037    ( 0.0000,  0.0000,  0.0000)
  16 Li     3.234074    6.468148   11.617037    ( 0.0000,  0.0000,  0.0000)
  17 Li     6.468148    6.468148   11.617037    ( 0.0000,  0.0000,  0.0000)
  18 Li     1.616983    1.617019   13.470080    ( 0.0000,  0.0000,  0.0000)
  19 Li     4.851126    1.617015   13.469888    ( 0.0000,  0.0000,  0.0000)
  20 Li     8.085181    1.617077   13.468825    ( 0.0000,  0.0000,  0.0000)
  21 Li     1.617044    4.851142   13.469927    ( 0.0000,  0.0000,  0.0000)
  22 Li     4.851124    4.851071   13.470018    ( 0.0000,  0.0000,  0.0000)
  23 Li     8.085166    4.851052   13.470045    ( 0.0000,  0.0000,  0.0000)
  24 Li     1.617002    8.085189   13.469992    ( 0.0000,  0.0000,  0.0000)
  25 Li     4.851135    8.085224   13.469981    ( 0.0000,  0.0000,  0.0000)
  26 Li     8.085159    8.085183   13.469878    ( 0.0000,  0.0000,  0.0000)
  27 Li     0.000057   -0.000082   15.446102    ( 0.0000,  0.0000,  0.0000)
  28 Li     3.233950    0.000118   15.445914    ( 0.0000,  0.0000,  0.0000)
  29 Li     6.468227    0.000034   15.446474    ( 0.0000,  0.0000,  0.0000)
  30 Li     0.000151    3.234193   15.446091    ( 0.0000,  0.0000,  0.0000)
  31 Li     3.233991    3.233945   15.445913    ( 0.0000,  0.0000,  0.0000)
  32 Li     6.468050    3.234170   15.446156    ( 0.0000,  0.0000,  0.0000)
  33 Li    -0.000082    6.468131   15.445934    ( 0.0000,  0.0000,  0.0000)
  34 Li     3.234086    6.468158   15.445794    ( 0.0000,  0.0000,  0.0000)
  35 Li     6.468230    6.468102   15.445895    ( 0.0000,  0.0000,  0.0000)
  36 O      8.078688    1.620813   19.717673    ( 0.0000,  0.0000,  0.0000)
  37 C      9.547067    1.605467   19.662978    ( 0.0000,  0.0000,  0.0000)
  38 H      9.917896    0.851899   18.965995    ( 0.0000,  0.0000,  0.0000)
  39 H      9.913916    1.423295   20.653540    ( 0.0000,  0.0000,  0.0000)
  40 H      9.833966    2.586957   19.318871    ( 0.0000,  0.0000,  0.0000)
  41 H      7.763277    0.732681   19.953707    ( 0.0000,  0.0000,  0.0000)
  42 N      8.074466    1.607242   17.123142    ( 0.0000,  0.0000,  0.0000)
  43 N      8.087329    1.641608   18.261300    ( 0.0000,  0.0000,  0.0000)

Unit cell:
           periodic     x           y           z      points  spacing
  1. axis:    yes    9.702222    0.000000    0.000000    60     0.1617
  2. axis:    yes    0.000000    9.702222    0.000000    60     0.1617
  3. axis:    no     0.000000    0.000000   26.601111   168     0.1583

  Lengths:   9.702222   9.702222  26.601111
  Angles:   90.000000  90.000000  90.000000

Effective grid spacing dv^(1/3) = 0.1606

     iter     time        total  log10-change:
                         energy  eigst   dens
iter:   1 11:42:14  -276.135287  -0.17
iter:   2 11:42:21  -277.007887  +0.30  -1.01
iter:   3 11:42:28  -274.601582  -0.21  -0.90
iter:   4 11:42:36  -274.613987  -0.54  -1.75
Writing to output.gpw (mode='')

iter:   5 11:42:43  -274.597227c -0.52  -1.78
iter:   6 11:42:50  -274.603655c -1.08  -2.04
iter:   7 11:42:57  -274.610391c -1.39  -2.11
iter:   8 11:43:04  -274.623848c -1.46  -2.17
iter:   9 11:43:11  -274.610745c -1.74  -1.91
Writing to output.gpw (mode='')

iter:  10 11:43:18  -274.611445c -1.67  -2.24
iter:  11 11:43:25  -274.613200c -1.76  -2.33
iter:  12 11:43:32  -274.613808c -1.98  -2.48
iter:  13 11:43:39  -274.614083c -2.34  -2.65
iter:  14 11:43:46  -274.614643c -2.60  -2.84
Writing to output.gpw (mode='')

iter:  15 11:43:53  -274.614860c -2.59  -2.76
iter:  16 11:44:00  -274.615040c -2.83  -2.85
iter:  17 11:44:07  -274.615159c -2.96  -2.88
iter:  18 11:44:14  -274.615222c -2.93  -2.90
iter:  19 11:44:22  -274.615295c -3.05  -2.97
Writing to output.gpw (mode='')

iter:  20 11:44:29  -274.615336c -3.40  -3.02
iter:  21 11:44:42  -274.615590c -3.21  -3.07
iter:  22 11:44:50  -274.615440c -3.78  -2.83
iter:  23 11:44:57  -274.615440c -3.65  -3.23
iter:  24 11:45:04  -274.615403c -4.10  -3.22
Writing to output.gpw (mode='')

iter:  25 11:45:11  -274.615425c -4.03  -3.29
iter:  26 11:45:18  -274.615430c -4.28  -3.46
iter:  27 11:45:25  -274.615430c -4.49  -3.52
iter:  28 11:45:32  -274.615454c -4.03  -3.60
iter:  29 11:45:39  -274.615449c -4.76  -3.59
Writing to output.gpw (mode='')

iter:  30 11:45:46  -274.615446c -4.59  -3.80
iter:  31 11:45:53  -274.615449c -4.84  -3.77
iter:  32 11:46:00  -274.615454c -4.77  -3.78
iter:  33 11:46:07  -274.615450c -5.10  -3.96
iter:  34 11:46:14  -274.615451c -5.02  -4.03c
Writing to output.gpw (mode='')

iter:  35 11:46:21  -274.615453c -5.09  -4.21c
iter:  36 11:46:28  -274.615455c -5.32  -4.28c
iter:  37 11:46:36  -274.615455c -5.51  -4.38c
iter:  38 11:46:43  -274.615455c -5.65  -4.44c
iter:  39 11:46:50  -274.615456c -5.67  -4.46c
Writing to output.gpw (mode='')

iter:  40 11:46:57  -274.615455c -5.81  -4.50c
iter:  41 11:47:04  -274.615455c -5.93  -4.65c
iter:  42 11:47:11  -274.615456c -5.76  -4.81c
iter:  43 11:47:18  -274.615457c -5.98  -4.90c
iter:  44 11:47:25  -274.615456c -6.09  -4.95c
Writing to output.gpw (mode='')

iter:  45 11:47:32  -274.615457c -6.23  -5.05c
iter:  46 11:47:39  -274.615457c -6.13  -5.06c
iter:  47 11:47:46  -274.615457c -6.25  -5.07c
iter:  48 11:47:53  -274.615457c -6.38  -5.18c
iter:  49 11:48:00  -274.615457c -6.48  -5.17c
Writing to output.gpw (mode='')

iter:  50 11:48:07  -274.615457c -6.52  -5.16c
iter:  51 11:48:14  -274.615457c -6.65  -5.20c
iter:  52 11:48:21  -274.615457c -6.64  -5.69c
iter:  53 11:48:28  -274.615457c -6.76  -5.71c
iter:  54 11:48:36  -274.615457c -6.82  -5.68c
Writing to output.gpw (mode='')

iter:  55 11:48:43  -274.615457c -6.79  -5.47c
iter:  56 11:48:50  -274.615457c -6.93  -5.38c
iter:  57 11:48:57  -274.615457c -6.92  -5.38c
iter:  58 11:49:04  -274.615457c -6.96  -5.45c
iter:  59 11:49:11  -274.615457c -6.74  -5.45c
Writing to output.gpw (mode='')

iter:  60 11:49:18  -274.615457c -7.13  -5.41c
iter:  61 11:49:25  -274.615457c -7.02  -5.58c
iter:  62 11:49:32  -274.615457c -7.01  -5.65c
iter:  63 11:49:46  -274.615457c -7.06  -5.67c
iter:  64 11:49:53  -274.615457c -7.22  -5.74c
Writing to output.gpw (mode='')

iter:  65 11:50:00  -274.615457c -7.29  -5.89c
iter:  66 11:50:07  -274.615457c -7.30  -5.94c
iter:  67 11:50:14  -274.615457c -7.38  -5.95c
iter:  68 11:50:21  -274.615457c -7.42c -6.01c

Converged after 68 iterations.

Dipole moment: (-1.746902, -4.782171, 0.213032) |e|*Ang

Energy contributions relative to reference atoms: (reference = -13382.245603)

Kinetic:       +157.268351
Potential:     -141.599912
External:        +0.000000
XC:            -290.855153
Entropy (-ST):   -0.155748
Local:           +0.649131
--------------------------
Free energy:   -274.693331
Extrapolated:  -274.615457

Dipole-layer corrected work functions: 3.384958, 2.975438 eV

Showing only first 2 kpts
 Kpt  Band  Eigenvalues  Occupancy
  0    28     -3.40283    1.97697
  0    29     -3.30132    1.83705
  0    30     -3.02361    0.08364
  0    31     -2.96176    0.02501

  1    28     -3.26396    1.68452
  1    29     -3.18297    1.02767
  1    30     -3.16225    0.82242
  1    31     -3.06435    0.17947


Fermi level: -3.18020

No gap
Writing to output.gpw (mode='')


Forces in eV/Ang:
  0 Li    0.02573   -0.00028   -0.27130
  1 Li   -0.02773    0.00038   -0.27243
  2 Li    0.00344    0.00273   -0.28049
  3 Li   -0.00022   -0.00306   -0.27947
  4 Li    0.00291    0.00190   -0.27694
  5 Li   -0.00207    0.02658   -0.26989
  6 Li    0.00160    0.00214   -0.27665
  7 Li    0.00077   -0.00297   -0.27724
  8 Li   -0.00141   -0.02768   -0.27396
  9 Li   -0.00175    0.00088    0.29403
 10 Li   -0.00593    0.00492    0.24875
 11 Li    0.00720    0.00409    0.30309
 12 Li    0.00513    0.00388    0.28404
 13 Li   -0.00710   -0.01042    0.25499
 14 Li    0.00107    0.00096    0.29015
 15 Li   -0.01004   -0.00664    0.25618
 16 Li    0.00427    0.00638    0.25846
 17 Li    0.00397   -0.00671    0.24435
 18 Li   -0.00571   -0.00330    0.05316
 19 Li   -0.00474   -0.00335    0.02427
 20 Li    0.00264    0.00825   -0.13614
 21 Li   -0.00476   -0.00162    0.03697
 22 Li    0.00757   -0.01301    0.04591
 23 Li   -0.00337   -0.00656    0.04672
 24 Li   -0.01242    0.00692    0.04316
 25 Li    0.01373    0.01608    0.04878
 26 Li   -0.00400   -0.00867    0.02602
 27 Li    0.00987   -0.01766    0.00723
 28 Li   -0.01522    0.02005   -0.01536
 29 Li    0.01683    0.01072    0.05581
 30 Li    0.04148    0.03715   -0.00334
 31 Li   -0.01229   -0.02270   -0.01456
 32 Li   -0.02147    0.01697    0.02388
 33 Li   -0.01681   -0.00063   -0.01500
 34 Li    0.00171    0.00184   -0.01862
 35 Li    0.01620   -0.00201   -0.02100
 36 O    -0.51894   -1.53446   15.23904
 37 C     1.29347    0.02239    1.03320
 38 H    -0.06946   -0.04628    0.20342
 39 H     0.01227   -0.07633    0.63304
 40 H     0.10058    0.18659    0.01256
 41 H    -0.39006   -1.05936    1.55802
 42 N    -1.80101   -1.85632   -2.42939
 43 N     1.31525    4.34969  -16.30888

System changes: positions 

Initializing position-dependent things.

Density initialized from wave functions
       .-----------------------.  
      /|                       |  
     / |                       |  
    /  |                       |  
   /   |                       |  
  /    |                       |  
 *     |                       |  
 |     |                       |  
 |     |                       |  
 |     |                       |  
 |     |                       |  
 |     |                       |  
 |H    |                       |  
 | H   |                       |  
 |     |             HO   C    |  
 |H    |              N        |  
 |     |     Li      Li      Li|  
 |     |  Li      Li  N   Li   |  
 |     |   Li      Li      Li  |  
 |     |Li      Li      Li     |  
 |     | Li      Li      Li    |  
 |   LLi     LLi     LLi       |  
 |     |  Li      Li      Li   |  
 | Li  |   Li      Li          |  
 |     |Li      Li      Li     |  
 Li    | Li      Li            |  
 |    Li      Li      Li       |  
 |     |                       |  
 |     |                       |  
 |     |                       |  
 |     |                       |  
 |     |                       |  
 |     |                       |  
 |     .-----------------------.  
 |    /                       /   
 |   /                       /    
 |  /                       /     
 | /                       /      
 |/                       /       
 *-----------------------*        

Positions:
   0 Li     1.617037    1.617037   10.000000    ( 0.0000,  0.0000,  0.0000)
   1 Li     4.851111    1.617037   10.000000    ( 0.0000,  0.0000,  0.0000)
   2 Li     8.085185    1.617037   10.000000    ( 0.0000,  0.0000,  0.0000)
   3 Li     1.617037    4.851111   10.000000    ( 0.0000,  0.0000,  0.0000)
   4 Li     4.851111    4.851111   10.000000    ( 0.0000,  0.0000,  0.0000)
   5 Li     8.085185    4.851111   10.000000    ( 0.0000,  0.0000,  0.0000)
   6 Li     1.617037    8.085185   10.000000    ( 0.0000,  0.0000,  0.0000)
   7 Li     4.851111    8.085185   10.000000    ( 0.0000,  0.0000,  0.0000)
   8 Li     8.085185    8.085185   10.000000    ( 0.0000,  0.0000,  0.0000)
   9 Li     0.000000    0.000000   11.617037    ( 0.0000,  0.0000,  0.0000)
  10 Li     3.234074    0.000000   11.617037    ( 0.0000,  0.0000,  0.0000)
  11 Li     6.468148    0.000000   11.617037    ( 0.0000,  0.0000,  0.0000)
  12 Li     0.000000    3.234074   11.617037    ( 0.0000,  0.0000,  0.0000)
  13 Li     3.234074    3.234074   11.617037    ( 0.0000,  0.0000,  0.0000)
  14 Li     6.468148    3.234074   11.617037    ( 0.0000,  0.0000,  0.0000)
  15 Li     0.000000    6.468148   11.617037    ( 0.0000,  0.0000,  0.0000)
  16 Li     3.234074    6.468148   11.617037    ( 0.0000,  0.0000,  0.0000)
  17 Li     6.468148    6.468148   11.617037    ( 0.0000,  0.0000,  0.0000)
  18 Li     1.616926    1.617006   13.470387    ( 0.0000,  0.0000,  0.0000)
  19 Li     4.851123    1.616972   13.469993    ( 0.0000,  0.0000,  0.0000)
  20 Li     8.085170    1.617138   13.467884    ( 0.0000,  0.0000,  0.0000)
  21 Li     1.617064    4.851190   13.470141    ( 0.0000,  0.0000,  0.0000)
  22 Li     4.851123    4.851034   13.470331    ( 0.0000,  0.0000,  0.0000)
  23 Li     8.085162    4.850972   13.470335    ( 0.0000,  0.0000,  0.0000)
  24 Li     1.616961    8.085191   13.470286    ( 0.0000,  0.0000,  0.0000)
  25 Li     4.851162    8.085276   13.470267    ( 0.0000,  0.0000,  0.0000)
  26 Li     8.085124    8.085151   13.469939    ( 0.0000,  0.0000,  0.0000)
  27 Li    -0.000402    0.000315   15.446940    ( 0.0000,  0.0000,  0.0000)
  28 Li     3.233821    0.000188   15.445862    ( 0.0000,  0.0000,  0.0000)
  29 Li     6.468968    0.000686   15.447894    ( 0.0000,  0.0000,  0.0000)
  30 Li    -0.000221    3.233813   15.447030    ( 0.0000,  0.0000,  0.0000)
  31 Li     3.233911    3.233860   15.445858    ( 0.0000,  0.0000,  0.0000)
  32 Li     6.468408    3.233849   15.447013    ( 0.0000,  0.0000,  0.0000)
  33 Li    -0.000104    6.468121   15.445909    ( 0.0000,  0.0000,  0.0000)
  34 Li     3.234086    6.468165   15.445615    ( 0.0000,  0.0000,  0.0000)
  35 Li     6.468262    6.468060   15.445840    ( 0.0000,  0.0000,  0.0000)
  36 O      8.074168    1.621685   19.743492    ( 0.0000,  0.0000,  0.0000)
  37 C      9.576560    1.608810   19.670451    ( 0.0000,  0.0000,  0.0000)
  38 H      9.916810    0.851550   18.967964    ( 0.0000,  0.0000,  0.0000)
  39 H      9.911442    1.421934   20.659300    ( 0.0000,  0.0000,  0.0000)
  40 H      9.834216    2.588131   19.318901    ( 0.0000,  0.0000,  0.0000)
  41 H      7.752834    0.711997   19.971949    ( 0.0000,  0.0000,  0.0000)
  42 N      8.066708    1.597714   17.085076    ( 0.0000,  0.0000,  0.0000)
  43 N      8.083282    1.667982   18.236755    ( 0.0000,  0.0000,  0.0000)

Unit cell:
           periodic     x           y           z      points  spacing
  1. axis:    yes    9.702222    0.000000    0.000000    60     0.1617
  2. axis:    yes    0.000000    9.702222    0.000000    60     0.1617
  3. axis:    no     0.000000    0.000000   26.601111   168     0.1583

  Lengths:   9.702222   9.702222  26.601111
  Angles:   90.000000  90.000000  90.000000

Effective grid spacing dv^(1/3) = 0.1606

     iter     time        total  log10-change:
                         energy  eigst   dens
iter:   1 11:50:29  -275.814128  -0.46
iter:   2 11:50:36  -275.801239  -0.76  -1.57
iter:   3 11:50:43  -275.713276  -1.14  -1.52
iter:   4 11:50:50  -275.701453  -1.50  -1.92
Writing to output.gpw (mode='')

iter:   5 11:50:58  -275.686091c -1.45  -2.02
iter:   6 11:51:05  -275.686298c -1.67  -2.17
iter:   7 11:51:12  -275.682779c -1.66  -2.19
iter:   8 11:51:19  -275.682333c -2.07  -2.38
iter:   9 11:51:26  -275.682568c -2.19  -2.48
Writing to output.gpw (mode='')

iter:  10 11:51:33  -275.682561c -2.75  -2.63
iter:  11 11:51:40  -275.682561c -3.06  -2.66
iter:  12 11:51:47  -275.682541c -2.96  -2.73
iter:  13 11:51:54  -275.682560c -3.43  -2.97
iter:  14 11:52:01  -275.682565c -3.27  -3.00
Writing to output.gpw (mode='')

iter:  15 11:52:08  -275.682558c -3.78  -3.17
iter:  16 11:52:15  -275.682575c -4.03  -3.24
iter:  17 11:52:22  -275.682579c -4.17  -3.25
iter:  18 11:52:29  -275.682592c -3.97  -3.32
iter:  19 11:52:36  -275.682611c -3.85  -3.59
Writing to output.gpw (mode='')

iter:  20 11:52:44  -275.682613c -4.57  -3.55
iter:  21 11:52:51  -275.682622c -4.39  -3.61
iter:  22 11:52:58  -275.682619c -4.67  -3.74
iter:  23 11:53:06  -275.682622c -4.72  -3.92
iter:  24 11:53:13  -275.682622c -5.07  -4.03c
Writing to output.gpw (mode='')

iter:  25 11:53:20  -275.682624c -5.08  -4.04c
iter:  26 11:53:27  -275.682623c -5.12  -4.11c
iter:  27 11:53:34  -275.682622c -5.39  -4.22c
iter:  28 11:53:43  -275.682622c -5.48  -4.42c
iter:  29 11:53:57  -275.682625c -5.60  -4.37c
Writing to output.gpw (mode='')

iter:  30 11:54:06  -275.682625c -5.66  -4.43c
iter:  31 11:54:13  -275.682624c -5.57  -4.49c
iter:  32 11:54:20  -275.682625c -5.60  -4.61c
iter:  33 11:54:27  -275.682625c -5.76  -4.72c
iter:  34 11:54:34  -275.682626c -5.90  -4.76c
Writing to output.gpw (mode='')

iter:  35 11:54:47  -275.682626c -6.07  -4.87c
iter:  36 11:54:54  -275.682626c -6.01  -4.90c
iter:  37 11:55:01  -275.682626c -6.19  -5.00c
iter:  38 11:55:08  -275.682626c -6.22  -5.05c
iter:  39 11:55:16  -275.682627c -6.25  -5.17c
Writing to output.gpw (mode='')

iter:  40 11:55:23  -275.682627c -6.43  -5.23c
iter:  41 11:55:30  -275.682627c -6.57  -5.22c
iter:  42 11:55:37  -275.682627c -6.72  -5.20c
iter:  43 11:55:44  -275.682627c -6.66  -5.17c
iter:  44 11:55:51  -275.682627c -6.83  -5.20c
Writing to output.gpw (mode='')

iter:  45 11:55:58  -275.682627c -6.82  -5.15c
iter:  46 11:56:05  -275.682627c -6.80  -5.12c
iter:  47 11:56:12  -275.682627c -6.85  -5.12c
iter:  48 11:56:19  -275.682627c -6.77  -5.13c
iter:  49 11:56:26  -275.682627c -7.14  -5.07c
Writing to output.gpw (mode='')

iter:  50 11:56:33  -275.682627c -7.01  -5.12c
iter:  51 11:56:40  -275.682627c -7.23  -5.16c
iter:  52 11:56:47  -275.682627c -7.06  -5.10c
iter:  53 11:56:55  -275.682627c -7.33  -5.20c
iter:  54 11:57:02  -275.682626c -7.33  -5.28c
Writing to output.gpw (mode='')

iter:  55 11:57:09  -275.682626c -7.33  -5.41c
iter:  56 11:57:16  -275.682626c -7.54c -5.60c

Converged after 56 iterations.

Dipole moment: (-3.338650, -4.695949, 0.229901) |e|*Ang

Energy contributions relative to reference atoms: (reference = -13382.245603)

Kinetic:       +152.791652
Potential:     -138.750435
External:        +0.000000
XC:            -290.297314
Entropy (-ST):   -0.150406
Local:           +0.648674
--------------------------
Free energy:   -275.757829
Extrapolated:  -275.682626

Dipole-layer corrected work functions: 3.385034, 2.943085 eV

Showing only first 2 kpts
 Kpt  Band  Eigenvalues  Occupancy
  0    28     -3.40462    1.98386
  0    29     -3.29384    1.86116
  0    30     -3.00205    0.07537
  0    31     -2.93990    0.02234

  1    28     -3.23172    1.58927
  1    29     -3.16874    1.04677
  1    30     -3.14748    0.83567
  1    31     -3.04807    0.17900


Fermi level: -3.16406

No gap
Writing to output.gpw (mode='')


Forces in eV/Ang:
  0 Li    0.02635   -0.00004   -0.27125
  1 Li   -0.02798    0.00061   -0.27177
  2 Li    0.00304    0.00266   -0.27936
  3 Li   -0.00098   -0.00352   -0.27857
  4 Li    0.00285    0.00045   -0.27737
  5 Li   -0.00178    0.02804   -0.26982
  6 Li   -0.00007    0.00153   -0.27671
  7 Li    0.00190   -0.00231   -0.27612
  8 Li   -0.00116   -0.02842   -0.27496
  9 Li   -0.00371    0.00125    0.29607
 10 Li   -0.00556    0.00534    0.24696
 11 Li    0.00805    0.00434    0.30364
 12 Li    0.00529    0.00389    0.28375
 13 Li   -0.00581   -0.01191    0.25338
 14 Li   -0.00015    0.00085    0.28948
 15 Li   -0.00961   -0.00758    0.25270
 16 Li    0.00453    0.00839    0.26352
 17 Li    0.00401   -0.00841    0.24240
 18 Li   -0.00691   -0.00337    0.05236
 19 Li   -0.00323   -0.00423    0.02806
 20 Li    0.00321    0.01124   -0.14456
 21 Li   -0.00617   -0.00375    0.03959
 22 Li    0.00831   -0.01386    0.04525
 23 Li   -0.00249   -0.00860    0.04741
 24 Li   -0.01501    0.00953    0.04437
 25 Li    0.01747    0.01936    0.05263
 26 Li   -0.00386   -0.01237    0.02461
 27 Li    0.00318   -0.01283    0.01016
 28 Li   -0.01240    0.02104   -0.01743
 29 Li    0.02924    0.01984    0.06032
 30 Li    0.04492    0.03921   -0.00533
 31 Li   -0.01072   -0.02384   -0.01654
 32 Li   -0.02839    0.02416    0.01957
 33 Li   -0.01769    0.00047   -0.01884
 34 Li    0.00077    0.00133   -0.01752
 35 Li    0.01754    0.00014   -0.02428
 36 O    -0.15521   -2.96834   14.20709
 37 C    -0.22780   -0.20524    0.69130
 38 H     0.07252   -0.09582    0.14751
 39 H     0.33661   -0.10363    0.91925
 40 H     0.22645    0.38515   -0.02259
 41 H     0.13180   -0.01510    1.23020
 42 N    -1.50108   -2.26582   -0.34116
 43 N     1.04596    5.25826  -16.95861

System changes: positions 

Initializing position-dependent things.

Density initialized from wave functions
       .-----------------------.  
      /|                       |  
     / |                       |  
    /  |                       |  
   /   |                       |  
  /    |                       |  
 *     |                       |  
 |     |                       |  
 |     |                       |  
 |     |                       |  
 |     |                       |  
 |     |                       |  
 |H    |                       |  
 | H   |              O        |  
 |     |             H    C    |  
 |H    |              N        |  
 |     |     Li      Li      Li|  
 |     |  Li      Li  N   Li   |  
 |     |   Li      Li      Li  |  
 |     |Li      Li      Li     |  
 |     | Li      Li      Li    |  
 |   LLi     LLi     LLi       |  
 |     |  Li      Li      Li   |  
 | Li  |   Li      Li          |  
 |     |Li      Li      Li     |  
 Li    | Li      Li            |  
 |    Li      Li      Li       |  
 |     |                       |  
 |     |                       |  
 |     |                       |  
 |     |                       |  
 |     |                       |  
 |     |                       |  
 |     .-----------------------.  
 |    /                       /   
 |   /                       /    
 |  /                       /     
 | /                       /      
 |/                       /       
 *-----------------------*        

Positions:
   0 Li     1.617037    1.617037   10.000000    ( 0.0000,  0.0000,  0.0000)
   1 Li     4.851111    1.617037   10.000000    ( 0.0000,  0.0000,  0.0000)
   2 Li     8.085185    1.617037   10.000000    ( 0.0000,  0.0000,  0.0000)
   3 Li     1.617037    4.851111   10.000000    ( 0.0000,  0.0000,  0.0000)
   4 Li     4.851111    4.851111   10.000000    ( 0.0000,  0.0000,  0.0000)
   5 Li     8.085185    4.851111   10.000000    ( 0.0000,  0.0000,  0.0000)
   6 Li     1.617037    8.085185   10.000000    ( 0.0000,  0.0000,  0.0000)
   7 Li     4.851111    8.085185   10.000000    ( 0.0000,  0.0000,  0.0000)
   8 Li     8.085185    8.085185   10.000000    ( 0.0000,  0.0000,  0.0000)
   9 Li     0.000000    0.000000   11.617037    ( 0.0000,  0.0000,  0.0000)
  10 Li     3.234074    0.000000   11.617037    ( 0.0000,  0.0000,  0.0000)
  11 Li     6.468148    0.000000   11.617037    ( 0.0000,  0.0000,  0.0000)
  12 Li     0.000000    3.234074   11.617037    ( 0.0000,  0.0000,  0.0000)
  13 Li     3.234074    3.234074   11.617037    ( 0.0000,  0.0000,  0.0000)
  14 Li     6.468148    3.234074   11.617037    ( 0.0000,  0.0000,  0.0000)
  15 Li     0.000000    6.468148   11.617037    ( 0.0000,  0.0000,  0.0000)
  16 Li     3.234074    6.468148   11.617037    ( 0.0000,  0.0000,  0.0000)
  17 Li     6.468148    6.468148   11.617037    ( 0.0000,  0.0000,  0.0000)
  18 Li     1.616857    1.616992   13.470692    ( 0.0000,  0.0000,  0.0000)
  19 Li     4.851141    1.616922   13.470135    ( 0.0000,  0.0000,  0.0000)
  20 Li     8.085162    1.617222   13.466869    ( 0.0000,  0.0000,  0.0000)
  21 Li     1.617076    4.851225   13.470372    ( 0.0000,  0.0000,  0.0000)
  22 Li     4.851124    4.850996   13.470635    ( 0.0000,  0.0000,  0.0000)
  23 Li     8.085164    4.850874   13.470635    ( 0.0000,  0.0000,  0.0000)
  24 Li     1.616904    8.085211   13.470587    ( 0.0000,  0.0000,  0.0000)
  25 Li     4.851212    8.085347   13.470576    ( 0.0000,  0.0000,  0.0000)
  26 Li     8.085091    8.085096   13.469992    ( 0.0000,  0.0000,  0.0000)
  27 Li    -0.000887    0.000728   15.447777    ( 0.0000,  0.0000,  0.0000)
  28 Li     3.233714    0.000269   15.445804    ( 0.0000,  0.0000,  0.0000)
  29 Li     6.469770    0.001373   15.449322    ( 0.0000,  0.0000,  0.0000)
  30 Li    -0.000546    3.233465   15.447927    ( 0.0000,  0.0000,  0.0000)
  31 Li     3.233844    3.233764   15.445796    ( 0.0000,  0.0000,  0.0000)
  32 Li     6.468683    3.233613   15.447801    ( 0.0000,  0.0000,  0.0000)
  33 Li    -0.000134    6.468118   15.445865    ( 0.0000,  0.0000,  0.0000)
  34 Li     3.234078    6.468168   15.445445    ( 0.0000,  0.0000,  0.0000)
  35 Li     6.468306    6.468032   15.445771    ( 0.0000,  0.0000,  0.0000)
  36 O      8.072211    1.612307   19.759841    ( 0.0000,  0.0000,  0.0000)
  37 C      9.596367    1.610667   19.675914    ( 0.0000,  0.0000,  0.0000)
  38 H      9.916766    0.850817   18.969491    ( 0.0000,  0.0000,  0.0000)
  39 H      9.910952    1.420440   20.666663    ( 0.0000,  0.0000,  0.0000)
  40 H      9.835316    2.590627   19.318689    ( 0.0000,  0.0000,  0.0000)
  41 H      7.745825    0.698272   19.988203    ( 0.0000,  0.0000,  0.0000)
  42 N      8.061480    1.584960   17.055006    ( 0.0000,  0.0000,  0.0000)
  43 N      8.076508    1.701569   18.216116    ( 0.0000,  0.0000,  0.0000)

Unit cell:
           periodic     x           y           z      points  spacing
  1. axis:    yes    9.702222    0.000000    0.000000    60     0.1617
  2. axis:    yes    0.000000    9.702222    0.000000    60     0.1617
  3. axis:    no     0.000000    0.000000   26.601111   168     0.1583

  Lengths:   9.702222   9.702222  26.601111
  Angles:   90.000000  90.000000  90.000000

Effective grid spacing dv^(1/3) = 0.1606

     iter     time        total  log10-change:
                         energy  eigst   dens
iter:   1 11:57:24  -276.513866  -0.76
iter:   2 11:57:31  -276.513210  -1.19  -2.07
iter:   3 11:57:38  -276.510028c -1.53  -2.07
iter:   4 11:57:45  -276.506507c -1.73  -2.17
Writing to output.gpw (mode='')

iter:   5 11:57:52  -276.504621c -1.86  -2.27
iter:   6 11:57:59  -276.504428c -1.89  -2.40
iter:   7 11:58:06  -276.503975c -2.36  -2.43
iter:   8 11:58:14  -276.503801c -2.77  -2.66
iter:   9 11:58:21  -276.503721c -2.79  -2.78
Writing to output.gpw (mode='')

iter:  10 11:58:28  -276.503608c -3.13  -2.87
iter:  11 11:58:35  -276.503641c -3.51  -3.00
iter:  12 11:58:42  -276.503667c -3.60  -3.08
iter:  13 11:58:49  -276.503686c -3.68  -3.16
iter:  14 11:58:56  -276.503689c -3.89  -3.37
Writing to output.gpw (mode='')

iter:  15 11:59:03  -276.503707c -4.07  -3.48
iter:  16 11:59:10  -276.503712c -4.27  -3.52
iter:  17 11:59:17  -276.503721c -4.29  -3.53
iter:  18 11:59:24  -276.503715c -4.30  -3.49
iter:  19 11:59:31  -276.503726c -4.56  -3.53
Writing to output.gpw (mode='')

iter:  20 11:59:44  -276.503729c -4.57  -3.56
iter:  21 11:59:52  -276.503724c -4.59  -3.45
iter:  22 11:59:59  -276.503729c -4.89  -3.71
iter:  23 12:00:06  -276.503732c -4.77  -3.81
iter:  24 12:00:13  -276.503734c -5.03  -3.81
Writing to output.gpw (mode='')

iter:  25 12:00:20  -276.503734c -4.99  -3.84
iter:  26 12:00:28  -276.503727c -5.17  -3.96
iter:  27 12:00:35  -276.503731c -5.42  -3.93
iter:  28 12:00:42  -276.503727c -5.53  -4.09c
iter:  29 12:00:49  -276.503727c -5.59  -4.23c
Writing to output.gpw (mode='')

iter:  30 12:00:56  -276.503729c -5.85  -4.34c
iter:  31 12:01:03  -276.503730c -5.79  -4.38c
iter:  32 12:01:10  -276.503730c -6.05  -4.61c
iter:  33 12:01:17  -276.503729c -6.06  -4.61c
iter:  34 12:01:24  -276.503730c -6.16  -4.68c
Writing to output.gpw (mode='')

iter:  35 12:01:31  -276.503730c -6.32  -4.89c
iter:  36 12:01:38  -276.503730c -6.24  -4.93c
iter:  37 12:01:45  -276.503730c -6.55  -4.93c
iter:  38 12:01:52  -276.503731c -6.55  -5.04c
iter:  39 12:01:59  -276.503730c -6.78  -5.16c
Writing to output.gpw (mode='')

iter:  40 12:02:06  -276.503730c -6.67  -5.23c
iter:  41 12:02:13  -276.503730c -6.82  -5.45c
iter:  42 12:02:20  -276.503731c -6.81  -5.43c
iter:  43 12:02:27  -276.503731c -6.84  -5.47c
iter:  44 12:02:34  -276.503731c -7.01  -5.48c
Writing to output.gpw (mode='')

iter:  45 12:02:41  -276.503731c -7.08  -5.37c
iter:  46 12:02:48  -276.503731c -7.20  -5.61c
iter:  47 12:02:55  -276.503731c -7.23  -5.65c
iter:  48 12:03:02  -276.503731c -7.27  -5.51c
iter:  49 12:03:09  -276.503730c -7.24  -5.68c
Writing to output.gpw (mode='')

iter:  50 12:03:16  -276.503730c -7.29  -5.85c
iter:  51 12:03:23  -276.503730c -7.25  -5.90c
iter:  52 12:03:31  -276.503730c -7.31  -5.98c
iter:  53 12:03:38  -276.503730c -7.47c -6.08c

Converged after 53 iterations.

Dipole moment: (-4.577296, -4.657332, 0.273033) |e|*Ang

Energy contributions relative to reference atoms: (reference = -13382.245603)

Kinetic:       +148.622443
Potential:     -135.894286
External:        +0.000000
XC:            -289.810311
Entropy (-ST):   -0.149091
Local:           +0.652969
--------------------------
Free energy:   -276.578276
Extrapolated:  -276.503730

Dipole-layer corrected work functions: 3.383546, 2.858684 eV

Showing only first 2 kpts
 Kpt  Band  Eigenvalues  Occupancy
  0    28     -3.36544    1.98502
  0    29     -3.25552    1.87265
  0    30     -2.96052    0.07744
  0    31     -2.89318    0.02073

  1    28     -3.17951    1.52552
  1    29     -3.12773    1.06606
  1    30     -3.10471    0.83741
  1    31     -3.00591    0.18157


Fermi level: -3.12111

No gap
Writing to output.gpw (mode='')


Forces in eV/Ang:
  0 Li    0.02587    0.00016   -0.27098
  1 Li   -0.02723    0.00085   -0.27083
  2 Li    0.00262    0.00248   -0.27885
  3 Li   -0.00122   -0.00384   -0.27775
  4 Li    0.00280   -0.00042   -0.27747
  5 Li   -0.00171    0.02864   -0.26980
  6 Li   -0.00121    0.00102   -0.27644
  7 Li    0.00292   -0.00207   -0.27522
  8 Li   -0.00104   -0.02829   -0.27606
  9 Li   -0.00517    0.00152    0.29791
 10 Li   -0.00489    0.00597    0.24689
 11 Li    0.00851    0.00379    0.30364
 12 Li    0.00544    0.00385    0.28383
 13 Li   -0.00454   -0.01309    0.25326
 14 Li   -0.00118    0.00136    0.28848
 15 Li   -0.00846   -0.00837    0.25049
 16 Li    0.00398    0.00969    0.26681
 17 Li    0.00366   -0.00966    0.24150
 18 Li   -0.00819   -0.00341    0.05152
 19 Li   -0.00012   -0.00489    0.03180
 20 Li    0.00272    0.01399   -0.15058
 21 Li   -0.00717   -0.00525    0.04127
 22 Li    0.00842   -0.01373    0.04429
 23 Li   -0.00166   -0.00963    0.04654
 24 Li   -0.01666    0.01153    0.04506
 25 Li    0.01950    0.02112    0.05455
 26 Li   -0.00355   -0.01635    0.02158
 27 Li   -0.00805   -0.00280    0.02007
 28 Li   -0.01048    0.02132   -0.01756
 29 Li    0.04285    0.03016    0.06955
 30 Li    0.04470    0.03632   -0.00238
 31 Li   -0.00980   -0.02402   -0.01695
 32 Li   -0.03313    0.02853    0.02000
 33 Li   -0.01726    0.00165   -0.02136
 34 Li    0.00018    0.00065   -0.01660
 35 Li    0.01752    0.00211   -0.02639
 36 O     0.21512   -3.68402   12.56909
 37 C    -1.03721   -0.39554    0.51507
 38 H     0.17120   -0.10853    0.13046
 39 H     0.51399   -0.10303    0.98983
 40 H     0.24722    0.43684   -0.01385
 41 H     0.38790    0.31149    1.06295
 42 N    -1.07557   -2.50684    1.18346
 43 N     0.51677    5.92586  -16.61003

System changes: positions 

Initializing position-dependent things.

Density initialized from wave functions
       .-----------------------.  
      /|                       |  
     / |                       |  
    /  |                       |  
   /   |                       |  
  /    |                       |  
 *     |                       |  
 |     |                       |  
 |     |                       |  
 |     |                       |  
 |     |                       |  
 |     |                       |  
 |H    |                       |  
 | H   |              O        |  
 |     |             H    C    |  
 |H    |              N        |  
 |     |     Li      Li      Li|  
 |     |  Li      Li  N   Li   |  
 |     |   Li      Li      Li  |  
 |     |Li      Li      Li     |  
 |     | Li      Li      Li    |  
 |   LLi     LLi     LLi       |  
 |     |  Li      Li      Li   |  
 | Li  |   Li      Li          |  
 |     |Li      Li      Li     |  
 Li    | Li      Li            |  
 |    Li      Li      Li       |  
 |     |                       |  
 |     |                       |  
 |     |                       |  
 |     |                       |  
 |     |                       |  
 |     |                       |  
 |     .-----------------------.  
 |    /                       /   
 |   /                       /    
 |  /                       /     
 | /                       /      
 |/                       /       
 *-----------------------*        

Positions:
   0 Li     1.617037    1.617037   10.000000    ( 0.0000,  0.0000,  0.0000)
   1 Li     4.851111    1.617037   10.000000    ( 0.0000,  0.0000,  0.0000)
   2 Li     8.085185    1.617037   10.000000    ( 0.0000,  0.0000,  0.0000)
   3 Li     1.617037    4.851111   10.000000    ( 0.0000,  0.0000,  0.0000)
   4 Li     4.851111    4.851111   10.000000    ( 0.0000,  0.0000,  0.0000)
   5 Li     8.085185    4.851111   10.000000    ( 0.0000,  0.0000,  0.0000)
   6 Li     1.617037    8.085185   10.000000    ( 0.0000,  0.0000,  0.0000)
   7 Li     4.851111    8.085185   10.000000    ( 0.0000,  0.0000,  0.0000)
   8 Li     8.085185    8.085185   10.000000    ( 0.0000,  0.0000,  0.0000)
   9 Li     0.000000    0.000000   11.617037    ( 0.0000,  0.0000,  0.0000)
  10 Li     3.234074    0.000000   11.617037    ( 0.0000,  0.0000,  0.0000)
  11 Li     6.468148    0.000000   11.617037    ( 0.0000,  0.0000,  0.0000)
  12 Li     0.000000    3.234074   11.617037    ( 0.0000,  0.0000,  0.0000)
  13 Li     3.234074    3.234074   11.617037    ( 0.0000,  0.0000,  0.0000)
  14 Li     6.468148    3.234074   11.617037    ( 0.0000,  0.0000,  0.0000)
  15 Li     0.000000    6.468148   11.617037    ( 0.0000,  0.0000,  0.0000)
  16 Li     3.234074    6.468148   11.617037    ( 0.0000,  0.0000,  0.0000)
  17 Li     6.468148    6.468148   11.617037    ( 0.0000,  0.0000,  0.0000)
  18 Li     1.616786    1.616979   13.470972    ( 0.0000,  0.0000,  0.0000)
  19 Li     4.851179    1.616875   13.470293    ( 0.0000,  0.0000,  0.0000)
  20 Li     8.085151    1.617313   13.465912    ( 0.0000,  0.0000,  0.0000)
  21 Li     1.617079    4.851246   13.470591    ( 0.0000,  0.0000,  0.0000)
  22 Li     4.851127    4.850961   13.470906    ( 0.0000,  0.0000,  0.0000)
  23 Li     8.085170    4.850783   13.470904    ( 0.0000,  0.0000,  0.0000)
  24 Li     1.616844    8.085241   13.470865    ( 0.0000,  0.0000,  0.0000)
  25 Li     4.851269    8.085420   13.470865    ( 0.0000,  0.0000,  0.0000)
  26 Li     8.085064    8.085024   13.470030    ( 0.0000,  0.0000,  0.0000)
  27 Li    -0.001351    0.001123   15.448540    ( 0.0000,  0.0000,  0.0000)
  28 Li     3.233626    0.000348   15.445754    ( 0.0000,  0.0000,  0.0000)
  29 Li     6.470516    0.002000   15.450593    ( 0.0000,  0.0000,  0.0000)
  30 Li    -0.000792    3.233178   15.448684    ( 0.0000,  0.0000,  0.0000)
  31 Li     3.233785    3.233671   15.445741    ( 0.0000,  0.0000,  0.0000)
  32 Li     6.468862    3.233461   15.448467    ( 0.0000,  0.0000,  0.0000)
  33 Li    -0.000163    6.468122   15.445811    ( 0.0000,  0.0000,  0.0000)
  34 Li     3.234070    6.468167   15.445297    ( 0.0000,  0.0000,  0.0000)
  35 Li     6.468350    6.468018   15.445694    ( 0.0000,  0.0000,  0.0000)
  36 O      8.072480    1.600990   19.770426    ( 0.0000,  0.0000,  0.0000)
  37 C      9.610854    1.611234   19.680565    ( 0.0000,  0.0000,  0.0000)
  38 H      9.917189    0.850177   18.970847    ( 0.0000,  0.0000,  0.0000)
  39 H      9.911134    1.419248   20.672888    ( 0.0000,  0.0000,  0.0000)
  40 H      9.836153    2.592741   19.318675    ( 0.0000,  0.0000,  0.0000)
  41 H      7.740580    0.686373   20.002120    ( 0.0000,  0.0000,  0.0000)
  42 N      8.059056    1.572108   17.033498    ( 0.0000,  0.0000,  0.0000)
  43 N      8.067598    1.735719   18.197290    ( 0.0000,  0.0000,  0.0000)

Unit cell:
           periodic     x           y           z      points  spacing
  1. axis:    yes    9.702222    0.000000    0.000000    60     0.1617
  2. axis:    yes    0.000000    9.702222    0.000000    60     0.1617
  3. axis:    no     0.000000    0.000000   26.601111   168     0.1583

  Lengths:   9.702222   9.702222  26.601111
  Angles:   90.000000  90.000000  90.000000

Effective grid spacing dv^(1/3) = 0.1606

     iter     time        total  log10-change:
                         energy  eigst   dens
iter:   1 12:03:46  -277.184872  -0.90
iter:   2 12:03:53  -277.183451  -1.43  -2.04
iter:   3 12:04:00  -277.182453c -1.84  -2.21
iter:   4 12:04:07  -277.179302c -1.59  -2.32
Writing to output.gpw (mode='')

iter:   5 12:04:14  -277.179387c -2.20  -2.47
iter:   6 12:04:21  -277.178899c -2.26  -2.53
iter:   7 12:04:29  -277.179494c -2.21  -2.63
iter:   8 12:04:41  -277.179415c -2.81  -2.72
iter:   9 12:04:50  -277.179221c -3.09  -2.78
Writing to output.gpw (mode='')

iter:  10 12:04:57  -277.179202c -3.14  -2.88
iter:  11 12:05:05  -277.179123c -3.50  -2.88
iter:  12 12:05:12  -277.179068c -3.44  -3.14
iter:  13 12:05:19  -277.179074c -3.68  -3.27
iter:  14 12:05:26  -277.179106c -4.06  -3.33
Writing to output.gpw (mode='')

iter:  15 12:05:33  -277.179123c -4.04  -3.47
iter:  16 12:05:40  -277.179136c -4.47  -3.59
iter:  17 12:05:47  -277.179141c -4.50  -3.59
iter:  18 12:05:54  -277.179144c -4.75  -3.92
iter:  19 12:06:01  -277.179142c -4.86  -3.96
Writing to output.gpw (mode='')

iter:  20 12:06:08  -277.179135c -4.80  -4.02c
iter:  21 12:06:15  -277.179135c -5.10  -4.11c
iter:  22 12:06:22  -277.179137c -5.34  -4.26c
iter:  23 12:06:30  -277.179138c -5.40  -4.29c
iter:  24 12:06:37  -277.179142c -5.42  -4.35c
Writing to output.gpw (mode='')

iter:  25 12:06:44  -277.179141c -5.66  -4.53c
iter:  26 12:06:51  -277.179141c -5.62  -4.61c
iter:  27 12:06:58  -277.179141c -5.81  -4.62c
iter:  28 12:07:05  -277.179142c -5.92  -4.63c
iter:  29 12:07:12  -277.179142c -6.03  -4.60c
Writing to output.gpw (mode='')

iter:  30 12:07:19  -277.179142c -6.23  -4.58c
iter:  31 12:07:26  -277.179143c -6.05  -4.57c
iter:  32 12:07:33  -277.179143c -6.01  -4.56c
iter:  33 12:07:41  -277.179144c -6.22  -4.55c
iter:  34 12:07:48  -277.179143c -6.27  -4.60c
Writing to output.gpw (mode='')

iter:  35 12:07:55  -277.179144c -6.39  -4.52c
iter:  36 12:08:02  -277.179144c -6.40  -4.59c
iter:  37 12:08:09  -277.179145c -6.46  -4.70c
iter:  38 12:08:16  -277.179144c -6.66  -4.73c
iter:  39 12:08:23  -277.179144c -6.57  -4.80c
Writing to output.gpw (mode='')

iter:  40 12:08:30  -277.179145c -6.68  -4.92c
iter:  41 12:08:37  -277.179145c -6.80  -4.93c
iter:  42 12:08:45  -277.179144c -6.75  -4.95c
iter:  43 12:08:52  -277.179144c -6.94  -5.08c
iter:  44 12:09:01  -277.179144c -7.08  -5.15c
Writing to output.gpw (mode='')

iter:  45 12:09:08  -277.179144c -7.30  -5.32c
iter:  46 12:09:15  -277.179144c -7.18  -5.41c
iter:  47 12:09:22  -277.179144c -7.17  -5.53c
iter:  48 12:09:29  -277.179144c -7.49c -5.66c

Converged after 48 iterations.

Dipole moment: (-5.547122, -4.645385, 0.312796) |e|*Ang

Energy contributions relative to reference atoms: (reference = -13382.245603)

Kinetic:       +145.249270
Potential:     -133.582254
External:        +0.000000
XC:            -289.429452
Entropy (-ST):   -0.148654
Local:           +0.657619
--------------------------
Free energy:   -277.253471
Extrapolated:  -277.179144

Dipole-layer corrected work functions: 3.382295, 2.780993 eV

Showing only first 2 kpts
 Kpt  Band  Eigenvalues  Occupancy
  0    28     -3.32737    1.98543
  0    29     -3.21902    1.87954
  0    30     -2.92418    0.08224
  0    31     -2.85015    0.01932

  1    28     -3.13680    1.50166
  1    29     -3.08979    1.08125
  1    30     -3.06439    0.82911
  1    31     -2.96650    0.18179


Fermi level: -3.08164

No gap
Writing to output.gpw (mode='')


Forces in eV/Ang:
  0 Li    0.02534    0.00037   -0.27067
  1 Li   -0.02656    0.00095   -0.26995
  2 Li    0.00227    0.00215   -0.27852
  3 Li   -0.00110   -0.00396   -0.27727
  4 Li    0.00267   -0.00081   -0.27743
  5 Li   -0.00162    0.02903   -0.26984
  6 Li   -0.00185    0.00068   -0.27614
  7 Li    0.00362   -0.00205   -0.27488
  8 Li   -0.00106   -0.02808   -0.27678
  9 Li   -0.00586    0.00149    0.29920
 10 Li   -0.00403    0.00681    0.24730
 11 Li    0.00849    0.00289    0.30314
 12 Li    0.00536    0.00369    0.28454
 13 Li   -0.00360   -0.01387    0.25324
 14 Li   -0.00182    0.00197    0.28805
 15 Li   -0.00736   -0.00867    0.24888
 16 Li    0.00315    0.01006    0.26889
 17 Li    0.00336   -0.00993    0.24098
 18 Li   -0.00912   -0.00342    0.05106
 19 Li    0.00309   -0.00499    0.03497
 20 Li    0.00175    0.01565   -0.15487
 21 Li   -0.00821   -0.00650    0.04229
 22 Li    0.00876   -0.01362    0.04388
 23 Li   -0.00115   -0.00943    0.04482
 24 Li   -0.01764    0.01306    0.04562
 25 Li    0.02020    0.02183    0.05489
 26 Li   -0.00304   -0.01915    0.01923
 27 Li   -0.01750    0.00613    0.02945
 28 Li   -0.00945    0.02147   -0.01703
 29 Li    0.04951    0.03457    0.07420
 30 Li    0.04443    0.03326   -0.00072
 31 Li   -0.00940   -0.02385   -0.01693
 32 Li   -0.03572    0.03004    0.02170
 33 Li   -0.01669    0.00267   -0.02288
 34 Li   -0.00014   -0.00001   -0.01577
 35 Li    0.01728    0.00356   -0.02756
 36 O     0.50800   -3.98239   11.08561
 37 C    -1.51343   -0.51738    0.38487
 38 H     0.24565   -0.11704    0.12210
 39 H     0.63975   -0.10084    1.02924
 40 H     0.24307    0.43455    0.01067
 41 H     0.57707    0.48978    0.89804
 42 N    -0.78801   -2.41284    2.14128
 43 N     0.03327    6.06222  -15.83962

System changes: positions 

Initializing position-dependent things.

Density initialized from wave functions
       .-----------------------.  
      /|                       |  
     / |                       |  
    /  |                       |  
   /   |                       |  
  /    |                       |  
 *     |                       |  
 |     |                       |  
 |     |                       |  
 |     |                       |  
 |     |                       |  
 |     |                       |  
 |H    |                       |  
 | H   |              O        |  
 |     |             H    C    |  
 |H    |              N        |  
[...]
iter:  12 21:16:34  -284.337786c -5.17  -3.92
iter:  13 21:16:41  -284.337805c -5.28  -4.00
iter:  14 21:16:48  -284.337789c -5.73  -4.00
Writing to output.gpw (mode='')

iter:  15 21:16:55  -284.337781c -5.61  -4.24c
iter:  16 21:17:02  -284.337784c -6.37  -4.25c
iter:  17 21:17:09  -284.337787c -6.26  -4.41c
iter:  18 21:17:16  -284.337783c -6.44  -4.60c
iter:  19 21:17:23  -284.337784c -6.71  -4.65c
Writing to output.gpw (mode='')

iter:  20 21:17:31  -284.337788c -6.62  -4.68c
iter:  21 21:17:38  -284.337785c -6.96  -4.86c
iter:  22 21:17:45  -284.337787c -6.96  -4.94c
iter:  23 21:17:52  -284.337787c -7.03  -5.03c
iter:  24 21:17:59  -284.337786c -7.22  -5.13c
Writing to output.gpw (mode='')

iter:  25 21:18:06  -284.337786c -7.56c -5.28c

Converged after 25 iterations.

Dipole moment: (-10.755561, -4.364775, 0.117665) |e|*Ang

Energy contributions relative to reference atoms: (reference = -13382.245603)

Kinetic:       +127.579615
Potential:     -119.692866
External:        +0.000000
XC:            -292.869985
Entropy (-ST):   -0.163496
Local:           +0.727198
--------------------------
Free energy:   -284.419534
Extrapolated:  -284.337786

Dipole-layer corrected work functions: 3.392137, 3.165945 eV

Showing only first 2 kpts
 Kpt  Band  Eigenvalues  Occupancy
  0    28     -3.45423    1.94160
  0    29     -3.29726    1.18019
  0    30     -3.26398    0.85052
  0    31     -3.16417    0.18267

  1    28     -3.59434    1.99636
  1    29     -3.23785    0.60990
  1    30     -3.18835    0.28034
  1    31     -3.15945    0.16759


Fermi level: -3.27904

No gap

Forces in eV/Ang:
  0 Li   -0.00624   -0.00950   -0.29477
  1 Li    0.00723    0.01057   -0.29368
  2 Li   -0.00138    0.00112   -0.25580
  3 Li    0.01325    0.01288   -0.28406
  4 Li   -0.00585    0.00661   -0.29499
  5 Li   -0.01003   -0.00605   -0.29487
  6 Li    0.00789   -0.00737   -0.29342
  7 Li   -0.01292   -0.01275   -0.28611
  8 Li    0.00886    0.00793   -0.29489
  9 Li   -0.03656    0.03286    0.36021
 10 Li    0.02474    0.02628    0.31310
 11 Li    0.03491    0.03713    0.28677
 12 Li   -0.04613   -0.04084    0.29549
 13 Li   -0.00294   -0.01497    0.30286
 14 Li    0.03353   -0.03707    0.33582
 15 Li   -0.02909   -0.01920    0.31534
 16 Li    0.00883   -0.00917    0.31903
 17 Li    0.01691    0.00016    0.31139
 18 Li   -0.02592   -0.01455    0.00960
 19 Li   -0.00704   -0.00746   -0.01683
 20 Li    0.00833    0.00150    0.03175
 21 Li    0.00540   -0.00281   -0.00684
 22 Li   -0.00251    0.00434   -0.01416
 23 Li    0.00055    0.00652   -0.01702
 24 Li   -0.00879    0.00318    0.00177
 25 Li   -0.00011   -0.00151   -0.00715
 26 Li    0.00582    0.01719   -0.00473
 27 Li    0.00264   -0.00252   -0.01140
 28 Li   -0.02518    0.00686   -0.01107
 29 Li    0.01616   -0.01256   -0.02956
 30 Li    0.00169   -0.03417   -0.03264
 31 Li    0.00091   -0.00176   -0.01046
 32 Li    0.00482    0.00342   -0.01026
 33 Li   -0.00503    0.02108   -0.01284
 34 Li   -0.00333    0.00117   -0.00002
 35 Li    0.00553    0.00719   -0.00499
 36 O    -0.00129   -0.00645   -0.02905
 37 C    -0.01883    0.00721   -0.00951
 38 H     0.02150    0.02376    0.03817
 39 H     0.01716   -0.02465   -0.04154
 40 H    -0.01358   -0.01317   -0.01909
 41 H    -0.01001    0.01157   -0.00799
 42 N     0.01110    0.02998    0.01745
 43 N     0.00166   -0.00036   -0.01190

System changes: positions 

Initializing position-dependent things.

Density initialized from wave functions
       .-----------------------.  
      /|                       |  
     / |                       |  
    /  |                       |  
   /   |                       |  
  /    |                       |  
 *     |                       |  
 |     |                       |  
 |     |                       |  
 |     |                       |  
 |     |                       |  
 |     |                       |  
 |     |                       |  
 | H   |                       |  
 |CH   Li      Li    HO        |  
 | H   |                       |  
 |   Li|     Li      Li        |  
 |     |  Li      Li      Li   |  
 |     |   Li      LiN    Li   |  
 |     |Li      LiLi   NLi     |  
 |     |                       |  
 |   LLi     LLi     LLi       |  
 |     |  Li      Li      Li   |  
 | Li  |   Li      Li          |  
 |     |Li      Li      Li     |  
 Li    | Li      Li            |  
 |    Li      Li      Li       |  
 |     |                       |  
 |     |                       |  
 |     |                       |  
 |     |                       |  
 |     |                       |  
 |     |                       |  
 |     .-----------------------.  
 |    /                       /   
 |   /                       /    
 |  /                       /     
 | /                       /      
 |/                       /       
 *-----------------------*        

Positions:
   0 Li     1.617037    1.617037   10.000000    ( 0.0000,  0.0000,  0.0000)
   1 Li     4.851111    1.617037   10.000000    ( 0.0000,  0.0000,  0.0000)
   2 Li     8.085185    1.617037   10.000000    ( 0.0000,  0.0000,  0.0000)
   3 Li     1.617037    4.851111   10.000000    ( 0.0000,  0.0000,  0.0000)
   4 Li     4.851111    4.851111   10.000000    ( 0.0000,  0.0000,  0.0000)
   5 Li     8.085185    4.851111   10.000000    ( 0.0000,  0.0000,  0.0000)
   6 Li     1.617037    8.085185   10.000000    ( 0.0000,  0.0000,  0.0000)
   7 Li     4.851111    8.085185   10.000000    ( 0.0000,  0.0000,  0.0000)
   8 Li     8.085185    8.085185   10.000000    ( 0.0000,  0.0000,  0.0000)
   9 Li     0.000000    0.000000   11.617037    ( 0.0000,  0.0000,  0.0000)
  10 Li     3.234074    0.000000   11.617037    ( 0.0000,  0.0000,  0.0000)
  11 Li     6.468148    0.000000   11.617037    ( 0.0000,  0.0000,  0.0000)
  12 Li     0.000000    3.234074   11.617037    ( 0.0000,  0.0000,  0.0000)
  13 Li     3.234074    3.234074   11.617037    ( 0.0000,  0.0000,  0.0000)
  14 Li     6.468148    3.234074   11.617037    ( 0.0000,  0.0000,  0.0000)
  15 Li     0.000000    6.468148   11.617037    ( 0.0000,  0.0000,  0.0000)
  16 Li     3.234074    6.468148   11.617037    ( 0.0000,  0.0000,  0.0000)
  17 Li     6.468148    6.468148   11.617037    ( 0.0000,  0.0000,  0.0000)
  18 Li     1.627848    1.589892   13.531064    ( 0.0000,  0.0000,  0.0000)
  19 Li     4.877503    1.674641   13.559241    ( 0.0000,  0.0000,  0.0000)
  20 Li     8.067271    1.604598   13.617798    ( 0.0000,  0.0000,  0.0000)
  21 Li     1.543610    4.783162   13.524416    ( 0.0000,  0.0000,  0.0000)
  22 Li     4.817194    4.873321   13.529138    ( 0.0000,  0.0000,  0.0000)
  23 Li     8.025752    4.818330   13.557071    ( 0.0000,  0.0000,  0.0000)
  24 Li     1.661338    8.047094   13.511971    ( 0.0000,  0.0000,  0.0000)
  25 Li     4.926742    8.151870   13.525816    ( 0.0000,  0.0000,  0.0000)
  26 Li     8.119464    8.075720   13.546785    ( 0.0000,  0.0000,  0.0000)
  27 Li     0.124798   -0.123020   15.521438    ( 0.0000,  0.0000,  0.0000)
  28 Li     3.413413   -0.057056   15.490015    ( 0.0000,  0.0000,  0.0000)
  29 Li     6.704627    0.243326   15.726136    ( 0.0000,  0.0000,  0.0000)
  30 Li    -0.269726    2.992494   15.680809    ( 0.0000,  0.0000,  0.0000)
  31 Li     3.066873    3.294289   15.502162    ( 0.0000,  0.0000,  0.0000)
  32 Li     6.327657    3.347383   15.605191    ( 0.0000,  0.0000,  0.0000)
  33 Li     0.058495    6.288441   15.496459    ( 0.0000,  0.0000,  0.0000)
  34 Li     3.237547    6.468055   15.473158    ( 0.0000,  0.0000,  0.0000)
  35 Li     6.406568    6.601800   15.492658    ( 0.0000,  0.0000,  0.0000)
  36 O      8.319069    1.242727   19.610628    ( 0.0000,  0.0000,  0.0000)
  37 C      9.729946    1.494566   19.613744    ( 0.0000,  0.0000,  0.0000)
  38 H     10.263157    0.833845   18.919021    ( 0.0000,  0.0000,  0.0000)
  39 H     10.159958    1.393946   20.616991    ( 0.0000,  0.0000,  0.0000)
  40 H      9.863791    2.525466   19.284795    ( 0.0000,  0.0000,  0.0000)
  41 H      8.182060    0.325844   19.875981    ( 0.0000,  0.0000,  0.0000)
  42 N      8.519630    1.163694   15.646618    ( 0.0000,  0.0000,  0.0000)
  43 N      7.629899    2.049441   15.663589    ( 0.0000,  0.0000,  0.0000)

Unit cell:
           periodic     x           y           z      points  spacing
  1. axis:    yes    9.702222    0.000000    0.000000    60     0.1617
  2. axis:    yes    0.000000    9.702222    0.000000    60     0.1617
  3. axis:    no     0.000000    0.000000   26.601111   168     0.1583

  Lengths:   9.702222   9.702222  26.601111
  Angles:   90.000000  90.000000  90.000000

Effective grid spacing dv^(1/3) = 0.1606

     iter     time        total  log10-change:
                         energy  eigst   dens
iter:   1 21:18:15  -284.340862  -2.43
iter:   2 21:18:22  -284.338631  -2.94  -2.34
iter:   3 21:18:29  -284.338156c -4.13  -2.60
iter:   4 21:18:36  -284.338256c -3.62  -2.91
Writing to output.gpw (mode='')

iter:   5 21:18:43  -284.338240c -3.99  -3.37
iter:   6 21:18:50  -284.338246c -3.90  -3.41
iter:   7 21:18:57  -284.338285c -3.83  -3.62
iter:   8 21:19:04  -284.338232c -4.66  -3.73
iter:   9 21:19:11  -284.338214c -5.17  -3.84
Writing to output.gpw (mode='')

iter:  10 21:19:18  -284.338233c -5.07  -3.86
iter:  11 21:19:25  -284.338218c -5.53  -4.14c
iter:  12 21:19:32  -284.338217c -5.82  -4.24c
iter:  13 21:19:46  -284.338222c -5.84  -4.31c
iter:  14 21:19:53  -284.338217c -6.09  -4.32c
Writing to output.gpw (mode='')

iter:  15 21:20:00  -284.338212c -6.16  -4.41c
iter:  16 21:20:07  -284.338217c -6.25  -4.59c
iter:  17 21:20:14  -284.338211c -6.46  -4.55c
iter:  18 21:20:21  -284.338211c -6.59  -4.73c
iter:  19 21:20:28  -284.338213c -6.98  -4.76c
Writing to output.gpw (mode='')

iter:  20 21:20:35  -284.338213c -6.91  -4.97c
iter:  21 21:20:43  -284.338213c -7.24  -5.13c
iter:  22 21:20:50  -284.338213c -7.44c -5.14c

Converged after 22 iterations.

Dipole moment: (-10.720862, -4.370710, 0.117813) |e|*Ang

Energy contributions relative to reference atoms: (reference = -13382.245603)

Kinetic:       +127.590379
Potential:     -119.697608
External:        +0.000000
XC:            -292.876196
Entropy (-ST):   -0.163539
Local:           +0.726980
--------------------------
Free energy:   -284.419983
Extrapolated:  -284.338213

Dipole-layer corrected work functions: 3.392175, 3.165699 eV

Showing only first 2 kpts
 Kpt  Band  Eigenvalues  Occupancy
  0    28     -3.45440    1.94190
  0    29     -3.29680    1.17676
  0    30     -3.26394    0.85116
  0    31     -3.16441    0.18383

  1    28     -3.59425    1.99636
  1    29     -3.23783    0.61066
  1    30     -3.18828    0.28053
  1    31     -3.15965    0.16853


Fermi level: -3.27894

No gap
Writing to output.gpw (mode='')


Forces in eV/Ang:
  0 Li   -0.00632   -0.00953   -0.29471
  1 Li    0.00726    0.01059   -0.29355
  2 Li   -0.00136    0.00111   -0.25563
  3 Li    0.01330    0.01292   -0.28401
  4 Li   -0.00591    0.00665   -0.29482
  5 Li   -0.01008   -0.00613   -0.29478
  6 Li    0.00790   -0.00735   -0.29339
  7 Li   -0.01298   -0.01279   -0.28604
  8 Li    0.00888    0.00803   -0.29481
  9 Li   -0.03606    0.03255    0.35997
 10 Li    0.02468    0.02598    0.31269
 11 Li    0.03462    0.03674    0.28629
 12 Li   -0.04547   -0.04043    0.29520
 13 Li   -0.00303   -0.01495    0.30208
 14 Li    0.03334   -0.03682    0.33513
 15 Li   -0.02877   -0.01921    0.31499
 16 Li    0.00869   -0.00895    0.31778
 17 Li    0.01684    0.00029    0.31055
 18 Li   -0.02570   -0.01425    0.00909
 19 Li   -0.00690   -0.00720   -0.01581
 20 Li    0.00786    0.00089    0.02659
 21 Li    0.00428   -0.00280   -0.00652
 22 Li   -0.00181    0.00364   -0.01246
 23 Li    0.00061    0.00659   -0.01618
 24 Li   -0.00830    0.00278    0.00170
 25 Li   -0.00043   -0.00085   -0.00670
 26 Li    0.00568    0.01714   -0.00462
 27 Li    0.00512   -0.00511   -0.01026
 28 Li   -0.02479    0.00656   -0.01142
 29 Li    0.01692   -0.01399   -0.02861
 30 Li    0.00354   -0.03258   -0.03117
 31 Li    0.00097   -0.00203   -0.01089
 32 Li    0.00783    0.00006   -0.01200
 33 Li   -0.00489    0.02036   -0.01339
 34 Li   -0.00349    0.00160   -0.00037
 35 Li    0.00569    0.00719   -0.00544
 36 O     0.02043   -0.02046   -0.02678
 37 C    -0.01921    0.00437   -0.01449
 38 H     0.00893    0.01731    0.02646
 39 H     0.00669   -0.01590   -0.03126
 40 H    -0.01527   -0.01152   -0.01414
 41 H    -0.01021    0.02279   -0.01144
 42 N     0.00491    0.02526    0.01070
 43 N    -0.00554    0.01016    0.00028

Timing:                                      incl.     excl.
-------------------------------------------------------------------
Density initialized from wave functions:     5.140     5.137   0.0% |
 Symmetrize density:                         0.003     0.003   0.0% |
Forces:                                     43.619    43.619   0.1% |
Hamiltonian:                               665.088     0.015   0.0% |
 Atomic:                                     0.028     0.027   0.0% |
  XC Correction:                             0.000     0.000   0.0% |
 Calculate atomic Hamiltonians:              0.044     0.044   0.0% |
 Communicate:                                8.519     8.519   0.0% |
 Hartree integrate/restrict:                 2.953     2.953   0.0% |
 Initialize Hamiltonian:                     0.001     0.001   0.0% |
 Poisson:                                   31.837    11.648   0.0% |
  Communicate from 1D:                       3.126     3.126   0.0% |
  Communicate from 2D:                       3.320     3.320   0.0% |
  Communicate to 1D:                         1.780     1.780   0.0% |
  Communicate to 2D:                         3.943     3.943   0.0% |
  FFT 1D:                                    4.051     4.051   0.0% |
  FFT 2D:                                    3.970     3.970   0.0% |
 XC 3D grid:                               621.138    98.755   0.3% |
  VdW-DF integral:                         522.383     4.377   0.0% |
   Convolution:                             49.204    49.204   0.1% |
   FFT:                                     20.833    20.833   0.1% |
   gather:                                 177.090   177.090   0.5% |
   hmm1:                                    17.524    17.524   0.0% |
   hmm2:                                    23.381    23.381   0.1% |
   iFFT:                                    21.736    21.736   0.1% |
   potential:                              204.578     5.734   0.0% |
    collect:                                32.266    32.266   0.1% |
    p1:                                     95.725    95.725   0.3% |
    p2:                                     35.702    35.702   0.1% |
    sum:                                    35.151    35.151   0.1% |
   splines:                                  3.659     3.659   0.0% |
 vbar:                                       0.553     0.553   0.0% |
LCAO initialization:                         0.989     0.186   0.0% |
 LCAO eigensolver:                           0.211     0.000   0.0% |
  Calculate projections:                     0.000     0.000   0.0% |
  DenseAtomicCorrection:                     0.000     0.000   0.0% |
  Distribute overlap matrix:                 0.155     0.155   0.0% |
  Orbital Layouts:                           0.054     0.054   0.0% |
  Potential matrix:                          0.001     0.001   0.0% |
  Sum over cells:                            0.001     0.001   0.0% |
 LCAO to grid:                               0.508     0.508   0.0% |
 Set positions (LCAO WFS):                   0.084     0.045   0.0% |
  Basic WFS set positions:                   0.001     0.001   0.0% |
  Basis functions set positions:             0.000     0.000   0.0% |
  P tci:                                     0.000     0.000   0.0% |
  ST tci:                                    0.011     0.011   0.0% |
  mktci:                                     0.027     0.027   0.0% |
Redistribute:                                0.074     0.074   0.0% |
SCF-cycle:                               35578.553   598.229   1.6% ||
 Davidson:                                8246.067  2474.079   6.8% |--|
  Apply hamiltonian:                       524.001   524.001   1.4% ||
  Subspace diag:                          1568.607     0.569   0.0% |
   calc_h_matrix:                          768.604   219.756   0.6% |
    Apply hamiltonian:                     548.848   548.848   1.5% ||
   diagonalize:                             97.315    97.315   0.3% |
   rotate_psi:                             702.119   702.119   1.9% ||
  calc. matrices:                         2522.056  1264.590   3.5% ||
   Apply hamiltonian:                     1257.466  1257.466   3.5% ||
  diagonalize:                              21.128    21.128   0.1% |
  rotate_psi:                             1136.196  1136.196   3.1% ||
 Density:                                  168.826     0.118   0.0% |
  Atomic density matrices:                  19.578    19.578   0.1% |
  Mix:                                      78.240    78.240   0.2% |
  Multipole moments:                         5.083     5.083   0.0% |
  Pseudo density:                           65.808    65.723   0.2% |
   Symmetrize density:                       0.085     0.085   0.0% |
 Hamiltonian:                            26545.988     0.577   0.0% |
  Atomic:                                    1.179     1.167   0.0% |
   XC Correction:                            0.012     0.012   0.0% |
  Calculate atomic Hamiltonians:             1.817     1.817   0.0% |
  Communicate:                             381.552   381.552   1.0% |
  Hartree integrate/restrict:              114.894   114.894   0.3% |
  Poisson:                                1259.426   462.930   1.3% ||
   Communicate from 1D:                    124.608   124.608   0.3% |
   Communicate from 2D:                    130.787   130.787   0.4% |
   Communicate to 1D:                       71.571    71.571   0.2% |
   Communicate to 2D:                      156.580   156.580   0.4% |
   FFT 1D:                                 158.700   158.700   0.4% |
   FFT 2D:                                 154.250   154.250   0.4% |
  XC 3D grid:                            24764.898  3902.074  10.7% |---|
   VdW-DF integral:                      20862.823   172.171   0.5% |
    Convolution:                          1933.863  1933.863   5.3% |-|
    FFT:                                   822.258   822.258   2.3% ||
    gather:                               7132.206  7132.206  19.6% |-------|
    hmm1:                                  688.041   688.041   1.9% ||
    hmm2:                                  911.812   911.812   2.5% ||
    iFFT:                                  853.823   853.823   2.3% ||
    potential:                            8348.604   226.976   0.6% |
     collect:                             1280.439  1280.439   3.5% ||
     p1:                                  3743.105  3743.105  10.3% |---|
     p2:                                  1386.204  1386.204   3.8% |-|
     sum:                                 1711.881  1711.881   4.7% |-|
    splines:                                 0.044     0.044   0.0% |
  vbar:                                     21.645    21.645   0.1% |
 Orthonormalize:                            19.443     0.017   0.0% |
  calc_s_matrix:                             2.683     2.683   0.0% |
  inverse-cholesky:                          6.007     6.007   0.0% |
  projections:                               0.003     0.003   0.0% |
  rotate_psi_s:                             10.733    10.733   0.0% |
Set symmetry:                                0.019     0.019   0.0% |
Other:                                     106.151   106.151   0.3% |
-------------------------------------------------------------------
Total:                                             36399.633 100.0%

Memory usage: 1.12 GiB
Date: Fri Mar 10 21:20:50 2023
