
  ___ ___ ___ _ _ _  
 |   |   |_  | | | | 
 | | | | | . | | | | 
 |__ |  _|___|_____|  22.8.0
 |___|_|             

User:   vazumah@r053.ib.bridges2.psc.edu
Date:   Fri Mar 10 19:25:15 2023
Arch:   x86_64
Pid:    39349
CWD:    /jet/home/vazumah/Calcs/LiMEAS/proton_donors/propan_1_ol_x/bridge/0.0_1.617/N2_z
Python: 3.11.0
gpaw:   /jet/home/vazumah/.conda/envs/GPAW_mpich/lib/python3.11/site-packages/gpaw
_gpaw:  /jet/home/vazumah/.conda/envs/GPAW_mpich/lib/python3.11/site-packages/
        _gpaw.cpython-311-x86_64-linux-gnu.so
ase:    /jet/home/vazumah/.conda/envs/GPAW_mpich/lib/python3.11/site-packages/ase (version 3.22.1)
numpy:  /jet/home/vazumah/.conda/envs/GPAW_mpich/lib/python3.11/site-packages/numpy (version 1.24.2)
scipy:  /jet/home/vazumah/.conda/envs/GPAW_mpich/lib/python3.11/site-packages/scipy (version 1.10.1)
libxc:  5.2.3
units:  Angstrom and eV
cores: 128
OpenMP: True
OMP_NUM_THREADS: 1

Input parameters:
  h: 0.16
  kpts: {size: [4, 4, 1]}
  occupations: {name: fermi-dirac,
                width: 0.05}
  poissonsolver: {dipolelayer: xy}
  xc: BEEF-vdW

System changes: positions, numbers, cell, pbc, initial_charges, initial_magmoms 

Initialize ...

species:
  Li:
    name: Lithium
    id: 830b4218f175192f93f959cfc0aad614
    Z: 3.0
    valence: 1
    core: 2
    charge: 0.0
    file: /jet/home/vazumah/datasets/gpaw-setups-0.9.20000/Li.PBE.gz
    compensation charges: {type: gauss,
                           rc: 0.33,
                           lmax: 2}
    cutoffs: {filter: 1.91,
              core: 2.55}
    valence states:
      #              energy  rcut
      - 2s(1.00)    -2.874   1.058
      - 2p(0.00)    -1.090   1.058
      -  s          24.337   1.058
  
    # Using partial waves for Li as LCAO basis

  O:
    name: Oxygen
    id: 32ecd46bf208036f09c70b0ec9a88b78
    Z: 8.0
    valence: 6
    core: 2
    charge: 0.0
    file: /jet/home/vazumah/datasets/gpaw-setups-0.9.20000/O.PBE.gz
    compensation charges: {type: gauss,
                           rc: 0.21,
                           lmax: 2}
    cutoffs: {filter: 1.17,
              core: 0.83}
    valence states:
      #              energy  rcut
      - 2s(2.00)   -23.961   0.688
      - 2p(4.00)    -9.029   0.598
      -  s           3.251   0.688
      -  p          18.182   0.598
      -  d           0.000   0.619
  
    # Using partial waves for O as LCAO basis

  C:
    name: Carbon
    id: 4aa54d4b901d75f77cc0ea3eec22967b
    Z: 6.0
    valence: 4
    core: 2
    charge: 0.0
    file: /jet/home/vazumah/datasets/gpaw-setups-0.9.20000/C.PBE.gz
    compensation charges: {type: gauss,
                           rc: 0.20,
                           lmax: 2}
    cutoffs: {filter: 1.14,
              core: 1.14}
    valence states:
      #              energy  rcut
      - 2s(2.00)   -13.751   0.635
      - 2p(2.00)    -5.284   0.635
      -  s          13.461   0.635
      -  p          21.927   0.635
      -  d           0.000   0.635
  
    # Using partial waves for C as LCAO basis

  H:
    name: Hydrogen
    id: d65de229564ff8ea4db303e23b6d1ecf
    Z: 1.0
    valence: 1
    core: 0
    charge: 0.0
    file: /jet/home/vazumah/datasets/gpaw-setups-0.9.20000/H.PBE.gz
    compensation charges: {type: gauss,
                           rc: 0.15,
                           lmax: 2}
    cutoffs: {filter: 0.85,
              core: 0.53}
    valence states:
      #              energy  rcut
      - 1s(1.00)    -6.494   0.476
      -  s          20.717   0.476
      -  p           0.000   0.476
  
    # Using partial waves for H as LCAO basis

  N:
    name: Nitrogen
    id: f7500608b86eaa90eef8b1d9a670dc53
    Z: 7.0
    valence: 5
    core: 2
    charge: 0.0
    file: /jet/home/vazumah/datasets/gpaw-setups-0.9.20000/N.PBE.gz
    compensation charges: {type: gauss,
                           rc: 0.18,
                           lmax: 2}
    cutoffs: {filter: 1.11,
              core: 0.96}
    valence states:
      #              energy  rcut
      - 2s(2.00)   -18.583   0.603
      - 2p(3.00)    -7.089   0.529
      -  s           8.629   0.603
      -  p          20.123   0.529
      -  d           0.000   0.577
  
    # Using partial waves for N as LCAO basis

Reference energy: -15487.462483  # eV

Spin-paired calculation

Convergence criteria:
 Maximum [total energy] change in last 3 cyles: 0.0005 eV / electron
 Maximum integral of absolute [dens]ity change: 0.0001 electrons / valence electron
 Maximum integral of absolute [eigenst]ate change: 4e-08 eV^2 / valence electron
 Maximum number of scf [iter]ations: 333
 (Square brackets indicate name in SCF output, whereas a 'c' in
 the SCF output indicates the quantity has converged.)

Symmetries present (total): 1

  ( 1  0  0)
  ( 0  1  0)
  ( 0  0  1)

16 k-points: 4 x 4 x 1 Monkhorst-Pack grid
8 k-points in the irreducible part of the Brillouin zone
       k-points in crystal coordinates                weights
   0:     0.12500000   -0.37500000    0.00000000          2/16
   1:     0.12500000   -0.12500000    0.00000000          2/16
   2:     0.12500000    0.12500000    0.00000000          2/16
   3:     0.12500000    0.37500000    0.00000000          2/16
   4:     0.37500000   -0.37500000    0.00000000          2/16
   5:     0.37500000   -0.12500000    0.00000000          2/16
   6:     0.37500000    0.12500000    0.00000000          2/16
   7:     0.37500000    0.37500000    0.00000000          2/16

Wave functions: Uniform real-space grid
  Kinetic energy operator: 6*3+1=19 point O(h^6) finite-difference Laplacian
  ScaLapack parameters: grid=1x1, blocksize=None
  Wavefunction extrapolation:
    Improved wavefunction reuse through dual PAW basis 

Occupation numbers: Fermi-Dirac:
  width: 0.0500  # eV
 

Eigensolver
   Davidson(niter=2) 

Densities:
  Coarse grid: 60*60*168 grid
  Fine grid: 120*120*336 grid
  Total Charge: 0.000000 

Density mixing:
  Method: separate
  Backend: pulay
  Linear mixing parameter: 0.05
  old densities: 5
  Damping of long wavelength oscillations: 50 

Hamiltonian:
  XC and Coulomb potentials evaluated on a 120*120*336 grid
  Using the BEEF-vdW Exchange-Correlation functional
  Interpolation: tri-quintic (5. degree polynomial)
  Poisson solver: FastPoissonSolver using
    Stencil: 6*3+1=19 point O(h^6) finite-difference Laplacian
    FFT axes: [0, 1]
    FST axes: [2]

Dipole correction along z-axis 

XC parameters: BEEF-vdW with 2 nearest neighbor stencil

Memory estimate:
  Process memory now: 130.45 MiB
  Calculator: 86.79 MiB
    Density: 23.03 MiB
      Arrays: 7.40 MiB
      Localized functions: 12.82 MiB
      Mixer: 2.82 MiB
    Hamiltonian: 5.85 MiB
      Arrays: 4.84 MiB
      XC: 0.00 MiB
      Poisson: 0.00 MiB
      vbar: 1.01 MiB
    Wavefunctions: 57.90 MiB
      Arrays psit_nG: 27.03 MiB
      Eigensolver: 30.19 MiB
      Projections: 0.01 MiB
      Projectors: 0.67 MiB

Total number of cores used: 128
Parallelization over k-points: 8
Domain decomposition: 2 x 2 x 4

Number of atoms: 50
Number of atomic orbitals: 176
Number of bands in calculation: 48
Number of valence electrons: 72
Bands to converge: occupied

... initialized

Initializing position-dependent things.

Density initialized from atomic densities
Creating initial wave functions:
  48 bands from LCAO basis set

       .-----------------------.  
      /|                       |  
     / |                       |  
    /  |                       |  
   /   |                       |  
  /    |                       |  
 *     |                       |  
 |     |                       |  
 |     |                       |  
 |     |                       |  
 |     |                       |  
 |     |                       |  
 |    H|    H                  |  
 |    CH    C                  |  
 |O   H|C   HH                 |  
 |N    H                  H    |  
 |   Li|     Li      Li        |  
 |N    |  Li      Li      Li   |  
 | Li  |   Li      Li          |  
 |     |Li      Li      Li     |  
 Li    | Li      Li            |  
 |   LLi     LLi     LLi       |  
 |     |  Li      Li      Li   |  
 | Li  |   Li      Li          |  
 |     |Li      Li      Li     |  
 Li    | Li      Li            |  
 |    Li      Li      Li       |  
 |     |                       |  
 |     |                       |  
 |     |                       |  
 |     |                       |  
 |     |                       |  
 |     |                       |  
 |     .-----------------------.  
 |    /                       /   
 |   /                       /    
 |  /                       /     
 | /                       /      
 |/                       /       
 *-----------------------*        

Positions:
   0 Li     1.617037    1.617037   10.000000    ( 0.0000,  0.0000,  0.0000)
   1 Li     4.851111    1.617037   10.000000    ( 0.0000,  0.0000,  0.0000)
   2 Li     8.085185    1.617037   10.000000    ( 0.0000,  0.0000,  0.0000)
   3 Li     1.617037    4.851111   10.000000    ( 0.0000,  0.0000,  0.0000)
   4 Li     4.851111    4.851111   10.000000    ( 0.0000,  0.0000,  0.0000)
   5 Li     8.085185    4.851111   10.000000    ( 0.0000,  0.0000,  0.0000)
   6 Li     1.617037    8.085185   10.000000    ( 0.0000,  0.0000,  0.0000)
   7 Li     4.851111    8.085185   10.000000    ( 0.0000,  0.0000,  0.0000)
   8 Li     8.085185    8.085185   10.000000    ( 0.0000,  0.0000,  0.0000)
   9 Li     0.000000    0.000000   11.617037    ( 0.0000,  0.0000,  0.0000)
  10 Li     3.234074    0.000000   11.617037    ( 0.0000,  0.0000,  0.0000)
  11 Li     6.468148    0.000000   11.617037    ( 0.0000,  0.0000,  0.0000)
  12 Li     0.000000    3.234074   11.617037    ( 0.0000,  0.0000,  0.0000)
  13 Li     3.234074    3.234074   11.617037    ( 0.0000,  0.0000,  0.0000)
  14 Li     6.468148    3.234074   11.617037    ( 0.0000,  0.0000,  0.0000)
  15 Li     0.000000    6.468148   11.617037    ( 0.0000,  0.0000,  0.0000)
  16 Li     3.234074    6.468148   11.617037    ( 0.0000,  0.0000,  0.0000)
  17 Li     6.468148    6.468148   11.617037    ( 0.0000,  0.0000,  0.0000)
  18 Li     1.617038    1.617038   13.469728    ( 0.0000,  0.0000,  0.0000)
  19 Li     4.851111    1.617038   13.469729    ( 0.0000,  0.0000,  0.0000)
  20 Li     8.085184    1.617038   13.469728    ( 0.0000,  0.0000,  0.0000)
  21 Li     1.617038    4.851111   13.469729    ( 0.0000,  0.0000,  0.0000)
  22 Li     4.851111    4.851111   13.469730    ( 0.0000,  0.0000,  0.0000)
  23 Li     8.085184    4.851111   13.469729    ( 0.0000,  0.0000,  0.0000)
  24 Li     1.617038    8.085184   13.469728    ( 0.0000,  0.0000,  0.0000)
  25 Li     4.851111    8.085184   13.469729    ( 0.0000,  0.0000,  0.0000)
  26 Li     8.085184    8.085184   13.469728    ( 0.0000,  0.0000,  0.0000)
  27 Li    -0.000000   -0.000000   15.445939    ( 0.0000,  0.0000,  0.0000)
  28 Li     3.234074    0.000000   15.445939    ( 0.0000,  0.0000,  0.0000)
  29 Li     6.468148    0.000000   15.445939    ( 0.0000,  0.0000,  0.0000)
  30 Li     0.000000    3.234074   15.445939    ( 0.0000,  0.0000,  0.0000)
  31 Li     3.234076    3.234076   15.445938    ( 0.0000,  0.0000,  0.0000)
  32 Li     6.468146    3.234076   15.445938    ( 0.0000,  0.0000,  0.0000)
  33 Li     0.000000    6.468148   15.445939    ( 0.0000,  0.0000,  0.0000)
  34 Li     3.234076    6.468146   15.445938    ( 0.0000,  0.0000,  0.0000)
  35 Li     6.468146    6.468146   15.445938    ( 0.0000,  0.0000,  0.0000)
  36 O      0.000000    1.617037   19.645939    ( 0.0000,  0.0000,  0.0000)
  37 C      2.434249    1.229416   19.645810    ( 0.0000,  0.0000,  0.0000)
  38 C      1.292060    2.239826   19.635257    ( 0.0000,  0.0000,  0.0000)
  39 C      3.814584    1.891829   19.652171    ( 0.0000,  0.0000,  0.0000)
  40 H      2.315636    0.586566   20.523111    ( 0.0000,  0.0000,  0.0000)
  41 H      2.340335    0.587658   18.760130    ( 0.0000,  0.0000,  0.0000)
  42 H      1.315868    2.859769   20.535148    ( 0.0000,  0.0000,  0.0000)
  43 H      1.385642    2.906729   18.767482    ( 0.0000,  0.0000,  0.0000)
  44 H      3.948121    2.517909   20.537849    ( 0.0000,  0.0000,  0.0000)
  45 H      4.611865    1.147054   19.652977    ( 0.0000,  0.0000,  0.0000)
  46 H      3.956133    2.527345   18.773910    ( 0.0000,  0.0000,  0.0000)
  47 H     -0.048762    1.039479   18.874628    ( 0.0000,  0.0000,  0.0000)
  48 N      0.000000    1.617000   17.195939    ( 0.0000,  0.0000,  0.0000)
  49 N      0.000000    1.617000   18.292561    ( 0.0000,  0.0000,  0.0000)

Unit cell:
           periodic     x           y           z      points  spacing
  1. axis:    yes    9.702222    0.000000    0.000000    60     0.1617
  2. axis:    yes    0.000000    9.702222    0.000000    60     0.1617
  3. axis:    no     0.000000    0.000000   26.601111   168     0.1583

  Lengths:   9.702222   9.702222  26.601111
  Angles:   90.000000  90.000000  90.000000

Effective grid spacing dv^(1/3) = 0.1606

     iter     time        total  log10-change:
                         energy  eigst   dens
iter:   1 19:25:31  -673.444297
iter:   2 19:25:38    12.809886  +2.65  +0.04
iter:   3 19:25:46    23.813047  +3.33  -0.13
iter:   4 19:25:53  -185.449769  +3.17  -0.22
Writing to output.gpw (mode='')

iter:   5 19:26:01  -246.826701  +2.90  -0.24
iter:   6 19:26:08  -311.763595  +2.57  -0.54
iter:   7 19:26:16  -341.991931  +2.24  -0.59
iter:   8 19:26:23  -390.840032  +2.07  -0.57
iter:   9 19:26:32  -332.992427  +1.52  -0.44
Writing to output.gpw (mode='')

iter:  10 19:26:45  -330.708729  +1.22  -0.76
iter:  11 19:26:58  -325.432377  +0.98  -0.78
iter:  12 19:27:12  -325.871599  +1.52  -0.82
iter:  13 19:27:21  -324.076733  +1.13  -0.74
iter:  14 19:27:29  -321.015959  +0.49  -0.78
Writing to output.gpw (mode='')

iter:  15 19:27:37  -320.485921  +0.27  -0.94
iter:  16 19:27:44  -319.556345  +0.47  -0.99
iter:  17 19:27:52  -319.726270  +0.72  -1.11
iter:  18 19:28:05  -319.531125  +0.18  -1.13
iter:  19 19:28:14  -319.237611  +0.25  -1.24
Writing to output.gpw (mode='')

iter:  20 19:28:21  -319.104028  -0.35  -1.42
iter:  21 19:28:29  -319.169263  -0.49  -1.54
iter:  22 19:28:37  -319.211852  -0.49  -1.59
iter:  23 19:28:44  -319.243021  -0.42  -1.70
iter:  24 19:28:52  -319.232485c -0.65  -1.80
Writing to output.gpw (mode='')

iter:  25 19:28:59  -319.254829c -0.97  -1.99
iter:  26 19:29:07  -319.264910c -1.18  -2.10
iter:  27 19:29:14  -319.275944c -1.26  -2.11
iter:  28 19:29:22  -319.292086c -1.12  -2.13
iter:  29 19:29:29  -319.297922c -1.47  -2.07
Writing to output.gpw (mode='')

iter:  30 19:29:37  -319.302765c -1.17  -2.12
iter:  31 19:29:44  -319.314030c -1.35  -2.09
iter:  32 19:29:52  -319.321567c -1.42  -2.06
iter:  33 19:29:59  -319.331078c -1.52  -2.08
iter:  34 19:30:07  -319.331951c -1.93  -2.07
Writing to output.gpw (mode='')

iter:  35 19:30:14  -319.328478c -1.88  -2.09
iter:  36 19:30:22  -319.330975c -1.99  -2.29
iter:  37 19:30:30  -319.331736c -1.98  -2.36
iter:  38 19:30:37  -319.332222c -2.41  -2.37
iter:  39 19:30:44  -319.332245c -2.22  -2.39
Writing to output.gpw (mode='')

iter:  40 19:30:52  -319.331634c -2.27  -2.45
iter:  41 19:31:00  -319.331823c -2.33  -2.62
iter:  42 19:31:07  -319.332207c -2.60  -2.68
iter:  43 19:31:14  -319.332752c -2.48  -2.71
iter:  44 19:31:22  -319.332890c -2.65  -2.85
Writing to output.gpw (mode='')

iter:  45 19:31:30  -319.333079c -2.93  -2.89
iter:  46 19:31:37  -319.333417c -2.77  -3.00
iter:  47 19:31:44  -319.333555c -3.13  -3.11
iter:  48 19:31:52  -319.333819c -2.95  -3.13
iter:  49 19:32:00  -319.333891c -3.21  -3.03
Writing to output.gpw (mode='')

iter:  50 19:32:07  -319.333976c -3.44  -3.15
iter:  51 19:32:14  -319.334062c -3.41  -3.14
iter:  52 19:32:22  -319.334177c -3.28  -3.18
iter:  53 19:32:30  -319.334188c -3.48  -3.11
iter:  54 19:32:37  -319.334234c -3.68  -3.39
Writing to output.gpw (mode='')

iter:  55 19:32:45  -319.334278c -3.66  -3.50
iter:  56 19:32:52  -319.334323c -3.73  -3.64
iter:  57 19:33:05  -319.334360c -3.68  -3.67
iter:  58 19:33:14  -319.334402c -3.64  -3.69
iter:  59 19:33:21  -319.334429c -3.87  -3.81
Writing to output.gpw (mode='')

iter:  60 19:33:29  -319.334448c -4.02  -3.83
iter:  61 19:33:37  -319.334465c -4.03  -3.90
iter:  62 19:33:44  -319.334488c -4.13  -3.94
iter:  63 19:33:52  -319.334498c -4.23  -4.13c
iter:  64 19:33:59  -319.334507c -4.26  -4.14c
Writing to output.gpw (mode='')

iter:  65 19:34:07  -319.334515c -4.47  -4.15c
iter:  66 19:34:14  -319.334521c -4.52  -4.20c
iter:  67 19:34:22  -319.334527c -4.51  -4.32c
iter:  68 19:34:29  -319.334531c -4.59  -4.29c
iter:  69 19:34:37  -319.334536c -4.66  -4.38c
Writing to output.gpw (mode='')

iter:  70 19:34:44  -319.334542c -4.66  -4.56c
iter:  71 19:34:52  -319.334545c -4.80  -4.71c
iter:  72 19:34:59  -319.334548c -4.96  -4.75c
iter:  73 19:35:07  -319.334550c -4.80  -4.73c
iter:  74 19:35:14  -319.334552c -5.04  -4.56c
Writing to output.gpw (mode='')

iter:  75 19:35:22  -319.334554c -5.04  -4.71c
iter:  76 19:35:30  -319.334555c -5.27  -4.75c
iter:  77 19:35:37  -319.334556c -5.23  -4.64c
iter:  78 19:35:44  -319.334557c -5.24  -4.66c
iter:  79 19:35:52  -319.334558c -5.20  -4.81c
Writing to output.gpw (mode='')

iter:  80 19:36:00  -319.334559c -5.26  -4.91c
iter:  81 19:36:07  -319.334560c -5.22  -5.05c
iter:  82 19:36:14  -319.334560c -5.37  -5.10c
iter:  83 19:36:22  -319.334561c -5.56  -5.22c
iter:  84 19:36:30  -319.334561c -5.64  -5.10c
Writing to output.gpw (mode='')

iter:  85 19:36:37  -319.334561c -5.64  -5.26c
iter:  86 19:36:44  -319.334562c -5.64  -5.30c
iter:  87 19:36:52  -319.334562c -5.77  -5.35c
iter:  88 19:37:00  -319.334562c -5.92  -5.44c
iter:  89 19:37:07  -319.334562c -5.95  -5.46c
Writing to output.gpw (mode='')

iter:  90 19:37:14  -319.334562c -5.99  -5.55c
iter:  91 19:37:22  -319.334562c -6.01  -5.64c
iter:  92 19:37:30  -319.334562c -5.97  -5.70c
iter:  93 19:37:37  -319.334562c -6.09  -5.78c
iter:  94 19:37:44  -319.334562c -6.13  -5.85c
Writing to output.gpw (mode='')

iter:  95 19:37:52  -319.334562c -6.16  -5.96c
iter:  96 19:38:05  -319.334562c -6.19  -6.05c
iter:  97 19:38:14  -319.334562c -6.26  -6.07c
iter:  98 19:38:22  -319.334562c -6.42  -6.00c
iter:  99 19:38:29  -319.334562c -6.44  -5.75c
Writing to output.gpw (mode='')

iter: 100 19:38:37  -319.334562c -6.46  -5.69c
iter: 101 19:38:44  -319.334562c -6.53  -5.72c
iter: 102 19:38:52  -319.334562c -6.44  -5.69c
iter: 103 19:39:00  -319.334562c -6.65  -5.65c
iter: 104 19:39:07  -319.334562c -6.68  -5.51c
Writing to output.gpw (mode='')

iter: 105 19:39:14  -319.334562c -6.78  -5.91c
iter: 106 19:39:24  -319.334562c -6.82  -5.87c
iter: 107 19:39:32  -319.334562c -6.87  -5.71c
iter: 108 19:39:39  -319.334562c -6.78  -5.56c
iter: 109 19:39:47  -319.334562c -6.95  -5.53c
Writing to output.gpw (mode='')

iter: 110 19:39:54  -319.334562c -7.02  -5.83c
iter: 111 19:40:02  -319.334562c -6.98  -5.51c
iter: 112 19:40:09  -319.334562c -7.20  -5.99c
iter: 113 19:40:17  -319.334562c -7.08  -5.86c
iter: 114 19:40:24  -319.334562c -7.13  -6.16c
Writing to output.gpw (mode='')

iter: 115 19:40:32  -319.334562c -7.18  -6.21c
iter: 116 19:40:39  -319.334562c -7.25  -6.20c
iter: 117 19:40:47  -319.334562c -7.30  -6.17c
iter: 118 19:40:54  -319.334562c -7.41c -6.02c

Converged after 118 iterations.

Dipole moment: (-15.957039, -5.457901, 0.358101) |e|*Ang

Energy contributions relative to reference atoms: (reference = -15487.462483)

Kinetic:       +221.641945
Potential:     -194.122810
External:        +0.000000
XC:            -347.563625
Entropy (-ST):   -0.144232
Local:           +0.782043
--------------------------
Free energy:   -319.406678
Extrapolated:  -319.334562

Dipole-layer corrected work functions: 3.374336, 2.685943 eV

Showing only first 2 kpts
 Kpt  Band  Eigenvalues  Occupancy
  0    34     -3.27408    1.98490
  0    35     -3.16035    1.86228
  0    36     -2.90469    0.15047
  0    37     -2.77320    0.01166

  1    34     -3.10008    1.60397
  1    35     -3.02770    0.97564
  1    36     -2.99326    0.64709
  1    37     -2.91407    0.17873


Fermi level: -3.03014

No gap
Writing to output.gpw (mode='')


Forces in eV/Ang:
  0 Li    0.00928   -0.00201   -0.27386
  1 Li    0.00093    0.00156   -0.26281
  2 Li   -0.00976   -0.00256   -0.27361
  3 Li    0.00700    0.00757   -0.27401
  4 Li   -0.00161    0.00186   -0.27584
  5 Li   -0.00641    0.00599   -0.27160
  6 Li    0.00329   -0.00677   -0.26981
  7 Li   -0.00108   -0.00373   -0.28316
  8 Li   -0.00325   -0.00471   -0.26952
  9 Li   -0.00036    0.00774    0.30376
 10 Li    0.01337   -0.00619    0.25782
 11 Li   -0.01393   -0.00531    0.25994
 12 Li    0.00091   -0.01462    0.32320
 13 Li    0.01377    0.00451    0.25777
 14 Li   -0.01582    0.00441    0.25790
 15 Li    0.00046    0.00787    0.24730
 16 Li   -0.01932    0.00333    0.26547
 17 Li    0.02029    0.00268    0.26427
 18 Li    0.05531   -0.00318   -0.07754
 19 Li   -0.00223    0.00275    0.05394
 20 Li   -0.05389   -0.00122   -0.07412
 21 Li   -0.01475   -0.00664    0.02730
 22 Li    0.00015    0.00452    0.03948
 23 Li    0.01560   -0.00841    0.02795
 24 Li   -0.01337    0.01721    0.05085
 25 Li    0.00233   -0.00716    0.02489
 26 Li    0.01275    0.01386    0.04426
 27 Li   -0.00994    0.24775    0.29484
 28 Li    0.03872   -0.02741   -0.05080
 29 Li   -0.02361   -0.01212   -0.02089
 30 Li    0.02687   -0.32205    0.44922
 31 Li    0.01994    0.01698   -0.04068
 32 Li   -0.03002    0.00826   -0.01929
 33 Li    0.00547    0.01675   -0.02238
 34 Li   -0.00145    0.00288   -0.01058
 35 Li   -0.00484    0.00093   -0.01763
 36 O     1.07978   14.26467   23.25899
 37 C    -0.11229   -0.37224   -0.09100
 38 C     3.01778    1.88412    3.10539
 39 C    -0.09080    0.19980    0.06054
 40 H     0.04083   -0.03900   -0.00710
 41 H     0.10829   -0.04537    0.07617
 42 H     0.32827    0.11282   -0.01100
 43 H     0.01726    0.16907    0.28293
 44 H    -0.01436    0.00772    0.01965
 45 H    -0.06730   -0.06136   -0.04068
 46 H    -0.00062   -0.03558   -0.02499
 47 H    -1.84146  -22.35953    0.07891
 48 N     0.33371    5.96234  -15.39787
 49 N    -2.79863    0.31968  -11.96872

System changes: positions 

Initializing position-dependent things.

Density initialized from wave functions
       .-----------------------.  
      /|                       |  
     / |                       |  
    /  |                       |  
   /   |                       |  
  /    |                       |  
 *     |                       |  
 |     |                       |  
 |     |                       |  
 |     |                       |  
 |     |                       |  
 |     |                       |  
 |    H|    H                  |  
 |    CH    C                  |  
 |O   H|C   HH Li      Li      |  
 |     H                 HN    |  
 |   Li|     Li      Li        |  
 |N    |  Li      Li      Li   |  
 | Li  |   Li      Li          |  
 |     |Li      Li      Li     |  
 |     |                 Li    |  
 |   LLi     LLi     LLi       |  
 |     |  Li      Li      Li   |  
 | Li  |   Li      Li          |  
 |     |Li      Li      Li     |  
 Li    | Li      Li            |  
 |    Li      Li      Li       |  
 |     |                       |  
 |     |                       |  
 |     |                       |  
 |     |                       |  
 |     |                       |  
 |     |                       |  
 |     .-----------------------.  
 |    /                       /   
 |   /                       /    
 |  /                       /     
 | /                       /      
 |/                       /       
 *-----------------------*        

Positions:
   0 Li     1.617037    1.617037   10.000000    ( 0.0000,  0.0000,  0.0000)
   1 Li     4.851111    1.617037   10.000000    ( 0.0000,  0.0000,  0.0000)
   2 Li     8.085185    1.617037   10.000000    ( 0.0000,  0.0000,  0.0000)
   3 Li     1.617037    4.851111   10.000000    ( 0.0000,  0.0000,  0.0000)
   4 Li     4.851111    4.851111   10.000000    ( 0.0000,  0.0000,  0.0000)
   5 Li     8.085185    4.851111   10.000000    ( 0.0000,  0.0000,  0.0000)
   6 Li     1.617037    8.085185   10.000000    ( 0.0000,  0.0000,  0.0000)
   7 Li     4.851111    8.085185   10.000000    ( 0.0000,  0.0000,  0.0000)
   8 Li     8.085185    8.085185   10.000000    ( 0.0000,  0.0000,  0.0000)
   9 Li     0.000000    0.000000   11.617037    ( 0.0000,  0.0000,  0.0000)
  10 Li     3.234074    0.000000   11.617037    ( 0.0000,  0.0000,  0.0000)
  11 Li     6.468148    0.000000   11.617037    ( 0.0000,  0.0000,  0.0000)
  12 Li     0.000000    3.234074   11.617037    ( 0.0000,  0.0000,  0.0000)
  13 Li     3.234074    3.234074   11.617037    ( 0.0000,  0.0000,  0.0000)
  14 Li     6.468148    3.234074   11.617037    ( 0.0000,  0.0000,  0.0000)
  15 Li     0.000000    6.468148   11.617037    ( 0.0000,  0.0000,  0.0000)
  16 Li     3.234074    6.468148   11.617037    ( 0.0000,  0.0000,  0.0000)
  17 Li     6.468148    6.468148   11.617037    ( 0.0000,  0.0000,  0.0000)
  18 Li     1.617119    1.617033   13.469614    ( 0.0000,  0.0000,  0.0000)
  19 Li     4.851108    1.617042   13.469808    ( 0.0000,  0.0000,  0.0000)
  20 Li     8.085105    1.617036   13.469619    ( 0.0000,  0.0000,  0.0000)
  21 Li     1.617017    4.851101   13.469769    ( 0.0000,  0.0000,  0.0000)
  22 Li     4.851111    4.851118   13.469788    ( 0.0000,  0.0000,  0.0000)
  23 Li     8.085206    4.851099   13.469770    ( 0.0000,  0.0000,  0.0000)
  24 Li     1.617019    8.085209   13.469802    ( 0.0000,  0.0000,  0.0000)
  25 Li     4.851114    8.085173   13.469766    ( 0.0000,  0.0000,  0.0000)
  26 Li     8.085203    8.085204   13.469793    ( 0.0000,  0.0000,  0.0000)
  27 Li    -0.000015    0.000363   15.446371    ( 0.0000,  0.0000,  0.0000)
  28 Li     3.234130   -0.000040   15.445864    ( 0.0000,  0.0000,  0.0000)
  29 Li     6.468114   -0.000018   15.445908    ( 0.0000,  0.0000,  0.0000)
  30 Li     0.000039    3.233602   15.446597    ( 0.0000,  0.0000,  0.0000)
  31 Li     3.234106    3.234101   15.445878    ( 0.0000,  0.0000,  0.0000)
  32 Li     6.468102    3.234089   15.445910    ( 0.0000,  0.0000,  0.0000)
  33 Li     0.000008    6.468173   15.445906    ( 0.0000,  0.0000,  0.0000)
  34 Li     3.234074    6.468150   15.445923    ( 0.0000,  0.0000,  0.0000)
  35 Li     6.468138    6.468147   15.445912    ( 0.0000,  0.0000,  0.0000)
  36 O      0.001582    1.637933   19.680011    ( 0.0000,  0.0000,  0.0000)
  37 C      2.434084    1.228871   19.645676    ( 0.0000,  0.0000,  0.0000)
  38 C      1.296481    2.242586   19.639806    ( 0.0000,  0.0000,  0.0000)
  39 C      3.814451    1.892122   19.652260    ( 0.0000,  0.0000,  0.0000)
  40 H      2.315696    0.586509   20.523100    ( 0.0000,  0.0000,  0.0000)
  41 H      2.340493    0.587592   18.760242    ( 0.0000,  0.0000,  0.0000)
  42 H      1.316348    2.859934   20.535132    ( 0.0000,  0.0000,  0.0000)
  43 H      1.385668    2.906976   18.767897    ( 0.0000,  0.0000,  0.0000)
  44 H      3.948100    2.517920   20.537878    ( 0.0000,  0.0000,  0.0000)
  45 H      4.611767    1.146964   19.652917    ( 0.0000,  0.0000,  0.0000)
  46 H      3.956132    2.527293   18.773873    ( 0.0000,  0.0000,  0.0000)
  47 H     -0.051459    1.006725   18.874743    ( 0.0000,  0.0000,  0.0000)
  48 N      0.000489    1.625734   17.173383    ( 0.0000,  0.0000,  0.0000)
  49 N     -0.004100    1.617468   18.275029    ( 0.0000,  0.0000,  0.0000)

Unit cell:
           periodic     x           y           z      points  spacing
  1. axis:    yes    9.702222    0.000000    0.000000    60     0.1617
  2. axis:    yes    0.000000    9.702222    0.000000    60     0.1617
  3. axis:    no     0.000000    0.000000   26.601111   168     0.1583

  Lengths:   9.702222   9.702222  26.601111
  Angles:   90.000000  90.000000  90.000000

Effective grid spacing dv^(1/3) = 0.1606

     iter     time        total  log10-change:
                         energy  eigst   dens
iter:   1 19:41:04  -322.323348  -0.39
iter:   2 19:41:11  -322.292791  -0.46  -1.31
iter:   3 19:41:19  -321.684536  -0.63  -1.23
iter:   4 19:41:27  -321.621493  -1.28  -1.65
Writing to output.gpw (mode='')

iter:   5 19:41:34  -321.599110  -1.08  -1.97
iter:   6 19:41:42  -321.596882c -1.51  -2.21
iter:   7 19:41:49  -321.596921c -1.56  -2.31
iter:   8 19:41:57  -321.594919c -2.18  -2.30
iter:   9 19:42:05  -321.594633c -2.25  -2.53
Writing to output.gpw (mode='')

iter:  10 19:42:12  -321.595156c -2.56  -2.73
iter:  11 19:42:20  -321.595205c -2.92  -2.66
iter:  12 19:42:27  -321.595204c -2.61  -2.67
iter:  13 19:42:35  -321.595123c -3.27  -2.80
iter:  14 19:42:42  -321.595039c -3.14  -2.88
Writing to output.gpw (mode='')

iter:  15 19:42:50  -321.595099c -3.47  -3.18
iter:  16 19:42:58  -321.595105c -3.93  -3.27
iter:  17 19:43:11  -321.595160c -3.85  -3.41
iter:  18 19:43:19  -321.595165c -4.11  -3.46
iter:  19 19:43:27  -321.595167c -4.10  -3.66
Writing to output.gpw (mode='')

iter:  20 19:43:34  -321.595170c -4.59  -3.77
iter:  21 19:43:42  -321.595168c -4.71  -3.78
iter:  22 19:43:49  -321.595167c -4.90  -4.01c
iter:  23 19:43:57  -321.595171c -4.87  -4.11c
iter:  24 19:44:05  -321.595173c -5.08  -4.15c
Writing to output.gpw (mode='')

iter:  25 19:44:12  -321.595175c -5.07  -4.20c
iter:  26 19:44:20  -321.595177c -5.26  -4.29c
iter:  27 19:44:27  -321.595179c -5.46  -4.32c
iter:  28 19:44:35  -321.595178c -5.40  -4.31c
iter:  29 19:44:42  -321.595180c -5.74  -4.37c
Writing to output.gpw (mode='')

iter:  30 19:44:50  -321.595180c -5.56  -4.46c
iter:  31 19:44:58  -321.595180c -5.71  -4.51c
iter:  32 19:45:05  -321.595180c -5.91  -4.57c
iter:  33 19:45:13  -321.595180c -6.28  -4.76c
iter:  34 19:45:21  -321.595181c -6.12  -4.81c
Writing to output.gpw (mode='')

iter:  35 19:45:28  -321.595181c -6.24  -4.90c
iter:  36 19:45:36  -321.595181c -6.37  -5.11c
iter:  37 19:45:43  -321.595181c -6.39  -5.11c
iter:  38 19:45:51  -321.595181c -6.40  -5.19c
iter:  39 19:45:59  -321.595181c -6.44  -5.44c
Writing to output.gpw (mode='')

iter:  40 19:46:06  -321.595181c -6.53  -5.62c
iter:  41 19:46:14  -321.595181c -6.91  -5.61c
iter:  42 19:46:22  -321.595181c -7.00  -5.60c
iter:  43 19:46:29  -321.595181c -7.10  -5.75c
iter:  44 19:46:37  -321.595181c -7.08  -5.80c
Writing to output.gpw (mode='')

iter:  45 19:46:44  -321.595181c -7.05  -5.87c
iter:  46 19:46:52  -321.595181c -7.29  -5.97c
iter:  47 19:47:00  -321.595181c -7.35  -6.02c
iter:  48 19:47:07  -321.595181c -7.27  -5.98c
iter:  49 19:47:15  -321.595181c -7.38  -5.79c
Writing to output.gpw (mode='')

iter:  50 19:47:22  -321.595181c -7.59c -5.73c

Converged after 50 iterations.

Dipole moment: (-15.669651, -5.371185, 0.251329) |e|*Ang

Energy contributions relative to reference atoms: (reference = -15487.462483)

Kinetic:       +215.347253
Potential:     -191.130814
External:        +0.000000
XC:            -346.512625
Entropy (-ST):   -0.144561
Local:           +0.773285
--------------------------
Free energy:   -321.667462
Extrapolated:  -321.595181

Dipole-layer corrected work functions: 3.380503, 2.897362 eV

Showing only first 2 kpts
 Kpt  Band  Eigenvalues  Occupancy
  0    34     -3.38342    1.98507
  0    35     -3.26876    1.86127
  0    36     -3.00802    0.13596
  0    37     -2.88190    0.01164

  1    34     -3.20709    1.59252
  1    35     -3.13402    0.95096
  1    36     -3.10736    0.69434
  1    37     -3.02490    0.18548


Fermi level: -3.13893

No gap

Forces in eV/Ang:
  0 Li    0.00967   -0.00194   -0.27395
  1 Li    0.00087    0.00159   -0.26275
  2 Li   -0.01013   -0.00278   -0.27365
  3 Li    0.00649    0.00782   -0.27337
  4 Li   -0.00147    0.00211   -0.27691
  5 Li   -0.00613    0.00651   -0.27113
  6 Li    0.00307   -0.00701   -0.27064
  7 Li   -0.00092   -0.00314   -0.28343
  8 Li   -0.00329   -0.00512   -0.27041
  9 Li   -0.00007    0.00914    0.30243
 10 Li    0.01464   -0.00567    0.25674
 11 Li   -0.01553   -0.00575    0.25800
 12 Li    0.00032   -0.01547    0.32142
 13 Li    0.01489    0.00497    0.25608
 14 Li   -0.01643    0.00471    0.25712
 15 Li    0.00046    0.00836    0.24516
 16 Li   -0.02068    0.00193    0.26559
 17 Li    0.02187    0.00262    0.26358
 18 Li    0.05690   -0.00275   -0.07714
 19 Li   -0.00199    0.00202    0.05446
 20 Li   -0.05545   -0.00203   -0.07376
 21 Li   -0.01708   -0.00886    0.03340
 22 Li    0.00100    0.00502    0.03821
 23 Li    0.01737   -0.00923    0.03233
 24 Li   -0.01335    0.01801    0.05064
 25 Li    0.00181   -0.00783    0.02614
 26 Li    0.01333    0.01523    0.04571
 27 Li   -0.00532    0.22201    0.24631
 28 Li    0.03879   -0.02716   -0.04965
 29 Li   -0.02481   -0.01384   -0.02447
 30 Li    0.02190   -0.32009    0.41724
 31 Li    0.02495    0.01876   -0.04239
 32 Li   -0.03322    0.01009   -0.02373
 33 Li    0.00504    0.01438   -0.02403
 34 Li   -0.00328    0.00183   -0.01079
 35 Li   -0.00277    0.00033   -0.01762
 36 O     0.76464   11.82053   20.01588
 37 C    -0.02584   -0.28820   -0.04925
 38 C     2.52056    1.61096    2.74369
 39 C    -0.07193    0.12993    0.05735
 40 H     0.04155   -0.04683   -0.00635
 41 H     0.09067   -0.05076    0.06710
 42 H     0.49161    0.26641    0.09014
 43 H     0.08819    0.17147    0.33149
 44 H    -0.01575    0.00933    0.01873
 45 H    -0.05477   -0.04676   -0.03570
 46 H    -0.00215   -0.02473   -0.02805
 47 H    -1.23849  -16.59796   -0.30555
 48 N     0.29639    5.83174  -13.08627
 49 N    -2.86265   -2.66795  -10.33139

System changes: positions 

Initializing position-dependent things.

Density initialized from wave functions
       .-----------------------.  
      /|                       |  
     / |                       |  
    /  |                       |  
   /   |                       |  
  /    |                       |  
 *     |                       |  
 |     |                       |  
 |     |                       |  
 |     |                       |  
 |     |                       |  
 |     |                       |  
 |    H|    H                  |  
 |    CH    C                  |  
 |O   H|C   HH Li      Li      |  
 |     H                 HN    |  
 |   Li|     Li      Li        |  
 |N    |  Li      Li      Li   |  
 | Li  |   Li      Li          |  
 |     |Li      Li      Li     |  
 |     |                 Li    |  
 |   LLi     LLi     LLi       |  
 |     |  Li      Li      Li   |  
 | Li  |   Li      Li          |  
 |     |Li      Li      Li     |  
 Li    | Li      Li            |  
 |    Li      Li      Li       |  
 |     |                       |  
 |     |                       |  
 |     |                       |  
 |     |                       |  
 |     |                       |  
 |     |                       |  
 |     .-----------------------.  
 |    /                       /   
 |   /                       /    
 |  /                       /     
 | /                       /      
 |/                       /       
 *-----------------------*        

Positions:
   0 Li     1.617037    1.617037   10.000000    ( 0.0000,  0.0000,  0.0000)
   1 Li     4.851111    1.617037   10.000000    ( 0.0000,  0.0000,  0.0000)
   2 Li     8.085185    1.617037   10.000000    ( 0.0000,  0.0000,  0.0000)
   3 Li     1.617037    4.851111   10.000000    ( 0.0000,  0.0000,  0.0000)
   4 Li     4.851111    4.851111   10.000000    ( 0.0000,  0.0000,  0.0000)
   5 Li     8.085185    4.851111   10.000000    ( 0.0000,  0.0000,  0.0000)
   6 Li     1.617037    8.085185   10.000000    ( 0.0000,  0.0000,  0.0000)
   7 Li     4.851111    8.085185   10.000000    ( 0.0000,  0.0000,  0.0000)
   8 Li     8.085185    8.085185   10.000000    ( 0.0000,  0.0000,  0.0000)
   9 Li     0.000000    0.000000   11.617037    ( 0.0000,  0.0000,  0.0000)
  10 Li     3.234074    0.000000   11.617037    ( 0.0000,  0.0000,  0.0000)
  11 Li     6.468148    0.000000   11.617037    ( 0.0000,  0.0000,  0.0000)
  12 Li     0.000000    3.234074   11.617037    ( 0.0000,  0.0000,  0.0000)
  13 Li     3.234074    3.234074   11.617037    ( 0.0000,  0.0000,  0.0000)
  14 Li     6.468148    3.234074   11.617037    ( 0.0000,  0.0000,  0.0000)
  15 Li     0.000000    6.468148   11.617037    ( 0.0000,  0.0000,  0.0000)
  16 Li     3.234074    6.468148   11.617037    ( 0.0000,  0.0000,  0.0000)
  17 Li     6.468148    6.468148   11.617037    ( 0.0000,  0.0000,  0.0000)
  18 Li     1.617288    1.617028   13.469401    ( 0.0000,  0.0000,  0.0000)
  19 Li     4.851104    1.617044   13.469964    ( 0.0000,  0.0000,  0.0000)
  20 Li     8.084940    1.617026   13.469415    ( 0.0000,  0.0000,  0.0000)
  21 Li     1.616955    4.851063   13.469901    ( 0.0000,  0.0000,  0.0000)
  22 Li     4.851119    4.851135   13.469887    ( 0.0000,  0.0000,  0.0000)
  23 Li     8.085266    4.851068   13.469888    ( 0.0000,  0.0000,  0.0000)
  24 Li     1.616981    8.085264   13.469943    ( 0.0000,  0.0000,  0.0000)
  25 Li     4.851116    8.085147   13.469847    ( 0.0000,  0.0000,  0.0000)
  26 Li     8.085243    8.085255   13.469930    ( 0.0000,  0.0000,  0.0000)
  27 Li    -0.000001    0.000824   15.446758    ( 0.0000,  0.0000,  0.0000)
  28 Li     3.234239   -0.000115   15.445733    ( 0.0000,  0.0000,  0.0000)
  29 Li     6.468037   -0.000067   15.445818    ( 0.0000,  0.0000,  0.0000)
  30 Li     0.000070    3.232719   15.447565    ( 0.0000,  0.0000,  0.0000)
  31 Li     3.234207    3.234165   15.445749    ( 0.0000,  0.0000,  0.0000)
  32 Li     6.467989    3.234128   15.445816    ( 0.0000,  0.0000,  0.0000)
  33 Li     0.000019    6.468198   15.445829    ( 0.0000,  0.0000,  0.0000)
  34 Li     3.234054    6.468148   15.445891    ( 0.0000,  0.0000,  0.0000)
  35 Li     6.468144    6.468144   15.445863    ( 0.0000,  0.0000,  0.0000)
  36 O      0.001759    1.655781   19.715808    ( 0.0000,  0.0000,  0.0000)
  37 C      2.434550    1.228588   19.645798    ( 0.0000,  0.0000,  0.0000)
  38 C      1.300436    2.245391   19.645228    ( 0.0000,  0.0000,  0.0000)
  39 C      3.814367    1.892050   19.652400    ( 0.0000,  0.0000,  0.0000)
  40 H      2.315816    0.586330   20.523087    ( 0.0000,  0.0000,  0.0000)
  41 H      2.340637    0.587416   18.760373    ( 0.0000,  0.0000,  0.0000)
  42 H      1.318740    2.861635   20.536013    ( 0.0000,  0.0000,  0.0000)
  43 H      1.386356    2.907471   18.769126    ( 0.0000,  0.0000,  0.0000)
  44 H      3.948047    2.517956   20.537925    ( 0.0000,  0.0000,  0.0000)
  45 H      4.611692    1.146924   19.652848    ( 0.0000,  0.0000,  0.0000)
  46 H      3.956117    2.527291   18.773776    ( 0.0000,  0.0000,  0.0000)
  47 H     -0.051170    0.996162   18.871496    ( 0.0000,  0.0000,  0.0000)
  48 N      0.001085    1.641232   17.151170    ( 0.0000,  0.0000,  0.0000)
  49 N     -0.012505    1.591412   18.256324    ( 0.0000,  0.0000,  0.0000)

Unit cell:
           periodic     x           y           z      points  spacing
  1. axis:    yes    9.702222    0.000000    0.000000    60     0.1617
  2. axis:    yes    0.000000    9.702222    0.000000    60     0.1617
  3. axis:    no     0.000000    0.000000   26.601111   168     0.1583

  Lengths:   9.702222   9.702222  26.601111
  Angles:   90.000000  90.000000  90.000000

Effective grid spacing dv^(1/3) = 0.1606

     iter     time        total  log10-change:
                         energy  eigst   dens
iter:   1 19:47:32  -323.401677  -0.65
iter:   2 19:47:39  -323.357056  -1.14  -1.93
iter:   3 19:47:47  -323.337119  -1.17  -1.86
iter:   4 19:47:54  -323.299592  -1.31  -1.79
Writing to output.gpw (mode='')

iter:   5 19:48:06  -323.296939  -2.17  -2.24
iter:   6 19:48:15  -323.295155c -1.83  -2.30
iter:   7 19:48:22  -323.290892c -2.15  -2.32
iter:   8 19:48:30  -323.290950c -2.68  -2.52
iter:   9 19:48:38  -323.290212c -2.68  -2.58
Writing to output.gpw (mode='')

iter:  10 19:48:45  -323.290129c -3.29  -2.83
iter:  11 19:48:53  -323.290112c -3.16  -2.91
iter:  12 19:49:00  -323.290499c -2.87  -2.95
iter:  13 19:49:08  -323.290291c -3.82  -2.90
iter:  14 19:49:16  -323.290119c -3.50  -3.01
Writing to output.gpw (mode='')

iter:  15 19:49:23  -323.290109c -4.09  -3.38
iter:  16 19:49:31  -323.290124c -4.35  -3.46
iter:  17 19:49:39  -323.290117c -4.39  -3.62
iter:  18 19:49:46  -323.290121c -4.59  -3.78
iter:  19 19:49:54  -323.290124c -4.92  -3.88
Writing to output.gpw (mode='')

iter:  20 19:50:01  -323.290129c -5.15  -3.97
iter:  21 19:50:09  -323.290134c -5.34  -3.96
iter:  22 19:50:16  -323.290135c -5.63  -4.07c
iter:  23 19:50:24  -323.290130c -5.67  -4.09c
iter:  24 19:50:31  -323.290133c -5.76  -4.33c
Writing to output.gpw (mode='')

iter:  25 19:50:39  -323.290131c -6.09  -4.46c
iter:  26 19:50:46  -323.290129c -5.90  -4.61c
iter:  27 19:50:54  -323.290131c -6.35  -4.54c
iter:  28 19:51:01  -323.290132c -6.33  -4.72c
iter:  29 19:51:09  -323.290132c -6.56  -4.93c
Writing to output.gpw (mode='')

iter:  30 19:51:16  -323.290132c -6.62  -4.96c
iter:  31 19:51:24  -323.290133c -6.69  -5.03c
iter:  32 19:51:31  -323.290133c -6.85  -5.15c
iter:  33 19:51:38  -323.290133c -7.13  -5.16c
iter:  34 19:51:46  -323.290133c -7.12  -5.32c
Writing to output.gpw (mode='')

iter:  35 19:51:53  -323.290133c -7.06  -5.39c
iter:  36 19:52:01  -323.290133c -7.16  -5.50c
iter:  37 19:52:08  -323.290133c -7.40c -5.58c

Converged after 37 iterations.

Dipole moment: (-14.902769, -5.289201, 0.156357) |e|*Ang

Energy contributions relative to reference atoms: (reference = -15487.462483)

Kinetic:       +211.001742
Potential:     -189.016926
External:        +0.000000
XC:            -345.978119
Entropy (-ST):   -0.142953
Local:           +0.774647
--------------------------
Free energy:   -323.361610
Extrapolated:  -323.290133

Dipole-layer corrected work functions: 3.386220, 3.085648 eV

Showing only first 2 kpts
 Kpt  Band  Eigenvalues  Occupancy
  0    34     -3.48066    1.98514
  0    35     -3.36670    1.86367
  0    36     -3.10005    0.12387
  0    37     -2.97846    0.01154

  1    34     -3.30209    1.57942
  1    35     -3.23022    0.94295
  1    36     -3.20555    0.70520
  1    37     -3.12250    0.18751


Fermi level: -3.23593

No gap
Writing to output.gpw (mode='')


Forces in eV/Ang:
  0 Li    0.01015   -0.00181   -0.27299
  1 Li    0.00082    0.00138   -0.26287
  2 Li   -0.01068   -0.00257   -0.27253
  3 Li    0.00587    0.00816   -0.27263
  4 Li   -0.00096    0.00273   -0.27839
  5 Li   -0.00606    0.00733   -0.27104
  6 Li    0.00306   -0.00736   -0.27131
  7 Li   -0.00046   -0.00291   -0.28372
  8 Li   -0.00377   -0.00600   -0.27131
  9 Li    0.00010    0.01096    0.30234
 10 Li    0.01556   -0.00556    0.25529
 11 Li   -0.01661   -0.00622    0.25556
 12 Li    0.00001   -0.01610    0.31902
 13 Li    0.01588    0.00515    0.25474
 14 Li   -0.01709    0.00498    0.25559
 15 Li    0.00068    0.00787    0.24226
 16 Li   -0.02330    0.00120    0.26611
 17 Li    0.02444    0.00229    0.26321
 18 Li    0.05804   -0.00251   -0.07417
 19 Li   -0.00128    0.00110    0.05299
 20 Li   -0.05676   -0.00218   -0.07110
 21 Li   -0.01897   -0.01149    0.03918
 22 Li    0.00139    0.00580    0.03597
 23 Li    0.01912   -0.01127    0.03744
 24 Li   -0.01427    0.01839    0.05071
 25 Li    0.00138   -0.00828    0.02765
 26 Li    0.01470    0.01636    0.04766
 27 Li   -0.00079    0.20229    0.20481
 28 Li    0.03709   -0.02437   -0.04802
 29 Li   -0.02667   -0.01416   -0.02987
 30 Li    0.01887   -0.32635    0.40076
 31 Li    0.02882    0.01854   -0.04332
 32 Li   -0.03407    0.01075   -0.02770
 33 Li    0.00418    0.01140   -0.02637
 34 Li   -0.00469    0.00092   -0.01077
 35 Li   -0.00066    0.00021   -0.01703
 36 O     0.64745    9.78101   16.93807
 37 C     0.00975   -0.22842   -0.00773
 38 C     1.96410    1.37389    2.38469
 39 C    -0.04719    0.09022    0.04868
 40 H     0.04706   -0.05311   -0.00533
 41 H     0.07887   -0.05067    0.05939
 42 H     0.64494    0.40628    0.18128
 43 H     0.10243    0.15336    0.35262
 44 H    -0.01717    0.00629    0.01447
 45 H    -0.03701   -0.04030   -0.03182
 46 H    -0.00386   -0.02075   -0.02430
 47 H    -0.99442  -14.66750    1.62219
 48 N     0.30956    5.52197  -10.62554
 49 N    -2.67271   -2.19685  -11.38171

System changes: positions 

Initializing position-dependent things.

Density initialized from wave functions
       .-----------------------.  
      /|                       |  
     / |                       |  
    /  |                       |  
   /   |                       |  
  /    |                       |  
 *     |                       |  
 |     |                       |  
 |     |                       |  
 |     |                       |  
 |     |                       |  
 |     |                       |  
 |    H|    H                  |  
 |O   CH    C                  |  
 |    H|C   HH Li      Li      |  
 |     H                 HN    |  
 |   Li|     Li      Li        |  
 |N    |  Li      Li      Li   |  
 | Li  |   Li      Li          |  
 |     |Li      Li      Li     |  
 Li    |                       |  
 |   LLi     LLi     LLi       |  
 |     |  Li      Li      Li   |  
 | Li  |   Li      Li          |  
 |     |Li      Li      Li     |  
 Li    | Li      Li            |  
 |    Li      Li      Li       |  
 |     |                       |  
 |     |                       |  
 |     |                       |  
 |     |                       |  
 |     |                       |  
 |     |                       |  
 |     .-----------------------.  
 |    /                       /   
 |   /                       /    
 |  /                       /     
 | /                       /      
 |/                       /       
 *-----------------------*        

Positions:
   0 Li     1.617037    1.617037   10.000000    ( 0.0000,  0.0000,  0.0000)
   1 Li     4.851111    1.617037   10.000000    ( 0.0000,  0.0000,  0.0000)
   2 Li     8.085185    1.617037   10.000000    ( 0.0000,  0.0000,  0.0000)
   3 Li     1.617037    4.851111   10.000000    ( 0.0000,  0.0000,  0.0000)
   4 Li     4.851111    4.851111   10.000000    ( 0.0000,  0.0000,  0.0000)
   5 Li     8.085185    4.851111   10.000000    ( 0.0000,  0.0000,  0.0000)
   6 Li     1.617037    8.085185   10.000000    ( 0.0000,  0.0000,  0.0000)
   7 Li     4.851111    8.085185   10.000000    ( 0.0000,  0.0000,  0.0000)
   8 Li     8.085185    8.085185   10.000000    ( 0.0000,  0.0000,  0.0000)
   9 Li     0.000000    0.000000   11.617037    ( 0.0000,  0.0000,  0.0000)
  10 Li     3.234074    0.000000   11.617037    ( 0.0000,  0.0000,  0.0000)
  11 Li     6.468148    0.000000   11.617037    ( 0.0000,  0.0000,  0.0000)
  12 Li     0.000000    3.234074   11.617037    ( 0.0000,  0.0000,  0.0000)
  13 Li     3.234074    3.234074   11.617037    ( 0.0000,  0.0000,  0.0000)
  14 Li     6.468148    3.234074   11.617037    ( 0.0000,  0.0000,  0.0000)
  15 Li     0.000000    6.468148   11.617037    ( 0.0000,  0.0000,  0.0000)
  16 Li     3.234074    6.468148   11.617037    ( 0.0000,  0.0000,  0.0000)
  17 Li     6.468148    6.468148   11.617037    ( 0.0000,  0.0000,  0.0000)
  18 Li     1.617491    1.617024   13.469174    ( 0.0000,  0.0000,  0.0000)
  19 Li     4.851104    1.617039   13.470133    ( 0.0000,  0.0000,  0.0000)
  20 Li     8.084741    1.617014   13.469196    ( 0.0000,  0.0000,  0.0000)
  21 Li     1.616872    4.851002   13.470086    ( 0.0000,  0.0000,  0.0000)
  22 Li     4.851130    4.851160   13.469988    ( 0.0000,  0.0000,  0.0000)
  23 Li     8.085345    4.851018   13.470055    ( 0.0000,  0.0000,  0.0000)
  24 Li     1.616931    8.085330   13.470108    ( 0.0000,  0.0000,  0.0000)
  25 Li     4.851116    8.085114   13.469950    ( 0.0000,  0.0000,  0.0000)
  26 Li     8.085300    8.085321   13.470101    ( 0.0000,  0.0000,  0.0000)
  27 Li     0.000040    0.001266   15.446995    ( 0.0000,  0.0000,  0.0000)
  28 Li     3.234354   -0.000181   15.445589    ( 0.0000,  0.0000,  0.0000)
  29 Li     6.467935   -0.000124   15.445678    ( 0.0000,  0.0000,  0.0000)
  30 Li     0.000092    3.231635   15.448637    ( 0.0000,  0.0000,  0.0000)
  31 Li     3.234344    3.234234   15.445595    ( 0.0000,  0.0000,  0.0000)
  32 Li     6.467857    3.234176   15.445685    ( 0.0000,  0.0000,  0.0000)
  33 Li     0.000027    6.468210   15.445724    ( 0.0000,  0.0000,  0.0000)
  34 Li     3.234023    6.468142   15.445855    ( 0.0000,  0.0000,  0.0000)
  35 Li     6.468161    6.468141   15.445810    ( 0.0000,  0.0000,  0.0000)
  36 O      0.001730    1.666207   19.740969    ( 0.0000,  0.0000,  0.0000)
  37 C      2.435185    1.228537   19.646170    ( 0.0000,  0.0000,  0.0000)
  38 C      1.301858    2.247434   19.649586    ( 0.0000,  0.0000,  0.0000)
  39 C      3.814418    1.891810   19.652505    ( 0.0000,  0.0000,  0.0000)
  40 H      2.315998    0.586088   20.523078    ( 0.0000,  0.0000,  0.0000)
  41 H      2.340752    0.587223   18.760487    ( 0.0000,  0.0000,  0.0000)
  42 H      1.322361    2.864367   20.537526    ( 0.0000,  0.0000,  0.0000)
  43 H      1.387121    2.907906   18.770622    ( 0.0000,  0.0000,  0.0000)
  44 H      3.947978    2.517972   20.537949    ( 0.0000,  0.0000,  0.0000)
  45 H      4.611713    1.146897   19.652787    ( 0.0000,  0.0000,  0.0000)
  46 H      3.956089    2.527297   18.773697    ( 0.0000,  0.0000,  0.0000)
  47 H     -0.050230    0.986516   18.883167    ( 0.0000,  0.0000,  0.0000)
  48 N      0.001961    1.657256   17.139124    ( 0.0000,  0.0000,  0.0000)
  49 N     -0.020747    1.570767   18.223070    ( 0.0000,  0.0000,  0.0000)

Unit cell:
           periodic     x           y           z      points  spacing
  1. axis:    yes    9.702222    0.000000    0.000000    60     0.1617
  2. axis:    yes    0.000000    9.702222    0.000000    60     0.1617
  3. axis:    no     0.000000    0.000000   26.601111   168     0.1583

  Lengths:   9.702222   9.702222  26.601111
  Angles:   90.000000  90.000000  90.000000

Effective grid spacing dv^(1/3) = 0.1606

     iter     time        total  log10-change:
                         energy  eigst   dens
iter:   1 19:52:18  -324.783263  -0.74
iter:   2 19:52:25  -324.699421  -1.17  -1.73
iter:   3 19:52:33  -324.662393  -1.05  -1.83
iter:   4 19:52:40  -324.605940  -1.04  -1.71
Writing to output.gpw (mode='')

iter:   5 19:52:48  -324.605458  -1.96  -2.25
iter:   6 19:52:55  -324.601850c -1.73  -2.23
iter:   7 19:53:10  -324.594268c -1.93  -2.27
iter:   8 19:53:18  -324.593546c -2.68  -2.56
iter:   9 19:53:25  -324.593623c -2.56  -2.71
Writing to output.gpw (mode='')

iter:  10 19:53:33  -324.593670c -3.01  -2.79
iter:  11 19:53:40  -324.593569c -3.24  -2.93
iter:  12 19:53:48  -324.593689c -3.27  -3.10
iter:  13 19:53:55  -324.593642c -3.91  -3.09
iter:  14 19:54:03  -324.593519c -3.68  -3.11
Writing to output.gpw (mode='')

iter:  15 19:54:10  -324.593546c -4.15  -3.36
iter:  16 19:54:18  -324.593558c -4.43  -3.54
iter:  17 19:54:25  -324.593543c -4.41  -3.63
iter:  18 19:54:33  -324.593545c -4.60  -3.75
iter:  19 19:54:40  -324.593547c -4.75  -3.86
Writing to output.gpw (mode='')

iter:  20 19:54:48  -324.593554c -4.98  -3.95
iter:  21 19:54:55  -324.593557c -5.37  -3.99
iter:  22 19:55:03  -324.593558c -5.31  -4.08c
iter:  23 19:55:10  -324.593557c -5.65  -4.24c
iter:  24 19:55:18  -324.593558c -5.77  -4.30c
Writing to output.gpw (mode='')

iter:  25 19:55:27  -324.593557c -5.71  -4.36c
iter:  26 19:55:35  -324.593558c -5.86  -4.42c
iter:  27 19:55:42  -324.593558c -6.19  -4.56c
iter:  28 19:55:50  -324.593557c -6.16  -4.66c
iter:  29 19:55:57  -324.593558c -6.35  -4.82c
Writing to output.gpw (mode='')

iter:  30 19:56:05  -324.593559c -6.22  -4.84c
iter:  31 19:56:12  -324.593559c -6.32  -4.92c
iter:  32 19:56:20  -324.593559c -6.49  -5.00c
iter:  33 19:56:28  -324.593559c -6.78  -5.04c
iter:  34 19:56:38  -324.593559c -6.98  -5.22c
Writing to output.gpw (mode='')

iter:  35 19:56:55  -324.593559c -6.82  -5.31c
iter:  36 19:57:09  -324.593559c -6.94  -5.47c
iter:  37 19:57:19  -324.593559c -7.16  -5.51c
iter:  38 19:57:26  -324.593559c -7.07  -5.62c
iter:  39 19:57:34  -324.593560c -7.20  -5.65c
Writing to output.gpw (mode='')

iter:  40 19:57:41  -324.593559c -7.36  -5.80c
iter:  41 19:57:49  -324.593560c -7.47c -5.82c

Converged after 41 iterations.

Dipole moment: (-14.155092, -5.291718, 0.071728) |e|*Ang

Energy contributions relative to reference atoms: (reference = -15487.462483)

Kinetic:       +209.568851
Potential:     -189.145174
External:        +0.000000
XC:            -345.718134
Entropy (-ST):   -0.142529
Local:           +0.772162
--------------------------
Free energy:   -324.664824
Extrapolated:  -324.593560

Dipole-layer corrected work functions: 3.390197, 3.252310 eV

Showing only first 2 kpts
 Kpt  Band  Eigenvalues  Occupancy
  0    34     -3.56596    1.98513
  0    35     -3.45357    1.86757
  0    36     -3.17894    0.10974
  0    37     -3.06376    0.01153

  1    34     -3.38482    1.56193
  1    35     -3.31500    0.93750
  1    36     -3.29254    0.72049
  1    37     -3.21054    0.19695


Fermi level: -3.32125

No gap
Writing to output.gpw (mode='')


Forces in eV/Ang:
  0 Li    0.01061   -0.00185   -0.27260
  1 Li    0.00070    0.00130   -0.26307
  2 Li   -0.01105   -0.00246   -0.27209
  3 Li    0.00532    0.00811   -0.27190
  4 Li   -0.00060    0.00284   -0.27923
  5 Li   -0.00586    0.00760   -0.27071
  6 Li    0.00287   -0.00720   -0.27154
  7 Li   -0.00025   -0.00233   -0.28399
  8 Li   -0.00378   -0.00630   -0.27160
  9 Li    0.00020    0.01227    0.30096
 10 Li    0.01677   -0.00585    0.25375
 11 Li   -0.01793   -0.00673    0.25360
 12 Li   -0.00009   -0.01675    0.31659
 13 Li    0.01705    0.00548    0.25352
 14 Li   -0.01814    0.00557    0.25406
 15 Li    0.00074    0.00786    0.24136
 16 Li   -0.02505    0.00080    0.26682
 17 Li    0.02616    0.00180    0.26341
 18 Li    0.05847   -0.00231   -0.07027
 19 Li   -0.00093    0.00057    0.05202
 20 Li   -0.05739   -0.00210   -0.06766
 21 Li   -0.02015   -0.01424    0.04413
 22 Li    0.00144    0.00694    0.03369
 23 Li    0.02030   -0.01378    0.04243
 24 Li   -0.01481    0.01942    0.05235
 25 Li    0.00114   -0.00942    0.02787
 26 Li    0.01546    0.01784    0.05035
 27 Li    0.00316    0.15815    0.12541
 28 Li    0.03672   -0.02370   -0.04847
 29 Li   -0.02907   -0.01553   -0.03541
 30 Li    0.01675   -0.29800    0.33284
 31 Li    0.03112    0.01937   -0.04398
 32 Li   -0.03541    0.01262   -0.03163
 33 Li    0.00348    0.00882   -0.02412
 34 Li   -0.00652    0.00069   -0.00964
 35 Li    0.00183    0.00002   -0.01539
 36 O     0.57440    7.77299   14.87829
 37 C     0.02057   -0.17053    0.02613
 38 C     1.52359    1.10038    2.11542
 39 C    -0.02718    0.07192    0.04130
 40 H     0.04926   -0.05759   -0.00598
 41 H     0.07071   -0.04853    0.05965
 42 H     0.71099    0.47637    0.19225
 43 H     0.09471    0.14049    0.32960
 44 H    -0.01759    0.00159    0.00964
 45 H    -0.01912   -0.03915   -0.02873
 46 H    -0.00454   -0.01899   -0.02026
 47 H    -0.65381  -11.34292    2.54211
 48 N     0.40848    5.36661  -11.36635
 49 N    -2.71540   -3.17923   -9.11574

System changes: positions 

Initializing position-dependent things.

Density initialized from wave functions
       .-----------------------.  
      /|                       |  
     / |                       |  
    /  |                       |  
   /   |                       |  
  /    |                       |  
 *     |                       |  
 |     |                       |  
 |     |                       |  
 |     |                       |  
 |     |                       |  
 |     |                       |  
 |    H|    H                  |  
 |O   CH    C                  |  
 |    H|C   HH Li      Li      |  
 |     H                 HN    |  
 |   Li|     Li      Li        |  
 |N    |  Li      Li      Li   |  
 | Li  |   Li      Li          |  
 |     |Li      Li      Li     |  
 Li    |                       |  
 |   LLi     LLi     LLi       |  
 |     |  Li      Li      Li   |  
 | Li  |   Li      Li          |  
 |     |Li      Li      Li     |  
 Li    | Li      Li            |  
 |    Li      Li      Li       |  
 |     |                       |  
 |     |                       |  
 |     |                       |  
 |     |                       |  
 |     |                       |  
 |     |                       |  
 |     .-----------------------.  
 |    /                       /   
 |   /                       /    
 |  /                       /     
 | /                       /      
 |/                       /       
 *-----------------------*        

Positions:
   0 Li     1.617037    1.617037   10.000000    ( 0.0000,  0.0000,  0.0000)
   1 Li     4.851111    1.617037   10.000000    ( 0.0000,  0.0000,  0.0000)
   2 Li     8.085185    1.617037   10.000000    ( 0.0000,  0.0000,  0.0000)
   3 Li     1.617037    4.851111   10.000000    ( 0.0000,  0.0000,  0.0000)
   4 Li     4.851111    4.851111   10.000000    ( 0.0000,  0.0000,  0.0000)
   5 Li     8.085185    4.851111   10.000000    ( 0.0000,  0.0000,  0.0000)
   6 Li     1.617037    8.085185   10.000000    ( 0.0000,  0.0000,  0.0000)
   7 Li     4.851111    8.085185   10.000000    ( 0.0000,  0.0000,  0.0000)
   8 Li     8.085185    8.085185   10.000000    ( 0.0000,  0.0000,  0.0000)
   9 Li     0.000000    0.000000   11.617037    ( 0.0000,  0.0000,  0.0000)
  10 Li     3.234074    0.000000   11.617037    ( 0.0000,  0.0000,  0.0000)
  11 Li     6.468148    0.000000   11.617037    ( 0.0000,  0.0000,  0.0000)
  12 Li     0.000000    3.234074   11.617037    ( 0.0000,  0.0000,  0.0000)
  13 Li     3.234074    3.234074   11.617037    ( 0.0000,  0.0000,  0.0000)
  14 Li     6.468148    3.234074   11.617037    ( 0.0000,  0.0000,  0.0000)
  15 Li     0.000000    6.468148   11.617037    ( 0.0000,  0.0000,  0.0000)
  16 Li     3.234074    6.468148   11.617037    ( 0.0000,  0.0000,  0.0000)
  17 Li     6.468148    6.468148   11.617037    ( 0.0000,  0.0000,  0.0000)
  18 Li     1.617747    1.617018   13.468912    ( 0.0000,  0.0000,  0.0000)
  19 Li     4.851106    1.617032   13.470341    ( 0.0000,  0.0000,  0.0000)
  20 Li     8.084488    1.617001   13.468943    ( 0.0000,  0.0000,  0.0000)
  21 Li     1.616766    4.850911   13.470339    ( 0.0000,  0.0000,  0.0000)
  22 Li     4.851141    4.851199   13.470104    ( 0.0000,  0.0000,  0.0000)
  23 Li     8.085450    4.850938   13.470292    ( 0.0000,  0.0000,  0.0000)
  24 Li     1.616863    8.085420   13.470330    ( 0.0000,  0.0000,  0.0000)
  25 Li     4.851116    8.085066   13.470079    ( 0.0000,  0.0000,  0.0000)
  26 Li     8.085376    8.085411   13.470335    ( 0.0000,  0.0000,  0.0000)
  27 Li     0.000109    0.001560   15.446826    ( 0.0000,  0.0000,  0.0000)
  28 Li     3.234497   -0.000262   15.445398    ( 0.0000,  0.0000,  0.0000)
  29 Li     6.467792   -0.000202   15.445470    ( 0.0000,  0.0000,  0.0000)
  30 Li     0.000119    3.230482   15.449558    ( 0.0000,  0.0000,  0.0000)
  31 Li     3.234520    3.234323   15.445399    ( 0.0000,  0.0000,  0.0000)
  32 Li     6.467688    3.234245   15.445502    ( 0.0000,  0.0000,  0.0000)
  33 Li     0.000033    6.468214   15.445614    ( 0.0000,  0.0000,  0.0000)
  34 Li     3.233975    6.468135   15.445818    ( 0.0000,  0.0000,  0.0000)
  35 Li     6.468197    6.468138   15.445755    ( 0.0000,  0.0000,  0.0000)
  36 O      0.002015    1.671364   19.767201    ( 0.0000,  0.0000,  0.0000)
  37 C      2.435829    1.228670   19.646772    ( 0.0000,  0.0000,  0.0000)
  38 C      1.301864    2.248746   19.654181    ( 0.0000,  0.0000,  0.0000)
  39 C      3.814575    1.891569   19.652594    ( 0.0000,  0.0000,  0.0000)
  40 H      2.316240    0.585771   20.523059    ( 0.0000,  0.0000,  0.0000)
  41 H      2.340888    0.587009   18.760662    ( 0.0000,  0.0000,  0.0000)
  42 H      1.326952    2.867895   20.539211    ( 0.0000,  0.0000,  0.0000)
  43 H      1.387838    2.908363   18.772201    ( 0.0000,  0.0000,  0.0000)
  44 H      3.947891    2.517953   20.537946    ( 0.0000,  0.0000,  0.0000)
  45 H      4.611836    1.146828   19.652718    ( 0.0000,  0.0000,  0.0000)
  46 H      3.956053    2.527288   18.773633    ( 0.0000,  0.0000,  0.0000)
  47 H     -0.048086    0.984177   18.904919    ( 0.0000,  0.0000,  0.0000)
  48 N      0.003937    1.676928   17.110360    ( 0.0000,  0.0000,  0.0000)
  49 N     -0.031511    1.544252   18.195121    ( 0.0000,  0.0000,  0.0000)

Unit cell:
           periodic     x           y           z      points  spacing
  1. axis:    yes    9.702222    0.000000    0.000000    60     0.1617
  2. axis:    yes    0.000000    9.702222    0.000000    60     0.1617
  3. axis:    no     0.000000    0.000000   26.601111   168     0.1583

  Lengths:   9.702222   9.702222  26.601111
  Angles:   90.000000  90.000000  90.000000

Effective grid spacing dv^(1/3) = 0.1606

     iter     time        total  log10-change:
                         energy  eigst   dens
iter:   1 19:57:58  -325.941768  -0.75
iter:   2 19:58:12  -325.914020  -1.19  -1.87
iter:   3 19:58:19  -325.900228  -1.46  -1.81
iter:   4 19:58:27  -325.873292  -1.52  -1.93
Writing to output.gpw (mode='')

iter:   5 19:58:34  -325.872748c -2.07  -2.36
iter:   6 19:58:42  -325.872387c -2.02  -2.44
iter:   7 19:58:49  -325.870679c -2.52  -2.45
iter:   8 19:58:57  -325.870533c -2.59  -2.64
iter:   9 19:59:04  -325.870562c -2.96  -2.89
Writing to output.gpw (mode='')

iter:  10 19:59:12  -325.870341c -3.64  -3.00
iter:  11 19:59:19  -325.870361c -3.58  -3.01
iter:  12 19:59:27  -325.870316c -3.97  -3.15
iter:  13 19:59:34  -325.870322c -4.21  -3.26
iter:  14 19:59:42  -325.870268c -3.80  -3.33
Writing to output.gpw (mode='')

iter:  15 19:59:49  -325.870260c -4.64  -3.32
iter:  16 19:59:57  -325.870251c -4.77  -3.37
iter:  17 20:00:04  -325.870254c -4.62  -3.55
iter:  18 20:00:12  -325.870261c -4.74  -3.80
iter:  19 20:00:19  -325.870264c -5.01  -3.99
Writing to output.gpw (mode='')

iter:  20 20:00:27  -325.870263c -5.53  -3.96
iter:  21 20:00:34  -325.870260c -5.77  -4.03c
iter:  22 20:00:42  -325.870259c -5.95  -4.10c
iter:  23 20:00:49  -325.870256c -5.92  -4.18c
iter:  24 20:00:57  -325.870257c -6.02  -4.33c
Writing to output.gpw (mode='')

iter:  25 20:01:04  -325.870257c -6.11  -4.35c
iter:  26 20:01:12  -325.870258c -6.28  -4.35c
iter:  27 20:01:20  -325.870259c -6.61  -4.72c
iter:  28 20:01:27  -325.870259c -6.57  -4.85c
iter:  29 20:01:35  -325.870259c -6.76  -4.94c
Writing to output.gpw (mode='')

iter:  30 20:01:42  -325.870260c -6.76  -5.08c
iter:  31 20:01:50  -325.870260c -6.98  -5.22c
iter:  32 20:01:57  -325.870260c -7.22  -5.26c
iter:  33 20:02:05  -325.870260c -7.40c -5.34c

Converged after 33 iterations.

Dipole moment: (-13.310221, -5.244882, -0.000389) |e|*Ang

Energy contributions relative to reference atoms: (reference = -15487.462483)

Kinetic:       +204.499858
Potential:     -186.136254
External:        +0.000000
XC:            -344.935636
Entropy (-ST):   -0.141924
Local:           +0.772734
--------------------------
Free energy:   -325.941221
Extrapolated:  -325.870260

Dipole-layer corrected work functions: 3.393760, 3.394509 eV

Showing only first 2 kpts
 Kpt  Band  Eigenvalues  Occupancy
  0    34     -3.63854    1.98504
  0    35     -3.52709    1.86914
  0    36     -3.24978    0.10559
  0    37     -3.13674    0.01156

  1    34     -3.45575    1.54846
  1    35     -3.38715    0.93031
  1    36     -3.36531    0.71944
  1    37     -3.28343    0.19697


Fermi level: -3.39413

No gap
Writing to output.gpw (mode='')


Forces in eV/Ang:
  0 Li    0.01082   -0.00201   -0.27215
  1 Li    0.00058    0.00126   -0.26296
  2 Li   -0.01119   -0.00230   -0.27140
  3 Li    0.00519    0.00825   -0.27179
  4 Li   -0.00032    0.00359   -0.28007
  5 Li   -0.00612    0.00804   -0.27092
  6 Li    0.00304   -0.00730   -0.27182
  7 Li   -0.00011   -0.00232   -0.28459
  8 Li   -0.00422   -0.00683   -0.27192
  9 Li    0.00016    0.01279    0.30099
 10 Li    0.01716   -0.00613    0.25261
 11 Li   -0.01836   -0.00688    0.25247
 12 Li    0.00005   -0.01658    0.31585
 13 Li    0.01696    0.00523    0.25349
 14 Li   -0.01827    0.00576    0.25326
 15 Li    0.00080    0.00810    0.24032
 16 Li   -0.02573    0.00114    0.26683
 17 Li    0.02699    0.00134    0.26282
 18 Li    0.05832   -0.00257   -0.06771
 19 Li   -0.00060    0.00013    0.05035
 20 Li   -0.05742   -0.00169   -0.06516
 21 Li   -0.02071   -0.01464    0.04499
 22 Li    0.00132    0.00658    0.03252
 23 Li    0.02123   -0.01470    0.04412
 24 Li   -0.01505    0.01933    0.05217
 25 Li    0.00114   -0.00922    0.02902
 26 Li    0.01587    0.01802    0.05089
 27 Li    0.00573    0.13970    0.09090
 28 Li    0.03483   -0.02148   -0.04633
 29 Li   -0.03029   -0.01537   -0.03850
 30 Li    0.01821   -0.29987    0.31132
 31 Li    0.03055    0.01796   -0.04050
 32 Li   -0.03276    0.01234   -0.03115
 33 Li    0.00281    0.00647   -0.02421
 34 Li   -0.00645    0.00043   -0.00961
 35 Li    0.00227    0.00017   -0.01493
 36 O     0.58296    6.14528   12.63083
 37 C     0.01016   -0.13134    0.04373
 38 C     1.22064    0.92897    1.89296
 39 C    -0.01543    0.06280    0.03723
 40 H     0.05543   -0.06190   -0.00171
 41 H     0.05907   -0.03601    0.06486
 42 H     0.74919    0.51378    0.21119
 43 H     0.04553    0.09655    0.32099
 44 H    -0.01478   -0.00116    0.00648
 45 H    -0.00526   -0.03863   -0.02633
 46 H    -0.00470   -0.01744   -0.01730
 47 H    -0.42213   -8.96903    3.38371
 48 N     0.43977    4.85534   -9.17988
 49 N    -2.69101   -3.24492   -9.66960

System changes: positions 

Initializing position-dependent things.

Density initialized from wave functions
       .-----------------------.  
      /|                       |  
     / |                       |  
    /  |                       |  
   /   |                       |  
  /    |                       |  
 *     |                       |  
 |     |                       |  
 |     |                       |  
 |     |                       |  
 |     |                       |  
 |     |                       |  
 |    H|    H                  |  
 |O   CH    C                  |  
 |    H|C   HH Li      Li      |  
 |     H                 H     |  
 |   Li|     Li      Li   N    |  
 |N    |  Li      Li      Li   |  
 | Li  |   Li      Li          |  
 |     |Li      Li      Li     |  
 Li    |                       |  
 |   LLi     LLi     LLi       |  
 |     |  Li      Li      Li   |  
 | Li  |   Li      Li          |  
 |     |Li      Li      Li     |  
 Li    | Li      Li            |  
 |    Li      Li      Li       |  
 |     |                       |  
 |     |                       |  
 |     |                       |  
 |     |                       |  
 |     |                       |  
 |     |                       |  
 |     .-----------------------.  
 |    /                       /   
 |   /                       /    
 |  /                       /     
 | /                       /      
 |/                       /       
 *-----------------------*        

Positions:
   0 Li     1.617037    1.617037   10.000000    ( 0.0000,  0.0000,  0.0000)
   1 Li     4.851111    1.617037   10.000000    ( 0.0000,  0.0000,  0.0000)
   2 Li     8.085185    1.617037   10.000000    ( 0.0000,  0.0000,  0.0000)
   3 Li     1.617037    4.851111   10.000000    ( 0.0000,  0.0000,  0.0000)
   4 Li     4.851111    4.851111   10.000000    ( 0.0000,  0.0000,  0.0000)
   5 Li     8.085185    4.851111   10.000000    ( 0.0000,  0.0000,  0.0000)
   6 Li     1.617037    8.085185   10.000000    ( 0.0000,  0.0000,  0.0000)
   7 Li     4.851111    8.085185   10.000000    ( 0.0000,  0.0000,  0.0000)
   8 Li     8.085185    8.085185   10.000000    ( 0.0000,  0.0000,  0.0000)
   9 Li     0.000000    0.000000   11.617037    ( 0.0000,  0.0000,  0.0000)
  10 Li     3.234074    0.000000   11.617037    ( 0.0000,  0.0000,  0.0000)
  11 Li     6.468148    0.000000   11.617037    ( 0.0000,  0.0000,  0.0000)
  12 Li     0.000000    3.234074   11.617037    ( 0.0000,  0.0000,  0.0000)
  13 Li     3.234074    3.234074   11.617037    ( 0.0000,  0.0000,  0.0000)
  14 Li     6.468148    3.234074   11.617037    ( 0.0000,  0.0000,  0.0000)
  15 Li     0.000000    6.468148   11.617037    ( 0.0000,  0.0000,  0.0000)
  16 Li     3.234074    6.468148   11.617037    ( 0.0000,  0.0000,  0.0000)
  17 Li     6.468148    6.468148   11.617037    ( 0.0000,  0.0000,  0.0000)
  18 Li     1.617983    1.617008   13.468674    ( 0.0000,  0.0000,  0.0000)
  19 Li     4.851108    1.617026   13.470528    ( 0.0000,  0.0000,  0.0000)
  20 Li     8.084254    1.616994   13.468712    ( 0.0000,  0.0000,  0.0000)
  21 Li     1.616670    4.850834   13.470559    ( 0.0000,  0.0000,  0.0000)
  22 Li     4.851149    4.851229   13.470213    ( 0.0000,  0.0000,  0.0000)
  23 Li     8.085548    4.850863   13.470507    ( 0.0000,  0.0000,  0.0000)
  24 Li     1.616800    8.085501   13.470540    ( 0.0000,  0.0000,  0.0000)
  25 Li     4.851118    8.085025   13.470204    ( 0.0000,  0.0000,  0.0000)
  26 Li     8.085446    8.085493   13.470553    ( 0.0000,  0.0000,  0.0000)
  27 Li     0.000173    0.001803   15.446611    ( 0.0000,  0.0000,  0.0000)
  28 Li     3.234622   -0.000330   15.445229    ( 0.0000,  0.0000,  0.0000)
  29 Li     6.467654   -0.000270   15.445271    ( 0.0000,  0.0000,  0.0000)
  30 Li     0.000174    3.229373   15.450382    ( 0.0000,  0.0000,  0.0000)
  31 Li     3.234663    3.234394   15.445246    ( 0.0000,  0.0000,  0.0000)
  32 Li     6.467558    3.234304   15.445352    ( 0.0000,  0.0000,  0.0000)
  33 Li     0.000037    6.468211   15.445517    ( 0.0000,  0.0000,  0.0000)
  34 Li     3.233937    6.468131   15.445784    ( 0.0000,  0.0000,  0.0000)
  35 Li     6.468223    6.468137   15.445704    ( 0.0000,  0.0000,  0.0000)
  36 O      0.003171    1.673258   19.788196    ( 0.0000,  0.0000,  0.0000)
  37 C      2.436124    1.228797   19.647290    ( 0.0000,  0.0000,  0.0000)
  38 C      1.301935    2.249794   19.658408    ( 0.0000,  0.0000,  0.0000)
  39 C      3.814711    1.891488   19.652679    ( 0.0000,  0.0000,  0.0000)
  40 H      2.316502    0.585466   20.523072    ( 0.0000,  0.0000,  0.0000)
  41 H      2.340984    0.586914   18.760906    ( 0.0000,  0.0000,  0.0000)
  42 H      1.330909    2.870889   20.540549    ( 0.0000,  0.0000,  0.0000)
  43 H      1.387977    2.908492   18.773511    ( 0.0000,  0.0000,  0.0000)
  44 H      3.947838    2.517922   20.537935    ( 0.0000,  0.0000,  0.0000)
  45 H      4.611988    1.146728   19.652652    ( 0.0000,  0.0000,  0.0000)
  46 H      3.956025    2.527264   18.773589    ( 0.0000,  0.0000,  0.0000)
  47 H     -0.045858    0.986294   18.926777    ( 0.0000,  0.0000,  0.0000)
  48 N      0.006032    1.692556   17.090996    ( 0.0000,  0.0000,  0.0000)
  49 N     -0.041987    1.521675   18.163807    ( 0.0000,  0.0000,  0.0000)

Unit cell:
           periodic     x           y           z      points  spacing
  1. axis:    yes    9.702222    0.000000    0.000000    60     0.1617
  2. axis:    yes    0.000000    9.702222    0.000000    60     0.1617
  3. axis:    no     0.000000    0.000000   26.601111   168     0.1583

  Lengths:   9.702222   9.702222  26.601111
  Angles:   90.000000  90.000000  90.000000

Effective grid spacing dv^(1/3) = 0.1606

     iter     time        total  log10-change:
                         energy  eigst   dens
iter:   1 20:02:14  -326.883360  -0.90
iter:   2 20:02:22  -326.870981  -1.51  -2.11
iter:   3 20:02:29  -326.859966c -1.30  -2.23
iter:   4 20:02:37  -326.851309c -1.59  -2.03
Writing to output.gpw (mode='')

iter:   5 20:02:44  -326.851071c -2.30  -2.43
iter:   6 20:02:52  -326.848854c -2.19  -2.50
iter:   7 20:03:05  -326.848342c -2.30  -2.60
iter:   8 20:03:14  -326.848075c -3.11  -2.85
iter:   9 20:03:22  -326.848100c -3.44  -2.79
Writing to output.gpw (mode='')

iter:  10 20:03:30  -326.848992c -3.07  -2.79
iter:  11 20:03:37  -326.847807c -3.16  -2.77
iter:  12 20:03:45  -326.847752c -3.01  -2.96
iter:  13 20:03:52  -326.847737c -3.56  -3.14
iter:  14 20:04:00  -326.847757c -3.93  -3.18
Writing to output.gpw (mode='')

iter:  15 20:04:08  -326.847774c -4.25  -3.36
iter:  16 20:04:15  -326.847761c -4.81  -3.38
iter:  17 20:04:23  -326.847739c -4.71  -3.47
iter:  18 20:04:31  -326.847722c -4.44  -3.71
iter:  19 20:04:38  -326.847722c -5.34  -3.65
Writing to output.gpw (mode='')

iter:  20 20:04:46  -326.847729c -5.24  -3.80
iter:  21 20:04:54  -326.847730c -5.67  -4.07c
iter:  22 20:05:01  -326.847734c -5.47  -4.12c
iter:  23 20:05:09  -326.847733c -5.90  -4.23c
iter:  24 20:05:17  -326.847731c -6.16  -4.34c
Writing to output.gpw (mode='')

iter:  25 20:05:24  -326.847731c -6.31  -4.51c
iter:  26 20:05:32  -326.847733c -6.39  -4.59c
iter:  27 20:05:39  -326.847733c -6.51  -4.66c
iter:  28 20:05:47  -326.847733c -6.65  -4.73c
iter:  29 20:05:54  -326.847733c -6.85  -4.88c
Writing to output.gpw (mode='')

iter:  30 20:06:02  -326.847733c -6.94  -4.97c
iter:  31 20:06:10  -326.847733c -7.18  -5.10c
iter:  32 20:06:17  -326.847733c -7.10  -5.16c
iter:  33 20:06:25  -326.847733c -7.35  -5.30c
iter:  34 20:06:32  -326.847733c -7.39  -5.43c
Writing to output.gpw (mode='')

iter:  35 20:06:40  -326.847733c -7.53c -5.53c

Converged after 35 iterations.

Dipole moment: (-12.564031, -5.235949, -0.056230) |e|*Ang

Energy contributions relative to reference atoms: (reference = -15487.462483)

Kinetic:       +201.857313
Potential:     -184.884097
External:        +0.000000
XC:            -344.522808
Entropy (-ST):   -0.141469
Local:           +0.772594
--------------------------
Free energy:   -326.918467
Extrapolated:  -326.847733

Dipole-layer corrected work functions: 3.396070, 3.504163 eV

Showing only first 2 kpts
 Kpt  Band  Eigenvalues  Occupancy
  0    34     -3.69441    1.98501
  0    35     -3.58433    1.87219
  0    36     -3.30265    0.09955
  0    37     -3.19293    0.01160

  1    34     -3.50921    1.53056
  1    35     -3.44274    0.92642
  1    36     -3.42149    0.72135
  1    37     -3.34031    0.20020


Fermi level: -3.45012

No gap

Forces in eV/Ang:
  0 Li    0.01115   -0.00213   -0.27179
  1 Li    0.00042    0.00125   -0.26292
  2 Li   -0.01138   -0.00212   -0.27088
  3 Li    0.00496    0.00837   -0.27163
  4 Li   -0.00016    0.00400   -0.28060
  5 Li   -0.00609    0.00839   -0.27096
  6 Li    0.00305   -0.00742   -0.27190
  7 Li   -0.00005   -0.00212   -0.28492
  8 Li   -0.00437   -0.00730   -0.27200
  9 Li    0.00010    0.01338    0.30094
 10 Li    0.01782   -0.00652    0.25147
 11 Li   -0.01901   -0.00705    0.25157
 12 Li    0.00023   -0.01651    0.31496
 13 Li    0.01716    0.00512    0.25336
 14 Li   -0.01873    0.00605    0.25245
 15 Li    0.00078    0.00822    0.23956
 16 Li   -0.02636    0.00151    0.26692
 17 Li    0.02774    0.00083    0.26270
 18 Li    0.05792   -0.00285   -0.06492
 19 Li   -0.00038   -0.00021    0.04929
 20 Li   -0.05727   -0.00117   -0.06269
 21 Li   -0.02108   -0.01536    0.04629
 22 Li    0.00109    0.00680    0.03120
 23 Li    0.02200   -0.01609    0.04635
 24 Li   -0.01526    0.01971    0.05270
 25 Li    0.00112   -0.00959    0.02949
 26 Li    0.01621    0.01861    0.05193
 27 Li    0.00772    0.11183    0.04571
 28 Li    0.03421   -0.02040   -0.04596
 29 Li   -0.03248   -0.01607   -0.04201
 30 Li    0.02065   -0.28702    0.27060
 31 Li    0.03097    0.01752   -0.03893
 32 Li   -0.03131    0.01290   -0.03179
 33 Li    0.00229    0.00442   -0.02291
 34 Li   -0.00703    0.00017   -0.00912
 35 Li    0.00329    0.00036   -0.01395
 36 O     0.64114    4.66022   10.85676
 37 C     0.01878   -0.08881    0.06858
 38 C     0.94795    0.76130    1.68811
 39 C    -0.00515    0.04706    0.03120
 40 H     0.05822   -0.06453   -0.00009
 41 H     0.04649   -0.02819    0.06403
 42 H     0.75903    0.54070    0.22548
 43 H     0.00318    0.06077    0.30441
 44 H    -0.01261   -0.00209    0.00609
 45 H     0.00270   -0.03529   -0.02466
 46 H    -0.00428   -0.01480   -0.01642
 47 H    -0.24934   -6.72640    4.01513
 48 N     0.55737    4.60199   -8.91236
 49 N    -2.74349   -3.59643   -8.50087

System changes: positions 

Initializing position-dependent things.

Density initialized from wave functions
       .-----------------------.  
      /|                       |  
     / |                       |  
    /  |                       |  
   /   |                       |  
  /    |                       |  
 *     |                       |  
 |     |                       |  
 |     |                       |  
 |     |                       |  
 |     |                       |  
 |     |                       |  
 |    H|    H                  |  
 |O   CH    C                  |  
 |    H|C   HH Li      Li      |  
 |     H                  H    |  
 |   Li|     Li      Li   N    |  
 |N    |  Li      Li      Li   |  
 | Li  |   Li      Li          |  
 |     |Li      Li      Li     |  
 Li    |                       |  
 |   LLi     LLi     LLi       |  
 |     |  Li      Li      Li   |  
 | Li  |   Li      Li          |  
 |     |Li      Li      Li     |  
 Li    | Li      Li            |  
 |    Li      Li      Li       |  
 |     |                       |  
 |     |                       |  
 |     |                       |  
 |     |                       |  
 |     |                       |  
 |     |                       |  
 |     .-----------------------.  
 |    /                       /   
 |   /                       /    
 |  /                       /     
 | /                       /      
 |/                       /       
 *-----------------------*        

Positions:
   0 Li     1.617037    1.617037   10.000000    ( 0.0000,  0.0000,  0.0000)
   1 Li     4.851111    1.617037   10.000000    ( 0.0000,  0.0000,  0.0000)
   2 Li     8.085185    1.617037   10.000000    ( 0.0000,  0.0000,  0.0000)
   3 Li     1.617037    4.851111   10.000000    ( 0.0000,  0.0000,  0.0000)
   4 Li     4.851111    4.851111   10.000000    ( 0.0000,  0.0000,  0.0000)
   5 Li     8.085185    4.851111   10.000000    ( 0.0000,  0.0000,  0.0000)
   6 Li     1.617037    8.085185   10.000000    ( 0.0000,  0.0000,  0.0000)
   7 Li     4.851111    8.085185   10.000000    ( 0.0000,  0.0000,  0.0000)
   8 Li     8.085185    8.085185   10.000000    ( 0.0000,  0.0000,  0.0000)
   9 Li     0.000000    0.000000   11.617037    ( 0.0000,  0.0000,  0.0000)
  10 Li     3.234074    0.000000   11.617037    ( 0.0000,  0.0000,  0.0000)
  11 Li     6.468148    0.000000   11.617037    ( 0.0000,  0.0000,  0.0000)
  12 Li     0.000000    3.234074   11.617037    ( 0.0000,  0.0000,  0.0000)
  13 Li     3.234074    3.234074   11.617037    ( 0.0000,  0.0000,  0.0000)
  14 Li     6.468148    3.234074   11.617037    ( 0.0000,  0.0000,  0.0000)
  15 Li     0.000000    6.468148   11.617037    ( 0.0000,  0.0000,  0.0000)
  16 Li     3.234074    6.468148   11.617037    ( 0.0000,  0.0000,  0.0000)
  17 Li     6.468148    6.468148   11.617037    ( 0.0000,  0.0000,  0.0000)
  18 Li     1.618241    1.616994   13.468417    ( 0.0000,  0.0000,  0.0000)
  19 Li     4.851110    1.617019   13.470733    ( 0.0000,  0.0000,  0.0000)
  20 Li     8.083996    1.616992   13.468462    ( 0.0000,  0.0000,  0.0000)
  21 Li     1.616565    4.850753   13.470793    ( 0.0000,  0.0000,  0.0000)
  22 Li     4.851154    4.851261   13.470334    ( 0.0000,  0.0000,  0.0000)
  23 Li     8.085659    4.850776   13.470746    ( 0.0000,  0.0000,  0.0000)
  24 Li     1.616729    8.085593   13.470776    ( 0.0000,  0.0000,  0.0000)
  25 Li     4.851121    8.084979   13.470346    ( 0.0000,  0.0000,  0.0000)
  26 Li     8.085524    8.085583   13.470797    ( 0.0000,  0.0000,  0.0000)
  27 Li     0.000242    0.001986   15.446267    ( 0.0000,  0.0000,  0.0000)
  28 Li     3.234762   -0.000403   15.445039    ( 0.0000,  0.0000,  0.0000)
  29 Li     6.467488   -0.000349   15.445039    ( 0.0000,  0.0000,  0.0000)
  30 Li     0.000274    3.228176   15.451165    ( 0.0000,  0.0000,  0.0000)
[...]
Free energy:   -334.364041
Extrapolated:  -334.291133

Dipole-layer corrected work functions: 3.408494, 4.024771 eV

Showing only first 2 kpts
 Kpt  Band  Eigenvalues  Occupancy
  0    34     -3.96448    1.98603
  0    35     -3.90403    1.95396
  0    36     -3.59822    0.17125
  0    37     -3.50117    0.02653

  1    34     -3.78364    1.58504
  1    35     -3.71614    0.99503
  1    36     -3.64991    0.41686
  1    37     -3.59760    0.16932


Fermi level: -3.71663

No gap
Writing to output.gpw (mode='')


Forces in eV/Ang:
  0 Li    0.02502    0.00256   -0.27255
  1 Li   -0.01554    0.00396   -0.27047
  2 Li   -0.01427    0.00506   -0.26876
  3 Li    0.00284    0.01203   -0.27662
  4 Li   -0.00510   -0.00060   -0.28941
  5 Li    0.00466    0.02228   -0.26577
  6 Li    0.00074   -0.01430   -0.28020
  7 Li   -0.00383    0.00139   -0.28071
  8 Li    0.00442   -0.02414   -0.27525
  9 Li    0.00671   -0.01652    0.32200
 10 Li    0.03042   -0.00884    0.26229
 11 Li   -0.01713   -0.02871    0.27934
 12 Li    0.01256    0.02580    0.28641
 13 Li    0.03084   -0.00057    0.26979
 14 Li   -0.02692    0.02993    0.26613
 15 Li    0.00285   -0.01817    0.22350
 16 Li   -0.02425   -0.00010    0.27183
 17 Li    0.02051   -0.01612    0.25020
 18 Li   -0.00573    0.00426    0.00419
 19 Li   -0.00638    0.00269   -0.00466
 20 Li    0.00402    0.00175    0.01320
 21 Li   -0.00316   -0.00873    0.00417
 22 Li   -0.00190    0.00417   -0.00478
 23 Li    0.00492   -0.00510    0.00178
 24 Li   -0.00889    0.00887    0.00507
 25 Li   -0.00075   -0.00141   -0.00257
 26 Li    0.00873    0.00480    0.00310
 27 Li    0.01445   -0.02860   -0.02542
 28 Li    0.00188    0.00064    0.00969
 29 Li   -0.01218    0.00124    0.00223
 30 Li   -0.01278    0.00282    0.00164
 31 Li   -0.00933    0.00009   -0.00126
 32 Li   -0.00085   -0.00371    0.00246
 33 Li    0.00203   -0.00534    0.00056
 34 Li   -0.00192   -0.00343    0.00132
 35 Li   -0.00125    0.00164    0.00197
 36 O     0.01766    0.04007    0.03170
 37 C     0.00068    0.00748   -0.02475
 38 C     0.02916   -0.00785   -0.01597
 39 C    -0.00653   -0.00822    0.01819
 40 H     0.01133   -0.00089   -0.02118
 41 H    -0.03940    0.00383    0.01225
 42 H     0.01314    0.00067    0.00966
 43 H    -0.00079   -0.00868    0.00214
 44 H     0.00761    0.02834    0.00068
 45 H    -0.00409    0.01380   -0.05080
 46 H    -0.01567   -0.03414    0.01981
 47 H    -0.02381   -0.04537    0.00130
 48 N     0.00724    0.04227    0.03007
 49 N    -0.02699    0.00795   -0.00283

System changes: positions 

Initializing position-dependent things.

Density initialized from wave functions
       .-----------------------.  
      /|                       |  
     / |                       |  
    /  |                       |  
   /   |                       |  
  /    |                       |  
 *     |                       |  
 |     |                       |  
 |     |                       |  
 |     |                       |  
 |     |                       |  
 |     H                       |  
 |     |     H                 |  
 |O   CH                       |  
 |    HLC   CH Li      LiH     |  
 |     H                       |  
 |     |     Li      Li      Li|  
 |     |  Li      Li    NNLi   |  
 | Li  |   Li      Li          |  
 |     |Li      Li      Li     |  
 |     |                       |  
 |   LLi     LLi     LLi       |  
 |     |  Li      Li      Li   |  
 | Li  |   Li      Li          |  
 |     |Li      Li      Li     |  
 Li    | Li      Li            |  
 |    Li      Li      Li       |  
 |     |                       |  
 |     |                       |  
 |     |                       |  
 |     |                       |  
 |     |                       |  
 |     |                       |  
 |     .-----------------------.  
 |    /                       /   
 |   /                       /    
 |  /                       /     
 | /                       /      
 |/                       /       
 *-----------------------*        

Positions:
   0 Li     1.617037    1.617037   10.000000    ( 0.0000,  0.0000,  0.0000)
   1 Li     4.851111    1.617037   10.000000    ( 0.0000,  0.0000,  0.0000)
   2 Li     8.085185    1.617037   10.000000    ( 0.0000,  0.0000,  0.0000)
   3 Li     1.617037    4.851111   10.000000    ( 0.0000,  0.0000,  0.0000)
   4 Li     4.851111    4.851111   10.000000    ( 0.0000,  0.0000,  0.0000)
   5 Li     8.085185    4.851111   10.000000    ( 0.0000,  0.0000,  0.0000)
   6 Li     1.617037    8.085185   10.000000    ( 0.0000,  0.0000,  0.0000)
   7 Li     4.851111    8.085185   10.000000    ( 0.0000,  0.0000,  0.0000)
   8 Li     8.085185    8.085185   10.000000    ( 0.0000,  0.0000,  0.0000)
   9 Li     0.000000    0.000000   11.617037    ( 0.0000,  0.0000,  0.0000)
  10 Li     3.234074    0.000000   11.617037    ( 0.0000,  0.0000,  0.0000)
  11 Li     6.468148    0.000000   11.617037    ( 0.0000,  0.0000,  0.0000)
  12 Li     0.000000    3.234074   11.617037    ( 0.0000,  0.0000,  0.0000)
  13 Li     3.234074    3.234074   11.617037    ( 0.0000,  0.0000,  0.0000)
  14 Li     6.468148    3.234074   11.617037    ( 0.0000,  0.0000,  0.0000)
  15 Li     0.000000    6.468148   11.617037    ( 0.0000,  0.0000,  0.0000)
  16 Li     3.234074    6.468148   11.617037    ( 0.0000,  0.0000,  0.0000)
  17 Li     6.468148    6.468148   11.617037    ( 0.0000,  0.0000,  0.0000)
  18 Li     1.625718    1.610635   13.453785    ( 0.0000,  0.0000,  0.0000)
  19 Li     4.883863    1.613245   13.483256    ( 0.0000,  0.0000,  0.0000)
  20 Li     8.085912    1.620692   13.394166    ( 0.0000,  0.0000,  0.0000)
  21 Li     1.596430    4.843123   13.511921    ( 0.0000,  0.0000,  0.0000)
  22 Li     4.851487    4.871081   13.469948    ( 0.0000,  0.0000,  0.0000)
  23 Li     8.103391    4.842846   13.496638    ( 0.0000,  0.0000,  0.0000)
  24 Li     1.605824    8.074406   13.490211    ( 0.0000,  0.0000,  0.0000)
  25 Li     4.857969    8.063806   13.475838    ( 0.0000,  0.0000,  0.0000)
  26 Li     8.093328    8.062770   13.469466    ( 0.0000,  0.0000,  0.0000)
  27 Li     0.014210   -0.021322   15.453069    ( 0.0000,  0.0000,  0.0000)
  28 Li     3.284866   -0.002808   15.370483    ( 0.0000,  0.0000,  0.0000)
  29 Li     6.435657   -0.058279   15.405137    ( 0.0000,  0.0000,  0.0000)
  30 Li     0.013207    3.164093   15.491266    ( 0.0000,  0.0000,  0.0000)
  31 Li     3.282405    3.240011   15.401452    ( 0.0000,  0.0000,  0.0000)
  32 Li     6.433738    3.290011   15.405048    ( 0.0000,  0.0000,  0.0000)
  33 Li    -0.014072    6.462233   15.480534    ( 0.0000,  0.0000,  0.0000)
  34 Li     3.239444    6.474956   15.451660    ( 0.0000,  0.0000,  0.0000)
  35 Li     6.475304    6.465416   15.439042    ( 0.0000,  0.0000,  0.0000)
  36 O      0.117345    1.786409   20.244645    ( 0.0000,  0.0000,  0.0000)
  37 C      2.492526    1.271778   19.750622    ( 0.0000,  0.0000,  0.0000)
  38 C      1.396589    2.328367   19.907138    ( 0.0000,  0.0000,  0.0000)
  39 C      3.883407    1.894420   19.596852    ( 0.0000,  0.0000,  0.0000)
  40 H      2.468252    0.618343   20.628336    ( 0.0000,  0.0000,  0.0000)
  41 H      2.272268    0.639350   18.879601    ( 0.0000,  0.0000,  0.0000)
  42 H      1.644960    3.002118   20.731616    ( 0.0000,  0.0000,  0.0000)
  43 H      1.330699    2.940371   18.993642    ( 0.0000,  0.0000,  0.0000)
  44 H      4.138988    2.495872   20.472874    ( 0.0000,  0.0000,  0.0000)
  45 H      4.651794    1.124323   19.493147    ( 0.0000,  0.0000,  0.0000)
  46 H      3.940049    2.545371   18.716947    ( 0.0000,  0.0000,  0.0000)
  47 H     -0.192443    1.255279   19.499718    ( 0.0000,  0.0000,  0.0000)
  48 N     -0.428923    1.707944   16.731689    ( 0.0000,  0.0000,  0.0000)
  49 N     -0.664411    0.784275   17.368089    ( 0.0000,  0.0000,  0.0000)

Unit cell:
           periodic     x           y           z      points  spacing
  1. axis:    yes    9.702222    0.000000    0.000000    60     0.1617
  2. axis:    yes    0.000000    9.702222    0.000000    60     0.1617
  3. axis:    no     0.000000    0.000000   26.601111   168     0.1583

  Lengths:   9.702222   9.702222  26.601111
  Angles:   90.000000  90.000000  90.000000

Effective grid spacing dv^(1/3) = 0.1606

     iter     time        total  log10-change:
                         energy  eigst   dens
iter:   1 00:10:37  -334.292797  -2.02
iter:   2 00:10:49  -334.292581  -2.76  -2.51
iter:   3 00:10:57  -334.292090c -3.35  -2.59
iter:   4 00:11:04  -334.291819c -3.69  -2.79
Writing to output.gpw (mode='')

iter:   5 00:11:12  -334.291749c -3.69  -3.02
iter:   6 00:11:19  -334.291744c -3.58  -3.16
iter:   7 00:11:27  -334.291669c -4.08  -3.29
iter:   8 00:11:34  -334.291673c -4.38  -3.48
iter:   9 00:11:42  -334.291688c -4.64  -3.50
Writing to output.gpw (mode='')

iter:  10 00:11:49  -334.291687c -4.98  -3.86
iter:  11 00:11:57  -334.291684c -5.30  -3.84
iter:  12 00:12:04  -334.291688c -5.60  -3.89
iter:  13 00:12:12  -334.291689c -5.50  -4.08c
iter:  14 00:12:19  -334.291688c -6.17  -4.17c
Writing to output.gpw (mode='')

iter:  15 00:12:27  -334.291686c -6.05  -4.25c
iter:  16 00:12:34  -334.291685c -6.12  -4.39c
iter:  17 00:12:42  -334.291685c -6.44  -4.46c
iter:  18 00:12:49  -334.291681c -6.33  -4.59c
iter:  19 00:12:57  -334.291683c -6.91  -4.60c
Writing to output.gpw (mode='')

iter:  20 00:13:10  -334.291684c -6.79  -4.73c
iter:  21 00:13:18  -334.291683c -7.29  -4.75c
iter:  22 00:13:25  -334.291682c -7.25  -4.83c
iter:  23 00:13:33  -334.291684c -7.05  -4.91c
iter:  24 00:13:40  -334.291684c -7.39  -5.02c
Writing to output.gpw (mode='')

iter:  25 00:13:48  -334.291683c -7.50c -5.12c

Converged after 25 iterations.

Dipole moment: (0.056704, -5.359418, -0.319144) |e|*Ang

Energy contributions relative to reference atoms: (reference = -15487.462483)

Kinetic:       +167.213616
Potential:     -162.803581
External:        +0.000000
XC:            -339.426579
Entropy (-ST):   -0.145741
Local:           +0.797732
--------------------------
Free energy:   -334.364554
Extrapolated:  -334.291683

Dipole-layer corrected work functions: 3.408625, 4.022130 eV

Showing only first 2 kpts
 Kpt  Band  Eigenvalues  Occupancy
  0    34     -3.96349    1.98610
  0    35     -3.90310    1.95424
  0    36     -3.59655    0.16996
  0    37     -3.50028    0.02672

  1    34     -3.78223    1.58401
  1    35     -3.71471    0.99331
  1    36     -3.64858    0.41637
  1    37     -3.59716    0.17185


Fermi level: -3.71538

No gap

Forces in eV/Ang:
  0 Li    0.02499    0.00251   -0.27249
  1 Li   -0.01560    0.00413   -0.27036
  2 Li   -0.01418    0.00508   -0.26866
  3 Li    0.00300    0.01206   -0.27670
  4 Li   -0.00504   -0.00052   -0.28934
  5 Li    0.00460    0.02244   -0.26581
  6 Li    0.00079   -0.01408   -0.28007
  7 Li   -0.00378    0.00140   -0.28094
  8 Li    0.00445   -0.02409   -0.27492
  9 Li    0.00692   -0.01754    0.32128
 10 Li    0.03017   -0.00941    0.26238
 11 Li   -0.01709   -0.02955    0.27827
 12 Li    0.01257    0.02519    0.28705
 13 Li    0.03004   -0.00125    0.27049
 14 Li   -0.02679    0.02985    0.26570
 15 Li    0.00304   -0.01841    0.22279
 16 Li   -0.02447   -0.00017    0.27251
 17 Li    0.01978   -0.01650    0.24955
 18 Li   -0.00634    0.00431    0.00379
 19 Li   -0.00739    0.00303   -0.00394
 20 Li    0.00392    0.00222    0.01253
 21 Li   -0.00265   -0.00875    0.00370
 22 Li   -0.00215    0.00483   -0.00463
 23 Li    0.00503   -0.00642    0.00255
 24 Li   -0.00998    0.01013    0.00588
 25 Li   -0.00108   -0.00144   -0.00250
 26 Li    0.01004    0.00607    0.00427
 27 Li    0.01467   -0.02420   -0.02315
 28 Li    0.00300    0.00030    0.01070
 29 Li   -0.01527    0.00050    0.00234
 30 Li   -0.00766    0.00666    0.00623
 31 Li   -0.00919    0.00033   -0.00148
 32 Li   -0.00189   -0.00326    0.00213
 33 Li    0.00233   -0.00572    0.00008
 34 Li   -0.00266   -0.00406    0.00118
 35 Li   -0.00099    0.00193    0.00232
 36 O     0.00300    0.00519   -0.00497
 37 C     0.01142   -0.00925   -0.00876
 38 C     0.02249   -0.00497   -0.00220
 39 C    -0.00187    0.00031    0.01585
 40 H     0.00564    0.00116   -0.01892
 41 H    -0.03710    0.01116    0.01091
 42 H     0.01793   -0.00171   -0.00431
 43 H    -0.00114   -0.00082   -0.00348
 44 H     0.00086    0.01982   -0.00746
 45 H    -0.00798    0.01930   -0.04262
 46 H    -0.01155   -0.02984    0.01987
 47 H    -0.01068   -0.01760    0.03023
 48 N     0.03142    0.01861   -0.01275
 49 N     0.00761    0.00810   -0.03295

Timing:                                      incl.     excl.
-------------------------------------------------------------------
Density initialized from wave functions:     3.807     3.805   0.0% |
 Symmetrize density:                         0.002     0.002   0.0% |
Forces:                                     29.381    29.381   0.2% |
Hamiltonian:                               408.877     0.009   0.0% |
 Atomic:                                     0.016     0.016   0.0% |
  XC Correction:                             0.000     0.000   0.0% |
 Calculate atomic Hamiltonians:              0.028     0.028   0.0% |
 Communicate:                                4.744     4.744   0.0% |
 Hartree integrate/restrict:                 1.491     1.491   0.0% |
 Initialize Hamiltonian:                     0.000     0.000   0.0% |
 Poisson:                                   19.418     7.159   0.0% |
  Communicate from 1D:                       1.921     1.921   0.0% |
  Communicate from 2D:                       1.885     1.885   0.0% |
  Communicate to 1D:                         1.104     1.104   0.0% |
  Communicate to 2D:                         2.185     2.185   0.0% |
  FFT 1D:                                    2.504     2.504   0.0% |
  FFT 2D:                                    2.659     2.659   0.0% |
 XC 3D grid:                               382.857    58.994   0.3% |
  VdW-DF integral:                         323.863     2.731   0.0% |
   Convolution:                             29.470    29.470   0.2% |
   FFT:                                     12.452    12.452   0.1% |
   gather:                                 110.906   110.906   0.6% |
   hmm1:                                    10.356    10.356   0.1% |
   hmm2:                                    13.831    13.831   0.1% |
   iFFT:                                    12.820    12.820   0.1% |
   potential:                              127.744     3.490   0.0% |
    collect:                                19.803    19.803   0.1% |
    p1:                                     56.943    56.943   0.3% |
    p2:                                     21.128    21.128   0.1% |
    sum:                                    26.379    26.379   0.2% |
   splines:                                  3.554     3.554   0.0% |
 vbar:                                       0.313     0.313   0.0% |
LCAO initialization:                         1.191     0.182   0.0% |
 LCAO eigensolver:                           0.228     0.000   0.0% |
  Calculate projections:                     0.000     0.000   0.0% |
  DenseAtomicCorrection:                     0.000     0.000   0.0% |
  Distribute overlap matrix:                 0.210     0.210   0.0% |
  Orbital Layouts:                           0.017     0.017   0.0% |
  Potential matrix:                          0.001     0.001   0.0% |
  Sum over cells:                            0.001     0.001   0.0% |
 LCAO to grid:                               0.640     0.640   0.0% |
 Set positions (LCAO WFS):                   0.140     0.092   0.0% |
  Basic WFS set positions:                   0.001     0.001   0.0% |
  Basis functions set positions:             0.000     0.000   0.0% |
  P tci:                                     0.000     0.000   0.0% |
  ST tci:                                    0.017     0.017   0.0% |
  mktci:                                     0.030     0.030   0.0% |
Redistribute:                                0.042     0.042   0.0% |
SCF-cycle:                               16785.093   323.944   1.9% ||
 Davidson:                                4486.925  1337.174   7.7% |--|
  Apply hamiltonian:                       282.129   282.129   1.6% ||
  Subspace diag:                           840.314     0.252   0.0% |
   calc_h_matrix:                          414.194   127.837   0.7% |
    Apply hamiltonian:                     286.357   286.357   1.7% ||
   diagonalize:                             45.762    45.762   0.3% |
   rotate_psi:                             380.105   380.105   2.2% ||
  calc. matrices:                         1409.206   722.663   4.2% |-|
   Apply hamiltonian:                      686.544   686.544   4.0% |-|
  diagonalize:                              12.898    12.898   0.1% |
  rotate_psi:                              605.203   605.203   3.5% ||
 Density:                                   86.905     0.054   0.0% |
  Atomic density matrices:                  11.116    11.116   0.1% |
  Mix:                                      37.622    37.622   0.2% |
  Multipole moments:                         3.595     3.595   0.0% |
  Pseudo density:                           34.518    34.475   0.2% |
   Symmetrize density:                       0.043     0.043   0.0% |
 Hamiltonian:                            11873.168     0.283   0.0% |
  Atomic:                                    0.530     0.524   0.0% |
   XC Correction:                            0.005     0.005   0.0% |
  Calculate atomic Hamiltonians:             0.836     0.836   0.0% |
  Communicate:                             192.036   192.036   1.1% |
  Hartree integrate/restrict:               44.735    44.735   0.3% |
  Poisson:                                 566.358   209.900   1.2% |
   Communicate from 1D:                     55.887    55.887   0.3% |
   Communicate from 2D:                     56.462    56.462   0.3% |
   Communicate to 1D:                       32.389    32.389   0.2% |
   Communicate to 2D:                       66.305    66.305   0.4% |
   FFT 1D:                                  72.676    72.676   0.4% |
   FFT 2D:                                  72.739    72.739   0.4% |
  XC 3D grid:                            11059.236  1710.894   9.9% |---|
   VdW-DF integral:                       9348.342    76.901   0.4% |
    Convolution:                           852.845   852.845   4.9% |-|
    FFT:                                   362.627   362.627   2.1% ||
    gather:                               3255.751  3255.751  18.8% |-------|
    hmm1:                                  304.826   304.826   1.8% ||
    hmm2:                                  401.902   401.902   2.3% ||
    iFFT:                                  372.938   372.938   2.2% ||
    potential:                            3720.532   101.556   0.6% |
     collect:                              567.989   567.989   3.3% ||
     p1:                                  1648.977  1648.977   9.5% |---|
     p2:                                   618.947   618.947   3.6% ||
     sum:                                  783.063   783.063   4.5% |-|
    splines:                                 0.020     0.020   0.0% |
  vbar:                                      9.154     9.154   0.1% |
 Orthonormalize:                            14.151     0.010   0.0% |
  calc_s_matrix:                             1.974     1.974   0.0% |
  inverse-cholesky:                          4.427     4.427   0.0% |
  projections:                               0.002     0.002   0.0% |
  rotate_psi_s:                              7.739     7.739   0.0% |
Set symmetry:                                0.022     0.022   0.0% |
Other:                                      85.790    85.790   0.5% |
-------------------------------------------------------------------
Total:                                             17314.203 100.0%

Memory usage: 1.15 GiB
Date: Sat Mar 11 00:13:49 2023
