
  ___ ___ ___ _ _ _  
 |   |   |_  | | | | 
 | | | | | . | | | | 
 |__ |  _|___|_____|  22.8.0
 |___|_|             

User:   vazumah@r363.ib.bridges2.psc.edu
Date:   Fri Mar 10 18:32:05 2023
Arch:   x86_64
Pid:    45388
CWD:    /jet/home/vazumah/Calcs/LiMEAS/proton_donors/propan_1_ol_z/ontop/9.702_9.702/N2_y
Python: 3.11.0
gpaw:   /jet/home/vazumah/.conda/envs/GPAW_mpich/lib/python3.11/site-packages/gpaw
_gpaw:  /jet/home/vazumah/.conda/envs/GPAW_mpich/lib/python3.11/site-packages/
        _gpaw.cpython-311-x86_64-linux-gnu.so
ase:    /jet/home/vazumah/.conda/envs/GPAW_mpich/lib/python3.11/site-packages/ase (version 3.22.1)
numpy:  /jet/home/vazumah/.conda/envs/GPAW_mpich/lib/python3.11/site-packages/numpy (version 1.24.2)
scipy:  /jet/home/vazumah/.conda/envs/GPAW_mpich/lib/python3.11/site-packages/scipy (version 1.10.1)
libxc:  5.2.3
units:  Angstrom and eV
cores: 128
OpenMP: True
OMP_NUM_THREADS: 1

Input parameters:
  h: 0.16
  kpts: {size: [4, 4, 1]}
  occupations: {name: fermi-dirac,
                width: 0.05}
  poissonsolver: {dipolelayer: xy}
  xc: BEEF-vdW

System changes: positions, numbers, cell, pbc, initial_charges, initial_magmoms 

Initialize ...

species:
  Li:
    name: Lithium
    id: 830b4218f175192f93f959cfc0aad614
    Z: 3.0
    valence: 1
    core: 2
    charge: 0.0
    file: /jet/home/vazumah/datasets/gpaw-setups-0.9.20000/Li.PBE.gz
    compensation charges: {type: gauss,
                           rc: 0.33,
                           lmax: 2}
    cutoffs: {filter: 1.91,
              core: 2.55}
    valence states:
      #              energy  rcut
      - 2s(1.00)    -2.874   1.058
      - 2p(0.00)    -1.090   1.058
      -  s          24.337   1.058
  
    # Using partial waves for Li as LCAO basis

  O:
    name: Oxygen
    id: 32ecd46bf208036f09c70b0ec9a88b78
    Z: 8.0
    valence: 6
    core: 2
    charge: 0.0
    file: /jet/home/vazumah/datasets/gpaw-setups-0.9.20000/O.PBE.gz
    compensation charges: {type: gauss,
                           rc: 0.21,
                           lmax: 2}
    cutoffs: {filter: 1.17,
              core: 0.83}
    valence states:
      #              energy  rcut
      - 2s(2.00)   -23.961   0.688
      - 2p(4.00)    -9.029   0.598
      -  s           3.251   0.688
      -  p          18.182   0.598
      -  d           0.000   0.619
  
    # Using partial waves for O as LCAO basis

  C:
    name: Carbon
    id: 4aa54d4b901d75f77cc0ea3eec22967b
    Z: 6.0
    valence: 4
    core: 2
    charge: 0.0
    file: /jet/home/vazumah/datasets/gpaw-setups-0.9.20000/C.PBE.gz
    compensation charges: {type: gauss,
                           rc: 0.20,
                           lmax: 2}
    cutoffs: {filter: 1.14,
              core: 1.14}
    valence states:
      #              energy  rcut
      - 2s(2.00)   -13.751   0.635
      - 2p(2.00)    -5.284   0.635
      -  s          13.461   0.635
      -  p          21.927   0.635
      -  d           0.000   0.635
  
    # Using partial waves for C as LCAO basis

  H:
    name: Hydrogen
    id: d65de229564ff8ea4db303e23b6d1ecf
    Z: 1.0
    valence: 1
    core: 0
    charge: 0.0
    file: /jet/home/vazumah/datasets/gpaw-setups-0.9.20000/H.PBE.gz
    compensation charges: {type: gauss,
                           rc: 0.15,
                           lmax: 2}
    cutoffs: {filter: 0.85,
              core: 0.53}
    valence states:
      #              energy  rcut
      - 1s(1.00)    -6.494   0.476
      -  s          20.717   0.476
      -  p           0.000   0.476
  
    # Using partial waves for H as LCAO basis

  N:
    name: Nitrogen
    id: f7500608b86eaa90eef8b1d9a670dc53
    Z: 7.0
    valence: 5
    core: 2
    charge: 0.0
    file: /jet/home/vazumah/datasets/gpaw-setups-0.9.20000/N.PBE.gz
    compensation charges: {type: gauss,
                           rc: 0.18,
                           lmax: 2}
    cutoffs: {filter: 1.11,
              core: 0.96}
    valence states:
      #              energy  rcut
      - 2s(2.00)   -18.583   0.603
      - 2p(3.00)    -7.089   0.529
      -  s           8.629   0.603
      -  p          20.123   0.529
      -  d           0.000   0.577
  
    # Using partial waves for N as LCAO basis

Reference energy: -15487.462483  # eV

Spin-paired calculation

Convergence criteria:
 Maximum [total energy] change in last 3 cyles: 0.0005 eV / electron
 Maximum integral of absolute [dens]ity change: 0.0001 electrons / valence electron
 Maximum integral of absolute [eigenst]ate change: 4e-08 eV^2 / valence electron
 Maximum number of scf [iter]ations: 333
 (Square brackets indicate name in SCF output, whereas a 'c' in
 the SCF output indicates the quantity has converged.)

Symmetries present (total): 1

  ( 1  0  0)
  ( 0  1  0)
  ( 0  0  1)

16 k-points: 4 x 4 x 1 Monkhorst-Pack grid
8 k-points in the irreducible part of the Brillouin zone
       k-points in crystal coordinates                weights
   0:     0.12500000   -0.37500000    0.00000000          2/16
   1:     0.12500000   -0.12500000    0.00000000          2/16
   2:     0.12500000    0.12500000    0.00000000          2/16
   3:     0.12500000    0.37500000    0.00000000          2/16
   4:     0.37500000   -0.37500000    0.00000000          2/16
   5:     0.37500000   -0.12500000    0.00000000          2/16
   6:     0.37500000    0.12500000    0.00000000          2/16
   7:     0.37500000    0.37500000    0.00000000          2/16

Wave functions: Uniform real-space grid
  Kinetic energy operator: 6*3+1=19 point O(h^6) finite-difference Laplacian
  ScaLapack parameters: grid=1x1, blocksize=None
  Wavefunction extrapolation:
    Improved wavefunction reuse through dual PAW basis 

Occupation numbers: Fermi-Dirac:
  width: 0.0500  # eV
 

Eigensolver
   Davidson(niter=2) 

Densities:
  Coarse grid: 60*60*164 grid
  Fine grid: 120*120*328 grid
  Total Charge: 0.000000 

Density mixing:
  Method: separate
  Backend: pulay
  Linear mixing parameter: 0.05
  old densities: 5
  Damping of long wavelength oscillations: 50 

Hamiltonian:
  XC and Coulomb potentials evaluated on a 120*120*328 grid
  Using the BEEF-vdW Exchange-Correlation functional
  Interpolation: tri-quintic (5. degree polynomial)
  Poisson solver: FastPoissonSolver using
    Stencil: 6*3+1=19 point O(h^6) finite-difference Laplacian
    FFT axes: [0, 1]
    FST axes: [2]

Dipole correction along z-axis 

XC parameters: BEEF-vdW with 2 nearest neighbor stencil

Memory estimate:
  Process memory now: 124.50 MiB
  Calculator: 84.83 MiB
    Density: 22.60 MiB
      Arrays: 7.22 MiB
      Localized functions: 12.63 MiB
      Mixer: 2.75 MiB
    Hamiltonian: 5.72 MiB
      Arrays: 4.72 MiB
      XC: 0.00 MiB
      Poisson: 0.00 MiB
      vbar: 1.00 MiB
    Wavefunctions: 56.51 MiB
      Arrays psit_nG: 26.37 MiB
      Eigensolver: 29.47 MiB
      Projections: 0.01 MiB
      Projectors: 0.66 MiB

Total number of cores used: 128
Parallelization over k-points: 8
Domain decomposition: 2 x 2 x 4

Number of atoms: 50
Number of atomic orbitals: 176
Number of bands in calculation: 48
Number of valence electrons: 72
Bands to converge: occupied

... initialized

Initializing position-dependent things.

Density initialized from atomic densities
Creating initial wave functions:
  48 bands from LCAO basis set

       .-----------------------.  
      /|                       |  
     / |                       |  
    /  |                       |  
   /   |                       H  
  /    |                       |  
 *     |                       |  
 |     C H                  H  |  
 |     |                       |  
 |     |                       |  
 |  H  | H             H       |  
 |     |                 C     N  
 |     |                       |  
 |  H  |                H      |  
 C     |                       |  
 |   Li|     Li      Li        |  
 O     |                       |  
 | Li  |  LLi     LLi     Ni   |  
 |     |                       |  
 Li    |LLi     LLi     Li     |  
 |   Li|     Li      Li        |  
 |    Li  Li  Li  Li  Li  Li   |  
 | Li  |   Li      Li          |  
 |     |Li      Li      Li     |  
 Li    | Li      Li            |  
 |    Li      Li      Li       |  
 |     |                       |  
 |     |                       |  
 |     |                       |  
 |     |                       |  
 |     |                       |  
 |     |                       |  
 |     .-----------------------.  
 |    /                       /   
 |   /                       /    
 |  /                       /     
 | /                       /      
 |/                       /       
 *-----------------------*        

Positions:
   0 Li     1.617037    1.617037   10.000000    ( 0.0000,  0.0000,  0.0000)
   1 Li     4.851111    1.617037   10.000000    ( 0.0000,  0.0000,  0.0000)
   2 Li     8.085185    1.617037   10.000000    ( 0.0000,  0.0000,  0.0000)
   3 Li     1.617037    4.851111   10.000000    ( 0.0000,  0.0000,  0.0000)
   4 Li     4.851111    4.851111   10.000000    ( 0.0000,  0.0000,  0.0000)
   5 Li     8.085185    4.851111   10.000000    ( 0.0000,  0.0000,  0.0000)
   6 Li     1.617037    8.085185   10.000000    ( 0.0000,  0.0000,  0.0000)
   7 Li     4.851111    8.085185   10.000000    ( 0.0000,  0.0000,  0.0000)
   8 Li     8.085185    8.085185   10.000000    ( 0.0000,  0.0000,  0.0000)
   9 Li     0.000000    0.000000   11.617037    ( 0.0000,  0.0000,  0.0000)
  10 Li     3.234074    0.000000   11.617037    ( 0.0000,  0.0000,  0.0000)
  11 Li     6.468148    0.000000   11.617037    ( 0.0000,  0.0000,  0.0000)
  12 Li     0.000000    3.234074   11.617037    ( 0.0000,  0.0000,  0.0000)
  13 Li     3.234074    3.234074   11.617037    ( 0.0000,  0.0000,  0.0000)
  14 Li     6.468148    3.234074   11.617037    ( 0.0000,  0.0000,  0.0000)
  15 Li     0.000000    6.468148   11.617037    ( 0.0000,  0.0000,  0.0000)
  16 Li     3.234074    6.468148   11.617037    ( 0.0000,  0.0000,  0.0000)
  17 Li     6.468148    6.468148   11.617037    ( 0.0000,  0.0000,  0.0000)
  18 Li     1.617038    1.617038   13.469728    ( 0.0000,  0.0000,  0.0000)
  19 Li     4.851111    1.617038   13.469729    ( 0.0000,  0.0000,  0.0000)
  20 Li     8.085184    1.617038   13.469728    ( 0.0000,  0.0000,  0.0000)
  21 Li     1.617038    4.851111   13.469729    ( 0.0000,  0.0000,  0.0000)
  22 Li     4.851111    4.851111   13.469730    ( 0.0000,  0.0000,  0.0000)
  23 Li     8.085184    4.851111   13.469729    ( 0.0000,  0.0000,  0.0000)
  24 Li     1.617038    8.085184   13.469728    ( 0.0000,  0.0000,  0.0000)
  25 Li     4.851111    8.085184   13.469729    ( 0.0000,  0.0000,  0.0000)
  26 Li     8.085184    8.085184   13.469728    ( 0.0000,  0.0000,  0.0000)
  27 Li    -0.000000   -0.000000   15.445939    ( 0.0000,  0.0000,  0.0000)
  28 Li     3.234074    0.000000   15.445939    ( 0.0000,  0.0000,  0.0000)
  29 Li     6.468148    0.000000   15.445939    ( 0.0000,  0.0000,  0.0000)
  30 Li     0.000000    3.234074   15.445939    ( 0.0000,  0.0000,  0.0000)
  31 Li     3.234076    3.234076   15.445938    ( 0.0000,  0.0000,  0.0000)
  32 Li     6.468146    3.234076   15.445938    ( 0.0000,  0.0000,  0.0000)
  33 Li     0.000000    6.468148   15.445939    ( 0.0000,  0.0000,  0.0000)
  34 Li     3.234076    6.468146   15.445938    ( 0.0000,  0.0000,  0.0000)
  35 Li     6.468146    6.468146   15.445938    ( 0.0000,  0.0000,  0.0000)
  36 O      9.702222    9.702222   18.445939    ( 0.0000,  0.0000,  0.0000)
  37 C      9.702352    9.314601   20.880188    ( 0.0000,  0.0000,  0.0000)
  38 C      9.712905   10.325011   19.737999    ( 0.0000,  0.0000,  0.0000)
  39 C      9.695991    9.977014   22.260523    ( 0.0000,  0.0000,  0.0000)
  40 H      8.825051    8.671752   20.761575    ( 0.0000,  0.0000,  0.0000)
  41 H     10.588031    8.672843   20.786274    ( 0.0000,  0.0000,  0.0000)
  42 H      8.813013   10.944954   19.761807    ( 0.0000,  0.0000,  0.0000)
  43 H     10.580679   10.991914   19.831582    ( 0.0000,  0.0000,  0.0000)
  44 H      8.810312   10.603094   22.394060    ( 0.0000,  0.0000,  0.0000)
  45 H      9.695185    9.232239   23.057805    ( 0.0000,  0.0000,  0.0000)
  46 H     10.574252   10.612530   22.402072    ( 0.0000,  0.0000,  0.0000)
  47 H     10.473534    9.124664   18.397178    ( 0.0000,  0.0000,  0.0000)
  48 N      9.702000    9.702000   16.945939    ( 0.0000,  0.0000,  0.0000)
  49 N      9.702000   10.798622   16.945939    ( 0.0000,  0.0000,  0.0000)

Unit cell:
           periodic     x           y           z      points  spacing
  1. axis:    yes    9.702222    0.000000    0.000000    60     0.1617
  2. axis:    yes    0.000000    9.702222    0.000000    60     0.1617
  3. axis:    no     0.000000    0.000000   26.351111   164     0.1607

  Lengths:   9.702222   9.702222  26.351111
  Angles:   90.000000  90.000000  90.000000

Effective grid spacing dv^(1/3) = 0.1614

     iter     time        total  log10-change:
                         energy  eigst   dens
iter:   1 18:32:21  -673.286046
iter:   2 18:32:28    11.781828  +2.64  +0.04
iter:   3 18:32:36    62.686334  +3.27  -0.15
iter:   4 18:32:43  -155.786499  +3.33  -0.24
Writing to output.gpw (mode='')

iter:   5 18:32:50  -245.905314  +2.89  -0.28
iter:   6 18:32:58  -314.638074  +2.56  -0.46
iter:   7 18:33:05  -331.555686  +2.36  -0.47
iter:   8 18:33:13  -360.220313  +2.22  -0.49
iter:   9 18:33:20  -472.949088  +2.48  -0.44
Writing to output.gpw (mode='')

iter:  10 18:33:27  -486.848206  +2.11  -0.31
iter:  11 18:33:35  -390.094456  +1.44  -0.28
iter:  12 18:33:42  -352.619849  +1.41  -0.39
iter:  13 18:33:49  -336.517589  +1.66  -0.58
iter:  14 18:33:57  -337.816516  +0.77  -0.68
Writing to output.gpw (mode='')

iter:  15 18:34:04  -329.855402  +0.89  -0.71
iter:  16 18:34:12  -335.375743  +1.44  -0.81
iter:  17 18:34:19  -331.549614  +0.81  -0.67
iter:  18 18:34:26  -329.218702  +1.15  -0.74
iter:  19 18:34:34  -328.829175  +0.71  -0.88
Writing to output.gpw (mode='')

iter:  20 18:34:47  -328.113785  +0.22  -1.01
iter:  21 18:34:54  -327.282869  +0.21  -1.04
iter:  22 18:35:02  -326.791727  +0.26  -1.14
iter:  23 18:35:09  -326.524043  -0.07  -1.32
iter:  24 18:35:16  -326.510977  -0.25  -1.33
Writing to output.gpw (mode='')

iter:  25 18:35:24  -326.421112  -0.67  -1.34
iter:  26 18:35:31  -326.525491  -0.18  -1.45
iter:  27 18:35:38  -326.313230  -0.67  -1.43
iter:  28 18:35:46  -326.299381  -1.04  -1.70
iter:  29 18:35:53  -326.302523c -1.02  -1.78
Writing to output.gpw (mode='')

iter:  30 18:36:01  -326.290408c -0.80  -1.82
iter:  31 18:36:09  -326.299395c -1.15  -2.00
iter:  32 18:36:16  -326.302453c -1.27  -2.03
iter:  33 18:36:24  -326.307125c -1.45  -2.12
iter:  34 18:36:31  -326.311517c -1.60  -2.22
Writing to output.gpw (mode='')

iter:  35 18:36:38  -326.314991c -1.83  -2.23
iter:  36 18:36:46  -326.318224c -1.85  -2.33
iter:  37 18:36:53  -326.320819c -1.92  -2.49
iter:  38 18:37:01  -326.322967c -2.03  -2.63
iter:  39 18:37:08  -326.324127c -2.27  -2.71
Writing to output.gpw (mode='')

iter:  40 18:37:15  -326.325397c -2.29  -2.73
iter:  41 18:37:23  -326.326833c -2.40  -2.79
iter:  42 18:37:30  -326.327578c -2.59  -2.99
iter:  43 18:37:38  -326.328244c -2.51  -3.03
iter:  44 18:37:45  -326.329033c -2.38  -3.06
Writing to output.gpw (mode='')

iter:  45 18:37:52  -326.329624c -2.53  -3.13
iter:  46 18:38:00  -326.330321c -2.58  -3.19
iter:  47 18:38:07  -326.330639c -2.86  -3.34
iter:  48 18:38:14  -326.330936c -2.84  -3.46
iter:  49 18:38:22  -326.331185c -3.03  -3.52
Writing to output.gpw (mode='')

iter:  50 18:38:29  -326.331390c -3.15  -3.51
iter:  51 18:38:37  -326.331566c -3.18  -3.49
iter:  52 18:38:44  -326.331727c -3.25  -3.43
iter:  53 18:38:51  -326.331889c -3.18  -3.49
iter:  54 18:38:58  -326.332031c -3.11  -3.51
Writing to output.gpw (mode='')

iter:  55 18:39:06  -326.332183c -3.46  -3.50
iter:  56 18:39:13  -326.332280c -3.54  -3.58
iter:  57 18:39:21  -326.332338c -3.60  -3.55
iter:  58 18:39:28  -326.332402c -3.56  -3.52
iter:  59 18:39:44  -326.332485c -3.52  -3.55
Writing to output.gpw (mode='')

iter:  60 18:39:51  -326.332547c -3.65  -3.59
iter:  61 18:39:59  -326.332653c -3.39  -3.63
iter:  62 18:40:06  -326.332709c -3.74  -3.66
iter:  63 18:40:13  -326.332729c -3.92  -3.62
iter:  64 18:40:21  -326.332793c -3.71  -3.65
Writing to output.gpw (mode='')

iter:  65 18:40:28  -326.332791c -4.00  -3.74
iter:  66 18:40:36  -326.332823c -4.24  -3.94
iter:  67 18:40:43  -326.332845c -4.18  -3.98
iter:  68 18:40:51  -326.332853c -4.34  -4.08c
iter:  69 18:40:58  -326.332858c -4.40  -4.13c
Writing to output.gpw (mode='')

iter:  70 18:41:05  -326.332866c -4.26  -4.21c
iter:  71 18:41:13  -326.332878c -4.49  -4.27c
iter:  72 18:41:20  -326.332882c -4.62  -4.31c
iter:  73 18:41:27  -326.332889c -4.55  -4.41c
iter:  74 18:41:35  -326.332894c -4.77  -4.60c
Writing to output.gpw (mode='')

iter:  75 18:41:42  -326.332900c -4.69  -4.64c
iter:  76 18:41:49  -326.332904c -4.85  -4.69c
iter:  77 18:41:57  -326.332906c -4.90  -4.70c
iter:  78 18:42:04  -326.332911c -5.04  -4.66c
iter:  79 18:42:12  -326.332912c -5.18  -4.82c
Writing to output.gpw (mode='')

iter:  80 18:42:19  -326.332914c -4.96  -4.81c
iter:  81 18:42:26  -326.332916c -5.01  -4.84c
iter:  82 18:42:34  -326.332918c -5.06  -4.84c
iter:  83 18:42:41  -326.332919c -5.31  -4.69c
iter:  84 18:42:48  -326.332919c -5.40  -4.68c
Writing to output.gpw (mode='')

iter:  85 18:42:56  -326.332921c -5.27  -4.64c
iter:  86 18:43:03  -326.332921c -5.51  -4.67c
iter:  87 18:43:11  -326.332925c -5.47  -4.65c
iter:  88 18:43:18  -326.332924c -5.47  -4.46c
iter:  89 18:43:26  -326.332922c -5.56  -4.42c
Writing to output.gpw (mode='')

iter:  90 18:43:33  -326.332930c -5.53  -4.35c
iter:  91 18:43:41  -326.332932c -5.62  -4.48c
iter:  92 18:43:48  -326.332935c -5.52  -4.51c
iter:  93 18:43:55  -326.332933c -5.57  -4.58c
iter:  94 18:44:03  -326.332936c -5.60  -4.72c
Writing to output.gpw (mode='')

iter:  95 18:44:10  -326.332937c -5.58  -4.78c
iter:  96 18:44:17  -326.332937c -5.68  -4.80c
iter:  97 18:44:25  -326.332937c -6.02  -4.97c
iter:  98 18:44:34  -326.332937c -5.95  -5.10c
iter:  99 18:44:48  -326.332938c -5.95  -5.16c
Writing to output.gpw (mode='')

iter: 100 18:45:00  -326.332939c -5.98  -5.20c
iter: 101 18:45:08  -326.332939c -6.14  -5.31c
iter: 102 18:45:16  -326.332939c -6.22  -5.49c
iter: 103 18:45:23  -326.332939c -6.33  -5.51c
iter: 104 18:45:30  -326.332939c -6.31  -5.67c
Writing to output.gpw (mode='')

iter: 105 18:45:37  -326.332940c -6.25  -5.67c
iter: 106 18:45:45  -326.332940c -6.52  -5.67c
iter: 107 18:45:52  -326.332940c -6.44  -5.62c
iter: 108 18:45:59  -326.332940c -6.37  -5.69c
iter: 109 18:46:06  -326.332940c -6.62  -5.67c
Writing to output.gpw (mode='')

iter: 110 18:46:14  -326.332940c -6.52  -5.70c
iter: 111 18:46:21  -326.332940c -6.73  -5.64c
iter: 112 18:46:28  -326.332940c -6.78  -5.49c
iter: 113 18:46:35  -326.332940c -6.68  -5.66c
iter: 114 18:46:43  -326.332940c -6.81  -5.81c
Writing to output.gpw (mode='')

iter: 115 18:46:50  -326.332941c -6.87  -5.80c
iter: 116 18:46:57  -326.332941c -7.05  -6.10c
iter: 117 18:47:04  -326.332941c -6.96  -6.16c
iter: 118 18:47:12  -326.332941c -6.94  -6.25c
iter: 119 18:47:19  -326.332941c -7.01  -6.32c
Writing to output.gpw (mode='')

iter: 120 18:47:26  -326.332941c -7.01  -6.38c
iter: 121 18:47:33  -326.332941c -7.06  -6.61c
iter: 122 18:47:41  -326.332941c -7.13  -6.68c
iter: 123 18:47:48  -326.332941c -7.21  -6.59c
iter: 124 18:47:55  -326.332941c -7.34  -6.51c
Writing to output.gpw (mode='')

iter: 125 18:48:03  -326.332941c -7.33  -6.38c
iter: 126 18:48:10  -326.332941c -7.49c -6.35c

Converged after 126 iterations.

Dipole moment: (-26.259667, -13.628301, 0.604993) |e|*Ang

Energy contributions relative to reference atoms: (reference = -15487.462483)

Kinetic:       +208.909769
Potential:     -190.582268
External:        +0.000000
XC:            -345.388263
Entropy (-ST):   -0.151305
Local:           +0.803473
--------------------------
Free energy:   -326.408593
Extrapolated:  -326.332941

Dipole-layer corrected work functions: 3.367637, 2.204634 eV

Showing only first 2 kpts
 Kpt  Band  Eigenvalues  Occupancy
  0    34     -3.04004    1.98761
  0    35     -2.92536    1.88366
  0    36     -2.65497    0.13530
  0    37     -2.54320    0.01540

  1    34     -2.84479    1.52741
  1    35     -2.80917    1.22633
  1    36     -2.73039    0.49394
  1    37     -2.69939    0.29991


Fermi level: -2.78614

Gap: 0.030 eV
Transition (v -> c):
  (s=0, k=1, n=35, [0.12, -0.12, 0.00]) -> (s=0, k=7, n=36, [0.38, 0.38, 0.00])
Writing to output.gpw (mode='')


Forces in eV/Ang:
  0 Li    0.01642    0.00211   -0.27534
  1 Li    0.00136   -0.00037   -0.26484
  2 Li   -0.01760    0.00712   -0.27519
  3 Li   -0.00650    0.01140   -0.26478
  4 Li    0.00129   -0.00395   -0.28048
  5 Li    0.00487    0.00704   -0.26227
  6 Li    0.00286   -0.01603   -0.27724
  7 Li   -0.00324    0.00882   -0.26346
  8 Li   -0.00013   -0.01622   -0.27474
  9 Li   -0.00025    0.00376    0.34685
 10 Li    0.01814    0.00001    0.25489
 11 Li   -0.01810    0.00161    0.26158
 12 Li   -0.00123    0.00641    0.27634
 13 Li    0.00625   -0.00159    0.26659
 14 Li   -0.00609    0.00345    0.25951
 15 Li    0.00041   -0.00309    0.24554
 16 Li   -0.00439   -0.00227    0.26241
 17 Li    0.00456   -0.00932    0.25748
 18 Li    0.02490    0.00575   -0.07917
 19 Li    0.00018   -0.00861    0.07547
 20 Li   -0.02572    0.00954   -0.07446
 21 Li   -0.01944   -0.01332    0.06707
 22 Li    0.00054    0.01064    0.00016
 23 Li    0.02007   -0.01090    0.07341
 24 Li    0.01111    0.00437   -0.00210
 25 Li    0.00428   -0.00137    0.05326
 26 Li   -0.01368   -0.00174   -0.02052
 27 Li    0.00292   -0.87679   -7.48838
 28 Li    0.12766   -0.03618   -0.07211
 29 Li   -0.11623   -0.01964   -0.06318
 30 Li   -0.00274   -0.21594    0.17631
 31 Li    0.06472    0.04397   -0.03408
 32 Li   -0.05751    0.04363   -0.03755
 33 Li    0.00927   -0.05101   -0.04140
 34 Li   -0.01201    0.00715   -0.00583
 35 Li    0.00002   -0.01274   -0.02548
 36 O     0.91227   -7.14180   12.90584
 37 C    -0.00339   -0.19960   -0.03522
 38 C    -0.41397    1.06755    1.80736
 39 C    -0.02085    0.16986   -0.02045
 40 H     0.02626   -0.02938    0.02934
 41 H    -0.05814   -0.00221    0.01938
 42 H     0.02807    0.01092   -0.01157
 43 H    -0.01182   -0.04142   -0.20290
 44 H    -0.00801   -0.00371   -0.00564
 45 H     0.01000   -0.05187   -0.03833
 46 H     0.00508   -0.02266   -0.01203
 47 H     0.56787   -0.72283    1.10080
 48 N    -0.99362   -2.25576   -0.56533
 49 N    -0.03656   10.28294   -7.44028

System changes: positions 

Initializing position-dependent things.

Density initialized from wave functions
       .-----------------------.  
      /|                       |  
     / |                       |  
    /  |                       |  
   /   |                       H  
  /    |                       |  
 *     |                       |  
 |     C H                  H  |  
 |     |                       |  
 |     |                       |  
 |  H  O H             H       |  
 |     |                 C     N  
 |     |                       |  
 |  H  Li      Li      LH      |  
 C     |                       |  
 |   Li|     Li      Li        |  
 |     |                       |  
 |     |  LLi     LLi     NLi  |  
 |     |                       |  
 |     |Li      Li      Li     |  
 |   Li|     Li      Li        |  
 |    Li  Li  Li  Li  Li  Li   |  
 | Li  |   Li      Li          |  
 |     |Li      Li      Li     |  
 Li    | Li      Li            |  
 |    Li      Li      Li       |  
 |     |                       |  
 |     |                       |  
 |     |                       |  
 |     |                       |  
 |     |                       |  
 |     |                       |  
 |     .-----------------------.  
 |    /                       /   
 |   /                       /    
 |  /                       /     
 | /                       /      
 |/                       /       
 *-----------------------*        

Positions:
   0 Li     1.617037    1.617037   10.000000    ( 0.0000,  0.0000,  0.0000)
   1 Li     4.851111    1.617037   10.000000    ( 0.0000,  0.0000,  0.0000)
   2 Li     8.085185    1.617037   10.000000    ( 0.0000,  0.0000,  0.0000)
   3 Li     1.617037    4.851111   10.000000    ( 0.0000,  0.0000,  0.0000)
   4 Li     4.851111    4.851111   10.000000    ( 0.0000,  0.0000,  0.0000)
   5 Li     8.085185    4.851111   10.000000    ( 0.0000,  0.0000,  0.0000)
   6 Li     1.617037    8.085185   10.000000    ( 0.0000,  0.0000,  0.0000)
   7 Li     4.851111    8.085185   10.000000    ( 0.0000,  0.0000,  0.0000)
   8 Li     8.085185    8.085185   10.000000    ( 0.0000,  0.0000,  0.0000)
   9 Li     0.000000    0.000000   11.617037    ( 0.0000,  0.0000,  0.0000)
  10 Li     3.234074    0.000000   11.617037    ( 0.0000,  0.0000,  0.0000)
  11 Li     6.468148    0.000000   11.617037    ( 0.0000,  0.0000,  0.0000)
  12 Li     0.000000    3.234074   11.617037    ( 0.0000,  0.0000,  0.0000)
  13 Li     3.234074    3.234074   11.617037    ( 0.0000,  0.0000,  0.0000)
  14 Li     6.468148    3.234074   11.617037    ( 0.0000,  0.0000,  0.0000)
  15 Li     0.000000    6.468148   11.617037    ( 0.0000,  0.0000,  0.0000)
  16 Li     3.234074    6.468148   11.617037    ( 0.0000,  0.0000,  0.0000)
  17 Li     6.468148    6.468148   11.617037    ( 0.0000,  0.0000,  0.0000)
  18 Li     1.617106    1.617054   13.469514    ( 0.0000,  0.0000,  0.0000)
  19 Li     4.851111    1.617015   13.469934    ( 0.0000,  0.0000,  0.0000)
  20 Li     8.085114    1.617064   13.469526    ( 0.0000,  0.0000,  0.0000)
  21 Li     1.616986    4.851075   13.469911    ( 0.0000,  0.0000,  0.0000)
  22 Li     4.851112    4.851140   13.469731    ( 0.0000,  0.0000,  0.0000)
  23 Li     8.085238    4.851081   13.469928    ( 0.0000,  0.0000,  0.0000)
  24 Li     1.617068    8.085196   13.469722    ( 0.0000,  0.0000,  0.0000)
  25 Li     4.851123    8.085180   13.469874    ( 0.0000,  0.0000,  0.0000)
  26 Li     8.085147    8.085179   13.469672    ( 0.0000,  0.0000,  0.0000)
  27 Li     0.000008   -0.002373   15.425671    ( 0.0000,  0.0000,  0.0000)
  28 Li     3.234419   -0.000098   15.445744    ( 0.0000,  0.0000,  0.0000)
  29 Li     6.467834   -0.000053   15.445768    ( 0.0000,  0.0000,  0.0000)
  30 Li    -0.000007    3.233489   15.446416    ( 0.0000,  0.0000,  0.0000)
  31 Li     3.234252    3.234195   15.445846    ( 0.0000,  0.0000,  0.0000)
  32 Li     6.467990    3.234195   15.445836    ( 0.0000,  0.0000,  0.0000)
  33 Li     0.000025    6.468010   15.445827    ( 0.0000,  0.0000,  0.0000)
  34 Li     3.234044    6.468165   15.445922    ( 0.0000,  0.0000,  0.0000)
  35 Li     6.468146    6.468111   15.445869    ( 0.0000,  0.0000,  0.0000)
  36 O      9.704691    9.682891   18.480871    ( 0.0000,  0.0000,  0.0000)
  37 C      9.702343    9.314061   20.880093    ( 0.0000,  0.0000,  0.0000)
  38 C      9.711784   10.327900   19.742891    ( 0.0000,  0.0000,  0.0000)
  39 C      9.695934    9.977474   22.260468    ( 0.0000,  0.0000,  0.0000)
  40 H      8.825122    8.671672   20.761655    ( 0.0000,  0.0000,  0.0000)
  41 H     10.587874    8.672837   20.786326    ( 0.0000,  0.0000,  0.0000)
  42 H      8.813089   10.944984   19.761776    ( 0.0000,  0.0000,  0.0000)
  43 H     10.580647   10.991802   19.831033    ( 0.0000,  0.0000,  0.0000)
  44 H      8.810291   10.603084   22.394045    ( 0.0000,  0.0000,  0.0000)
  45 H      9.695212    9.232099   23.057701    ( 0.0000,  0.0000,  0.0000)
  46 H     10.574265   10.612469   22.402040    ( 0.0000,  0.0000,  0.0000)
  47 H     10.475071    9.122708   18.400157    ( 0.0000,  0.0000,  0.0000)
  48 N      9.699311    9.695894   16.944409    ( 0.0000,  0.0000,  0.0000)
  49 N      9.701901   10.826454   16.925801    ( 0.0000,  0.0000,  0.0000)

Unit cell:
           periodic     x           y           z      points  spacing
  1. axis:    yes    9.702222    0.000000    0.000000    60     0.1617
  2. axis:    yes    0.000000    9.702222    0.000000    60     0.1617
  3. axis:    no     0.000000    0.000000   26.351111   164     0.1607

  Lengths:   9.702222   9.702222  26.351111
  Angles:   90.000000  90.000000  90.000000

Effective grid spacing dv^(1/3) = 0.1614

     iter     time        total  log10-change:
                         energy  eigst   dens
iter:   1 18:48:19  -327.765910  -0.50
iter:   2 18:48:26  -327.624150  -0.95  -1.48
iter:   3 18:48:34  -327.482478  -1.00  -1.46
iter:   4 18:48:41  -327.412245  -1.62  -1.69
Writing to output.gpw (mode='')

iter:   5 18:48:48  -327.395436  -1.38  -2.13
iter:   6 18:48:56  -327.393718c -1.65  -2.31
iter:   7 18:49:03  -327.393886c -2.07  -2.39
iter:   8 18:49:10  -327.392985c -2.66  -2.39
iter:   9 18:49:18  -327.391322c -2.52  -2.44
Writing to output.gpw (mode='')

iter:  10 18:49:25  -327.391220c -2.91  -2.77
iter:  11 18:49:33  -327.391214c -2.86  -2.76
iter:  12 18:49:45  -327.391282c -3.18  -3.10
iter:  13 18:49:52  -327.391320c -3.27  -3.12
iter:  14 18:50:00  -327.391272c -3.47  -3.19
Writing to output.gpw (mode='')

iter:  15 18:50:07  -327.391353c -3.79  -3.34
iter:  16 18:50:15  -327.391427c -3.70  -3.40
iter:  17 18:50:22  -327.391430c -3.84  -3.52
iter:  18 18:50:29  -327.391436c -4.14  -3.56
iter:  19 18:50:36  -327.391449c -4.18  -3.40
Writing to output.gpw (mode='')

iter:  20 18:50:44  -327.391479c -4.30  -3.71
iter:  21 18:50:51  -327.391478c -4.64  -3.70
iter:  22 18:50:58  -327.391458c -4.49  -3.77
iter:  23 18:51:06  -327.391476c -4.82  -4.00c
iter:  24 18:51:13  -327.391470c -4.89  -4.09c
Writing to output.gpw (mode='')

iter:  25 18:51:21  -327.391462c -5.04  -4.11c
iter:  26 18:51:28  -327.391468c -5.16  -4.17c
iter:  27 18:51:35  -327.391463c -5.32  -4.19c
iter:  28 18:51:43  -327.391469c -5.21  -4.26c
iter:  29 18:51:51  -327.391462c -5.42  -4.41c
Writing to output.gpw (mode='')

iter:  30 18:51:58  -327.391464c -5.50  -4.30c
iter:  31 18:52:08  -327.391465c -5.61  -4.49c
iter:  32 18:52:16  -327.391461c -5.82  -4.55c
iter:  33 18:52:23  -327.391462c -5.90  -4.76c
iter:  34 18:52:31  -327.391463c -5.86  -4.83c
Writing to output.gpw (mode='')

iter:  35 18:52:38  -327.391463c -6.07  -4.89c
iter:  36 18:52:46  -327.391464c -6.16  -4.93c
iter:  37 18:52:53  -327.391464c -6.38  -5.12c
iter:  38 18:53:01  -327.391464c -6.19  -5.15c
iter:  39 18:53:08  -327.391464c -6.39  -5.19c
Writing to output.gpw (mode='')

iter:  40 18:53:15  -327.391465c -6.40  -5.16c
iter:  41 18:53:23  -327.391465c -6.67  -4.83c
iter:  42 18:53:30  -327.391466c -6.73  -4.90c
iter:  43 18:53:38  -327.391466c -6.85  -4.83c
iter:  44 18:53:45  -327.391464c -6.79  -4.80c
Writing to output.gpw (mode='')

iter:  45 18:53:53  -327.391463c -6.89  -5.26c
iter:  46 18:54:00  -327.391463c -6.84  -5.37c
iter:  47 18:54:08  -327.391463c -7.10  -5.50c
iter:  48 18:54:15  -327.391462c -6.97  -5.39c
iter:  49 18:54:23  -327.391463c -7.16  -5.65c
Writing to output.gpw (mode='')

iter:  50 18:54:31  -327.391462c -7.15  -5.64c
iter:  51 18:54:44  -327.391462c -7.23  -5.78c
iter:  52 18:54:51  -327.391462c -7.32  -5.83c
iter:  53 18:54:59  -327.391462c -7.40c -5.86c

Converged after 53 iterations.

Dipole moment: (-26.157249, -11.196405, 0.583715) |e|*Ang

Energy contributions relative to reference atoms: (reference = -15487.462483)

Kinetic:       +201.280191
Potential:     -185.009182
External:        +0.000000
XC:            -344.392134
Entropy (-ST):   -0.151644
Local:           +0.805486
--------------------------
Free energy:   -327.467284
Extrapolated:  -327.391462

Dipole-layer corrected work functions: 3.369462, 2.247362 eV

Showing only first 2 kpts
 Kpt  Band  Eigenvalues  Occupancy
  0    34     -3.06233    1.98762
  0    35     -2.94653    1.88121
  0    36     -2.68934    0.16919
  0    37     -2.56518    0.01531

  1    34     -2.87805    1.60210
  1    35     -2.82802    1.19360
  1    36     -2.74293    0.42508
  1    37     -2.71764    0.27996


Fermi level: -2.80841

Gap: 0.028 eV
Transition (v -> c):
  (s=0, k=1, n=35, [0.12, -0.12, 0.00]) -> (s=0, k=7, n=36, [0.38, 0.38, 0.00])
Writing to output.gpw (mode='')


Forces in eV/Ang:
  0 Li    0.01659    0.00251   -0.27713
  1 Li    0.00117   -0.00075   -0.26389
  2 Li   -0.01753    0.00710   -0.27692
  3 Li   -0.00660    0.01160   -0.26446
  4 Li    0.00100   -0.00357   -0.28147
  5 Li    0.00538    0.00759   -0.26127
  6 Li    0.00295   -0.01687   -0.27878
  7 Li   -0.00313    0.00878   -0.26275
  8 Li   -0.00041   -0.01680   -0.27661
  9 Li   -0.00015    0.00393    0.35313
 10 Li    0.01721    0.00008    0.25598
 11 Li   -0.01700    0.00164    0.26339
 12 Li   -0.00118    0.00677    0.27821
 13 Li    0.00750   -0.00127    0.26685
 14 Li   -0.00768    0.00330    0.26011
 15 Li    0.00037   -0.00323    0.24484
 16 Li   -0.00376   -0.00258    0.26120
 17 Li    0.00397   -0.00960    0.25691
 18 Li    0.02855    0.00968   -0.08923
 19 Li   -0.00014   -0.01003    0.07715
 20 Li   -0.02894    0.01435   -0.08466
 21 Li   -0.02059   -0.01243    0.06735
 22 Li    0.00124    0.01036    0.00002
 23 Li    0.02071   -0.01064    0.07298
 24 Li    0.01486   -0.00108   -0.01300
 25 Li    0.00360    0.00128    0.05610
 26 Li   -0.01675   -0.00752   -0.03080
 27 Li    0.00597   -0.80773   -6.79930
 28 Li    0.11919   -0.03368   -0.06579
 29 Li   -0.10439   -0.01870   -0.05141
 30 Li   -0.00276   -0.25574    0.21390
 31 Li    0.06421    0.04502   -0.03221
 32 Li   -0.05668    0.04462   -0.03552
 33 Li    0.00808   -0.04768   -0.03959
 34 Li   -0.00861    0.00445   -0.00909
 35 Li   -0.00235   -0.01370   -0.02623
 36 O     0.40829   -6.04634   10.36724
 37 C    -0.01524   -0.08570    0.15323
 38 C    -0.20908    0.93542    1.68003
 39 C    -0.01588    0.10100    0.00298
 40 H     0.01954   -0.02659    0.01687
 41 H    -0.04695    0.00215    0.00510
 42 H    -0.04416    0.06423   -0.00029
 43 H     0.00941    0.02396   -0.13379
 44 H    -0.01454    0.00177   -0.00581
 45 H     0.00898   -0.03459   -0.03601
 46 H     0.00946   -0.01749   -0.01218
 47 H     0.85517   -0.85351    1.09676
 48 N    -0.91978    1.47200   -0.25095
 49 N    -0.04345    5.56999   -6.08531

System changes: positions 

Initializing position-dependent things.

Density initialized from wave functions
       .-----------------------.  
      /|                       |  
     / |                       |  
    /  |                       |  
   /   |                       H  
  /    |                       |  
 *     |                       |  
 |     C H                  H  |  
 |     |                       |  
 |     |                       |  
 |  H  O H             H       |  
 |     |                 C     |  
 |     |                       |  
 |  H  Li      Li      LH      |  
 C     |                       |  
 |   Li|     Li      Li        |  
 |     |                       |  
 |     |  LLi     LLi    NNLi  |  
 |     |                       |  
 |     |Li      Li      Li     |  
 |   Li|     Li      Li        |  
 |    Li  Li  Li  Li  Li  Li   |  
 | Li  |   Li      Li          |  
 |     |Li      Li      Li     |  
 Li    | Li      Li            |  
 |    Li      Li      Li       |  
 |     |                       |  
 |     |                       |  
 |     |                       |  
 |     |                       |  
 |     |                       |  
 |     |                       |  
 |     .-----------------------.  
 |    /                       /   
 |   /                       /    
 |  /                       /     
 | /                       /      
 |/                       /       
 *-----------------------*        

Positions:
   0 Li     1.617037    1.617037   10.000000    ( 0.0000,  0.0000,  0.0000)
   1 Li     4.851111    1.617037   10.000000    ( 0.0000,  0.0000,  0.0000)
   2 Li     8.085185    1.617037   10.000000    ( 0.0000,  0.0000,  0.0000)
   3 Li     1.617037    4.851111   10.000000    ( 0.0000,  0.0000,  0.0000)
   4 Li     4.851111    4.851111   10.000000    ( 0.0000,  0.0000,  0.0000)
   5 Li     8.085185    4.851111   10.000000    ( 0.0000,  0.0000,  0.0000)
   6 Li     1.617037    8.085185   10.000000    ( 0.0000,  0.0000,  0.0000)
   7 Li     4.851111    8.085185   10.000000    ( 0.0000,  0.0000,  0.0000)
   8 Li     8.085185    8.085185   10.000000    ( 0.0000,  0.0000,  0.0000)
   9 Li     0.000000    0.000000   11.617037    ( 0.0000,  0.0000,  0.0000)
  10 Li     3.234074    0.000000   11.617037    ( 0.0000,  0.0000,  0.0000)
  11 Li     6.468148    0.000000   11.617037    ( 0.0000,  0.0000,  0.0000)
  12 Li     0.000000    3.234074   11.617037    ( 0.0000,  0.0000,  0.0000)
  13 Li     3.234074    3.234074   11.617037    ( 0.0000,  0.0000,  0.0000)
  14 Li     6.468148    3.234074   11.617037    ( 0.0000,  0.0000,  0.0000)
  15 Li     0.000000    6.468148   11.617037    ( 0.0000,  0.0000,  0.0000)
  16 Li     3.234074    6.468148   11.617037    ( 0.0000,  0.0000,  0.0000)
  17 Li     6.468148    6.468148   11.617037    ( 0.0000,  0.0000,  0.0000)
  18 Li     1.617234    1.617106   13.469115    ( 0.0000,  0.0000,  0.0000)
  19 Li     4.851110    1.616969   13.470255    ( 0.0000,  0.0000,  0.0000)
  20 Li     8.084985    1.617139   13.469146    ( 0.0000,  0.0000,  0.0000)
  21 Li     1.616898    4.851027   13.470187    ( 0.0000,  0.0000,  0.0000)
  22 Li     4.851120    4.851181   13.469730    ( 0.0000,  0.0000,  0.0000)
  23 Li     8.085325    4.851039   13.470225    ( 0.0000,  0.0000,  0.0000)
  24 Li     1.617141    8.085173   13.469633    ( 0.0000,  0.0000,  0.0000)
  25 Li     4.851135    8.085194   13.470112    ( 0.0000,  0.0000,  0.0000)
  26 Li     8.085068    8.085129   13.469512    ( 0.0000,  0.0000,  0.0000)
  27 Li     0.000042   -0.005448   15.400143    ( 0.0000,  0.0000,  0.0000)
  28 Li     3.234879   -0.000227   15.445495    ( 0.0000,  0.0000,  0.0000)
  29 Li     6.467446   -0.000127   15.445597    ( 0.0000,  0.0000,  0.0000)
  30 Li    -0.000019    3.232311   15.447416    ( 0.0000,  0.0000,  0.0000)
  31 Li     3.234513    3.234383   15.445720    ( 0.0000,  0.0000,  0.0000)
  32 Li     6.467761    3.234380   15.445698    ( 0.0000,  0.0000,  0.0000)
  33 Li     0.000054    6.467826   15.445671    ( 0.0000,  0.0000,  0.0000)
  34 Li     3.234020    6.468174   15.445874    ( 0.0000,  0.0000,  0.0000)
  35 Li     6.468128    6.468052   15.445759    ( 0.0000,  0.0000,  0.0000)
  36 O      9.704688    9.661793   18.514855    ( 0.0000,  0.0000,  0.0000)
  37 C      9.702241    9.314089   20.881345    ( 0.0000,  0.0000,  0.0000)
  38 C      9.711609   10.331289   19.749341    ( 0.0000,  0.0000,  0.0000)
  39 C      9.695886    9.977659   22.260558    ( 0.0000,  0.0000,  0.0000)
  40 H      8.825179    8.671573   20.761682    ( 0.0000,  0.0000,  0.0000)
  41 H     10.587719    8.672861   20.786300    ( 0.0000,  0.0000,  0.0000)
  42 H      8.812669   10.945423   19.761812    ( 0.0000,  0.0000,  0.0000)
  43 H     10.580756   10.992117   19.830715    ( 0.0000,  0.0000,  0.0000)
  44 H      8.810209   10.603110   22.394021    ( 0.0000,  0.0000,  0.0000)
  45 H      9.695245    9.232015   23.057561    ( 0.0000,  0.0000,  0.0000)
  46 H     10.574319   10.612415   22.401990    ( 0.0000,  0.0000,  0.0000)
  47 H     10.479523    9.118782   18.404631    ( 0.0000,  0.0000,  0.0000)
  48 N      9.695793    9.714293   16.944426    ( 0.0000,  0.0000,  0.0000)
  49 N      9.701700   10.833593   16.905405    ( 0.0000,  0.0000,  0.0000)

Unit cell:
           periodic     x           y           z      points  spacing
  1. axis:    yes    9.702222    0.000000    0.000000    60     0.1617
  2. axis:    yes    0.000000    9.702222    0.000000    60     0.1617
  3. axis:    no     0.000000    0.000000   26.351111   164     0.1607

  Lengths:   9.702222   9.702222  26.351111
  Angles:   90.000000  90.000000  90.000000

Effective grid spacing dv^(1/3) = 0.1614

     iter     time        total  log10-change:
                         energy  eigst   dens
iter:   1 18:55:08  -328.372851  -0.87
iter:   2 18:55:15  -328.274630  -0.96  -1.60
iter:   3 18:55:23  -328.230858  -1.74  -1.70
iter:   4 18:55:30  -328.217268  -1.03  -2.13
Writing to output.gpw (mode='')

iter:   5 18:55:37  -328.211126c -1.89  -2.04
iter:   6 18:55:45  -328.231597c -1.59  -2.39
iter:   7 18:55:52  -328.207825c -2.19  -2.12
iter:   8 18:56:00  -328.203437c -1.92  -2.37
iter:   9 18:56:07  -328.203449c -2.85  -2.56
Writing to output.gpw (mode='')

iter:  10 18:56:14  -328.205276c -2.52  -2.68
iter:  11 18:56:22  -328.202842c -2.54  -2.65
iter:  12 18:56:29  -328.202962c -3.06  -2.95
iter:  13 18:56:36  -328.203064c -3.44  -3.09
iter:  14 18:56:44  -328.202903c -3.15  -3.09
Writing to output.gpw (mode='')

iter:  15 18:56:51  -328.203050c -3.72  -3.13
iter:  16 18:56:59  -328.202970c -3.76  -3.29
iter:  17 18:57:06  -328.203027c -4.15  -3.43
iter:  18 18:57:13  -328.203078c -4.18  -3.50
iter:  19 18:57:21  -328.203034c -4.20  -3.59
Writing to output.gpw (mode='')

iter:  20 18:57:28  -328.203046c -4.62  -3.77
iter:  21 18:57:36  -328.203071c -4.45  -3.83
iter:  22 18:57:43  -328.203060c -4.84  -3.98
iter:  23 18:57:51  -328.203069c -4.91  -4.09c
iter:  24 18:57:58  -328.203074c -4.96  -4.22c
Writing to output.gpw (mode='')

iter:  25 18:58:05  -328.203084c -5.04  -4.23c
iter:  26 18:58:13  -328.203094c -5.35  -4.27c
iter:  27 18:58:20  -328.203089c -5.35  -4.38c
iter:  28 18:58:28  -328.203094c -5.60  -4.45c
iter:  29 18:58:35  -328.203094c -5.47  -4.53c
Writing to output.gpw (mode='')

iter:  30 18:58:43  -328.203096c -5.51  -4.74c
iter:  31 18:58:50  -328.203096c -5.83  -4.80c
iter:  32 18:58:57  -328.203094c -5.70  -4.80c
iter:  33 18:59:05  -328.203099c -5.93  -4.70c
iter:  34 18:59:12  -328.203101c -5.90  -4.86c
Writing to output.gpw (mode='')

iter:  35 18:59:19  -328.203101c -6.07  -4.94c
iter:  36 18:59:27  -328.203101c -6.20  -5.12c
iter:  37 18:59:41  -328.203102c -6.32  -5.21c
iter:  38 18:59:49  -328.203102c -6.23  -5.30c
iter:  39 18:59:56  -328.203102c -6.34  -5.42c
Writing to output.gpw (mode='')

iter:  40 19:00:04  -328.203105c -6.48  -5.46c
iter:  41 19:00:11  -328.203103c -6.63  -5.26c
iter:  42 19:00:19  -328.203103c -6.84  -5.58c
iter:  43 19:00:26  -328.203103c -6.77  -5.65c
iter:  44 19:00:33  -328.203104c -6.64  -5.74c
Writing to output.gpw (mode='')

iter:  45 19:00:41  -328.203104c -6.85  -5.80c
iter:  46 19:00:48  -328.203103c -6.99  -5.75c
iter:  47 19:00:56  -328.203104c -7.17  -5.45c
iter:  48 19:01:03  -328.203104c -7.32  -5.61c
iter:  49 19:01:11  -328.203103c -7.05  -5.55c
Writing to output.gpw (mode='')

iter:  50 19:01:18  -328.203103c -7.16  -5.41c
iter:  51 19:01:26  -328.203103c -7.55c -5.31c

Converged after 51 iterations.

Dipole moment: (-25.765452, -11.086238, 0.573601) |e|*Ang

Energy contributions relative to reference atoms: (reference = -15487.462483)

Kinetic:       +200.465418
Potential:     -184.940911
External:        +0.000000
XC:            -344.457055
Entropy (-ST):   -0.150533
Local:           +0.804711
--------------------------
Free energy:   -328.278370
Extrapolated:  -328.203103

Dipole-layer corrected work functions: 3.368986, 2.266328 eV

Showing only first 2 kpts
 Kpt  Band  Eigenvalues  Occupancy
  0    34     -3.07307    1.98798
  0    35     -2.95965    1.88959
  0    36     -2.69145    0.14838
  0    37     -2.57482    0.01543

  1    34     -2.88371    1.57871
  1    35     -2.83784    1.19909
  1    36     -2.75275    0.42899
  1    37     -2.73084    0.29957


Fermi level: -2.81766

Gap: 0.027 eV
Transition (v -> c):
  (s=0, k=1, n=35, [0.12, -0.12, 0.00]) -> (s=0, k=7, n=36, [0.38, 0.38, 0.00])
Writing to output.gpw (mode='')


Forces in eV/Ang:
  0 Li    0.01673    0.00236   -0.27746
  1 Li    0.00101   -0.00093   -0.26340
  2 Li   -0.01757    0.00704   -0.27725
  3 Li   -0.00676    0.01157   -0.26386
  4 Li    0.00106   -0.00352   -0.28181
  5 Li    0.00554    0.00770   -0.26080
  6 Li    0.00280   -0.01670   -0.27900
  7 Li   -0.00311    0.00902   -0.26271
  8 Li   -0.00026   -0.01677   -0.27689
  9 Li   -0.00006    0.00446    0.35606
 10 Li    0.01777   -0.00020    0.25570
 11 Li   -0.01753    0.00134    0.26312
 12 Li   -0.00128    0.00658    0.27900
 13 Li    0.00856   -0.00049    0.26601
 14 Li   -0.00857    0.00387    0.25921
 15 Li    0.00031   -0.00335    0.24453
 16 Li   -0.00380   -0.00302    0.26085
 17 Li    0.00404   -0.00996    0.25688
 18 Li    0.03352    0.01380   -0.09426
 19 Li    0.00006   -0.00955    0.07645
 20 Li   -0.03385    0.01825   -0.09057
 21 Li   -0.02032   -0.01354    0.06827
 22 Li    0.00116    0.01059   -0.00042
 23 Li    0.02037   -0.01189    0.07399
 24 Li    0.01807   -0.00450   -0.01618
 25 Li    0.00365    0.00017    0.05583
 26 Li   -0.02005   -0.01077   -0.03458
 27 Li    0.01688   -0.84466   -6.08038
 28 Li    0.12295   -0.03365   -0.06995
 29 Li   -0.10920   -0.01941   -0.05507
 30 Li   -0.00224   -0.23244    0.19780
 31 Li    0.06363    0.04419   -0.03378
 32 Li   -0.05678    0.04475   -0.03740
 33 Li    0.00812   -0.05090   -0.04049
 34 Li   -0.00944    0.00495   -0.00914
 35 Li   -0.00172   -0.01329   -0.02598
 36 O     0.03900   -5.21243    8.63039
 37 C    -0.01545    0.01657    0.34015
 38 C    -0.05313    0.70920    1.58055
 39 C    -0.01351    0.05015    0.05082
 40 H     0.02104   -0.01011    0.00686
 41 H    -0.04576    0.01672   -0.00328
 42 H    -0.09038    0.09774    0.00872
 43 H     0.05448    0.09235   -0.07494
 44 H    -0.01669    0.00367   -0.00418
 45 H     0.00770   -0.02268   -0.02138
 46 H     0.01068   -0.01556   -0.01074
 47 H     0.96021   -0.87315    1.06508
 48 N    -0.80040    0.55000   -0.44512
 49 N    -0.05156    5.70632   -4.93439

System changes: positions 

Initializing position-dependent things.

Density initialized from wave functions
       .-----------------------.  
      /|                       |  
     / |                       |  
    /  |                       |  
   /   |                       H  
  /    |                       |  
 *     |                       |  
 |     | H                  H  C  
 |     |                       |  
 |     |                       |  
 |  H  | H             H       O  
 |     |                 C     |  
 |     |                       |  
 |  H  Li      Li      LH      |  
 C     |                       |  
 |   Li|     Li      Li        |  
 |     |                       |  
 |     |  LLi     LLi    NNLi  |  
 |     |                       |  
 |     |Li      Li      Li     |  
 |   Li|     Li      Li        |  
 |    Li  Li  Li  Li  Li  Li   |  
 | Li  |   Li      Li          |  
 |     |Li      Li      Li     |  
 Li    | Li      Li            |  
 |    Li      Li      Li       |  
 |     |                       |  
 |     |                       |  
 |     |                       |  
 |     |                       |  
 |     |                       |  
 |     |                       |  
 |     .-----------------------.  
 |    /                       /   
 |   /                       /    
 |  /                       /     
 | /                       /      
 |/                       /       
 *-----------------------*        

Positions:
   0 Li     1.617037    1.617037   10.000000    ( 0.0000,  0.0000,  0.0000)
   1 Li     4.851111    1.617037   10.000000    ( 0.0000,  0.0000,  0.0000)
   2 Li     8.085185    1.617037   10.000000    ( 0.0000,  0.0000,  0.0000)
   3 Li     1.617037    4.851111   10.000000    ( 0.0000,  0.0000,  0.0000)
   4 Li     4.851111    4.851111   10.000000    ( 0.0000,  0.0000,  0.0000)
   5 Li     8.085185    4.851111   10.000000    ( 0.0000,  0.0000,  0.0000)
   6 Li     1.617037    8.085185   10.000000    ( 0.0000,  0.0000,  0.0000)
   7 Li     4.851111    8.085185   10.000000    ( 0.0000,  0.0000,  0.0000)
   8 Li     8.085185    8.085185   10.000000    ( 0.0000,  0.0000,  0.0000)
   9 Li     0.000000    0.000000   11.617037    ( 0.0000,  0.0000,  0.0000)
  10 Li     3.234074    0.000000   11.617037    ( 0.0000,  0.0000,  0.0000)
  11 Li     6.468148    0.000000   11.617037    ( 0.0000,  0.0000,  0.0000)
  12 Li     0.000000    3.234074   11.617037    ( 0.0000,  0.0000,  0.0000)
  13 Li     3.234074    3.234074   11.617037    ( 0.0000,  0.0000,  0.0000)
  14 Li     6.468148    3.234074   11.617037    ( 0.0000,  0.0000,  0.0000)
  15 Li     0.000000    6.468148   11.617037    ( 0.0000,  0.0000,  0.0000)
  16 Li     3.234074    6.468148   11.617037    ( 0.0000,  0.0000,  0.0000)
  17 Li     6.468148    6.468148   11.617037    ( 0.0000,  0.0000,  0.0000)
  18 Li     1.617532    1.617260   13.468357    ( 0.0000,  0.0000,  0.0000)
  19 Li     4.851110    1.616899   13.470794    ( 0.0000,  0.0000,  0.0000)
  20 Li     8.084688    1.617326   13.468405    ( 0.0000,  0.0000,  0.0000)
  21 Li     1.616752    4.850927   13.470676    ( 0.0000,  0.0000,  0.0000)
  22 Li     4.851131    4.851256   13.469723    ( 0.0000,  0.0000,  0.0000)
  23 Li     8.085468    4.850946   13.470751    ( 0.0000,  0.0000,  0.0000)
  24 Li     1.617316    8.085083   13.469434    ( 0.0000,  0.0000,  0.0000)
  25 Li     4.851157    8.085199   13.470517    ( 0.0000,  0.0000,  0.0000)
  26 Li     8.084882    8.084995   13.469182    ( 0.0000,  0.0000,  0.0000)
  27 Li     0.000273   -0.011335   15.367440    ( 0.0000,  0.0000,  0.0000)
  28 Li     3.235730   -0.000450   15.445001    ( 0.0000,  0.0000,  0.0000)
  29 Li     6.466700   -0.000264   15.445240    ( 0.0000,  0.0000,  0.0000)
  30 Li    -0.000030    3.230676   15.448860    ( 0.0000,  0.0000,  0.0000)
  31 Li     3.234951    3.234691   15.445479    ( 0.0000,  0.0000,  0.0000)
  32 Li     6.467366    3.234701   15.445430    ( 0.0000,  0.0000,  0.0000)
  33 Li     0.000105    6.467458   15.445388    ( 0.0000,  0.0000,  0.0000)
  34 Li     3.233964    6.468199   15.445793    ( 0.0000,  0.0000,  0.0000)
  35 Li     6.468109    6.467957   15.445575    ( 0.0000,  0.0000,  0.0000)
  36 O      9.699061    9.638329   18.546757    ( 0.0000,  0.0000,  0.0000)
  37 C      9.702068    9.315704   20.886368    ( 0.0000,  0.0000,  0.0000)
  38 C      9.713687   10.333578   19.758884    ( 0.0000,  0.0000,  0.0000)
  39 C      9.695838    9.977201   22.261458    ( 0.0000,  0.0000,  0.0000)
  40 H      8.825305    8.671661   20.761577    ( 0.0000,  0.0000,  0.0000)
  41 H     10.587467    8.673129   20.786128    ( 0.0000,  0.0000,  0.0000)
  42 H      8.811248   10.946684   19.762012    ( 0.0000,  0.0000,  0.0000)
  43 H     10.581646   10.993710   19.831070    ( 0.0000,  0.0000,  0.0000)
  44 H      8.810039   10.603181   22.394005    ( 0.0000,  0.0000,  0.0000)
  45 H      9.695283    9.232051   23.057552    ( 0.0000,  0.0000,  0.0000)
  46 H     10.574427   10.612350   22.401926    ( 0.0000,  0.0000,  0.0000)
  47 H     10.488695    9.111796   18.411803    ( 0.0000,  0.0000,  0.0000)
  48 N      9.691617    9.729667   16.941251    ( 0.0000,  0.0000,  0.0000)
  49 N      9.701231   10.850011   16.888046    ( 0.0000,  0.0000,  0.0000)

Unit cell:
           periodic     x           y           z      points  spacing
  1. axis:    yes    9.702222    0.000000    0.000000    60     0.1617
  2. axis:    yes    0.000000    9.702222    0.000000    60     0.1617
  3. axis:    no     0.000000    0.000000   26.351111   164     0.1607

  Lengths:   9.702222   9.702222  26.351111
  Angles:   90.000000  90.000000  90.000000

Effective grid spacing dv^(1/3) = 0.1614

     iter     time        total  log10-change:
                         energy  eigst   dens
iter:   1 19:01:35  -328.980830  -0.92
iter:   2 19:01:42  -328.979911  -1.59  -2.13
iter:   3 19:01:49  -328.978523c -2.05  -2.21
iter:   4 19:01:57  -328.975225c -1.86  -2.42
Writing to output.gpw (mode='')

iter:   5 19:02:04  -328.975593c -2.41  -2.53
iter:   6 19:02:12  -328.976234c -2.59  -2.59
iter:   7 19:02:19  -328.975080c -2.60  -2.61
iter:   8 19:02:26  -328.974992c -3.20  -3.03
iter:   9 19:02:34  -328.975052c -3.58  -3.14
Writing to output.gpw (mode='')

iter:  10 19:02:41  -328.975164c -3.50  -3.18
iter:  11 19:02:48  -328.975056c -3.86  -3.30
iter:  12 19:02:56  -328.975067c -4.29  -3.36
iter:  13 19:03:03  -328.975056c -4.56  -3.54
iter:  14 19:03:11  -328.975049c -4.80  -3.55
Writing to output.gpw (mode='')

iter:  15 19:03:18  -328.975025c -4.59  -3.65
iter:  16 19:03:25  -328.975032c -5.19  -3.65
iter:  17 19:03:33  -328.975059c -4.84  -3.76
iter:  18 19:03:40  -328.975057c -5.57  -3.91
iter:  19 19:03:47  -328.975051c -5.52  -3.99
Writing to output.gpw (mode='')

iter:  20 19:03:54  -328.975056c -5.87  -4.07c
iter:  21 19:04:02  -328.975047c -5.67  -4.10c
iter:  22 19:04:09  -328.975047c -5.65  -4.27c
iter:  23 19:04:16  -328.975048c -6.17  -4.29c
iter:  24 19:04:24  -328.975055c -6.21  -4.33c
Writing to output.gpw (mode='')

iter:  25 19:04:31  -328.975053c -6.36  -4.59c
iter:  26 19:04:45  -328.975055c -6.47  -4.55c
iter:  27 19:04:52  -328.975055c -6.64  -4.78c
iter:  28 19:04:59  -328.975054c -6.63  -4.80c
iter:  29 19:05:07  -328.975054c -6.95  -4.83c
Writing to output.gpw (mode='')

iter:  30 19:05:14  -328.975054c -7.07  -5.01c
iter:  31 19:05:21  -328.975054c -7.31  -5.17c
iter:  32 19:05:29  -328.975054c -7.33  -5.22c
iter:  33 19:05:36  -328.975053c -7.57c -5.26c

Converged after 33 iterations.

Dipole moment: (-24.969118, -10.289522, 0.555473) |e|*Ang

Energy contributions relative to reference atoms: (reference = -15487.462483)

Kinetic:       +197.344200
Potential:     -183.030355
External:        +0.000000
XC:            -344.017413
Entropy (-ST):   -0.149984
Local:           +0.803506
--------------------------
Free energy:   -329.050045
Extrapolated:  -328.975053

Dipole-layer corrected work functions: 3.369311, 2.301502 eV

Showing only first 2 kpts
 Kpt  Band  Eigenvalues  Occupancy
  0    34     -3.09213    1.98829
  0    35     -2.97987    1.89463
  0    36     -2.70728    0.14318
  0    37     -2.59282    0.01551

  1    34     -2.90116    1.57670
  1    35     -2.85467    1.19027
  1    36     -2.76813    0.41320
  1    37     -2.75071    0.31050


Fermi level: -2.83541

Gap: 0.025 eV
Transition (v -> c):
  (s=0, k=1, n=35, [0.12, -0.12, 0.00]) -> (s=0, k=7, n=36, [0.38, 0.38, 0.00])
Writing to output.gpw (mode='')


Forces in eV/Ang:
  0 Li    0.01687    0.00221   -0.27838
  1 Li    0.00086   -0.00109   -0.26295
  2 Li   -0.01758    0.00698   -0.27820
  3 Li   -0.00699    0.01170   -0.26328
  4 Li    0.00108   -0.00350   -0.28243
  5 Li    0.00579    0.00791   -0.26026
  6 Li    0.00265   -0.01672   -0.27982
  7 Li   -0.00315    0.00925   -0.26232
  8 Li   -0.00006   -0.01692   -0.27775
  9 Li    0.00001    0.00476    0.36032
 10 Li    0.01786   -0.00041    0.25614
 11 Li   -0.01760    0.00111    0.26376
 12 Li   -0.00134    0.00666    0.28002
 13 Li    0.00980    0.00031    0.26547
 14 Li   -0.00970    0.00446    0.25871
 15 Li    0.00029   -0.00335    0.24459
 16 Li   -0.00338   -0.00361    0.26020
 17 Li    0.00365   -0.01053    0.25655
 18 Li    0.03864    0.01899   -0.10109
 19 Li    0.00021   -0.00934    0.07582
 20 Li   -0.03883    0.02325   -0.09821
 21 Li   -0.02021   -0.01430    0.06840
 22 Li    0.00107    0.01084   -0.00048
 23 Li    0.02026   -0.01276    0.07418
 24 Li    0.02337   -0.01038   -0.02351
 25 Li    0.00373   -0.00026    0.05553
 26 Li   -0.02541   -0.01652   -0.04256
 27 Li    0.02631   -0.80965   -5.24982
 28 Li    0.12104   -0.03344   -0.06954
 29 Li   -0.10813   -0.01982   -0.05382
 30 Li   -0.00168   -0.22760    0.19742
 31 Li    0.06321    0.04387   -0.03444
 32 Li   -0.05690    0.04527   -0.03802
 33 Li    0.00820   -0.05145   -0.03937
 34 Li   -0.00964    0.00525   -0.00961
 35 Li   -0.00179   -0.01317   -0.02602
 36 O     0.10270   -4.72734    7.00338
 37 C     0.00334    0.00487    0.41507
 38 C    -0.10379    0.57941    1.40193
 39 C    -0.01371    0.06754    0.13643
 40 H     0.04534    0.03164    0.01587
 41 H    -0.06513    0.04389    0.01618
 42 H    -0.03416    0.07314    0.03723
 43 H     0.10654    0.13010   -0.04495
 44 H    -0.01028   -0.00075    0.00321
 45 H     0.00665   -0.02991    0.02046
 46 H     0.00535   -0.01857   -0.00220
 47 H     0.67258   -0.63654    1.03545
 48 N    -0.69494    0.75521   -0.66233
 49 N    -0.05995    4.80116   -3.99996

System changes: positions 

Initializing position-dependent things.

Density initialized from wave functions
       .-----------------------.  
      /|                       |  
     / |                       |  
    /  |                       |  
   /   |                       H  
  /    |                       |  
 *     |                       |  
 |     | H                  H  C  
 |     |                       |  
 |     |                       |  
 |  H  | H             H       O  
 |     |                 C     |  
 |     |                       |  
 |  H  Li      Li      LH      |  
 C     |                       |  
 |   Li|     Li      Li        |  
 |     |                       |  
 |     |  LLi     LLi    NNLi  |  
 |     |                       |  
 |     |Li      Li      Li     |  
 |   Li|     Li      Li        |  
 |    Li  Li  Li  Li  Li  Li   |  
 | Li  |   Li      Li          |  
 |     |Li      Li      Li     |  
 Li    | Li      Li            |  
 |    Li      Li      Li       |  
 |     |                       |  
 |     |                       |  
 |     |                       |  
 |     |                       |  
 |     |                       |  
 |     |                       |  
 |     .-----------------------.  
 |    /                       /   
 |   /                       /    
 |  /                       /     
 | /                       /      
 |/                       /       
 *-----------------------*        

Positions:
   0 Li     1.617037    1.617037   10.000000    ( 0.0000,  0.0000,  0.0000)
   1 Li     4.851111    1.617037   10.000000    ( 0.0000,  0.0000,  0.0000)
   2 Li     8.085185    1.617037   10.000000    ( 0.0000,  0.0000,  0.0000)
   3 Li     1.617037    4.851111   10.000000    ( 0.0000,  0.0000,  0.0000)
   4 Li     4.851111    4.851111   10.000000    ( 0.0000,  0.0000,  0.0000)
   5 Li     8.085185    4.851111   10.000000    ( 0.0000,  0.0000,  0.0000)
   6 Li     1.617037    8.085185   10.000000    ( 0.0000,  0.0000,  0.0000)
   7 Li     4.851111    8.085185   10.000000    ( 0.0000,  0.0000,  0.0000)
   8 Li     8.085185    8.085185   10.000000    ( 0.0000,  0.0000,  0.0000)
   9 Li     0.000000    0.000000   11.617037    ( 0.0000,  0.0000,  0.0000)
  10 Li     3.234074    0.000000   11.617037    ( 0.0000,  0.0000,  0.0000)
  11 Li     6.468148    0.000000   11.617037    ( 0.0000,  0.0000,  0.0000)
  12 Li     0.000000    3.234074   11.617037    ( 0.0000,  0.0000,  0.0000)
  13 Li     3.234074    3.234074   11.617037    ( 0.0000,  0.0000,  0.0000)
  14 Li     6.468148    3.234074   11.617037    ( 0.0000,  0.0000,  0.0000)
  15 Li     0.000000    6.468148   11.617037    ( 0.0000,  0.0000,  0.0000)
  16 Li     3.234074    6.468148   11.617037    ( 0.0000,  0.0000,  0.0000)
  17 Li     6.468148    6.468148   11.617037    ( 0.0000,  0.0000,  0.0000)
  18 Li     1.617986    1.617525   13.467279    ( 0.0000,  0.0000,  0.0000)
  19 Li     4.851114    1.616811   13.471499    ( 0.0000,  0.0000,  0.0000)
  20 Li     8.084236    1.617632   13.467341    ( 0.0000,  0.0000,  0.0000)
  21 Li     1.616561    4.850784   13.471323    ( 0.0000,  0.0000,  0.0000)
  22 Li     4.851143    4.851359   13.469713    ( 0.0000,  0.0000,  0.0000)
  23 Li     8.085656    4.850812   13.471450    ( 0.0000,  0.0000,  0.0000)
  24 Li     1.617614    8.084893   13.469088    ( 0.0000,  0.0000,  0.0000)
  25 Li     4.851190    8.085197   13.471044    ( 0.0000,  0.0000,  0.0000)
  26 Li     8.084568    8.084748   13.468652    ( 0.0000,  0.0000,  0.0000)
  27 Li     0.000687   -0.018640   15.333329    ( 0.0000,  0.0000,  0.0000)
  28 Li     3.236837   -0.000748   15.444351    ( 0.0000,  0.0000,  0.0000)
  29 Li     6.465715   -0.000453   15.444772    ( 0.0000,  0.0000,  0.0000)
  30 Li    -0.000038    3.228594   15.450740    ( 0.0000,  0.0000,  0.0000)
  31 Li     3.235530    3.235096   15.445150    ( 0.0000,  0.0000,  0.0000)
  32 Li     6.466838    3.235132   15.445065    ( 0.0000,  0.0000,  0.0000)
  33 Li     0.000177    6.466964   15.445030    ( 0.0000,  0.0000,  0.0000)
  34 Li     3.233883    6.468241   15.445684    ( 0.0000,  0.0000,  0.0000)
  35 Li     6.468086    6.467834   15.445331    ( 0.0000,  0.0000,  0.0000)
  36 O      9.694843    9.609802   18.574477    ( 0.0000,  0.0000,  0.0000)
  37 C      9.702162    9.317098   20.893225    ( 0.0000,  0.0000,  0.0000)
  38 C      9.714714   10.335570   19.769336    ( 0.0000,  0.0000,  0.0000)
  39 C      9.695753    9.977175   22.263803    ( 0.0000,  0.0000,  0.0000)
  40 H      8.825864    8.672380   20.761637    ( 0.0000,  0.0000,  0.0000)
  41 H     10.586799    8.673859   20.786263    ( 0.0000,  0.0000,  0.0000)
  42 H      8.810549   10.947751   19.762673    ( 0.0000,  0.0000,  0.0000)
  43 H     10.583462   10.996066   19.831681    ( 0.0000,  0.0000,  0.0000)
  44 H      8.809935   10.603188   22.394095    ( 0.0000,  0.0000,  0.0000)
  45 H      9.695322    9.231911   23.058149    ( 0.0000,  0.0000,  0.0000)
  46 H     10.574474   10.612199   22.401972    ( 0.0000,  0.0000,  0.0000)
  47 H     10.495393    9.106591   18.420971    ( 0.0000,  0.0000,  0.0000)
  48 N      9.687197    9.748034   16.933527    ( 0.0000,  0.0000,  0.0000)
  49 N      9.700516   10.867458   16.873152    ( 0.0000,  0.0000,  0.0000)

Unit cell:
           periodic     x           y           z      points  spacing
  1. axis:    yes    9.702222    0.000000    0.000000    60     0.1617
  2. axis:    yes    0.000000    9.702222    0.000000    60     0.1617
  3. axis:    no     0.000000    0.000000   26.351111   164     0.1607

  Lengths:   9.702222   9.702222  26.351111
  Angles:   90.000000  90.000000  90.000000

Effective grid spacing dv^(1/3) = 0.1614

     iter     time        total  log10-change:
                         energy  eigst   dens
iter:   1 19:05:45  -329.647427  -0.92
iter:   2 19:05:52  -329.643964  -1.58  -2.07
iter:   3 19:05:59  -329.641508c -2.09  -2.16
iter:   4 19:06:07  -329.638605c -1.95  -2.41
Writing to output.gpw (mode='')

iter:   5 19:06:14  -329.638998c -2.43  -2.53
iter:   6 19:06:21  -329.639750c -2.58  -2.57
iter:   7 19:06:28  -329.638526c -2.62  -2.61
iter:   8 19:06:36  -329.638483c -3.11  -2.99
iter:   9 19:06:43  -329.638536c -3.60  -3.14
Writing to output.gpw (mode='')

iter:  10 19:06:51  -329.638645c -3.48  -3.17
iter:  11 19:06:58  -329.638501c -3.91  -3.20
iter:  12 19:07:05  -329.638527c -4.29  -3.38
iter:  13 19:07:13  -329.638511c -4.78  -3.54
iter:  14 19:07:20  -329.638498c -4.90  -3.59
Writing to output.gpw (mode='')

iter:  15 19:07:27  -329.638485c -4.70  -3.70
iter:  16 19:07:35  -329.638495c -5.11  -3.80
iter:  17 19:07:42  -329.638512c -5.53  -3.85
iter:  18 19:07:49  -329.638514c -5.49  -4.00c
iter:  19 19:07:57  -329.638495c -5.58  -4.00
Writing to output.gpw (mode='')

iter:  20 19:08:06  -329.638501c -6.03  -4.13c
iter:  21 19:08:14  -329.638510c -5.70  -4.23c
iter:  22 19:08:21  -329.638511c -6.23  -4.42c
iter:  23 19:08:28  -329.638509c -5.99  -4.49c
iter:  24 19:08:36  -329.638511c -6.47  -4.71c
Writing to output.gpw (mode='')

iter:  25 19:08:43  -329.638511c -6.60  -4.82c
iter:  26 19:08:51  -329.638511c -6.54  -4.89c
iter:  27 19:08:58  -329.638512c -6.90  -4.89c
iter:  28 19:09:06  -329.638511c -6.80  -5.07c
iter:  29 19:09:13  -329.638511c -6.94  -5.13c
Writing to output.gpw (mode='')

iter:  30 19:09:21  -329.638512c -7.09  -5.22c
iter:  31 19:09:28  -329.638512c -7.26  -5.30c
iter:  32 19:09:42  -329.638512c -7.49c -5.53c

Converged after 32 iterations.

Dipole moment: (-24.180183, -9.237984, 0.540961) |e|*Ang

Energy contributions relative to reference atoms: (reference = -15487.462483)

Kinetic:       +194.937450
Potential:     -181.626060
External:        +0.000000
XC:            -343.677087
Entropy (-ST):   -0.149408
Local:           +0.801890
--------------------------
Free energy:   -329.713216
Extrapolated:  -329.638512

Dipole-layer corrected work functions: 3.369666, 2.329754 eV

Showing only first 2 kpts
 Kpt  Band  Eigenvalues  Occupancy
  0    34     -3.10790    1.98863
  0    35     -2.99659    1.89936
  0    36     -2.71926    0.13713
  0    37     -2.60759    0.01565

  1    34     -2.91491    1.57304
  1    35     -2.86827    1.18349
  1    36     -2.78009    0.39807
  1    37     -2.76716    0.32194


Fermi level: -2.84971

Gap: 0.024 eV
Transition (v -> c):
  (s=0, k=1, n=35, [0.12, -0.12, 0.00]) -> (s=0, k=7, n=36, [0.38, 0.38, 0.00])
Writing to output.gpw (mode='')


Forces in eV/Ang:
  0 Li    0.01705    0.00205   -0.27930
  1 Li    0.00065   -0.00127   -0.26268
  2 Li   -0.01758    0.00689   -0.27913
  3 Li   -0.00728    0.01177   -0.26272
  4 Li    0.00108   -0.00353   -0.28308
  5 Li    0.00612    0.00814   -0.25979
  6 Li    0.00246   -0.01670   -0.28065
  7 Li   -0.00317    0.00960   -0.26183
  8 Li    0.00017   -0.01707   -0.27865
  9 Li    0.00006    0.00491    0.36415
 10 Li    0.01806   -0.00058    0.25656
 11 Li   -0.01778    0.00092    0.26439
 12 Li   -0.00139    0.00695    0.28069
 13 Li    0.01095    0.00115    0.26494
 14 Li   -0.01071    0.00510    0.25835
 15 Li    0.00025   -0.00332    0.24493
 16 Li   -0.00275   -0.00436    0.25944
 17 Li    0.00305   -0.01123    0.25616
 18 Li    0.04343    0.02421   -0.10688
 19 Li    0.00041   -0.00899    0.07471
 20 Li   -0.04343    0.02825   -0.10494
 21 Li   -0.02005   -0.01510    0.06843
 22 Li    0.00094    0.01120   -0.00048
 23 Li    0.02013   -0.01373    0.07417
 24 Li    0.02966   -0.01682   -0.03124
 25 Li    0.00378   -0.00097    0.05486
 26 Li   -0.03171   -0.02274   -0.05076
 27 Li    0.03501   -0.76780   -4.54664
 28 Li    0.11902   -0.03322   -0.06966
 29 Li   -0.10685   -0.02055   -0.05284
 30 Li   -0.00100   -0.21999    0.19519
 31 Li    0.06282    0.04354   -0.03502
 32 Li   -0.05722    0.04590   -0.03854
 33 Li    0.00814   -0.05230   -0.03830
 34 Li   -0.00982    0.00556   -0.01027
 35 Li   -0.00173   -0.01279   -0.02584
 36 O    -0.07603   -3.95606    5.70591
 37 C     0.00488    0.01503    0.44248
 38 C    -0.06027    0.36294    1.13063
 39 C    -0.01069    0.06511    0.20539
 40 H     0.06083    0.06171    0.03821
 41 H    -0.06772    0.05910    0.04473
 42 H    -0.01180    0.05296    0.04454
 43 H     0.10052    0.11193   -0.04049
 44 H    -0.01481    0.00419    0.01833
 45 H     0.00525   -0.03577    0.07207
 46 H     0.00985   -0.01210    0.01484
 47 H     0.66218   -0.58398    0.95071
 48 N    -0.56305    0.69798   -0.71689
 49 N    -0.04161    4.26801   -3.28333

System changes: positions 

Initializing position-dependent things.

Density initialized from wave functions
       .-----------------------.  
      /|                       |  
     / |                       |  
    /  |                       |  
   /   |                       H  
  /    |                       |  
 *     |                       |  
 |     C H                  H  |  
 |     |                       |  
 |     |                       O  
 |  H  | H             H       |  
 |     |                 C     |  
 |     |                       |  
 |  H  Li      Li      LH      |  
 C     |                       |  
 |   Li|     Li      Li        |  
 |     |                       |  
 |     |  LLi     LLi    NNLi  |  
 |     |                       |  
 |     |Li      Li      Li     |  
 |   Li|     Li      Li        |  
 |    Li  Li  Li  Li  Li  Li   |  
 | Li  |   Li      Li          |  
 |     |Li      Li      Li     |  
 Li    | Li      Li            |  
 |    Li      Li      Li       |  
 |     |                       |  
 |     |                       |  
 |     |                       |  
 |     |                       |  
 |     |                       |  
 |     |                       |  
 |     .-----------------------.  
 |    /                       /   
 |   /                       /    
 |  /                       /     
 | /                       /      
 |/                       /       
 *-----------------------*        

Positions:
   0 Li     1.617037    1.617037   10.000000    ( 0.0000,  0.0000,  0.0000)
   1 Li     4.851111    1.617037   10.000000    ( 0.0000,  0.0000,  0.0000)
   2 Li     8.085185    1.617037   10.000000    ( 0.0000,  0.0000,  0.0000)
   3 Li     1.617037    4.851111   10.000000    ( 0.0000,  0.0000,  0.0000)
   4 Li     4.851111    4.851111   10.000000    ( 0.0000,  0.0000,  0.0000)
   5 Li     8.085185    4.851111   10.000000    ( 0.0000,  0.0000,  0.0000)
   6 Li     1.617037    8.085185   10.000000    ( 0.0000,  0.0000,  0.0000)
   7 Li     4.851111    8.085185   10.000000    ( 0.0000,  0.0000,  0.0000)
   8 Li     8.085185    8.085185   10.000000    ( 0.0000,  0.0000,  0.0000)
   9 Li     0.000000    0.000000   11.617037    ( 0.0000,  0.0000,  0.0000)
  10 Li     3.234074    0.000000   11.617037    ( 0.0000,  0.0000,  0.0000)
  11 Li     6.468148    0.000000   11.617037    ( 0.0000,  0.0000,  0.0000)
  12 Li     0.000000    3.234074   11.617037    ( 0.0000,  0.0000,  0.0000)
  13 Li     3.234074    3.234074   11.617037    ( 0.0000,  0.0000,  0.0000)
  14 Li     6.468148    3.234074   11.617037    ( 0.0000,  0.0000,  0.0000)
  15 Li     0.000000    6.468148   11.617037    ( 0.0000,  0.0000,  0.0000)
  16 Li     3.234074    6.468148   11.617037    ( 0.0000,  0.0000,  0.0000)
  17 Li     6.468148    6.468148   11.617037    ( 0.0000,  0.0000,  0.0000)
  18 Li     1.618636    1.617935   13.465799    ( 0.0000,  0.0000,  0.0000)
  19 Li     4.851121    1.616700   13.472411    ( 0.0000,  0.0000,  0.0000)
  20 Li     8.083590    1.618092   13.465867    ( 0.0000,  0.0000,  0.0000)
  21 Li     1.616312    4.850584   13.472175    ( 0.0000,  0.0000,  0.0000)
  22 Li     4.851156    4.851501   13.469703    ( 0.0000,  0.0000,  0.0000)
  23 Li     8.085903    4.850624   13.472370    ( 0.0000,  0.0000,  0.0000)
  24 Li     1.618089    8.084561   13.468538    ( 0.0000,  0.0000,  0.0000)
  25 Li     4.851234    8.085183   13.471726    ( 0.0000,  0.0000,  0.0000)
  26 Li     8.084070    8.084345   13.467854    ( 0.0000,  0.0000,  0.0000)
  27 Li     0.001327   -0.027617   15.295594    ( 0.0000,  0.0000,  0.0000)
  28 Li     3.238268   -0.001142   15.443493    ( 0.0000,  0.0000,  0.0000)
  29 Li     6.464433   -0.000713   15.444163    ( 0.0000,  0.0000,  0.0000)
  30 Li    -0.000039    3.225948   15.453184    ( 0.0000,  0.0000,  0.0000)
  31 Li     3.236291    3.235626   15.444708    ( 0.0000,  0.0000,  0.0000)
  32 Li     6.466135    3.235709   15.444579    ( 0.0000,  0.0000,  0.0000)
  33 Li     0.000272    6.466303   15.444573    ( 0.0000,  0.0000,  0.0000)
  34 Li     3.233770    6.468304   15.445535    ( 0.0000,  0.0000,  0.0000)
  35 Li     6.468058    6.467678   15.445012    ( 0.0000,  0.0000,  0.0000)
  36 O      9.687868    9.580407   18.600694    ( 0.0000,  0.0000,  0.0000)
  37 C      9.702290    9.318676   20.901787    ( 0.0000,  0.0000,  0.0000)
  38 C      9.716174   10.335613   19.779318    ( 0.0000,  0.0000,  0.0000)
  39 C      9.695679    9.977310   22.267733    ( 0.0000,  0.0000,  0.0000)
  40 H      8.826824    8.673706   20.762127    ( 0.0000,  0.0000,  0.0000)
  41 H     10.585894    8.674979   20.786936    ( 0.0000,  0.0000,  0.0000)
  42 H      8.810130   10.948692   19.763574    ( 0.0000,  0.0000,  0.0000)
  43 H     10.585490   10.998498   19.832235    ( 0.0000,  0.0000,  0.0000)
  44 H      8.809722   10.603278   22.394454    ( 0.0000,  0.0000,  0.0000)
  45 H      9.695357    9.231581   23.059688    ( 0.0000,  0.0000,  0.0000)
  46 H     10.574615   10.612103   22.402303    ( 0.0000,  0.0000,  0.0000)
  47 H     10.503933    9.100378   18.431787    ( 0.0000,  0.0000,  0.0000)
  48 N      9.682949    9.768808   16.923003    ( 0.0000,  0.0000,  0.0000)
  49 N      9.699935   10.888927   16.858634    ( 0.0000,  0.0000,  0.0000)

Unit cell:
           periodic     x           y           z      points  spacing
  1. axis:    yes    9.702222    0.000000    0.000000    60     0.1617
  2. axis:    yes    0.000000    9.702222    0.000000    60     0.1617
  3. axis:    no     0.000000    0.000000   26.351111   164     0.1607

  Lengths:   9.702222   9.702222  26.351111
  Angles:   90.000000  90.000000  90.000000

Effective grid spacing dv^(1/3) = 0.1614

     iter     time        total  log10-change:
                         energy  eigst   dens
iter:   1 19:09:52  -330.232824  -0.88
iter:   2 19:09:59  -330.236326  -1.64  -2.34
iter:   3 19:10:07  -330.234985c -1.95  -2.40
iter:   4 19:10:14  -330.235614c -1.92  -2.48
Writing to output.gpw (mode='')

iter:   5 19:10:21  -330.234796c -2.51  -2.44
iter:   6 19:10:29  -330.235499c -2.60  -2.73
iter:   7 19:10:36  -330.235735c -2.42  -2.60
iter:   8 19:10:44  -330.234741c -3.17  -2.70
iter:   9 19:10:51  -330.234790c -2.95  -3.01
Writing to output.gpw (mode='')

iter:  10 19:10:59  -330.235123c -3.30  -3.12
iter:  11 19:11:06  -330.234987c -4.14  -3.01
iter:  12 19:11:14  -330.234834c -3.44  -3.08
iter:  13 19:11:21  -330.234691c -3.94  -3.22
iter:  14 19:11:28  -330.234708c -4.23  -3.53
Writing to output.gpw (mode='')

iter:  15 19:11:36  -330.234715c -4.69  -3.65
iter:  16 19:11:43  -330.234739c -4.81  -3.75
iter:  17 19:11:51  -330.234717c -5.26  -3.83
iter:  18 19:11:58  -330.234729c -5.58  -3.98
iter:  19 19:12:05  -330.234729c -5.76  -4.17c
Writing to output.gpw (mode='')

iter:  20 19:12:13  -330.234736c -5.68  -4.22c
iter:  21 19:12:20  -330.234729c -5.92  -4.37c
iter:  22 19:12:27  -330.234731c -6.02  -4.44c
iter:  23 19:12:35  -330.234733c -6.09  -4.54c
iter:  24 19:12:42  -330.234734c -6.39  -4.63c
Writing to output.gpw (mode='')

iter:  25 19:12:49  -330.234734c -6.53  -4.74c
iter:  26 19:12:57  -330.234735c -6.59  -4.93c
iter:  27 19:13:04  -330.234734c -6.82  -4.96c
iter:  28 19:13:11  -330.234735c -6.93  -5.09c
iter:  29 19:13:19  -330.234734c -6.90  -5.04c
Writing to output.gpw (mode='')

iter:  30 19:13:26  -330.234734c -6.90  -5.16c
iter:  31 19:13:33  -330.234734c -6.98  -5.21c
iter:  32 19:13:41  -330.234734c -7.16  -5.25c
iter:  33 19:13:48  -330.234734c -7.36  -5.24c
iter:  34 19:13:55  -330.234734c -7.62c -5.40c

Converged after 34 iterations.

Dipole moment: (-23.207921, -8.308734, 0.522116) |e|*Ang

Energy contributions relative to reference atoms: (reference = -15487.462483)

Kinetic:       +192.249488
Potential:     -179.968910
External:        +0.000000
XC:            -343.242260
Entropy (-ST):   -0.148933
Local:           +0.801414
--------------------------
Free energy:   -330.309201
Extrapolated:  -330.234734

Dipole-layer corrected work functions: 3.370217, 2.366531 eV

Showing only first 2 kpts
 Kpt  Band  Eigenvalues  Occupancy
  0    34     -3.12815    1.98898
  0    35     -3.01749    1.90353
  0    36     -2.73642    0.13333
  0    37     -2.62668    0.01579

  1    34     -2.93358    1.57305
  1    35     -2.88587    1.17319
  1    36     -2.79616    0.38176
  1    37     -2.78730    0.32999


Fermi level: -2.86837

Gap: 0.022 eV
Transition (v -> c):
  (s=0, k=1, n=35, [0.12, -0.12, 0.00]) -> (s=0, k=7, n=36, [0.38, 0.38, 0.00])
Writing to output.gpw (mode='')


Forces in eV/Ang:
  0 Li    0.01724    0.00182   -0.28043
  1 Li    0.00046   -0.00142   -0.26247
  2 Li   -0.01761    0.00675   -0.28026
  3 Li   -0.00761    0.01195   -0.26212
  4 Li    0.00109   -0.00360   -0.28383
  5 Li    0.00647    0.00843   -0.25930
  6 Li    0.00220   -0.01672   -0.28165
  7 Li   -0.00321    0.00998   -0.26120
  8 Li    0.00049   -0.01724   -0.27971
  9 Li    0.00011    0.00493    0.36807
 10 Li    0.01820   -0.00080    0.25723
 11 Li   -0.01790    0.00071    0.26526
 12 Li   -0.00142    0.00739    0.28136
 13 Li    0.01231    0.00214    0.26441
 14 Li   -0.01194    0.00590    0.25799
 15 Li    0.00024   -0.00321    0.24549
 16 Li   -0.00188   -0.00528    0.25857
 17 Li    0.00220   -0.01213    0.25563
 18 Li    0.04839    0.03001   -0.11287
 19 Li    0.00061   -0.00858    0.07322
 20 Li   -0.04815    0.03368   -0.11164
 21 Li   -0.01985   -0.01597    0.06808
 22 Li    0.00075    0.01168   -0.00042
 23 Li    0.02000   -0.01475    0.07380
 24 Li    0.03736   -0.02465   -0.04042
 25 Li    0.00388   -0.00173    0.05372
 26 Li   -0.03936   -0.03019   -0.06025
 27 Li    0.04064   -0.71518   -3.87076
 28 Li    0.11529   -0.03315   -0.06866
 29 Li   -0.10379   -0.02131   -0.05090
 30 Li   -0.00024   -0.21459    0.19565
 31 Li    0.06257    0.04338   -0.03545
 32 Li   -0.05757    0.04657   -0.03879
 33 Li    0.00815   -0.05254   -0.03660
 34 Li   -0.01004    0.00605   -0.01081
 35 Li   -0.00169   -0.01230   -0.02558
 36 O    -0.02324   -3.42721    4.61221
 37 C     0.01387    0.02179    0.43596
 38 C    -0.07265    0.21699    0.88841
 39 C    -0.00799    0.06605    0.25555
 40 H     0.06787    0.08261    0.07084
 41 H    -0.06483    0.06620    0.08383
 42 H     0.03720    0.01174    0.05551
 43 H     0.07639    0.05819   -0.05520
 44 H    -0.02002    0.01094    0.04034
 45 H     0.00380   -0.04232    0.13103
 46 H     0.01648   -0.00258    0.03925
 47 H     0.46452   -0.42173    0.86749
 48 N    -0.47664    0.72454   -0.75075
 49 N    -0.05770    3.58002   -2.64646

System changes: positions 

Initializing position-dependent things.

Density initialized from wave functions
       .-----------------------.  
      /|                       |  
     / |                       |  
    /  |                       |  
   /   |                       H  
  /    |                       |  
 *     |                       |  
 |     C H                  H  |  
 |     |                       |  
 |     |                       O  
 |  H  | H             H       |  
 |     |                 C     |  
 |     |                       |  
 |  H  Li      Li      LH      |  
 C     |                       |  
 |   Li|     Li      Li        |  
 |     |                       |  
 |     |  LLi     LLi    NNLi  |  
 |     |                       |  
 |     |Li      Li      Li     |  
 |   Li|     Li      Li        |  
 |    Li  Li  Li  Li  Li  Li   |  
 | Li  |   Li      Li          |  
 |     |Li      Li      Li     |  
 Li    | Li      Li            |  
 |    Li      Li      Li       |  
 |     |                       |  
 |     |                       |  
 |     |                       |  
 |     |                       |  
 |     |                       |  
 |     |                       |  
 |     .-----------------------.  
 |    /                       /   
 |   /                       /    
 |  /                       /     
 | /                       /      
 |/                       /       
 *-----------------------*        

Positions:
   0 Li     1.617037    1.617037   10.000000    ( 0.0000,  0.0000,  0.0000)
   1 Li     4.851111    1.617037   10.000000    ( 0.0000,  0.0000,  0.0000)
   2 Li     8.085185    1.617037   10.000000    ( 0.0000,  0.0000,  0.0000)
   3 Li     1.617037    4.851111   10.000000    ( 0.0000,  0.0000,  0.0000)
   4 Li     4.851111    4.851111   10.000000    ( 0.0000,  0.0000,  0.0000)
   5 Li     8.085185    4.851111   10.000000    ( 0.0000,  0.0000,  0.0000)
   6 Li     1.617037    8.085185   10.000000    ( 0.0000,  0.0000,  0.0000)
   7 Li     4.851111    8.085185   10.000000    ( 0.0000,  0.0000,  0.0000)
   8 Li     8.085185    8.085185   10.000000    ( 0.0000,  0.0000,  0.0000)
   9 Li     0.000000    0.000000   11.617037    ( 0.0000,  0.0000,  0.0000)
  10 Li     3.234074    0.000000   11.617037    ( 0.0000,  0.0000,  0.0000)
  11 Li     6.468148    0.000000   11.617037    ( 0.0000,  0.0000,  0.0000)
  12 Li     0.000000    3.234074   11.617037    ( 0.0000,  0.0000,  0.0000)
  13 Li     3.234074    3.234074   11.617037    ( 0.0000,  0.0000,  0.0000)
[...]
Entropy (-ST):   -0.157438
Local:           +0.806687
--------------------------
Free energy:   -334.656883
Extrapolated:  -334.578164

Dipole-layer corrected work functions: 3.398974, 2.732816 eV

Showing only first 2 kpts
 Kpt  Band  Eigenvalues  Occupancy
  0    34     -3.29756    1.98074
  0    35     -3.23977    1.94008
  0    36     -2.91605    0.09513
  0    37     -2.86581    0.03591

  1    34     -3.10860    1.40286
  1    35     -3.06530    0.99403
  1    36     -3.03389    0.69048
  1    37     -2.96216    0.22317


Fermi level: -3.06590

No gap
Writing to output.gpw (mode='')


Forces in eV/Ang:
  0 Li    0.01285   -0.01070   -0.27162
  1 Li   -0.01106   -0.00400   -0.27662
  2 Li   -0.00483   -0.01596   -0.26292
  3 Li    0.00571    0.00885   -0.28244
  4 Li   -0.00164   -0.00643   -0.25703
  5 Li    0.00145    0.01544   -0.28810
  6 Li    0.00716   -0.00858   -0.27207
  7 Li   -0.00625    0.00026   -0.30206
  8 Li    0.00606   -0.01172   -0.25993
  9 Li    0.00568   -0.02668    0.18922
 10 Li   -0.01485    0.03232    0.28933
 11 Li   -0.02412   -0.01543    0.25139
 12 Li   -0.01889    0.01558    0.34558
 13 Li   -0.01844   -0.01348    0.27799
 14 Li    0.04482   -0.01834    0.30809
 15 Li   -0.01003    0.08697    0.26059
 16 Li   -0.01594    0.01546    0.25315
 17 Li   -0.00518    0.07482    0.27443
 18 Li   -0.00257    0.01636    0.00822
 19 Li   -0.00156    0.00976    0.00634
 20 Li    0.00818    0.00912    0.00399
 21 Li   -0.00257   -0.00701   -0.00086
 22 Li    0.00148    0.01719    0.00865
 23 Li    0.00204   -0.00142   -0.00013
 24 Li    0.00610   -0.01268    0.00447
 25 Li    0.00182    0.00147   -0.00479
 26 Li    0.01448   -0.00569   -0.00313
 27 Li    0.03186   -0.00185    0.00930
 28 Li    0.02342    0.00109    0.00729
 29 Li    0.00012   -0.01070   -0.00418
 30 Li    0.01411   -0.00554   -0.00193
 31 Li   -0.01563    0.00407   -0.00317
 32 Li   -0.00035    0.00229   -0.00161
 33 Li    0.00079   -0.01660    0.00831
 34 Li   -0.00140    0.00247    0.00164
 35 Li    0.00275   -0.00119    0.00510
 36 O    -0.00619   -0.06357   -0.01146
 37 C    -0.01256   -0.01367   -0.02595
 38 C     0.00340    0.01125    0.01880
 39 C    -0.00944   -0.00938   -0.00101
 40 H     0.01330   -0.02298   -0.01012
 41 H     0.00016   -0.00753   -0.02857
 42 H     0.00522    0.02537   -0.00397
 43 H    -0.00492    0.00056    0.02429
 44 H    -0.01043   -0.00635    0.04544
 45 H    -0.00413    0.02156    0.00242
 46 H     0.01663   -0.00017    0.00126
 47 H     0.00055   -0.01898   -0.00479
 48 N    -0.00255   -0.02670   -0.01854
 49 N    -0.01152   -0.00027    0.03517

System changes: positions 

Initializing position-dependent things.

Density initialized from wave functions
       .-----------------------.  
      /|                       |  
     / |                       |  
    /  |                       |  
   /   |                       |  
  /    |                       |  
 *    HC                       |  
 |     |                       |  
 |     C                       |  
 |     | H                   H |  
 |     |                       |  
 |  H  |OH                     |  
 |     |               H       |  
 |     |              Li       |  
 |   H |                H      |  
 |C    |     Li      Li  N   Li|  
 |     |                 NLi   |  
 | Li  |  LLi     LLi          |  
 |     |                 Li    |  
 |     |LLi     Li      Li     |  
 |   Li|     Li      Li        |  
 |    Li  Li  Li  Li  Li  Li   |  
 | Li  |   Li      Li          |  
 |     |Li      Li      Li     |  
 Li    | Li      Li            |  
 |    Li      Li      Li       |  
 |     |                       |  
 |     |                       |  
 |     |                       |  
 |     |                       |  
 |     |                       |  
 |     |                       |  
 |     .-----------------------.  
 |    /                       /   
 |   /                       /    
 |  /                       /     
 | /                       /      
 |/                       /       
 *-----------------------*        

Positions:
   0 Li     1.617037    1.617037   10.000000    ( 0.0000,  0.0000,  0.0000)
   1 Li     4.851111    1.617037   10.000000    ( 0.0000,  0.0000,  0.0000)
   2 Li     8.085185    1.617037   10.000000    ( 0.0000,  0.0000,  0.0000)
   3 Li     1.617037    4.851111   10.000000    ( 0.0000,  0.0000,  0.0000)
   4 Li     4.851111    4.851111   10.000000    ( 0.0000,  0.0000,  0.0000)
   5 Li     8.085185    4.851111   10.000000    ( 0.0000,  0.0000,  0.0000)
   6 Li     1.617037    8.085185   10.000000    ( 0.0000,  0.0000,  0.0000)
   7 Li     4.851111    8.085185   10.000000    ( 0.0000,  0.0000,  0.0000)
   8 Li     8.085185    8.085185   10.000000    ( 0.0000,  0.0000,  0.0000)
   9 Li     0.000000    0.000000   11.617037    ( 0.0000,  0.0000,  0.0000)
  10 Li     3.234074    0.000000   11.617037    ( 0.0000,  0.0000,  0.0000)
  11 Li     6.468148    0.000000   11.617037    ( 0.0000,  0.0000,  0.0000)
  12 Li     0.000000    3.234074   11.617037    ( 0.0000,  0.0000,  0.0000)
  13 Li     3.234074    3.234074   11.617037    ( 0.0000,  0.0000,  0.0000)
  14 Li     6.468148    3.234074   11.617037    ( 0.0000,  0.0000,  0.0000)
  15 Li     0.000000    6.468148   11.617037    ( 0.0000,  0.0000,  0.0000)
  16 Li     3.234074    6.468148   11.617037    ( 0.0000,  0.0000,  0.0000)
  17 Li     6.468148    6.468148   11.617037    ( 0.0000,  0.0000,  0.0000)
  18 Li     1.556658    1.627610   13.512160    ( 0.0000,  0.0000,  0.0000)
  19 Li     4.866448    1.608457   13.457677    ( 0.0000,  0.0000,  0.0000)
  20 Li     8.115929    1.570114   13.486337    ( 0.0000,  0.0000,  0.0000)
  21 Li     1.640565    4.920060   13.451499    ( 0.0000,  0.0000,  0.0000)
  22 Li     4.868764    4.826400   13.453147    ( 0.0000,  0.0000,  0.0000)
  23 Li     8.088847    4.925762   13.425849    ( 0.0000,  0.0000,  0.0000)
  24 Li     1.543801    8.159034   13.529036    ( 0.0000,  0.0000,  0.0000)
  25 Li     4.793239    8.061653   13.456596    ( 0.0000,  0.0000,  0.0000)
  26 Li     8.066517    8.193909   13.554211    ( 0.0000,  0.0000,  0.0000)
  27 Li    -0.181923    0.490687   16.152233    ( 0.0000,  0.0000,  0.0000)
  28 Li     3.168840    0.014247   15.373047    ( 0.0000,  0.0000,  0.0000)
  29 Li     6.253414   -0.035600   15.415441    ( 0.0000,  0.0000,  0.0000)
  30 Li     0.103460    3.498764   15.350101    ( 0.0000,  0.0000,  0.0000)
  31 Li     3.338592    3.221776   15.379209    ( 0.0000,  0.0000,  0.0000)
  32 Li     6.492299    3.234330   15.386301    ( 0.0000,  0.0000,  0.0000)
  33 Li    -0.038331    6.581307   15.439040    ( 0.0000,  0.0000,  0.0000)
  34 Li     3.214837    6.453976   15.420354    ( 0.0000,  0.0000,  0.0000)
  35 Li     6.404838    6.442509   15.385134    ( 0.0000,  0.0000,  0.0000)
  36 O     10.135776    9.268023   17.775656    ( 0.0000,  0.0000,  0.0000)
  37 C     10.033538    8.688763   20.187783    ( 0.0000,  0.0000,  0.0000)
  38 C     10.120747    9.781908   19.132077    ( 0.0000,  0.0000,  0.0000)
  39 C      9.847617    9.281909   21.586844    ( 0.0000,  0.0000,  0.0000)
  40 H      9.189433    8.036799   19.945092    ( 0.0000,  0.0000,  0.0000)
  41 H     10.937684    8.070871   20.160420    ( 0.0000,  0.0000,  0.0000)
  42 H      9.235462   10.416990   19.179419    ( 0.0000,  0.0000,  0.0000)
  43 H     11.000887   10.417591   19.287899    ( 0.0000,  0.0000,  0.0000)
  44 H      8.934627    9.880741   21.632089    ( 0.0000,  0.0000,  0.0000)
  45 H      9.773464    8.492733   22.336171    ( 0.0000,  0.0000,  0.0000)
  46 H     10.683593    9.929114   21.863598    ( 0.0000,  0.0000,  0.0000)
  47 H     10.903282    8.684364   17.649857    ( 0.0000,  0.0000,  0.0000)
  48 N      9.038200   12.013278   16.987503    ( 0.0000,  0.0000,  0.0000)
  49 N      8.833478   13.094958   17.305201    ( 0.0000,  0.0000,  0.0000)

Unit cell:
           periodic     x           y           z      points  spacing
  1. axis:    yes    9.702222    0.000000    0.000000    60     0.1617
  2. axis:    yes    0.000000    9.702222    0.000000    60     0.1617
  3. axis:    no     0.000000    0.000000   26.351111   164     0.1607

  Lengths:   9.702222   9.702222  26.351111
  Angles:   90.000000  90.000000  90.000000

Effective grid spacing dv^(1/3) = 0.1614

     iter     time        total  log10-change:
                         energy  eigst   dens
iter:   1 07:58:34  -334.589624  -2.27
iter:   2 07:58:41  -334.585286  -2.42  -2.11
iter:   3 07:58:48  -334.579110c -3.76  -2.20
iter:   4 07:58:56  -334.578834c -4.01  -2.83
Writing to output.gpw (mode='')

iter:   5 07:59:03  -334.578607c -3.37  -3.05
iter:   6 07:59:10  -334.578744c -4.35  -3.26
iter:   7 07:59:18  -334.578659c -3.82  -3.31
iter:   8 07:59:25  -334.578635c -4.53  -3.48
iter:   9 07:59:32  -334.578650c -4.83  -3.71
Writing to output.gpw (mode='')

iter:  10 07:59:45  -334.578666c -5.09  -3.84
iter:  11 07:59:52  -334.578678c -5.27  -3.99
iter:  12 07:59:59  -334.578669c -5.61  -4.03c
iter:  13 08:00:06  -334.578670c -5.83  -4.06c
iter:  14 08:00:14  -334.578676c -6.03  -4.15c
Writing to output.gpw (mode='')

iter:  15 08:00:21  -334.578671c -5.92  -4.31c
iter:  16 08:00:28  -334.578669c -6.32  -4.68c
iter:  17 08:00:36  -334.578673c -6.42  -4.71c
iter:  18 08:00:43  -334.578672c -6.60  -4.77c
iter:  19 08:00:50  -334.578672c -6.84  -4.95c
Writing to output.gpw (mode='')

iter:  20 08:00:57  -334.578672c -6.92  -5.05c
iter:  21 08:01:05  -334.578672c -6.92  -5.15c
iter:  22 08:01:12  -334.578671c -7.12  -5.19c
iter:  23 08:01:19  -334.578671c -7.34  -5.33c
iter:  24 08:01:27  -334.578672c -7.43c -5.45c

Converged after 24 iterations.

Dipole moment: (-27.624606, -0.714177, 0.346757) |e|*Ang

Energy contributions relative to reference atoms: (reference = -15487.462483)

Kinetic:       +167.519821
Potential:     -163.399431
External:        +0.000000
XC:            -339.427081
Entropy (-ST):   -0.157498
Local:           +0.806768
--------------------------
Free energy:   -334.657421
Extrapolated:  -334.578672

Dipole-layer corrected work functions: 3.398847, 2.732261 eV

Showing only first 2 kpts
 Kpt  Band  Eigenvalues  Occupancy
  0    34     -3.29682    1.98059
  0    35     -3.23959    1.94027
  0    36     -2.91583    0.09535
  0    37     -2.86550    0.03593

  1    34     -3.10835    1.40361
  1    35     -3.06493    0.99375
  1    36     -3.03377    0.69245
  1    37     -2.96225    0.22486


Fermi level: -3.06555

No gap
Writing to output.gpw (mode='')


Forces in eV/Ang:
  0 Li    0.01293   -0.01055   -0.27155
  1 Li   -0.01110   -0.00400   -0.27653
  2 Li   -0.00477   -0.01591   -0.26297
  3 Li    0.00567    0.00886   -0.28234
  4 Li   -0.00166   -0.00623   -0.25709
  5 Li    0.00147    0.01547   -0.28802
  6 Li    0.00711   -0.00853   -0.27200
  7 Li   -0.00629    0.00026   -0.30210
  8 Li    0.00602   -0.01159   -0.26011
  9 Li    0.00603   -0.02714    0.18991
 10 Li   -0.01507    0.03164    0.28963
 11 Li   -0.02409   -0.01598    0.25305
 12 Li   -0.01916    0.01495    0.34603
 13 Li   -0.01798   -0.01305    0.27833
 14 Li    0.04424   -0.01853    0.30904
 15 Li   -0.01015    0.08618    0.26182
 16 Li   -0.01629    0.01494    0.25422
 17 Li   -0.00434    0.07471    0.27624
 18 Li   -0.00215    0.01522    0.00860
 19 Li   -0.00109    0.00976    0.00483
 20 Li    0.00827    0.01017    0.00290
 21 Li   -0.00272   -0.00644   -0.00179
 22 Li    0.00086    0.01665    0.00640
 23 Li    0.00225   -0.00088   -0.00193
 24 Li    0.00590   -0.01132    0.00430
 25 Li    0.00220    0.00112   -0.00528
 26 Li    0.01372   -0.00665   -0.00468
 27 Li    0.02899   -0.00300    0.00854
 28 Li    0.02190    0.00127    0.00621
 29 Li    0.00135   -0.01001   -0.00316
 30 Li    0.01222   -0.00334   -0.00073
 31 Li   -0.01557    0.00334   -0.00308
 32 Li    0.00040    0.00190   -0.00094
 33 Li    0.00161   -0.01450    0.00850
 34 Li   -0.00058    0.00260    0.00200
 35 Li    0.00179   -0.00128    0.00513
 36 O    -0.00243   -0.04586   -0.00209
 37 C    -0.00223   -0.00933   -0.01485
 38 C    -0.00307    0.00952    0.00940
 39 C    -0.00491   -0.00067   -0.00375
 40 H     0.00159   -0.02349   -0.00893
 41 H     0.00239   -0.00181   -0.02444
 42 H    -0.00052    0.02055   -0.00808
 43 H     0.00446   -0.00598    0.01987
 44 H    -0.00754   -0.00935    0.03936
 45 H    -0.00652    0.01171    0.00965
 46 H     0.01218   -0.00692   -0.00878
 47 H     0.00279   -0.01957   -0.00290
 48 N    -0.01283   -0.02708   -0.01981
 49 N    -0.01487   -0.00854    0.02647

Timing:                                      incl.     excl.
-------------------------------------------------------------------
Density initialized from wave functions:    13.797    13.793   0.0% |
 Symmetrize density:                         0.005     0.005   0.0% |
Forces:                                     78.606    78.606   0.2% |
Hamiltonian:                              1077.156     0.024   0.0% |
 Atomic:                                     0.044     0.044   0.0% |
  XC Correction:                             0.000     0.000   0.0% |
 Calculate atomic Hamiltonians:              0.075     0.075   0.0% |
 Communicate:                               14.972    14.972   0.0% |
 Hartree integrate/restrict:                 3.874     3.874   0.0% |
 Initialize Hamiltonian:                     0.001     0.001   0.0% |
 Poisson:                                   51.848    19.281   0.0% |
  Communicate from 1D:                       5.024     5.024   0.0% |
  Communicate from 2D:                       5.030     5.030   0.0% |
  Communicate to 1D:                         3.105     3.105   0.0% |
  Communicate to 2D:                         6.067     6.067   0.0% |
  FFT 1D:                                    6.769     6.769   0.0% |
  FFT 2D:                                    6.572     6.572   0.0% |
 XC 3D grid:                              1005.545   152.983   0.3% |
  VdW-DF integral:                         852.562     7.020   0.0% |
   Convolution:                             79.316    79.316   0.2% |
   FFT:                                     33.832    33.832   0.1% |
   gather:                                 294.991   294.991   0.6% |
   hmm1:                                    27.944    27.944   0.1% |
   hmm2:                                    37.062    37.062   0.1% |
   iFFT:                                    35.201    35.201   0.1% |
   potential:                              333.488     9.320   0.0% |
    collect:                                51.981    51.981   0.1% |
    p1:                                    150.807   150.807   0.3% |
    p2:                                     55.914    55.914   0.1% |
    sum:                                    65.466    65.466   0.1% |
   splines:                                  3.709     3.709   0.0% |
 vbar:                                       0.773     0.773   0.0% |
LCAO initialization:                         1.144     0.182   0.0% |
 LCAO eigensolver:                           0.240     0.000   0.0% |
  Calculate projections:                     0.000     0.000   0.0% |
  DenseAtomicCorrection:                     0.000     0.000   0.0% |
  Distribute overlap matrix:                 0.156     0.156   0.0% |
  Orbital Layouts:                           0.081     0.081   0.0% |
  Potential matrix:                          0.001     0.001   0.0% |
  Sum over cells:                            0.002     0.002   0.0% |
 LCAO to grid:                               0.626     0.626   0.0% |
 Set positions (LCAO WFS):                   0.096     0.053   0.0% |
  Basic WFS set positions:                   0.001     0.001   0.0% |
  Basis functions set positions:             0.000     0.000   0.0% |
  P tci:                                     0.000     0.000   0.0% |
  ST tci:                                    0.012     0.012   0.0% |
  mktci:                                     0.029     0.029   0.0% |
Redistribute:                                0.124     0.124   0.0% |
SCF-cycle:                               47198.594   746.147   1.5% ||
 Davidson:                               12683.670  3797.543   7.8% |--|
  Apply hamiltonian:                       792.950   792.950   1.6% ||
  Subspace diag:                          2379.595     0.764   0.0% |
   calc_h_matrix:                         1181.269   367.316   0.8% |
    Apply hamiltonian:                     813.954   813.954   1.7% ||
   diagonalize:                            129.169   129.169   0.3% |
   rotate_psi:                            1068.392  1068.392   2.2% ||
  calc. matrices:                         3967.339  2088.497   4.3% |-|
   Apply hamiltonian:                     1878.843  1878.843   3.9% |-|
  diagonalize:                              37.843    37.843   0.1% |
  rotate_psi:                             1708.400  1708.400   3.5% ||
 Density:                                  229.338     0.156   0.0% |
  Atomic density matrices:                  30.712    30.712   0.1% |
  Mix:                                      93.896    93.896   0.2% |
  Multipole moments:                         7.994     7.994   0.0% |
  Pseudo density:                           96.580    96.430   0.2% |
   Symmetrize density:                       0.150     0.150   0.0% |
 Hamiltonian:                            33502.195     0.774   0.0% |
  Atomic:                                    1.549     1.533   0.0% |
   XC Correction:                            0.015     0.015   0.0% |
  Calculate atomic Hamiltonians:             2.420     2.420   0.0% |
  Communicate:                             464.529   464.529   1.0% |
  Hartree integrate/restrict:              122.006   122.006   0.3% |
  Poisson:                                1598.415   589.092   1.2% |
   Communicate from 1D:                    156.159   156.159   0.3% |
   Communicate from 2D:                    159.425   159.425   0.3% |
   Communicate to 1D:                       88.526    88.526   0.2% |
   Communicate to 2D:                      189.166   189.166   0.4% |
   FFT 1D:                                 210.361   210.361   0.4% |
   FFT 2D:                                 205.686   205.686   0.4% |
  XC 3D grid:                            31287.161  4659.720   9.6% |---|
   VdW-DF integral:                      26627.441   220.835   0.5% |
    Convolution:                          2483.413  2483.413   5.1% |-|
    FFT:                                  1055.693  1055.693   2.2% ||
    gather:                               9293.616  9293.616  19.1% |-------|
    hmm1:                                  879.543   879.543   1.8% ||
    hmm2:                                 1148.436  1148.436   2.4% ||
    iFFT:                                 1094.321  1094.321   2.3% ||
    potential:                           10451.521   296.173   0.6% |
     collect:                             1624.263  1624.263   3.3% ||
     p1:                                  4728.261  4728.261   9.7% |---|
     p2:                                  1750.305  1750.305   3.6% ||
     sum:                                 2052.519  2052.519   4.2% |-|
    splines:                                 0.063     0.063   0.0% |
  vbar:                                     25.341    25.341   0.1% |
 Orthonormalize:                            37.243     0.028   0.0% |
  calc_s_matrix:                             5.349     5.349   0.0% |
  inverse-cholesky:                         11.403    11.403   0.0% |
  projections:                               0.004     0.004   0.0% |
  rotate_psi_s:                             20.460    20.460   0.0% |
Set symmetry:                                0.018     0.018   0.0% |
Other:                                     192.505   192.505   0.4% |
-------------------------------------------------------------------
Total:                                             48561.944 100.0%

Memory usage: 1.12 GiB
Date: Sat Mar 11 08:01:27 2023
