
  ___ ___ ___ _ _ _  
 |   |   |_  | | | | 
 | | | | | . | | | | 
 |__ |  _|___|_____|  22.8.0
 |___|_|             

User:   vazumah@r381.ib.bridges2.psc.edu
Date:   Fri Mar 10 21:52:35 2023
Arch:   x86_64
Pid:    58227
CWD:    /jet/home/vazumah/Calcs/LiMEAS/proton_donors/propanediol13_y/bridge/0.0_1.617/N2_x
Python: 3.11.0
gpaw:   /jet/home/vazumah/.conda/envs/GPAW_mpich/lib/python3.11/site-packages/gpaw
_gpaw:  /jet/home/vazumah/.conda/envs/GPAW_mpich/lib/python3.11/site-packages/
        _gpaw.cpython-311-x86_64-linux-gnu.so
ase:    /jet/home/vazumah/.conda/envs/GPAW_mpich/lib/python3.11/site-packages/ase (version 3.22.1)
numpy:  /jet/home/vazumah/.conda/envs/GPAW_mpich/lib/python3.11/site-packages/numpy (version 1.24.2)
scipy:  /jet/home/vazumah/.conda/envs/GPAW_mpich/lib/python3.11/site-packages/scipy (version 1.10.1)
libxc:  5.2.3
units:  Angstrom and eV
cores: 128
OpenMP: True
OMP_NUM_THREADS: 1

Input parameters:
  h: 0.16
  kpts: {size: [4, 4, 1]}
  occupations: {name: fermi-dirac,
                width: 0.05}
  poissonsolver: {dipolelayer: xy}
  xc: BEEF-vdW

System changes: positions, numbers, cell, pbc, initial_charges, initial_magmoms 

Initialize ...

species:
  Li:
    name: Lithium
    id: 830b4218f175192f93f959cfc0aad614
    Z: 3.0
    valence: 1
    core: 2
    charge: 0.0
    file: /jet/home/vazumah/datasets/gpaw-setups-0.9.20000/Li.PBE.gz
    compensation charges: {type: gauss,
                           rc: 0.33,
                           lmax: 2}
    cutoffs: {filter: 1.91,
              core: 2.55}
    valence states:
      #              energy  rcut
      - 2s(1.00)    -2.874   1.058
      - 2p(0.00)    -1.090   1.058
      -  s          24.337   1.058
  
    # Using partial waves for Li as LCAO basis

  O:
    name: Oxygen
    id: 32ecd46bf208036f09c70b0ec9a88b78
    Z: 8.0
    valence: 6
    core: 2
    charge: 0.0
    file: /jet/home/vazumah/datasets/gpaw-setups-0.9.20000/O.PBE.gz
    compensation charges: {type: gauss,
                           rc: 0.21,
                           lmax: 2}
    cutoffs: {filter: 1.17,
              core: 0.83}
    valence states:
      #              energy  rcut
      - 2s(2.00)   -23.961   0.688
      - 2p(4.00)    -9.029   0.598
      -  s           3.251   0.688
      -  p          18.182   0.598
      -  d           0.000   0.619
  
    # Using partial waves for O as LCAO basis

  C:
    name: Carbon
    id: 4aa54d4b901d75f77cc0ea3eec22967b
    Z: 6.0
    valence: 4
    core: 2
    charge: 0.0
    file: /jet/home/vazumah/datasets/gpaw-setups-0.9.20000/C.PBE.gz
    compensation charges: {type: gauss,
                           rc: 0.20,
                           lmax: 2}
    cutoffs: {filter: 1.14,
              core: 1.14}
    valence states:
      #              energy  rcut
      - 2s(2.00)   -13.751   0.635
      - 2p(2.00)    -5.284   0.635
      -  s          13.461   0.635
      -  p          21.927   0.635
      -  d           0.000   0.635
  
    # Using partial waves for C as LCAO basis

  H:
    name: Hydrogen
    id: d65de229564ff8ea4db303e23b6d1ecf
    Z: 1.0
    valence: 1
    core: 0
    charge: 0.0
    file: /jet/home/vazumah/datasets/gpaw-setups-0.9.20000/H.PBE.gz
    compensation charges: {type: gauss,
                           rc: 0.15,
                           lmax: 2}
    cutoffs: {filter: 0.85,
              core: 0.53}
    valence states:
      #              energy  rcut
      - 1s(1.00)    -6.494   0.476
      -  s          20.717   0.476
      -  p           0.000   0.476
  
    # Using partial waves for H as LCAO basis

  N:
    name: Nitrogen
    id: f7500608b86eaa90eef8b1d9a670dc53
    Z: 7.0
    valence: 5
    core: 2
    charge: 0.0
    file: /jet/home/vazumah/datasets/gpaw-setups-0.9.20000/N.PBE.gz
    compensation charges: {type: gauss,
                           rc: 0.18,
                           lmax: 2}
    cutoffs: {filter: 1.11,
              core: 0.96}
    valence states:
      #              energy  rcut
      - 2s(2.00)   -18.583   0.603
      - 2p(3.00)    -7.089   0.529
      -  s           8.629   0.603
      -  p          20.123   0.529
      -  d           0.000   0.577
  
    # Using partial waves for N as LCAO basis

Reference energy: -17528.314784  # eV

Spin-paired calculation

Convergence criteria:
 Maximum [total energy] change in last 3 cyles: 0.0005 eV / electron
 Maximum integral of absolute [dens]ity change: 0.0001 electrons / valence electron
 Maximum integral of absolute [eigenst]ate change: 4e-08 eV^2 / valence electron
 Maximum number of scf [iter]ations: 333
 (Square brackets indicate name in SCF output, whereas a 'c' in
 the SCF output indicates the quantity has converged.)

Symmetries present (total): 1

  ( 1  0  0)
  ( 0  1  0)
  ( 0  0  1)

16 k-points: 4 x 4 x 1 Monkhorst-Pack grid
8 k-points in the irreducible part of the Brillouin zone
       k-points in crystal coordinates                weights
   0:     0.12500000   -0.37500000    0.00000000          2/16
   1:     0.12500000   -0.12500000    0.00000000          2/16
   2:     0.12500000    0.12500000    0.00000000          2/16
   3:     0.12500000    0.37500000    0.00000000          2/16
   4:     0.37500000   -0.37500000    0.00000000          2/16
   5:     0.37500000   -0.12500000    0.00000000          2/16
   6:     0.37500000    0.12500000    0.00000000          2/16
   7:     0.37500000    0.37500000    0.00000000          2/16

Wave functions: Uniform real-space grid
  Kinetic energy operator: 6*3+1=19 point O(h^6) finite-difference Laplacian
  ScaLapack parameters: grid=1x1, blocksize=None
  Wavefunction extrapolation:
    Improved wavefunction reuse through dual PAW basis 

Occupation numbers: Fermi-Dirac:
  width: 0.0500  # eV
 

Eigensolver
   Davidson(niter=2) 

Densities:
  Coarse grid: 60*60*176 grid
  Fine grid: 120*120*352 grid
  Total Charge: 0.000000 

Density mixing:
  Method: separate
  Backend: pulay
  Linear mixing parameter: 0.05
  old densities: 5
  Damping of long wavelength oscillations: 50 

Hamiltonian:
  XC and Coulomb potentials evaluated on a 120*120*352 grid
  Using the BEEF-vdW Exchange-Correlation functional
  Interpolation: tri-quintic (5. degree polynomial)
  Poisson solver: FastPoissonSolver using
    Stencil: 6*3+1=19 point O(h^6) finite-difference Laplacian
    FFT axes: [0, 1]
    FST axes: [2]

Dipole correction along z-axis 

XC parameters: BEEF-vdW with 2 nearest neighbor stencil

Memory estimate:
  Process memory now: 128.23 MiB
  Calculator: 93.74 MiB
    Density: 23.40 MiB
      Arrays: 7.76 MiB
      Localized functions: 12.69 MiB
      Mixer: 2.95 MiB
    Hamiltonian: 6.08 MiB
      Arrays: 5.07 MiB
      XC: 0.00 MiB
      Poisson: 0.00 MiB
      vbar: 1.00 MiB
    Wavefunctions: 64.26 MiB
      Arrays psit_nG: 30.12 MiB
      Eigensolver: 33.47 MiB
      Projections: 0.02 MiB
      Projectors: 0.67 MiB

Total number of cores used: 128
Parallelization over k-points: 8
Domain decomposition: 2 x 2 x 4

Number of atoms: 51
Number of atomic orbitals: 180
Number of bands in calculation: 51
Number of valence electrons: 78
Bands to converge: occupied

... initialized

Initializing position-dependent things.

Density initialized from atomic densities
Creating initial wave functions:
  51 bands from LCAO basis set

       .-----------------------.  
      /|                       |  
     / |                       |  
    /  |                       |  
   /   |                       |  
  /    |                       |  
 *     |                       |  
 |     |                       |  
 |     |                       |  
 |     |                       |  
 |     |                       |  
 |     |                       |  
 |     |H                 H    |  
 |     |                       C  
 |     |H                   CO |  
 |    H|                  H    |  
 |     |                       |  
 |O    |              H  H     |  
 |   Li|     Li      LiC       |  
 |N    |  Li      Li  HN  Li   |  
 | Li  |   Li      Li          |  
 |     |Li      Li      Li     |  
 Li    | Li      Li            |  
 |   LLi     LLi     LLi       |  
 |     |  Li      Li      Li   |  
 | Li  |   Li      Li          |  
 |     |Li      Li      Li     |  
 Li    | Li      Li            |  
 |    Li      Li      Li       |  
 |     |                       |  
 |     |                       |  
 |     |                       |  
 |     |                       |  
 |     |                       |  
 |     |                       |  
 |     .-----------------------.  
 |    /                       /   
 |   /                       /    
 |  /                       /     
 | /                       /      
 |/                       /       
 *-----------------------*        

Positions:
   0 Li     1.617037    1.617037   10.000000    ( 0.0000,  0.0000,  0.0000)
   1 Li     4.851111    1.617037   10.000000    ( 0.0000,  0.0000,  0.0000)
   2 Li     8.085185    1.617037   10.000000    ( 0.0000,  0.0000,  0.0000)
   3 Li     1.617037    4.851111   10.000000    ( 0.0000,  0.0000,  0.0000)
   4 Li     4.851111    4.851111   10.000000    ( 0.0000,  0.0000,  0.0000)
   5 Li     8.085185    4.851111   10.000000    ( 0.0000,  0.0000,  0.0000)
   6 Li     1.617037    8.085185   10.000000    ( 0.0000,  0.0000,  0.0000)
   7 Li     4.851111    8.085185   10.000000    ( 0.0000,  0.0000,  0.0000)
   8 Li     8.085185    8.085185   10.000000    ( 0.0000,  0.0000,  0.0000)
   9 Li     0.000000    0.000000   11.617037    ( 0.0000,  0.0000,  0.0000)
  10 Li     3.234074    0.000000   11.617037    ( 0.0000,  0.0000,  0.0000)
  11 Li     6.468148    0.000000   11.617037    ( 0.0000,  0.0000,  0.0000)
  12 Li     0.000000    3.234074   11.617037    ( 0.0000,  0.0000,  0.0000)
  13 Li     3.234074    3.234074   11.617037    ( 0.0000,  0.0000,  0.0000)
  14 Li     6.468148    3.234074   11.617037    ( 0.0000,  0.0000,  0.0000)
  15 Li     0.000000    6.468148   11.617037    ( 0.0000,  0.0000,  0.0000)
  16 Li     3.234074    6.468148   11.617037    ( 0.0000,  0.0000,  0.0000)
  17 Li     6.468148    6.468148   11.617037    ( 0.0000,  0.0000,  0.0000)
  18 Li     1.617038    1.617038   13.469728    ( 0.0000,  0.0000,  0.0000)
  19 Li     4.851111    1.617038   13.469729    ( 0.0000,  0.0000,  0.0000)
  20 Li     8.085184    1.617038   13.469728    ( 0.0000,  0.0000,  0.0000)
  21 Li     1.617038    4.851111   13.469729    ( 0.0000,  0.0000,  0.0000)
  22 Li     4.851111    4.851111   13.469730    ( 0.0000,  0.0000,  0.0000)
  23 Li     8.085184    4.851111   13.469729    ( 0.0000,  0.0000,  0.0000)
  24 Li     1.617038    8.085184   13.469728    ( 0.0000,  0.0000,  0.0000)
  25 Li     4.851111    8.085184   13.469729    ( 0.0000,  0.0000,  0.0000)
  26 Li     8.085184    8.085184   13.469728    ( 0.0000,  0.0000,  0.0000)
  27 Li    -0.000000   -0.000000   15.445939    ( 0.0000,  0.0000,  0.0000)
  28 Li     3.234074    0.000000   15.445939    ( 0.0000,  0.0000,  0.0000)
  29 Li     6.468148    0.000000   15.445939    ( 0.0000,  0.0000,  0.0000)
  30 Li     0.000000    3.234074   15.445939    ( 0.0000,  0.0000,  0.0000)
  31 Li     3.234076    3.234076   15.445938    ( 0.0000,  0.0000,  0.0000)
  32 Li     6.468146    3.234076   15.445938    ( 0.0000,  0.0000,  0.0000)
  33 Li     0.000000    6.468148   15.445939    ( 0.0000,  0.0000,  0.0000)
  34 Li     3.234076    6.468146   15.445938    ( 0.0000,  0.0000,  0.0000)
  35 Li     6.468146    6.468146   15.445938    ( 0.0000,  0.0000,  0.0000)
  36 O      0.000000    1.617037   18.445939    ( 0.0000,  0.0000,  0.0000)
  37 O     -0.020329   -3.245305   18.439829    ( 0.0000,  0.0000,  0.0000)
  38 C     -0.001545   -0.778878   18.460386    ( 0.0000,  0.0000,  0.0000)
  39 C     -0.867819    0.472167   18.448818    ( 0.0000,  0.0000,  0.0000)
  40 C     -0.831812   -2.061494   18.436457    ( 0.0000,  0.0000,  0.0000)
  41 H      0.658962   -0.756795   17.585726    ( 0.0000,  0.0000,  0.0000)
  42 H      0.635566   -0.778737   19.348391    ( 0.0000,  0.0000,  0.0000)
  43 H     -1.508078    0.477097   17.555271    ( 0.0000,  0.0000,  0.0000)
  44 H     -1.516497    0.485709   19.335503    ( 0.0000,  0.0000,  0.0000)
  45 H     -1.507378   -2.062195   17.569134    ( 0.0000,  0.0000,  0.0000)
  46 H     -1.447903   -2.138343   19.336560    ( 0.0000,  0.0000,  0.0000)
  47 H     -0.544357    2.412562   18.441073    ( 0.0000,  0.0000,  0.0000)
  48 H      0.554711   -3.212722   17.665312    ( 0.0000,  0.0000,  0.0000)
  49 N      0.000000    1.617000   16.945939    ( 0.0000,  0.0000,  0.0000)
  50 N     -1.096622    1.617000   16.945939    ( 0.0000,  0.0000,  0.0000)

Unit cell:
           periodic     x           y           z      points  spacing
  1. axis:    yes    9.702222    0.000000    0.000000    60     0.1617
  2. axis:    yes    0.000000    9.702222    0.000000    60     0.1617
  3. axis:    no     0.000000    0.000000   28.351111   176     0.1611

  Lengths:   9.702222   9.702222  28.351111
  Angles:   90.000000  90.000000  90.000000

Effective grid spacing dv^(1/3) = 0.1615

     iter     time        total  log10-change:
                         energy  eigst   dens
iter:   1 21:52:50  -672.997778
iter:   2 21:52:57   -61.154379  +2.72  +0.02
iter:   3 21:53:05  -110.345013  +3.14  -0.21
iter:   4 21:53:13  -259.868765  +3.06  -0.33
Writing to output.gpw (mode='')

iter:   5 21:53:21  -298.256566  +2.61  -0.39
iter:   6 21:53:29  -346.735228  +2.35  -0.64
iter:   7 21:53:37  -362.689051  +2.00  -0.63
iter:   8 21:53:45  -361.494606  +1.61  -0.59
iter:   9 21:53:53  -356.080938  +1.32  -0.61
Writing to output.gpw (mode='')

iter:  10 21:54:01  -352.727592  +1.09  -0.73
iter:  11 21:54:08  -371.922011  +1.37  -0.73
iter:  12 21:54:16  -353.996652  +0.76  -0.69
iter:  13 21:54:24  -346.973985  +0.91  -0.80
iter:  14 21:54:32  -346.571535  +0.84  -0.79
Writing to output.gpw (mode='')

iter:  15 21:54:40  -344.649290  +0.76  -0.83
iter:  16 21:54:48  -344.361599  +0.34  -1.03
iter:  17 21:54:55  -343.913657  +0.60  -1.12
iter:  18 21:55:03  -344.382603  +0.36  -1.22
iter:  19 21:55:11  -344.172445  -0.12  -1.18
Writing to output.gpw (mode='')

iter:  20 21:55:19  -343.690746  -0.21  -1.22
iter:  21 21:55:27  -343.674497  -0.27  -1.46
iter:  22 21:55:40  -343.729813  -0.43  -1.55
iter:  23 21:55:49  -343.681528  -0.99  -1.53
iter:  24 21:55:57  -343.600765  -1.26  -1.59
Writing to output.gpw (mode='')

iter:  25 21:56:05  -343.553937  -1.17  -1.68
iter:  26 21:56:13  -343.537513  -0.78  -1.83
iter:  27 21:56:21  -343.540825c -1.47  -2.01
iter:  28 21:56:29  -343.537664c -1.69  -2.04
iter:  29 21:56:37  -343.540633c -1.54  -2.23
Writing to output.gpw (mode='')

iter:  30 21:56:45  -343.539899c -2.09  -2.38
iter:  31 21:56:52  -343.540526c -2.24  -2.41
iter:  32 21:57:00  -343.539876c -2.20  -2.45
iter:  33 21:57:08  -343.541222c -2.43  -2.60
iter:  34 21:57:16  -343.541493c -2.48  -2.68
Writing to output.gpw (mode='')

iter:  35 21:57:24  -343.541628c -2.74  -2.79
iter:  36 21:57:32  -343.541931c -2.79  -2.82
iter:  37 21:57:40  -343.542157c -3.20  -2.98
iter:  38 21:57:48  -343.542199c -3.13  -3.04
iter:  39 21:57:55  -343.542385c -3.16  -3.11
Writing to output.gpw (mode='')

iter:  40 21:58:03  -343.542436c -3.38  -3.17
iter:  41 21:58:11  -343.542449c -3.62  -3.18
iter:  42 21:58:19  -343.542522c -3.52  -3.32
iter:  43 21:58:27  -343.542524c -3.61  -3.40
iter:  44 21:58:35  -343.542564c -3.77  -3.44
Writing to output.gpw (mode='')

iter:  45 21:58:43  -343.542559c -3.87  -3.49
iter:  46 21:58:51  -343.542584c -3.82  -3.55
iter:  47 21:58:59  -343.542636c -4.03  -3.62
iter:  48 21:59:07  -343.542639c -4.35  -3.85
iter:  49 21:59:15  -343.542629c -4.47  -3.98
Writing to output.gpw (mode='')

iter:  50 21:59:23  -343.542644c -4.65  -4.06c
iter:  51 21:59:31  -343.542641c -4.43  -4.09c
iter:  52 21:59:38  -343.542659c -4.65  -4.16c
iter:  53 21:59:46  -343.542660c -4.92  -4.29c
iter:  54 21:59:54  -343.542662c -4.94  -4.37c
Writing to output.gpw (mode='')

iter:  55 22:00:02  -343.542668c -4.81  -4.40c
iter:  56 22:00:10  -343.542669c -5.09  -4.59c
iter:  57 22:00:18  -343.542669c -5.14  -4.61c
iter:  58 22:00:26  -343.542671c -5.32  -4.61c
iter:  59 22:00:34  -343.542672c -5.37  -4.60c
Writing to output.gpw (mode='')

iter:  60 22:00:47  -343.542673c -5.36  -4.59c
iter:  61 22:00:55  -343.542678c -5.51  -4.55c
iter:  62 22:01:03  -343.542677c -5.70  -4.56c
iter:  63 22:01:11  -343.542679c -5.71  -4.59c
iter:  64 22:01:19  -343.542675c -5.78  -4.55c
Writing to output.gpw (mode='')

iter:  65 22:01:27  -343.542671c -5.72  -4.54c
iter:  66 22:01:35  -343.542671c -5.99  -4.55c
iter:  67 22:01:43  -343.542672c -6.10  -4.54c
iter:  68 22:01:51  -343.542676c -6.15  -4.55c
iter:  69 22:01:58  -343.542677c -6.01  -4.55c
Writing to output.gpw (mode='')

iter:  70 22:02:06  -343.542677c -6.20  -4.57c
iter:  71 22:02:14  -343.542681c -6.09  -4.54c
iter:  72 22:02:22  -343.542680c -6.53  -4.52c
iter:  73 22:02:30  -343.542679c -6.59  -4.53c
iter:  74 22:02:38  -343.542679c -6.45  -4.55c
Writing to output.gpw (mode='')

iter:  75 22:02:46  -343.542677c -6.55  -4.54c
iter:  76 22:02:54  -343.542676c -6.77  -4.54c
iter:  77 22:03:02  -343.542677c -6.69  -4.56c
iter:  78 22:03:09  -343.542679c -6.67  -4.56c
iter:  79 22:03:17  -343.542680c -6.92  -4.65c
Writing to output.gpw (mode='')

iter:  80 22:03:25  -343.542678c -6.97  -4.74c
iter:  81 22:03:33  -343.542679c -7.20  -4.79c
iter:  82 22:03:41  -343.542678c -7.16  -4.84c
iter:  83 22:03:51  -343.542679c -7.26  -5.01c
iter:  84 22:03:59  -343.542679c -7.18  -5.12c
Writing to output.gpw (mode='')

iter:  85 22:04:06  -343.542679c -7.27  -5.13c
iter:  86 22:04:14  -343.542678c -7.39  -5.26c
iter:  87 22:04:22  -343.542679c -7.44c -5.29c

Converged after 87 iterations.

Dipole moment: (-9.592048, -7.506187, 0.255213) |e|*Ang

Energy contributions relative to reference atoms: (reference = -17528.314784)

Kinetic:       +223.170869
Potential:     -201.626401
External:        +0.000000
XC:            -366.166837
Entropy (-ST):   -0.158481
Local:           +1.158932
--------------------------
Free energy:   -343.621920
Extrapolated:  -343.542679

Dipole-layer corrected work functions: 3.385490, 2.894884 eV

Showing only first 2 kpts
 Kpt  Band  Eigenvalues  Occupancy
  0    37     -3.39147    1.98695
  0    38     -3.23863    1.75498
  0    39     -3.01794    0.15962
  0    40     -2.92336    0.02582

  1    37     -3.23626    1.74458
  1    38     -3.16937    1.28384
  1    39     -3.09163    0.54930
  1    40     -3.01058    0.13928


Fermi level: -3.14019

Gap: 0.025 eV
Transition (v -> c):
  (s=0, k=2, n=38, [0.12, 0.12, 0.00]) -> (s=0, k=7, n=39, [0.38, 0.38, 0.00])
Writing to output.gpw (mode='')


Forces in eV/Ang:
  0 Li    0.02275    0.00022   -0.28219
  1 Li   -0.00816   -0.00453   -0.27271
  2 Li   -0.01464    0.00110   -0.28365
  3 Li   -0.00865    0.01613   -0.27637
  4 Li   -0.00056   -0.00504   -0.27374
  5 Li    0.01069    0.02309   -0.27406
  6 Li   -0.00689   -0.01874   -0.27419
  7 Li    0.00012    0.00626   -0.27410
  8 Li    0.00462   -0.02154   -0.27439
  9 Li   -0.00148    0.00818    0.32252
 10 Li    0.01152   -0.00561    0.25325
 11 Li   -0.00477    0.01504    0.28146
 12 Li   -0.00063   -0.00707    0.32505
 13 Li    0.00621    0.00408    0.26266
 14 Li   -0.00910   -0.01364    0.28164
 15 Li   -0.01069   -0.00487    0.22427
 16 Li   -0.00318    0.00721    0.25711
 17 Li    0.01443   -0.00243    0.25589
 18 Li    0.05284   -0.00557   -0.12890
 19 Li   -0.01397    0.00320    0.06303
 20 Li   -0.01577   -0.00265   -0.13518
 21 Li   -0.02181   -0.01780    0.07781
 22 Li    0.01784   -0.00321    0.03241
 23 Li    0.00633   -0.02443    0.04470
 24 Li   -0.03239    0.02922    0.08582
 25 Li    0.01606    0.00162    0.04643
 26 Li    0.01387    0.02151    0.05886
 27 Li    0.04010    0.05733   -0.17833
 28 Li    0.08989   -0.04450   -0.05528
 29 Li   -0.12097   -0.04700   -0.13211
 30 Li    0.04572    0.00598    0.05047
 31 Li    0.06734    0.04506   -0.02976
 32 Li   -0.00876    0.02621    0.02866
 33 Li   -0.07175   -0.08030   -0.34408
 34 Li   -0.03635   -0.00284   -0.00802
 35 Li   -0.00248   -0.00823   -0.05462
 36 O     4.04181   -0.58320   11.15715
 37 O    -0.36752    0.15760    0.32827
 38 C     0.19109    0.11946    0.25070
 39 C    -0.70287   -4.40685    5.68109
 40 C    -0.12004   -0.11364    0.25383
 41 H     0.17892   -0.14077   -0.00598
 42 H     0.16424   -0.02459   -0.08310
 43 H    -0.73771   -1.53253    1.56313
 44 H     0.15183    0.20413   -0.04258
 45 H    -0.02270    0.04005   -0.02662
 46 H    -0.02242    0.02790   -0.02115
 47 H    -0.44695    0.62035    1.33225
 48 H     0.45908   -0.06255   -0.21497
 49 N    10.33401    1.16644   -7.85947
 50 N   -13.23228    4.56277  -11.68831

System changes: positions 

Initializing position-dependent things.

Density initialized from wave functions
       .-----------------------.  
      /|                       |  
     / |                       |  
    /  |                       |  
   /   |                       |  
  /    |                       |  
 *     |                       |  
 |     |                       |  
 |     |                       |  
 |     |                       |  
 |     |                       |  
 |     |                       |  
 |     |H                 H    |  
 |     |                       C  
 |     |H                   CO |  
 |    H|                  H    |  
 |     |       Li      Li      |  
 |O    |              H  H     |  
 |     |     Li      LiC     Li|  
 |N    |  Li      Li  HN  Li   |  
 | Li  |   Li      Li          |  
 |     |Li      Li      Li     |  
 Li    |                       |  
 |   LLi     LLi     LLi       |  
 |     |  Li      Li      Li   |  
 | Li  |   Li      Li          |  
 |     |Li      Li      Li     |  
 Li    | Li      Li            |  
 |    Li      Li      Li       |  
 |     |                       |  
 |     |                       |  
 |     |                       |  
 |     |                       |  
 |     |                       |  
 |     |                       |  
 |     .-----------------------.  
 |    /                       /   
 |   /                       /    
 |  /                       /     
 | /                       /      
 |/                       /       
 *-----------------------*        

Positions:
   0 Li     1.617037    1.617037   10.000000    ( 0.0000,  0.0000,  0.0000)
   1 Li     4.851111    1.617037   10.000000    ( 0.0000,  0.0000,  0.0000)
   2 Li     8.085185    1.617037   10.000000    ( 0.0000,  0.0000,  0.0000)
   3 Li     1.617037    4.851111   10.000000    ( 0.0000,  0.0000,  0.0000)
   4 Li     4.851111    4.851111   10.000000    ( 0.0000,  0.0000,  0.0000)
   5 Li     8.085185    4.851111   10.000000    ( 0.0000,  0.0000,  0.0000)
   6 Li     1.617037    8.085185   10.000000    ( 0.0000,  0.0000,  0.0000)
   7 Li     4.851111    8.085185   10.000000    ( 0.0000,  0.0000,  0.0000)
   8 Li     8.085185    8.085185   10.000000    ( 0.0000,  0.0000,  0.0000)
   9 Li     0.000000    0.000000   11.617037    ( 0.0000,  0.0000,  0.0000)
  10 Li     3.234074    0.000000   11.617037    ( 0.0000,  0.0000,  0.0000)
  11 Li     6.468148    0.000000   11.617037    ( 0.0000,  0.0000,  0.0000)
  12 Li     0.000000    3.234074   11.617037    ( 0.0000,  0.0000,  0.0000)
  13 Li     3.234074    3.234074   11.617037    ( 0.0000,  0.0000,  0.0000)
  14 Li     6.468148    3.234074   11.617037    ( 0.0000,  0.0000,  0.0000)
  15 Li     0.000000    6.468148   11.617037    ( 0.0000,  0.0000,  0.0000)
  16 Li     3.234074    6.468148   11.617037    ( 0.0000,  0.0000,  0.0000)
  17 Li     6.468148    6.468148   11.617037    ( 0.0000,  0.0000,  0.0000)
  18 Li     1.617154    1.617026   13.469445    ( 0.0000,  0.0000,  0.0000)
  19 Li     4.851080    1.617045   13.469868    ( 0.0000,  0.0000,  0.0000)
  20 Li     8.085149    1.617032   13.469431    ( 0.0000,  0.0000,  0.0000)
  21 Li     1.616991    4.851072   13.469900    ( 0.0000,  0.0000,  0.0000)
  22 Li     4.851150    4.851104   13.469801    ( 0.0000,  0.0000,  0.0000)
  23 Li     8.085197    4.851057   13.469827    ( 0.0000,  0.0000,  0.0000)
  24 Li     1.616967    8.085248   13.469916    ( 0.0000,  0.0000,  0.0000)
  25 Li     4.851146    8.085187   13.469831    ( 0.0000,  0.0000,  0.0000)
  26 Li     8.085214    8.085231   13.469857    ( 0.0000,  0.0000,  0.0000)
  27 Li     0.000088    0.000126   15.445548    ( 0.0000,  0.0000,  0.0000)
  28 Li     3.234271   -0.000098   15.445818    ( 0.0000,  0.0000,  0.0000)
  29 Li     6.467883   -0.000103   15.445649    ( 0.0000,  0.0000,  0.0000)
  30 Li     0.000100    3.234087   15.446050    ( 0.0000,  0.0000,  0.0000)
  31 Li     3.234224    3.234175   15.445873    ( 0.0000,  0.0000,  0.0000)
  32 Li     6.468126    3.234134   15.446001    ( 0.0000,  0.0000,  0.0000)
  33 Li    -0.000157    6.467972   15.445184    ( 0.0000,  0.0000,  0.0000)
  34 Li     3.233997    6.468139   15.445920    ( 0.0000,  0.0000,  0.0000)
  35 Li     6.468140    6.468127   15.445818    ( 0.0000,  0.0000,  0.0000)
  36 O      0.008866    1.615758   18.470413    ( 0.0000,  0.0000,  0.0000)
  37 O     -0.021135   -3.244959   18.440549    ( 0.0000,  0.0000,  0.0000)
  38 C     -0.001125   -0.778616   18.460936    ( 0.0000,  0.0000,  0.0000)
  39 C     -0.869361    0.462500   18.461280    ( 0.0000,  0.0000,  0.0000)
  40 C     -0.832075   -2.061744   18.437014    ( 0.0000,  0.0000,  0.0000)
  41 H      0.659354   -0.757104   17.585713    ( 0.0000,  0.0000,  0.0000)
  42 H      0.635927   -0.778791   19.348209    ( 0.0000,  0.0000,  0.0000)
  43 H     -1.509696    0.473735   17.558700    ( 0.0000,  0.0000,  0.0000)
  44 H     -1.516164    0.486157   19.335410    ( 0.0000,  0.0000,  0.0000)
  45 H     -1.507427   -2.062108   17.569076    ( 0.0000,  0.0000,  0.0000)
  46 H     -1.447952   -2.138282   19.336514    ( 0.0000,  0.0000,  0.0000)
  47 H     -0.545338    2.413923   18.443995    ( 0.0000,  0.0000,  0.0000)
  48 H      0.555718   -3.212860   17.664841    ( 0.0000,  0.0000,  0.0000)
  49 N      0.022668    1.619559   16.928699    ( 0.0000,  0.0000,  0.0000)
  50 N     -1.125647    1.627009   16.920301    ( 0.0000,  0.0000,  0.0000)

Unit cell:
           periodic     x           y           z      points  spacing
  1. axis:    yes    9.702222    0.000000    0.000000    60     0.1617
  2. axis:    yes    0.000000    9.702222    0.000000    60     0.1617
  3. axis:    no     0.000000    0.000000   28.351111   176     0.1611

  Lengths:   9.702222   9.702222  28.351111
  Angles:   90.000000  90.000000  90.000000

Effective grid spacing dv^(1/3) = 0.1615

     iter     time        total  log10-change:
                         energy  eigst   dens
iter:   1 22:04:32  -346.210634  -0.31
iter:   2 22:04:40  -345.251029  -0.48  -1.36
iter:   3 22:04:48  -345.112322  -0.90  -1.36
iter:   4 22:04:56  -345.071641  -0.62  -1.52
Writing to output.gpw (mode='')

iter:   5 22:05:04  -344.872607  -1.06  -1.72
iter:   6 22:05:12  -345.116952  -0.74  -1.98
iter:   7 22:05:20  -344.892395  -1.39  -1.56
iter:   8 22:05:28  -344.847268  -1.73  -1.99
iter:   9 22:05:42  -344.849553  -1.84  -2.25
Writing to output.gpw (mode='')

iter:  10 22:05:51  -344.843812c -2.08  -2.21
iter:  11 22:05:59  -344.842982c -2.15  -2.23
iter:  12 22:06:07  -344.838619c -2.89  -2.50
iter:  13 22:06:15  -344.838110c -2.98  -2.70
iter:  14 22:06:23  -344.838428c -3.16  -2.70
Writing to output.gpw (mode='')

iter:  15 22:06:31  -344.838324c -3.70  -2.97
iter:  16 22:06:39  -344.838912c -3.40  -3.06
iter:  17 22:06:47  -344.838604c -3.65  -3.03
iter:  18 22:06:55  -344.838715c -4.11  -3.10
iter:  19 22:07:03  -344.838459c -4.01  -3.13
Writing to output.gpw (mode='')

iter:  20 22:07:11  -344.838548c -4.09  -3.34
iter:  21 22:07:19  -344.838612c -4.15  -3.51
iter:  22 22:07:27  -344.838556c -4.46  -3.65
iter:  23 22:07:35  -344.838555c -4.73  -3.81
iter:  24 22:07:43  -344.838537c -4.96  -3.87
Writing to output.gpw (mode='')

iter:  25 22:07:51  -344.838549c -5.06  -3.94
iter:  26 22:07:59  -344.838551c -5.26  -3.95
iter:  27 22:08:07  -344.838552c -5.24  -3.97
iter:  28 22:08:15  -344.838540c -5.64  -4.23c
iter:  29 22:08:23  -344.838548c -5.47  -4.31c
Writing to output.gpw (mode='')

iter:  30 22:08:31  -344.838552c -5.74  -4.35c
iter:  31 22:08:39  -344.838549c -5.63  -4.44c
iter:  32 22:08:47  -344.838548c -5.80  -4.53c
iter:  33 22:08:55  -344.838547c -6.10  -4.56c
iter:  34 22:09:03  -344.838547c -6.15  -4.57c
Writing to output.gpw (mode='')

iter:  35 22:09:11  -344.838548c -6.18  -4.54c
iter:  36 22:09:19  -344.838554c -6.13  -4.63c
iter:  37 22:09:27  -344.838548c -6.57  -4.76c
iter:  38 22:09:35  -344.838550c -6.56  -4.76c
iter:  39 22:09:43  -344.838548c -6.47  -5.00c
Writing to output.gpw (mode='')

iter:  40 22:09:51  -344.838550c -6.47  -5.08c
iter:  41 22:09:59  -344.838550c -6.98  -5.05c
iter:  42 22:10:07  -344.838550c -6.99  -5.15c
iter:  43 22:10:15  -344.838550c -7.00  -5.22c
iter:  44 22:10:23  -344.838549c -7.26  -5.38c
Writing to output.gpw (mode='')

iter:  45 22:10:31  -344.838550c -7.35  -5.42c
iter:  46 22:10:46  -344.838549c -7.53c -5.46c

Converged after 46 iterations.

Dipole moment: (-12.549955, -7.512615, 0.207512) |e|*Ang

Energy contributions relative to reference atoms: (reference = -17528.314784)

Kinetic:       +211.536500
Potential:     -193.183656
External:        +0.000000
XC:            -364.270365
Entropy (-ST):   -0.163994
Local:           +1.160969
--------------------------
Free energy:   -344.920546
Extrapolated:  -344.838549

Dipole-layer corrected work functions: 3.389523, 2.990614 eV

Showing only first 2 kpts
 Kpt  Band  Eigenvalues  Occupancy
  0    37     -3.43944    1.98644
  0    38     -3.27668    1.69939
  0    39     -3.09203    0.24676
  0    40     -2.97029    0.02436

  1    37     -3.30071    1.80280
  1    38     -3.21138    1.20998
  1    39     -3.13211    0.47763
  1    40     -3.04894    0.11223


Fermi level: -3.19007

Gap: 0.020 eV
Transition (v -> c):
  (s=0, k=2, n=38, [0.12, 0.12, 0.00]) -> (s=0, k=7, n=39, [0.38, 0.38, 0.00])
Writing to output.gpw (mode='')


Forces in eV/Ang:
  0 Li    0.02143    0.00046   -0.28310
  1 Li   -0.00793   -0.00425   -0.27264
  2 Li   -0.01360    0.00131   -0.28398
  3 Li   -0.00752    0.01743   -0.27810
  4 Li   -0.00139   -0.00362   -0.27402
  5 Li    0.01034    0.02302   -0.27512
  6 Li   -0.00601   -0.02032   -0.27528
  7 Li   -0.00065    0.00423   -0.27429
  8 Li    0.00439   -0.02162   -0.27551
  9 Li   -0.00207    0.00741    0.32508
 10 Li    0.01084   -0.00511    0.25428
 11 Li   -0.00290    0.01619    0.28541
 12 Li   -0.00053   -0.00648    0.32731
 13 Li    0.00461    0.00372    0.26343
 14 Li   -0.00769   -0.01480    0.28456
 15 Li   -0.01074   -0.00511    0.22467
 16 Li   -0.00226    0.00773    0.25463
 17 Li    0.01354   -0.00233    0.25490
 18 Li    0.05480   -0.00656   -0.13619
 19 Li   -0.01701    0.00362    0.05921
 20 Li   -0.01172   -0.00188   -0.12125
 21 Li   -0.02106   -0.01463    0.07250
 22 Li    0.01923   -0.00628    0.03504
 23 Li    0.00557   -0.01936    0.03515
 24 Li   -0.03220    0.02741    0.08073
 25 Li    0.01593    0.00366    0.04830
 26 Li    0.01312    0.01583    0.04923
 27 Li    0.00079    0.12016   -0.07276
 28 Li    0.08397   -0.04645   -0.05115
 29 Li   -0.09059   -0.02691   -0.10112
 30 Li    0.02042   -0.05095    0.15063
 31 Li    0.06348    0.04661   -0.02534
 32 Li    0.02253    0.00571    0.05860
 33 Li   -0.06953   -0.07713   -0.34120
 34 Li   -0.03285   -0.00278   -0.01021
 35 Li   -0.00803   -0.00845   -0.05677
 36 O     2.82203   -0.63055    9.01968
 37 O    -0.29956    0.10703    0.22709
 38 C     0.17672   -0.02538    0.31424
 39 C    -0.34452   -3.58877    4.81449
 40 C    -0.07439   -0.08081    0.23625
 41 H     0.13456   -0.10401    0.01353
 42 H     0.19351   -0.06233   -0.06175
 43 H    -0.50251   -1.21464    1.52479
 44 H    -0.02727    0.13625    0.24951
 45 H    -0.02486    0.03875   -0.02135
 46 H    -0.03362    0.02315   -0.00879
 47 H    -0.25286    0.24262    1.17040
 48 H     0.39712   -0.05609   -0.12212
 49 N     4.57032    1.20303   -6.85283
 50 N    -6.71578    4.06790  -10.09570

System changes: positions 

Initializing position-dependent things.

Density initialized from wave functions
       .-----------------------.  
      /|                       |  
     / |                       |  
    /  |                       |  
   /   |                       |  
  /    |                       |  
 *     |                       |  
 |     |                       |  
 |     |                       |  
 |     |                       |  
 |     |                       |  
 |     |                       |  
 |     |H                 H    |  
 |     |                       C  
 |     |H                   CO |  
 |    H|                  H    |  
 |     |       Li      Li      |  
 |O    |              H  H     |  
 |     |     Li      LiC     Li|  
 |N    |  Li      Li  HN  Li   |  
 | Li  |   Li      Li          |  
 |     |Li      Li      Li     |  
 |     |                 Li    |  
 |   LLi     LLi     LLi       |  
 |     |  Li      Li      Li   |  
 | Li  |   Li      Li          |  
 |     |Li      Li      Li     |  
 Li    | Li      Li            |  
 |    Li      Li      Li       |  
 |     |                       |  
 |     |                       |  
 |     |                       |  
 |     |                       |  
 |     |                       |  
 |     |                       |  
 |     .-----------------------.  
 |    /                       /   
 |   /                       /    
 |  /                       /     
 | /                       /      
 |/                       /       
 *-----------------------*        

Positions:
   0 Li     1.617037    1.617037   10.000000    ( 0.0000,  0.0000,  0.0000)
   1 Li     4.851111    1.617037   10.000000    ( 0.0000,  0.0000,  0.0000)
   2 Li     8.085185    1.617037   10.000000    ( 0.0000,  0.0000,  0.0000)
   3 Li     1.617037    4.851111   10.000000    ( 0.0000,  0.0000,  0.0000)
   4 Li     4.851111    4.851111   10.000000    ( 0.0000,  0.0000,  0.0000)
   5 Li     8.085185    4.851111   10.000000    ( 0.0000,  0.0000,  0.0000)
   6 Li     1.617037    8.085185   10.000000    ( 0.0000,  0.0000,  0.0000)
   7 Li     4.851111    8.085185   10.000000    ( 0.0000,  0.0000,  0.0000)
   8 Li     8.085185    8.085185   10.000000    ( 0.0000,  0.0000,  0.0000)
   9 Li     0.000000    0.000000   11.617037    ( 0.0000,  0.0000,  0.0000)
  10 Li     3.234074    0.000000   11.617037    ( 0.0000,  0.0000,  0.0000)
  11 Li     6.468148    0.000000   11.617037    ( 0.0000,  0.0000,  0.0000)
  12 Li     0.000000    3.234074   11.617037    ( 0.0000,  0.0000,  0.0000)
  13 Li     3.234074    3.234074   11.617037    ( 0.0000,  0.0000,  0.0000)
  14 Li     6.468148    3.234074   11.617037    ( 0.0000,  0.0000,  0.0000)
  15 Li     0.000000    6.468148   11.617037    ( 0.0000,  0.0000,  0.0000)
  16 Li     3.234074    6.468148   11.617037    ( 0.0000,  0.0000,  0.0000)
  17 Li     6.468148    6.468148   11.617037    ( 0.0000,  0.0000,  0.0000)
  18 Li     1.617396    1.616994   13.468834    ( 0.0000,  0.0000,  0.0000)
  19 Li     4.850996    1.617063   13.470106    ( 0.0000,  0.0000,  0.0000)
  20 Li     8.085115    1.617027   13.468969    ( 0.0000,  0.0000,  0.0000)
  21 Li     1.616904    4.851022   13.470189    ( 0.0000,  0.0000,  0.0000)
  22 Li     4.851238    4.851065   13.469962    ( 0.0000,  0.0000,  0.0000)
  23 Li     8.085218    4.850995   13.469940    ( 0.0000,  0.0000,  0.0000)
  24 Li     1.616830    8.085358   13.470241    ( 0.0000,  0.0000,  0.0000)
  25 Li     4.851214    8.085211   13.470045    ( 0.0000,  0.0000,  0.0000)
  26 Li     8.085267    8.085276   13.470029    ( 0.0000,  0.0000,  0.0000)
  27 Li    -0.000065    0.000890   15.445658    ( 0.0000,  0.0000,  0.0000)
  28 Li     3.234606   -0.000304   15.445615    ( 0.0000,  0.0000,  0.0000)
  29 Li     6.467617   -0.000138   15.445340    ( 0.0000,  0.0000,  0.0000)
  30 Li     0.000087    3.233642   15.447092    ( 0.0000,  0.0000,  0.0000)
  31 Li     3.234480    3.234381   15.445782    ( 0.0000,  0.0000,  0.0000)
  32 Li     6.468347    3.234077   15.446371    ( 0.0000,  0.0000,  0.0000)
  33 Li    -0.000446    6.467655   15.443737    ( 0.0000,  0.0000,  0.0000)
  34 Li     3.233870    6.468128   15.445868    ( 0.0000,  0.0000,  0.0000)
  35 Li     6.468084    6.468091   15.445567    ( 0.0000,  0.0000,  0.0000)
  36 O      0.016069    1.612874   18.500451    ( 0.0000,  0.0000,  0.0000)
  37 O     -0.022145   -3.244703   18.441117    ( 0.0000,  0.0000,  0.0000)
  38 C     -0.000427   -0.779301   18.462533    ( 0.0000,  0.0000,  0.0000)
  39 C     -0.869406    0.450420   18.478406    ( 0.0000,  0.0000,  0.0000)
  40 C     -0.832211   -2.061958   18.437954    ( 0.0000,  0.0000,  0.0000)
  41 H      0.659753   -0.757402   17.585848    ( 0.0000,  0.0000,  0.0000)
  42 H      0.636870   -0.779207   19.348030    ( 0.0000,  0.0000,  0.0000)
  43 H     -1.510907    0.469810   17.565064    ( 0.0000,  0.0000,  0.0000)
  44 H     -1.516994    0.486469   19.337640    ( 0.0000,  0.0000,  0.0000)
  45 H     -1.507542   -2.061947   17.569006    ( 0.0000,  0.0000,  0.0000)
  46 H     -1.448140   -2.138202   19.336525    ( 0.0000,  0.0000,  0.0000)
  47 H     -0.545645    2.413455   18.448353    ( 0.0000,  0.0000,  0.0000)
  48 H      0.557168   -3.213074   17.664689    ( 0.0000,  0.0000,  0.0000)
  49 N      0.019242    1.624847   16.903418    ( 0.0000,  0.0000,  0.0000)
  50 N     -1.128393    1.642425   16.883493    ( 0.0000,  0.0000,  0.0000)

Unit cell:
           periodic     x           y           z      points  spacing
  1. axis:    yes    9.702222    0.000000    0.000000    60     0.1617
  2. axis:    yes    0.000000    9.702222    0.000000    60     0.1617
  3. axis:    no     0.000000    0.000000   28.351111   176     0.1611

  Lengths:   9.702222   9.702222  28.351111
  Angles:   90.000000  90.000000  90.000000

Effective grid spacing dv^(1/3) = 0.1615

     iter     time        total  log10-change:
                         energy  eigst   dens
iter:   1 22:10:56  -345.864221  -0.81
iter:   2 22:11:03  -345.862345  -1.27  -1.98
iter:   3 22:11:11  -345.856367c -1.67  -2.03
iter:   4 22:11:19  -345.879806c -1.39  -2.26
Writing to output.gpw (mode='')

iter:   5 22:11:27  -345.829668  -1.54  -2.17
iter:   6 22:11:35  -345.830962  -2.21  -2.40
iter:   7 22:11:43  -345.836939c -1.56  -2.40
iter:   8 22:11:51  -345.833046c -2.29  -2.30
iter:   9 22:11:59  -345.830818c -2.08  -2.36
Writing to output.gpw (mode='')

iter:  10 22:12:07  -345.829238c -2.97  -2.60
iter:  11 22:12:14  -345.829747c -2.92  -2.84
iter:  12 22:12:22  -345.828996c -2.73  -2.77
iter:  13 22:12:30  -345.829064c -3.23  -3.12
iter:  14 22:12:38  -345.828895c -3.01  -3.12
Writing to output.gpw (mode='')

iter:  15 22:12:46  -345.828695c -3.28  -3.06
iter:  16 22:12:54  -345.828832c -3.49  -3.37
iter:  17 22:13:02  -345.828701c -3.87  -3.44
iter:  18 22:13:10  -345.828779c -4.63  -3.54
iter:  19 22:13:17  -345.828758c -4.40  -3.70
Writing to output.gpw (mode='')

iter:  20 22:13:25  -345.828762c -4.87  -3.75
iter:  21 22:13:33  -345.828727c -4.71  -3.88
iter:  22 22:13:41  -345.828770c -4.90  -3.94
iter:  23 22:13:49  -345.828767c -5.56  -4.09c
iter:  24 22:13:57  -345.828764c -5.27  -4.13c
Writing to output.gpw (mode='')

iter:  25 22:14:05  -345.828765c -5.65  -4.23c
iter:  26 22:14:12  -345.828775c -5.46  -4.26c
iter:  27 22:14:20  -345.828770c -5.97  -4.29c
iter:  28 22:14:28  -345.828766c -5.73  -4.34c
iter:  29 22:14:36  -345.828772c -5.81  -4.41c
Writing to output.gpw (mode='')

iter:  30 22:14:44  -345.828769c -6.12  -4.45c
iter:  31 22:14:52  -345.828767c -5.90  -4.56c
iter:  32 22:15:00  -345.828767c -6.46  -4.66c
iter:  33 22:15:08  -345.828769c -6.43  -4.81c
iter:  34 22:15:17  -345.828767c -6.63  -4.93c
Writing to output.gpw (mode='')

iter:  35 22:15:31  -345.828766c -6.48  -4.96c
iter:  36 22:15:46  -345.828768c -6.67  -5.00c
iter:  37 22:15:54  -345.828767c -6.95  -5.03c
iter:  38 22:16:02  -345.828767c -6.75  -5.27c
iter:  39 22:16:10  -345.828767c -7.28  -5.35c
Writing to output.gpw (mode='')

iter:  40 22:16:17  -345.828768c -7.13  -5.39c
iter:  41 22:16:25  -345.828768c -7.24  -5.46c
iter:  42 22:16:33  -345.828767c -7.49c -5.46c

Converged after 42 iterations.

Dipole moment: (-12.769053, -7.697392, 0.177303) |e|*Ang

Energy contributions relative to reference atoms: (reference = -17528.314784)

Kinetic:       +207.974258
Potential:     -191.200790
External:        +0.000000
XC:            -363.682040
Entropy (-ST):   -0.164360
Local:           +1.161985
--------------------------
Free energy:   -345.910948
Extrapolated:  -345.828767

Dipole-layer corrected work functions: 3.391840, 3.051003 eV

Showing only first 2 kpts
 Kpt  Band  Eigenvalues  Occupancy
  0    37     -3.46978    1.98617
  0    38     -3.30332    1.67452
  0    39     -3.12522    0.25484
  0    40     -2.99931    0.02326

  1    37     -3.33499    1.81296
  1    38     -3.24026    1.18615
  1    39     -3.16217    0.46827
  1    40     -3.07614    0.10375


Fermi level: -3.22142

Gap: 0.019 eV
Transition (v -> c):
  (s=0, k=2, n=38, [0.12, 0.12, 0.00]) -> (s=0, k=7, n=39, [0.38, 0.38, 0.00])
Writing to output.gpw (mode='')


Forces in eV/Ang:
  0 Li    0.02137    0.00067   -0.28378
  1 Li   -0.00862   -0.00438   -0.27200
  2 Li   -0.01333    0.00053   -0.28419
  3 Li   -0.00760    0.01775   -0.27885
  4 Li   -0.00103   -0.00319   -0.27369
  5 Li    0.01058    0.02350   -0.27634
  6 Li   -0.00571   -0.01981   -0.27525
  7 Li   -0.00036    0.00399   -0.27480
  8 Li    0.00458   -0.02198   -0.27496
  9 Li   -0.00093    0.00727    0.32434
 10 Li    0.01251   -0.00416    0.25545
 11 Li   -0.00502    0.01515    0.28312
 12 Li   -0.00142   -0.00754    0.33005
 13 Li    0.00551    0.00483    0.26222
 14 Li   -0.00656   -0.01515    0.28522
 15 Li   -0.01125   -0.00377    0.22488
 16 Li   -0.00308    0.00520    0.25366
 17 Li    0.01386    0.00039    0.25529
 18 Li    0.05666   -0.00645   -0.13554
 19 Li   -0.01538    0.00494    0.05974
 20 Li   -0.01451   -0.00615   -0.12748
 21 Li   -0.02246   -0.01543    0.07133
 22 Li    0.01987   -0.00629    0.03741
 23 Li    0.00569   -0.01778    0.03285
 24 Li   -0.03133    0.02668    0.07924
 25 Li    0.01305    0.00136    0.04460
 26 Li    0.01352    0.02124    0.05233
 27 Li   -0.00617    0.10140   -0.07356
 28 Li    0.07984   -0.04630   -0.04910
 29 Li   -0.09242   -0.03409   -0.09614
 30 Li    0.02438   -0.02325    0.13090
 31 Li    0.06194    0.04564   -0.02370
 32 Li    0.01848    0.00617    0.05634
 33 Li   -0.06970   -0.07611   -0.33536
 34 Li   -0.03135   -0.00174   -0.01077
 35 Li   -0.00806   -0.00963   -0.05534
 36 O     1.59518   -0.67809    7.82280
 37 O    -0.22880    0.06225    0.14316
 38 C     0.16288   -0.18182    0.36893
 39 C    -0.15737   -2.61916    3.72031
 40 C    -0.03964   -0.08855    0.19517
 41 H     0.09245   -0.06604    0.02630
 42 H     0.22879   -0.09830   -0.03215
 43 H    -0.26845   -1.00849    1.71491
 44 H    -0.22117    0.03411    0.55794
 45 H    -0.01429    0.04361   -0.00390
 46 H    -0.04448    0.02110    0.01074
 47 H     0.04192   -0.12176    1.13878
 48 H     0.33315   -0.05235   -0.03936
 49 N     3.85413    1.28322   -6.55067
 50 N    -5.35656    3.52892   -8.71496

System changes: positions 

Initializing position-dependent things.

Density initialized from wave functions
       .-----------------------.  
      /|                       |  
     / |                       |  
    /  |                       |  
   /   |                       |  
  /    |                       |  
 *     |                       |  
 |     |                       |  
 |     |                       |  
 |     |                       |  
 |     |                       |  
 |     |                       |  
 |     |H                 H    |  
 |     C                       |  
 |     |H                   CO |  
 |    H|                  H    |  
 |     |       Li      Li      |  
 |O    |              H  H     |  
 |     |     Li      LiC     Li|  
 |N    |  Li      Li  HN  Li   |  
 | Li  |   Li      Li          |  
 |     |Li      Li      Li     |  
 |     |                 Li    |  
 |   LLi     LLi     LLi       |  
 |     |  Li      Li      Li   |  
 | Li  |   Li      Li          |  
 |     |Li      Li      Li     |  
 Li    | Li      Li            |  
 |    Li      Li      Li       |  
 |     |                       |  
 |     |                       |  
 |     |                       |  
 |     |                       |  
 |     |                       |  
 |     |                       |  
 |     .-----------------------.  
 |    /                       /   
 |   /                       /    
 |  /                       /     
 | /                       /      
 |/                       /       
 *-----------------------*        

Positions:
   0 Li     1.617037    1.617037   10.000000    ( 0.0000,  0.0000,  0.0000)
   1 Li     4.851111    1.617037   10.000000    ( 0.0000,  0.0000,  0.0000)
   2 Li     8.085185    1.617037   10.000000    ( 0.0000,  0.0000,  0.0000)
   3 Li     1.617037    4.851111   10.000000    ( 0.0000,  0.0000,  0.0000)
   4 Li     4.851111    4.851111   10.000000    ( 0.0000,  0.0000,  0.0000)
   5 Li     8.085185    4.851111   10.000000    ( 0.0000,  0.0000,  0.0000)
   6 Li     1.617037    8.085185   10.000000    ( 0.0000,  0.0000,  0.0000)
   7 Li     4.851111    8.085185   10.000000    ( 0.0000,  0.0000,  0.0000)
   8 Li     8.085185    8.085185   10.000000    ( 0.0000,  0.0000,  0.0000)
   9 Li     0.000000    0.000000   11.617037    ( 0.0000,  0.0000,  0.0000)
  10 Li     3.234074    0.000000   11.617037    ( 0.0000,  0.0000,  0.0000)
  11 Li     6.468148    0.000000   11.617037    ( 0.0000,  0.0000,  0.0000)
  12 Li     0.000000    3.234074   11.617037    ( 0.0000,  0.0000,  0.0000)
  13 Li     3.234074    3.234074   11.617037    ( 0.0000,  0.0000,  0.0000)
  14 Li     6.468148    3.234074   11.617037    ( 0.0000,  0.0000,  0.0000)
  15 Li     0.000000    6.468148   11.617037    ( 0.0000,  0.0000,  0.0000)
  16 Li     3.234074    6.468148   11.617037    ( 0.0000,  0.0000,  0.0000)
  17 Li     6.468148    6.468148   11.617037    ( 0.0000,  0.0000,  0.0000)
  18 Li     1.617753    1.616953   13.468006    ( 0.0000,  0.0000,  0.0000)
  19 Li     4.850905    1.617103   13.470453    ( 0.0000,  0.0000,  0.0000)
  20 Li     8.085023    1.616963   13.468212    ( 0.0000,  0.0000,  0.0000)
  21 Li     1.616762    4.850935   13.470588    ( 0.0000,  0.0000,  0.0000)
  22 Li     4.851366    4.851017   13.470210    ( 0.0000,  0.0000,  0.0000)
  23 Li     8.085250    4.850917   13.470087    ( 0.0000,  0.0000,  0.0000)
  24 Li     1.616650    8.085506   13.470686    ( 0.0000,  0.0000,  0.0000)
  25 Li     4.851271    8.085210   13.470291    ( 0.0000,  0.0000,  0.0000)
  26 Li     8.085348    8.085422   13.470330    ( 0.0000,  0.0000,  0.0000)
  27 Li    -0.000283    0.001573   15.445569    ( 0.0000,  0.0000,  0.0000)
  28 Li     3.235033   -0.000585   15.445351    ( 0.0000,  0.0000,  0.0000)
  29 Li     6.467155   -0.000324   15.444907    ( 0.0000,  0.0000,  0.0000)
  30 Li     0.000175    3.233507   15.448071    ( 0.0000,  0.0000,  0.0000)
  31 Li     3.234825    3.234651   15.445667    ( 0.0000,  0.0000,  0.0000)
  32 Li     6.468534    3.234048   15.446791    ( 0.0000,  0.0000,  0.0000)
  33 Li    -0.000855    6.467219   15.441789    ( 0.0000,  0.0000,  0.0000)
  34 Li     3.233706    6.468125   15.445792    ( 0.0000,  0.0000,  0.0000)
  35 Li     6.468017    6.468024   15.445240    ( 0.0000,  0.0000,  0.0000)
  36 O      0.012818    1.608337   18.531441    ( 0.0000,  0.0000,  0.0000)
  37 O     -0.022780   -3.244818   18.441038    ( 0.0000,  0.0000,  0.0000)
  38 C      0.000398   -0.781976   18.465331    ( 0.0000,  0.0000,  0.0000)
  39 C     -0.867818    0.444401   18.489946    ( 0.0000,  0.0000,  0.0000)
  40 C     -0.832049   -2.062430   18.438768    ( 0.0000,  0.0000,  0.0000)
  41 H      0.659858   -0.757404   17.586161    ( 0.0000,  0.0000,  0.0000)
  42 H      0.638581   -0.780174   19.348119    ( 0.0000,  0.0000,  0.0000)
  43 H     -1.510065    0.466323   17.576497    ( 0.0000,  0.0000,  0.0000)
  44 H     -1.520283    0.485723   19.344124    ( 0.0000,  0.0000,  0.0000)
  45 H     -1.507560   -2.061657   17.569123    ( 0.0000,  0.0000,  0.0000)
  46 H     -1.448520   -2.138106   19.336769    ( 0.0000,  0.0000,  0.0000)
  47 H     -0.542663    2.408888   18.454372    ( 0.0000,  0.0000,  0.0000)
  48 H      0.558494   -3.213337   17.665350    ( 0.0000,  0.0000,  0.0000)
  49 N      0.017761    1.633184   16.869894    ( 0.0000,  0.0000,  0.0000)
  50 N     -1.128797    1.657991   16.846648    ( 0.0000,  0.0000,  0.0000)

Unit cell:
           periodic     x           y           z      points  spacing
  1. axis:    yes    9.702222    0.000000    0.000000    60     0.1617
  2. axis:    yes    0.000000    9.702222    0.000000    60     0.1617
  3. axis:    no     0.000000    0.000000   28.351111   176     0.1611

  Lengths:   9.702222   9.702222  28.351111
  Angles:   90.000000  90.000000  90.000000

Effective grid spacing dv^(1/3) = 0.1615

     iter     time        total  log10-change:
                         energy  eigst   dens
iter:   1 22:16:43  -346.780031  -0.82
iter:   2 22:16:51  -346.758514  -1.13  -1.81
iter:   3 22:16:59  -346.738508  -1.66  -1.86
iter:   4 22:17:07  -346.750937c -1.71  -2.21
Writing to output.gpw (mode='')

iter:   5 22:17:15  -346.721628c -1.71  -2.13
iter:   6 22:17:23  -346.722066c -2.37  -2.23
iter:   7 22:17:31  -346.720734c -2.55  -2.24
iter:   8 22:17:39  -346.720947c -2.45  -2.31
iter:   9 22:17:47  -346.718610c -2.30  -2.25
Writing to output.gpw (mode='')

iter:  10 22:17:54  -346.717120c -2.75  -2.51
iter:  11 22:18:02  -346.715960c -2.34  -2.62
iter:  12 22:18:10  -346.716685c -3.21  -2.90
iter:  13 22:18:18  -346.716157c -3.52  -2.89
iter:  14 22:18:26  -346.716138c -3.27  -3.04
Writing to output.gpw (mode='')

iter:  15 22:18:34  -346.715996c -3.48  -3.18
iter:  16 22:18:42  -346.716212c -3.99  -3.11
iter:  17 22:18:50  -346.716170c -4.16  -3.39
iter:  18 22:18:58  -346.716117c -4.22  -3.47
iter:  19 22:19:06  -346.716139c -4.56  -3.68
Writing to output.gpw (mode='')

iter:  20 22:19:14  -346.716145c -4.64  -3.75
iter:  21 22:19:22  -346.716169c -4.75  -3.93
iter:  22 22:19:30  -346.716159c -4.99  -3.96
iter:  23 22:19:38  -346.716167c -5.20  -4.11c
iter:  24 22:19:47  -346.716175c -5.05  -4.17c
Writing to output.gpw (mode='')

iter:  25 22:19:55  -346.716173c -5.29  -4.22c
iter:  26 22:20:03  -346.716171c -5.32  -4.29c
iter:  27 22:20:11  -346.716179c -5.38  -4.36c
iter:  28 22:20:19  -346.716172c -5.57  -4.55c
iter:  29 22:20:27  -346.716175c -5.79  -4.70c
Writing to output.gpw (mode='')

iter:  30 22:20:40  -346.716177c -5.73  -4.71c
iter:  31 22:20:49  -346.716175c -5.93  -4.75c
iter:  32 22:20:57  -346.716177c -6.00  -4.84c
iter:  33 22:21:05  -346.716176c -6.11  -4.91c
iter:  34 22:21:13  -346.716177c -6.17  -4.94c
Writing to output.gpw (mode='')

iter:  35 22:21:21  -346.716177c -6.34  -5.03c
iter:  36 22:21:29  -346.716177c -6.55  -5.15c
iter:  37 22:21:37  -346.716177c -6.47  -5.19c
iter:  38 22:21:45  -346.716177c -6.44  -5.26c
iter:  39 22:21:53  -346.716177c -6.56  -5.37c
Writing to output.gpw (mode='')

iter:  40 22:22:01  -346.716178c -6.71  -5.42c
iter:  41 22:22:09  -346.716178c -7.00  -5.61c
iter:  42 22:22:17  -346.716178c -7.00  -5.66c
iter:  43 22:22:24  -346.716178c -7.08  -5.65c
iter:  44 22:22:33  -346.716178c -7.11  -5.63c
Writing to output.gpw (mode='')

iter:  45 22:22:40  -346.716178c -7.17  -5.74c
iter:  46 22:22:48  -346.716178c -7.18  -5.77c
iter:  47 22:22:56  -346.716178c -7.33  -5.81c
iter:  48 22:23:04  -346.716178c -7.38  -5.90c
iter:  49 22:23:12  -346.716178c -7.62c -5.90c

Converged after 49 iterations.

Dipole moment: (-12.295556, -7.792551, 0.145669) |e|*Ang

Energy contributions relative to reference atoms: (reference = -17528.314784)

Kinetic:       +205.345204
Potential:     -189.812192
External:        +0.000000
XC:            -363.330873
Entropy (-ST):   -0.164459
Local:           +1.163912
--------------------------
Free energy:   -346.798408
Extrapolated:  -346.716178

Dipole-layer corrected work functions: 3.393976, 3.113951 eV

Showing only first 2 kpts
 Kpt  Band  Eigenvalues  Occupancy
  0    37     -3.50159    1.98597
  0    38     -3.33165    1.65088
  0    39     -3.15875    0.25927
  0    40     -3.02933    0.02213

  1    37     -3.37001    1.82120
  1    38     -3.26999    1.15889
  1    39     -3.19355    0.46004
  1    40     -3.10554    0.09775


Fermi level: -3.25396

Gap: 0.018 eV
Transition (v -> c):
  (s=0, k=2, n=38, [0.12, 0.12, 0.00]) -> (s=0, k=7, n=39, [0.38, 0.38, 0.00])
Writing to output.gpw (mode='')


Forces in eV/Ang:
  0 Li    0.02092    0.00097   -0.28432
  1 Li   -0.00903   -0.00443   -0.27111
  2 Li   -0.01306   -0.00015   -0.28429
  3 Li   -0.00751    0.01800   -0.27959
  4 Li   -0.00068   -0.00267   -0.27341
  5 Li    0.01085    0.02372   -0.27751
  6 Li   -0.00531   -0.01937   -0.27512
  7 Li    0.00002    0.00364   -0.27547
  8 Li    0.00474   -0.02210   -0.27459
  9 Li    0.00017    0.00727    0.32360
 10 Li    0.01446   -0.00341    0.25643
 11 Li   -0.00710    0.01406    0.28073
 12 Li   -0.00207   -0.00855    0.33256
 13 Li    0.00656    0.00591    0.26118
 14 Li   -0.00568   -0.01526    0.28535
 15 Li   -0.01169   -0.00252    0.22511
 16 Li   -0.00425    0.00289    0.25290
 17 Li    0.01414    0.00282    0.25555
 18 Li    0.05813   -0.00670   -0.13374
 19 Li   -0.01365    0.00603    0.05986
 20 Li   -0.01772   -0.00996   -0.13193
 21 Li   -0.02356   -0.01593    0.06983
 22 Li    0.02009   -0.00616    0.03928
 23 Li    0.00575   -0.01673    0.03121
 24 Li   -0.03066    0.02599    0.07740
 25 Li    0.01026   -0.00099    0.04119
 26 Li    0.01373    0.02589    0.05412
 27 Li   -0.01406    0.07539   -0.08276
 28 Li    0.07492   -0.04622   -0.04700
 29 Li   -0.09219   -0.03934   -0.09153
 30 Li    0.03456    0.02496    0.09317
 31 Li    0.06016    0.04500   -0.02178
 32 Li    0.01347    0.00631    0.05215
 33 Li   -0.06943   -0.07557   -0.32877
 34 Li   -0.02952   -0.00090   -0.01137
 35 Li   -0.00840   -0.01105   -0.05409
 36 O     1.00270   -0.81027    6.77141
 37 O    -0.20016    0.01486    0.11294
 38 C     0.14610   -0.20018    0.32033
 39 C    -0.16173   -1.93835    3.19695
 40 C    -0.02948   -0.09826    0.17909
 41 H     0.05651   -0.05093    0.05820
 42 H     0.25516   -0.12174    0.01041
 43 H    -0.17130   -0.85432    1.67896
 44 H    -0.25942   -0.07349    0.58640
 45 H    -0.00487    0.04778    0.00894
 46 H    -0.04586    0.01343    0.01568
 47 H     0.08067   -0.17456    1.06621
 48 H     0.30817   -0.04542   -0.00894
 49 N     3.25000    1.29714   -5.99750
 50 N    -4.31143    3.00782   -7.64717

System changes: positions 

Initializing position-dependent things.

Density initialized from wave functions
       .-----------------------.  
      /|                       |  
     / |                       |  
    /  |                       |  
   /   |                       |  
  /    |                       |  
 *     |                       |  
 |     |                       |  
 |     |                       |  
 |     |                       |  
 |     |                       |  
 |     |                       |  
 |     |H                 H    |  
 |     C                       |  
 |     |H                   CO |  
 |    H|                  H    |  
 |     |       Li      Li      |  
 |O    |              H  H     |  
 |     |     Li      LiC     Li|  
 |N    |  Li      Li  HN  Li   |  
 | Li  |   Li      Li          |  
 |     |Li      Li      Li     |  
 |     |                 Li    |  
 |   LLi     LLi     LLi       |  
 |     |  Li      Li      Li   |  
 | Li  |   Li      Li          |  
 |     |Li      Li      Li     |  
 Li    | Li      Li            |  
 |    Li      Li      Li       |  
 |     |                       |  
 |     |                       |  
 |     |                       |  
 |     |                       |  
 |     |                       |  
 |     |                       |  
 |     .-----------------------.  
 |    /                       /   
 |   /                       /    
 |  /                       /     
 | /                       /      
 |/                       /       
 *-----------------------*        

Positions:
   0 Li     1.617037    1.617037   10.000000    ( 0.0000,  0.0000,  0.0000)
   1 Li     4.851111    1.617037   10.000000    ( 0.0000,  0.0000,  0.0000)
   2 Li     8.085185    1.617037   10.000000    ( 0.0000,  0.0000,  0.0000)
   3 Li     1.617037    4.851111   10.000000    ( 0.0000,  0.0000,  0.0000)
   4 Li     4.851111    4.851111   10.000000    ( 0.0000,  0.0000,  0.0000)
   5 Li     8.085185    4.851111   10.000000    ( 0.0000,  0.0000,  0.0000)
   6 Li     1.617037    8.085185   10.000000    ( 0.0000,  0.0000,  0.0000)
   7 Li     4.851111    8.085185   10.000000    ( 0.0000,  0.0000,  0.0000)
   8 Li     8.085185    8.085185   10.000000    ( 0.0000,  0.0000,  0.0000)
   9 Li     0.000000    0.000000   11.617037    ( 0.0000,  0.0000,  0.0000)
  10 Li     3.234074    0.000000   11.617037    ( 0.0000,  0.0000,  0.0000)
  11 Li     6.468148    0.000000   11.617037    ( 0.0000,  0.0000,  0.0000)
  12 Li     0.000000    3.234074   11.617037    ( 0.0000,  0.0000,  0.0000)
  13 Li     3.234074    3.234074   11.617037    ( 0.0000,  0.0000,  0.0000)
  14 Li     6.468148    3.234074   11.617037    ( 0.0000,  0.0000,  0.0000)
  15 Li     0.000000    6.468148   11.617037    ( 0.0000,  0.0000,  0.0000)
  16 Li     3.234074    6.468148   11.617037    ( 0.0000,  0.0000,  0.0000)
  17 Li     6.468148    6.468148   11.617037    ( 0.0000,  0.0000,  0.0000)
  18 Li     1.618220    1.616898   13.466991    ( 0.0000,  0.0000,  0.0000)
  19 Li     4.850815    1.617165   13.470898    ( 0.0000,  0.0000,  0.0000)
  20 Li     8.084861    1.616837   13.467185    ( 0.0000,  0.0000,  0.0000)
  21 Li     1.616570    4.850816   13.471083    ( 0.0000,  0.0000,  0.0000)
  22 Li     4.851527    4.850962   13.470542    ( 0.0000,  0.0000,  0.0000)
  23 Li     8.085293    4.850822   13.470270    ( 0.0000,  0.0000,  0.0000)
  24 Li     1.616429    8.085688   13.471234    ( 0.0000,  0.0000,  0.0000)
  25 Li     4.851311    8.085177   13.470561    ( 0.0000,  0.0000,  0.0000)
  26 Li     8.085454    8.085667   13.470743    ( 0.0000,  0.0000,  0.0000)
  27 Li    -0.000602    0.002023   15.445175    ( 0.0000,  0.0000,  0.0000)
  28 Li     3.235522   -0.000939   15.445035    ( 0.0000,  0.0000,  0.0000)
  29 Li     6.466537   -0.000644   15.444367    ( 0.0000,  0.0000,  0.0000)
  30 Li     0.000462    3.234051   15.448669    ( 0.0000,  0.0000,  0.0000)
  31 Li     3.235247    3.234985   15.445539    ( 0.0000,  0.0000,  0.0000)
  32 Li     6.468666    3.234040   15.447228    ( 0.0000,  0.0000,  0.0000)
  33 Li    -0.001372    6.466667   15.439395    ( 0.0000,  0.0000,  0.0000)
  34 Li     3.233515    6.468130   15.445693    ( 0.0000,  0.0000,  0.0000)
  35 Li     6.467935    6.467922   15.444842    ( 0.0000,  0.0000,  0.0000)
  36 O      0.005382    1.600817   18.561737    ( 0.0000,  0.0000,  0.0000)
  37 O     -0.023476   -3.245463   18.440890    ( 0.0000,  0.0000,  0.0000)
  38 C      0.001256   -0.784948   18.467891    ( 0.0000,  0.0000,  0.0000)
  39 C     -0.866957    0.442773   18.501399    ( 0.0000,  0.0000,  0.0000)
  40 C     -0.831864   -2.063195   18.439714    ( 0.0000,  0.0000,  0.0000)
  41 H      0.659646   -0.757351   17.586968    ( 0.0000,  0.0000,  0.0000)
  42 H      0.640995   -0.781585   19.348747    ( 0.0000,  0.0000,  0.0000)
  43 H     -1.508606    0.463118   17.589914    ( 0.0000,  0.0000,  0.0000)
  44 H     -1.524166    0.483581   19.351396    ( 0.0000,  0.0000,  0.0000)
  45 H     -1.507472   -2.061241   17.569402    ( 0.0000,  0.0000,  0.0000)
  46 H     -1.448972   -2.138088   19.337073    ( 0.0000,  0.0000,  0.0000)
  47 H     -0.539500    2.403979   18.461245    ( 0.0000,  0.0000,  0.0000)
  48 H      0.560090   -3.213589   17.666255    ( 0.0000,  0.0000,  0.0000)
  49 N      0.017086    1.643664   16.833310    ( 0.0000,  0.0000,  0.0000)
  50 N     -1.126980    1.672315   16.809345    ( 0.0000,  0.0000,  0.0000)

Unit cell:
           periodic     x           y           z      points  spacing
  1. axis:    yes    9.702222    0.000000    0.000000    60     0.1617
  2. axis:    yes    0.000000    9.702222    0.000000    60     0.1617
  3. axis:    no     0.000000    0.000000   28.351111   176     0.1611

  Lengths:   9.702222   9.702222  28.351111
  Angles:   90.000000  90.000000  90.000000

Effective grid spacing dv^(1/3) = 0.1615

     iter     time        total  log10-change:
                         energy  eigst   dens
iter:   1 22:23:22  -347.601690  -0.84
iter:   2 22:23:30  -347.553065  -1.09  -1.73
iter:   3 22:23:37  -347.525926  -1.71  -1.80
iter:   4 22:23:45  -347.513722  -1.74  -2.15
Writing to output.gpw (mode='')

iter:   5 22:23:53  -347.529998c -1.92  -2.28
iter:   6 22:24:01  -347.532271c -1.93  -2.11
iter:   7 22:24:09  -347.502080c -1.77  -2.07
iter:   8 22:24:17  -347.501817c -2.20  -2.61
iter:   9 22:24:24  -347.502980c -2.46  -2.67
Writing to output.gpw (mode='')

iter:  10 22:24:32  -347.501871c -2.44  -2.71
iter:  11 22:24:40  -347.502403c -3.29  -2.79
iter:  12 22:24:48  -347.502035c -3.37  -2.93
iter:  13 22:24:56  -347.502145c -3.27  -3.00
iter:  14 22:25:04  -347.501996c -3.28  -3.23
Writing to output.gpw (mode='')

iter:  15 22:25:12  -347.502214c -3.62  -3.11
iter:  16 22:25:19  -347.501945c -3.74  -3.15
iter:  17 22:25:27  -347.502067c -4.06  -3.43
iter:  18 22:25:41  -347.502046c -4.13  -3.54
iter:  19 22:25:50  -347.502077c -4.43  -3.74
Writing to output.gpw (mode='')

iter:  20 22:25:58  -347.502101c -4.29  -3.71
iter:  21 22:26:05  -347.502107c -4.55  -3.85
iter:  22 22:26:13  -347.502103c -4.89  -3.93
iter:  23 22:26:21  -347.502128c -4.75  -4.07c
iter:  24 22:26:29  -347.502120c -4.95  -4.04c
Writing to output.gpw (mode='')

iter:  25 22:26:37  -347.502110c -4.99  -4.09c
iter:  26 22:26:44  -347.502131c -5.30  -4.34c
iter:  27 22:26:52  -347.502127c -5.68  -4.39c
iter:  28 22:27:00  -347.502129c -5.64  -4.44c
iter:  29 22:27:08  -347.502126c -5.44  -4.54c
Writing to output.gpw (mode='')

iter:  30 22:27:16  -347.502127c -5.62  -4.65c
iter:  31 22:27:24  -347.502127c -5.70  -4.68c
iter:  32 22:27:32  -347.502129c -5.81  -4.78c
iter:  33 22:27:39  -347.502129c -6.23  -4.81c
iter:  34 22:27:47  -347.502128c -6.15  -4.77c
Writing to output.gpw (mode='')

iter:  35 22:27:55  -347.502126c -6.24  -4.74c
iter:  36 22:28:03  -347.502126c -6.35  -4.95c
iter:  37 22:28:11  -347.502126c -6.37  -4.90c
iter:  38 22:28:19  -347.502127c -6.53  -4.78c
iter:  39 22:28:26  -347.502127c -6.63  -4.92c
Writing to output.gpw (mode='')

iter:  40 22:28:34  -347.502125c -6.53  -4.93c
iter:  41 22:28:42  -347.502130c -6.74  -4.72c
iter:  42 22:28:50  -347.502131c -6.85  -5.07c
iter:  43 22:28:58  -347.502132c -6.74  -5.13c
iter:  44 22:29:06  -347.502132c -7.21  -5.17c
Writing to output.gpw (mode='')

iter:  45 22:29:13  -347.502134c -7.02  -5.20c
iter:  46 22:29:21  -347.502133c -7.44c -5.32c

Converged after 46 iterations.

Dipole moment: (-11.535873, -7.813893, 0.115459) |e|*Ang

Energy contributions relative to reference atoms: (reference = -17528.314784)

Kinetic:       +203.288587
Potential:     -188.755449
External:        +0.000000
XC:            -363.118906
Entropy (-ST):   -0.164410
Local:           +1.165840
--------------------------
Free energy:   -347.584339
Extrapolated:  -347.502133

Dipole-layer corrected work functions: 3.395784, 3.173833 eV

Showing only first 2 kpts
 Kpt  Band  Eigenvalues  Occupancy
  0    37     -3.53192    1.98582
  0    38     -3.35876    1.62886
  0    39     -3.18984    0.26034
  0    40     -3.05785    0.02114

  1    37     -3.40294    1.82787
  1    38     -3.29806    1.13173
  1    39     -3.22356    0.45413
  1    40     -3.13387    0.09317


Fermi level: -3.28481

Gap: 0.016 eV
Transition (v -> c):
  (s=0, k=2, n=38, [0.12, 0.12, 0.00]) -> (s=0, k=7, n=39, [0.38, 0.38, 0.00])
Writing to output.gpw (mode='')


Forces in eV/Ang:
  0 Li    0.02016    0.00122   -0.28479
  1 Li   -0.00923   -0.00445   -0.27012
  2 Li   -0.01273   -0.00066   -0.28428
  3 Li   -0.00730    0.01819   -0.28028
  4 Li   -0.00033   -0.00203   -0.27321
  5 Li    0.01105    0.02372   -0.27858
  6 Li   -0.00481   -0.01903   -0.27505
  7 Li    0.00040    0.00315   -0.27615
  8 Li    0.00486   -0.02205   -0.27443
  9 Li    0.00111    0.00737    0.32301
 10 Li    0.01636   -0.00302    0.25714
 11 Li   -0.00884    0.01310    0.27863
 12 Li   -0.00245   -0.00939    0.33461
 13 Li    0.00762    0.00687    0.26054
 14 Li   -0.00505   -0.01522    0.28512
 15 Li   -0.01213   -0.00151    0.22547
 16 Li   -0.00553    0.00116    0.25226
 17 Li    0.01435    0.00476    0.25581
 18 Li    0.05934   -0.00715   -0.13133
 19 Li   -0.01211    0.00680    0.05951
 20 Li   -0.02090   -0.01280   -0.13415
 21 Li   -0.02416   -0.01602    0.06792
 22 Li    0.01994   -0.00602    0.04051
 23 Li    0.00563   -0.01621    0.02986
 24 Li   -0.03018    0.02532    0.07523
 25 Li    0.00785   -0.00294    0.03839
 26 Li    0.01367    0.02943    0.05435
 27 Li   -0.02184    0.04798   -0.09452
 28 Li    0.07003   -0.04595   -0.04501
 29 Li   -0.08940   -0.04216   -0.08685
 30 Li    0.04791    0.08821    0.04221
 31 Li    0.05836    0.04442   -0.01985
 32 Li    0.00940    0.00595    0.04745
 33 Li   -0.06881   -0.07509   -0.32108
 34 Li   -0.02776   -0.00035   -0.01174
 35 Li   -0.00880   -0.01241   -0.05272
 36 O     0.74879   -0.82144    5.76367
 37 O    -0.17187   -0.02704    0.08424
 38 C     0.09884   -0.15796    0.31016
 39 C    -0.16480   -1.53574    2.74327
 40 C    -0.02051   -0.09467    0.16178
 41 H     0.03430   -0.03527    0.07336
 42 H     0.26028   -0.13909    0.02828
 43 H    -0.13034   -0.71313    1.55974
 44 H    -0.30100   -0.16744    0.59779
 45 H     0.00198    0.04877    0.01935
 46 H    -0.04665    0.00422    0.02083
 47 H     0.09643   -0.21877    0.99502
 48 H     0.28406   -0.03920    0.01980
 49 N     3.02394    1.28049   -5.30724
 50 N    -3.69673    2.53647   -6.62934

System changes: positions 

Initializing position-dependent things.

Density initialized from wave functions
       .-----------------------.  
      /|                       |  
     / |                       |  
    /  |                       |  
   /   |                       |  
  /    |                       |  
 *     |                       |  
 |     |                       |  
 |     |                       |  
 |     |                       |  
 |     |                       |  
 |     |                       |  
 |     |H                 H    |  
 |     C                       |  
 |     |H                   CO |  
 |    H|                  H    |  
 |     |       Li      Li      |  
 |     |              H  HO    |  
 |     |     Li      LiC     Li|  
 |N    |  Li      Li  HN  Li   |  
 | Li  |   Li      Li          |  
 |     |Li      Li      Li     |  
 |     |                 Li    |  
 |   LLi     LLi     LLi       |  
 |     |  Li      Li      Li   |  
 | Li  |   Li      Li          |  
 |     |Li      Li      Li     |  
 Li    | Li      Li            |  
 |    Li      Li      Li       |  
 |     |                       |  
 |     |                       |  
 |     |                       |  
 |     |                       |  
 |     |                       |  
 |     |                       |  
 |     .-----------------------.  
 |    /                       /   
 |   /                       /    
 |  /                       /     
 | /                       /      
 |/                       /       
 *-----------------------*        

Positions:
   0 Li     1.617037    1.617037   10.000000    ( 0.0000,  0.0000,  0.0000)
   1 Li     4.851111    1.617037   10.000000    ( 0.0000,  0.0000,  0.0000)
   2 Li     8.085185    1.617037   10.000000    ( 0.0000,  0.0000,  0.0000)
   3 Li     1.617037    4.851111   10.000000    ( 0.0000,  0.0000,  0.0000)
   4 Li     4.851111    4.851111   10.000000    ( 0.0000,  0.0000,  0.0000)
   5 Li     8.085185    4.851111   10.000000    ( 0.0000,  0.0000,  0.0000)
   6 Li     1.617037    8.085185   10.000000    ( 0.0000,  0.0000,  0.0000)
   7 Li     4.851111    8.085185   10.000000    ( 0.0000,  0.0000,  0.0000)
   8 Li     8.085185    8.085185   10.000000    ( 0.0000,  0.0000,  0.0000)
   9 Li     0.000000    0.000000   11.617037    ( 0.0000,  0.0000,  0.0000)
  10 Li     3.234074    0.000000   11.617037    ( 0.0000,  0.0000,  0.0000)
  11 Li     6.468148    0.000000   11.617037    ( 0.0000,  0.0000,  0.0000)
  12 Li     0.000000    3.234074   11.617037    ( 0.0000,  0.0000,  0.0000)
  13 Li     3.234074    3.234074   11.617037    ( 0.0000,  0.0000,  0.0000)
  14 Li     6.468148    3.234074   11.617037    ( 0.0000,  0.0000,  0.0000)
  15 Li     0.000000    6.468148   11.617037    ( 0.0000,  0.0000,  0.0000)
  16 Li     3.234074    6.468148   11.617037    ( 0.0000,  0.0000,  0.0000)
  17 Li     6.468148    6.468148   11.617037    ( 0.0000,  0.0000,  0.0000)
  18 Li     1.618821    1.616823   13.465745    ( 0.0000,  0.0000,  0.0000)
  19 Li     4.850721    1.617251   13.471457    ( 0.0000,  0.0000,  0.0000)
  20 Li     8.084616    1.616650   13.465867    ( 0.0000,  0.0000,  0.0000)
  21 Li     1.616322    4.850664   13.471687    ( 0.0000,  0.0000,  0.0000)
  22 Li     4.851726    4.850897   13.470971    ( 0.0000,  0.0000,  0.0000)
  23 Li     8.085345    4.850701   13.470495    ( 0.0000,  0.0000,  0.0000)
  24 Li     1.616153    8.085911   13.471903    ( 0.0000,  0.0000,  0.0000)
  25 Li     4.851335    8.085115   13.470873    ( 0.0000,  0.0000,  0.0000)
  26 Li     8.085585    8.086015   13.471264    ( 0.0000,  0.0000,  0.0000)
  27 Li    -0.001071    0.002216   15.444445    ( 0.0000,  0.0000,  0.0000)
  28 Li     3.236087   -0.001381   15.444655    ( 0.0000,  0.0000,  0.0000)
  29 Li     6.465784   -0.001079   15.443718    ( 0.0000,  0.0000,  0.0000)
  30 Li     0.001021    3.235609   15.448682    ( 0.0000,  0.0000,  0.0000)
  31 Li     3.235761    3.235402   15.445397    ( 0.0000,  0.0000,  0.0000)
  32 Li     6.468768    3.234036   15.447701    ( 0.0000,  0.0000,  0.0000)
  33 Li    -0.002019    6.465971   15.436459    ( 0.0000,  0.0000,  0.0000)
  34 Li     3.233292    6.468142   15.445564    ( 0.0000,  0.0000,  0.0000)
  35 Li     6.467829    6.467778   15.444357    ( 0.0000,  0.0000,  0.0000)
  36 O     -0.003272    1.591575   18.590379    ( 0.0000,  0.0000,  0.0000)
  37 O     -0.024166   -3.246707   18.440560    ( 0.0000,  0.0000,  0.0000)
  38 C      0.001666   -0.787564   18.470927    ( 0.0000,  0.0000,  0.0000)
  39 C     -0.866533    0.442929   18.512776    ( 0.0000,  0.0000,  0.0000)
  40 C     -0.831613   -2.064087   18.440772    ( 0.0000,  0.0000,  0.0000)
  41 H      0.659228   -0.757175   17.588115    ( 0.0000,  0.0000,  0.0000)
  42 H      0.643973   -0.783491   19.349648    ( 0.0000,  0.0000,  0.0000)
  43 H     -1.506987    0.460311   17.604683    ( 0.0000,  0.0000,  0.0000)
  44 H     -1.529124    0.479890   19.359864    ( 0.0000,  0.0000,  0.0000)
  45 H     -1.507295   -2.060717   17.569850    ( 0.0000,  0.0000,  0.0000)
  46 H     -1.449523   -2.138185   19.337478    ( 0.0000,  0.0000,  0.0000)
  47 H     -0.536093    2.398206   18.469143    ( 0.0000,  0.0000,  0.0000)
  48 H      0.561959   -3.213837   17.667551    ( 0.0000,  0.0000,  0.0000)
  49 N      0.019215    1.656426   16.795460    ( 0.0000,  0.0000,  0.0000)
  50 N     -1.124359    1.685613   16.771912    ( 0.0000,  0.0000,  0.0000)

Unit cell:
           periodic     x           y           z      points  spacing
  1. axis:    yes    9.702222    0.000000    0.000000    60     0.1617
  2. axis:    yes    0.000000    9.702222    0.000000    60     0.1617
  3. axis:    no     0.000000    0.000000   28.351111   176     0.1611

  Lengths:   9.702222   9.702222  28.351111
  Angles:   90.000000  90.000000  90.000000

Effective grid spacing dv^(1/3) = 0.1615

     iter     time        total  log10-change:
                         energy  eigst   dens
iter:   1 22:29:31  -348.275220  -0.87
iter:   2 22:29:39  -348.233874  -1.18  -1.75
iter:   3 22:29:47  -348.207928  -1.85  -1.82
iter:   4 22:29:55  -348.198161c -1.89  -2.20
Writing to output.gpw (mode='')

iter:   5 22:30:03  -348.206328c -2.17  -2.34
iter:   6 22:30:10  -348.201984c -2.05  -2.20
iter:   7 22:30:18  -348.189274c -2.02  -2.24
iter:   8 22:30:26  -348.189464c -2.35  -2.65
iter:   9 22:30:41  -348.189310c -2.56  -2.78
Writing to output.gpw (mode='')

iter:  10 22:30:50  -348.189668c -2.86  -2.84
iter:  11 22:30:58  -348.189507c -3.37  -2.90
iter:  12 22:31:06  -348.190130c -3.02  -2.93
iter:  13 22:31:14  -348.189499c -3.04  -2.76
iter:  14 22:31:22  -348.189281c -3.33  -3.15
Writing to output.gpw (mode='')

iter:  15 22:31:29  -348.189345c -3.89  -3.27
iter:  16 22:31:37  -348.189354c -3.76  -3.36
iter:  17 22:31:45  -348.189414c -3.94  -3.48
iter:  18 22:31:53  -348.189385c -4.11  -3.61
iter:  19 22:32:01  -348.189387c -4.42  -3.77
Writing to output.gpw (mode='')

iter:  20 22:32:09  -348.189402c -4.38  -3.83
iter:  21 22:32:17  -348.189406c -4.67  -3.88
iter:  22 22:32:25  -348.189427c -4.81  -3.89
iter:  23 22:32:33  -348.189426c -4.60  -4.11c
iter:  24 22:32:41  -348.189427c -4.83  -4.26c
Writing to output.gpw (mode='')

iter:  25 22:32:49  -348.189426c -5.00  -4.30c
iter:  26 22:32:57  -348.189434c -5.20  -4.24c
iter:  27 22:33:05  -348.189436c -5.31  -4.29c
iter:  28 22:33:13  -348.189445c -5.48  -4.46c
iter:  29 22:33:21  -348.189441c -5.52  -4.55c
Writing to output.gpw (mode='')

iter:  30 22:33:29  -348.189440c -5.49  -4.64c
iter:  31 22:33:36  -348.189442c -5.82  -4.68c
iter:  32 22:33:44  -348.189444c -6.00  -4.78c
iter:  33 22:33:52  -348.189443c -5.83  -4.81c
iter:  34 22:34:00  -348.189444c -6.01  -5.03c
Writing to output.gpw (mode='')

iter:  35 22:34:08  -348.189445c -6.18  -5.07c
iter:  36 22:34:16  -348.189444c -6.18  -5.15c
iter:  37 22:34:24  -348.189443c -6.32  -5.20c
iter:  38 22:34:32  -348.189445c -6.44  -5.12c
iter:  39 22:34:40  -348.189446c -6.58  -5.20c
Writing to output.gpw (mode='')

iter:  40 22:34:48  -348.189446c -6.60  -5.35c
iter:  41 22:34:56  -348.189446c -6.47  -5.36c
iter:  42 22:35:04  -348.189447c -6.81  -5.37c
iter:  43 22:35:12  -348.189447c -6.87  -5.55c
iter:  44 22:35:20  -348.189447c -6.95  -5.73c
Writing to output.gpw (mode='')

iter:  45 22:35:28  -348.189447c -6.89  -5.73c
iter:  46 22:35:42  -348.189447c -7.11  -5.59c
iter:  47 22:35:50  -348.189447c -7.43c -5.61c

Converged after 47 iterations.

Dipole moment: (-10.891977, -7.799341, 0.086677) |e|*Ang

Energy contributions relative to reference atoms: (reference = -17528.314784)

Kinetic:       +201.302936
Potential:     -187.642565
External:        +0.000000
XC:            -362.935176
Entropy (-ST):   -0.164656
Local:           +1.167686
--------------------------
Free energy:   -348.271775
Extrapolated:  -348.189447

Dipole-layer corrected work functions: 3.397352, 3.230728 eV

Showing only first 2 kpts
 Kpt  Band  Eigenvalues  Occupancy
  0    37     -3.56069    1.98569
  0    38     -3.38392    1.60363
  0    39     -3.22019    0.26545
  0    40     -3.08485    0.02023

  1    37     -3.43453    1.83514
  1    38     -3.32442    1.10339
  1    39     -3.25167    0.44632
  1    40     -3.16060    0.08883


Fermi level: -3.31404

Gap: 0.014 eV
Transition (v -> c):
  (s=0, k=2, n=38, [0.12, 0.12, 0.00]) -> (s=0, k=7, n=39, [0.38, 0.38, 0.00])
Writing to output.gpw (mode='')


Forces in eV/Ang:
  0 Li    0.01916    0.00143   -0.28524
  1 Li   -0.00931   -0.00443   -0.26917
  2 Li   -0.01227   -0.00095   -0.28416
  3 Li   -0.00701    0.01836   -0.28101
  4 Li   -0.00008   -0.00134   -0.27306
  5 Li    0.01124    0.02353   -0.27961
  6 Li   -0.00427   -0.01887   -0.27512
  7 Li    0.00069    0.00253   -0.27676
  8 Li    0.00501   -0.02190   -0.27450
  9 Li    0.00178    0.00741    0.32265
 10 Li    0.01801   -0.00299    0.25775
 11 Li   -0.01003    0.01242    0.27734
 12 Li   -0.00251   -0.00991    0.33613
 13 Li    0.00852    0.00763    0.26043
 14 Li   -0.00460   -0.01515    0.28492
 15 Li   -0.01256   -0.00080    0.22609
 16 Li   -0.00665    0.00011    0.25170
 17 Li    0.01435    0.00615    0.25621
 18 Li    0.06030   -0.00778   -0.12888
 19 Li   -0.01101    0.00729    0.05844
 20 Li   -0.02327   -0.01439   -0.13281
 21 Li   -0.02396   -0.01540    0.06505
 22 Li    0.01950   -0.00607    0.04112
 23 Li    0.00511   -0.01572    0.02791
 24 Li   -0.02976    0.02460    0.07247
 25 Li    0.00599   -0.00431    0.03631
 26 Li    0.01319    0.03136    0.05260
 27 Li   -0.03070    0.02697   -0.10066
 28 Li    0.06531   -0.04574   -0.04302
 29 Li   -0.08296   -0.04163   -0.08083
 30 Li    0.05975    0.15990   -0.01287
 31 Li    0.05638    0.04397   -0.01779
 32 Li    0.00921    0.00387    0.04491
 33 Li   -0.06769   -0.07407   -0.31236
 34 Li   -0.02601   -0.00007   -0.01212
 35 Li   -0.00948   -0.01353   -0.05144
 36 O     0.62411   -0.64442    4.79353
 37 O    -0.15273   -0.05603    0.06541
 38 C     0.06417   -0.10834    0.29795
 39 C    -0.20204   -1.30410    2.40237
 40 C    -0.01597   -0.08754    0.14927
 41 H     0.00818   -0.01775    0.09307
 42 H     0.25407   -0.15181    0.03867
 43 H    -0.12243   -0.56590    1.37552
 44 H    -0.31943   -0.24422    0.57505
 45 H     0.00805    0.04843    0.02791
 46 H    -0.04568   -0.00775    0.02361
 47 H     0.09552   -0.24986    0.91824
 48 H     0.26728   -0.03266    0.03815
 49 N     2.70062    1.20379   -4.57393
 50 N    -3.18659    2.13377   -5.72902

System changes: positions 

Initializing position-dependent things.

Density initialized from wave functions
       .-----------------------.  
      /|                       |  
     / |                       |  
    /  |                       |  
   /   |                       |  
  /    |                       |  
 *     |                       |  
 |     |                       |  
 |     |                       |  
 |     |                       |  
 |     |                       |  
 |     |                       |  
 |     |H                 H    |  
 |     C                       |  
 |     |H                   CO |  
 |    H|                  H    |  
 |     |       Li      Li      |  
 |     |             H   HO    |  
 |     |     Li      LiC     Li|  
 |N    |  Li      Li  HN  Li   |  
 | Li  |   Li      Li          |  
 |     |Li      Li      Li     |  
 |     |                 Li    |  
 |   LLi     LLi     LLi       |  
 |     |  Li      Li      Li   |  
 | Li  |   Li      Li          |  
 |     |Li      Li      Li     |  
 Li    | Li      Li            |  
 |    Li      Li      Li       |  
 |     |                       |  
 |     |                       |  
 |     |                       |  
 |     |                       |  
 |     |                       |  
 |     |                       |  
 |     .-----------------------.  
 |    /                       /   
 |   /                       /    
 |  /                       /     
 | /                       /      
 |/                       /       
 *-----------------------*        

Positions:
   0 Li     1.617037    1.617037   10.000000    ( 0.0000,  0.0000,  0.0000)
   1 Li     4.851111    1.617037   10.000000    ( 0.0000,  0.0000,  0.0000)
   2 Li     8.085185    1.617037   10.000000    ( 0.0000,  0.0000,  0.0000)
   3 Li     1.617037    4.851111   10.000000    ( 0.0000,  0.0000,  0.0000)
[...]
  0    37     -3.24449    1.92030
  0    38     -3.14684    1.54721
  0    39     -3.10358    1.17982
  0    40     -2.91151    0.05990

  1    37     -3.29601    1.97081
  1    38     -3.15914    1.62756
  1    39     -2.94291    0.10940
  1    40     -2.92369    0.07580


Fermi level: -3.08540

No gap
Writing to output.gpw (mode='')


Forces in eV/Ang:
  0 Li   -0.00766    0.00794   -0.29930
  1 Li    0.02758   -0.00249   -0.30843
  2 Li    0.00223    0.00233   -0.28291
  3 Li   -0.00371    0.00043   -0.28819
  4 Li   -0.02042   -0.00591   -0.29614
  5 Li   -0.00487   -0.01847   -0.24985
  6 Li   -0.00014   -0.01432   -0.29750
  7 Li   -0.01077    0.00342   -0.27604
  8 Li   -0.01979    0.02216   -0.26083
  9 Li    0.04164   -0.00189    0.31238
 10 Li   -0.06899    0.05375    0.38429
 11 Li   -0.01048   -0.01644    0.25495
 12 Li    0.04653    0.03930    0.24056
 13 Li   -0.09302    0.00864    0.35889
 14 Li   -0.02125    0.04990    0.21379
 15 Li    0.08604   -0.00056    0.22900
 16 Li    0.06171   -0.00858    0.36101
 17 Li   -0.01736   -0.03395    0.18871
 18 Li    0.01035    0.00021   -0.01411
 19 Li    0.00596   -0.00433    0.00413
 20 Li   -0.00431    0.00471    0.00353
 21 Li    0.00374    0.00483   -0.00669
 22 Li   -0.00539   -0.00786   -0.00067
 23 Li    0.00022   -0.00524    0.00054
 24 Li   -0.01334    0.00393    0.00279
 25 Li   -0.00057    0.00358   -0.00027
 26 Li   -0.00109   -0.01928   -0.01018
 27 Li    0.01230   -0.01706   -0.00178
 28 Li   -0.00592    0.00169   -0.00098
 29 Li   -0.02193   -0.01558   -0.00320
 30 Li    0.00460   -0.01140    0.00541
 31 Li    0.00065   -0.00453   -0.00084
 32 Li    0.00167    0.00324   -0.00105
 33 Li   -0.00123   -0.00375    0.00873
 34 Li   -0.00114   -0.00203    0.00799
 35 Li   -0.00205   -0.00439   -0.00721
 36 O     0.01111    0.00685    0.01797
 37 O     0.04177   -0.02487   -0.00788
 38 C     0.01997    0.01239   -0.00872
 39 C     0.00269   -0.01406    0.02026
 40 C    -0.02271    0.01433   -0.00546
 41 H    -0.00043   -0.00952   -0.04077
 42 H     0.02432    0.00953    0.00412
 43 H    -0.00925    0.01919    0.00955
 44 H    -0.00894    0.00207    0.00221
 45 H    -0.02561    0.01368   -0.01835
 46 H    -0.00686    0.00833    0.00686
 47 H     0.00033    0.00555    0.00383
 48 H     0.01572   -0.01019   -0.01385
 49 N     0.00937   -0.00082    0.02681
 50 N    -0.04582    0.02168    0.01388

System changes: positions 

Initializing position-dependent things.

Density initialized from wave functions
       .-----------------------.  
      /|                       |  
     / |                       |  
    /  |                       |  
   /   |                       |  
  /    |                       |  
 *     |                       |  
 |     |                       |  
 |     |                       |  
 |     |                       |  
 |     |                       |  
 |     |H                      |  
 |     |                   H   C  
 |     |H                   C  |  
 |     H                  H    |  
 |     |                     O |  
 |     |             H   HO    |  
 |   Li|               C       |  
 |     |     Li      Hi        |  
 |     |  Li      Li      LLi  |  
 |     |    Li      Li         |  
 |     |Li      Li     NLi     |  
 |     |  Li      Li     Li    |  
 |   LLi     LLi     Li        |  
 |     |  Li      Li  Li  Li   |  
 | Li  |   Li      Li          |  
 |     |Li      Li      Li     |  
 Li    | Li      Li            |  
 |    Li      Li      Li       |  
 |     |                       |  
 |     |                       |  
 |     |                       |  
 |     |                       |  
 |     |                       |  
 |     |                       |  
 |     .-----------------------.  
 |    /                       /   
 |   /                       /    
 |  /                       /     
 | /                       /      
 |/                       /       
 *-----------------------*        

Positions:
   0 Li     1.617037    1.617037   10.000000    ( 0.0000,  0.0000,  0.0000)
   1 Li     4.851111    1.617037   10.000000    ( 0.0000,  0.0000,  0.0000)
   2 Li     8.085185    1.617037   10.000000    ( 0.0000,  0.0000,  0.0000)
   3 Li     1.617037    4.851111   10.000000    ( 0.0000,  0.0000,  0.0000)
   4 Li     4.851111    4.851111   10.000000    ( 0.0000,  0.0000,  0.0000)
   5 Li     8.085185    4.851111   10.000000    ( 0.0000,  0.0000,  0.0000)
   6 Li     1.617037    8.085185   10.000000    ( 0.0000,  0.0000,  0.0000)
   7 Li     4.851111    8.085185   10.000000    ( 0.0000,  0.0000,  0.0000)
   8 Li     8.085185    8.085185   10.000000    ( 0.0000,  0.0000,  0.0000)
   9 Li     0.000000    0.000000   11.617037    ( 0.0000,  0.0000,  0.0000)
  10 Li     3.234074    0.000000   11.617037    ( 0.0000,  0.0000,  0.0000)
  11 Li     6.468148    0.000000   11.617037    ( 0.0000,  0.0000,  0.0000)
  12 Li     0.000000    3.234074   11.617037    ( 0.0000,  0.0000,  0.0000)
  13 Li     3.234074    3.234074   11.617037    ( 0.0000,  0.0000,  0.0000)
  14 Li     6.468148    3.234074   11.617037    ( 0.0000,  0.0000,  0.0000)
  15 Li     0.000000    6.468148   11.617037    ( 0.0000,  0.0000,  0.0000)
  16 Li     3.234074    6.468148   11.617037    ( 0.0000,  0.0000,  0.0000)
  17 Li     6.468148    6.468148   11.617037    ( 0.0000,  0.0000,  0.0000)
  18 Li     1.387376    1.759611   13.759859    ( 0.0000,  0.0000,  0.0000)
  19 Li     4.831771    1.670249   13.455330    ( 0.0000,  0.0000,  0.0000)
  20 Li     8.078126    1.634303   13.295496    ( 0.0000,  0.0000,  0.0000)
  21 Li     1.608573    4.880620   13.624084    ( 0.0000,  0.0000,  0.0000)
  22 Li     4.957293    4.863033   13.524158    ( 0.0000,  0.0000,  0.0000)
  23 Li     8.147967    4.968162   13.515760    ( 0.0000,  0.0000,  0.0000)
  24 Li     1.631676    8.065830   13.536177    ( 0.0000,  0.0000,  0.0000)
  25 Li     4.963984    8.108193   13.533624    ( 0.0000,  0.0000,  0.0000)
  26 Li     8.082519    7.943581   13.505566    ( 0.0000,  0.0000,  0.0000)
  27 Li    -0.144088    0.022428   15.314917    ( 0.0000,  0.0000,  0.0000)
  28 Li     3.439089    0.000460   15.431806    ( 0.0000,  0.0000,  0.0000)
  29 Li     6.822160    0.371591   15.371839    ( 0.0000,  0.0000,  0.0000)
  30 Li    -0.118260    3.372477   15.768345    ( 0.0000,  0.0000,  0.0000)
  31 Li     3.471915    3.345861   15.540743    ( 0.0000,  0.0000,  0.0000)
  32 Li     6.799179    3.055018   15.425098    ( 0.0000,  0.0000,  0.0000)
  33 Li     0.015728    6.545708   15.883372    ( 0.0000,  0.0000,  0.0000)
  34 Li     3.278502    6.498318   15.435089    ( 0.0000,  0.0000,  0.0000)
  35 Li     6.444615    6.449571   15.514591    ( 0.0000,  0.0000,  0.0000)
  36 O     -0.086021    1.618783   19.242282    ( 0.0000,  0.0000,  0.0000)
  37 O     -0.064273   -3.016330   17.841395    ( 0.0000,  0.0000,  0.0000)
  38 C     -0.015451   -0.734974   18.814965    ( 0.0000,  0.0000,  0.0000)
  39 C     -0.918627    0.456839   19.106965    ( 0.0000,  0.0000,  0.0000)
  40 C     -0.811987   -2.017963   18.588984    ( 0.0000,  0.0000,  0.0000)
  41 H      0.566703   -0.513689   17.914926    ( 0.0000,  0.0000,  0.0000)
  42 H      0.703600   -0.863997   19.630736    ( 0.0000,  0.0000,  0.0000)
  43 H     -1.625760    0.587383   18.278412    ( 0.0000,  0.0000,  0.0000)
  44 H     -1.496293    0.290281   20.026321    ( 0.0000,  0.0000,  0.0000)
  45 H     -1.689669   -1.821233   17.969376    ( 0.0000,  0.0000,  0.0000)
  46 H     -1.152210   -2.456422   19.531808    ( 0.0000,  0.0000,  0.0000)
  47 H     -0.652781    2.399321   19.188335    ( 0.0000,  0.0000,  0.0000)
  48 H      0.701127   -3.304249   18.359221    ( 0.0000,  0.0000,  0.0000)
  49 N     -0.217024    1.821996   14.660725    ( 0.0000,  0.0000,  0.0000)
  50 N     -1.371981    1.733326   15.303580    ( 0.0000,  0.0000,  0.0000)

Unit cell:
           periodic     x           y           z      points  spacing
  1. axis:    yes    9.702222    0.000000    0.000000    60     0.1617
  2. axis:    yes    0.000000    9.702222    0.000000    60     0.1617
  3. axis:    no     0.000000    0.000000   28.351111   176     0.1611

  Lengths:   9.702222   9.702222  28.351111
  Angles:   90.000000  90.000000  90.000000

Effective grid spacing dv^(1/3) = 0.1615

     iter     time        total  log10-change:
                         energy  eigst   dens
iter:   1 11:03:34  -353.678533  -2.14
iter:   2 11:03:42  -353.673371  -2.68  -2.24
iter:   3 11:03:49  -353.671897c -3.56  -2.48
iter:   4 11:03:57  -353.671338c -3.48  -2.80
Writing to output.gpw (mode='')

iter:   5 11:04:06  -353.671390c -4.07  -3.17
iter:   6 11:04:14  -353.671354c -3.88  -3.17
iter:   7 11:04:22  -353.671318c -3.63  -3.33
iter:   8 11:04:29  -353.671319c -4.37  -3.49
iter:   9 11:04:37  -353.671310c -4.63  -3.63
Writing to output.gpw (mode='')

iter:  10 11:04:45  -353.671318c -4.91  -3.75
iter:  11 11:04:53  -353.671324c -5.40  -3.86
iter:  12 11:05:04  -353.671334c -5.17  -3.95
iter:  13 11:05:12  -353.671332c -5.68  -4.09c
iter:  14 11:05:20  -353.671330c -5.78  -4.14c
Writing to output.gpw (mode='')

iter:  15 11:05:28  -353.671332c -6.01  -4.17c
iter:  16 11:05:43  -353.671335c -6.07  -4.34c
iter:  17 11:05:52  -353.671333c -6.32  -4.57c
iter:  18 11:06:00  -353.671334c -6.74  -4.63c
iter:  19 11:06:08  -353.671334c -6.68  -4.67c
Writing to output.gpw (mode='')

iter:  20 11:06:16  -353.671333c -6.94  -4.76c
iter:  21 11:06:24  -353.671334c -7.04  -4.97c
iter:  22 11:06:32  -353.671334c -7.12  -5.15c
iter:  23 11:06:39  -353.671334c -7.37  -5.19c
iter:  24 11:06:47  -353.671334c -7.53c -5.29c

Converged after 24 iterations.

Dipole moment: (22.077407, -8.857316, 0.349424) |e|*Ang

Energy contributions relative to reference atoms: (reference = -17528.314784)

Kinetic:       +175.751900
Potential:     -168.390023
External:        +0.000000
XC:            -362.154600
Entropy (-ST):   -0.164061
Local:           +1.203420
--------------------------
Free energy:   -353.753364
Extrapolated:  -353.671334

Dipole-layer corrected work functions: 3.422230, 2.750517 eV

Showing only first 2 kpts
 Kpt  Band  Eigenvalues  Occupancy
  0    37     -3.24535    1.92012
  0    38     -3.14815    1.54955
  0    39     -3.10455    1.17979
  0    40     -2.91210    0.05945

  1    37     -3.29676    1.97068
  1    38     -3.16003    1.62706
  1    39     -2.94332    0.10823
  1    40     -2.92446    0.07549


Fermi level: -3.08637

No gap
Writing to output.gpw (mode='')


Forces in eV/Ang:
  0 Li   -0.00777    0.00784   -0.29927
  1 Li    0.02764   -0.00256   -0.30842
  2 Li    0.00217    0.00208   -0.28286
  3 Li   -0.00364    0.00058   -0.28790
  4 Li   -0.02046   -0.00582   -0.29598
  5 Li   -0.00486   -0.01812   -0.24984
  6 Li    0.00001   -0.01423   -0.29748
  7 Li   -0.01067    0.00344   -0.27610
  8 Li   -0.01969    0.02220   -0.26065
  9 Li    0.04230   -0.00329    0.31051
 10 Li   -0.06909    0.05391    0.38466
 11 Li   -0.01155   -0.01737    0.25318
 12 Li    0.04594    0.03868    0.24144
 13 Li   -0.09264    0.00735    0.35946
 14 Li   -0.01996    0.04968    0.21524
 15 Li    0.08653   -0.00020    0.22666
 16 Li    0.06126   -0.00797    0.35983
 17 Li   -0.01853   -0.03390    0.18733
 18 Li    0.00509    0.00019   -0.01109
 19 Li    0.00310   -0.00450    0.00254
 20 Li   -0.01093    0.01035    0.00305
 21 Li    0.00285    0.00243   -0.00463
 22 Li   -0.00427   -0.00955   -0.00046
 23 Li   -0.00048   -0.01223    0.00304
 24 Li   -0.01169    0.00414    0.00262
 25 Li    0.00083    0.00328   -0.00002
 26 Li   -0.00149   -0.01812   -0.01009
 27 Li    0.01381   -0.00407   -0.00575
 28 Li   -0.00576    0.00286   -0.00052
 29 Li   -0.02436   -0.01640   -0.00411
 30 Li    0.00912   -0.00234    0.00563
 31 Li    0.00068   -0.00467   -0.00094
 32 Li    0.00338    0.00637   -0.00426
 33 Li   -0.00076   -0.00295    0.01484
 34 Li   -0.00126   -0.00212    0.00762
 35 Li   -0.00311   -0.00282   -0.00476
 36 O     0.01209    0.02175    0.00300
 37 O     0.01341   -0.00780   -0.00597
 38 C     0.02692    0.02023   -0.01232
 39 C     0.00086   -0.01895    0.02173
 40 C     0.00058    0.02174    0.00598
 41 H     0.00367    0.00061   -0.04549
 42 H     0.01011    0.00902   -0.00525
 43 H    -0.00290    0.02402    0.00455
 44 H    -0.01532   -0.00213    0.01104
 45 H    -0.00929   -0.00164   -0.01810
 46 H    -0.01618   -0.00423    0.00599
 47 H     0.00503   -0.01287    0.00423
 48 H     0.01940   -0.00928   -0.01338
 49 N     0.01954   -0.02324    0.03671
 50 N    -0.03031    0.01936    0.00666

Timing:                                      incl.     excl.
-------------------------------------------------------------------
Density initialized from wave functions:    10.579    10.574   0.0% |
 Symmetrize density:                         0.005     0.005   0.0% |
Forces:                                     92.033    92.033   0.2% |
Hamiltonian:                              1062.028     0.023   0.0% |
 Atomic:                                     0.038     0.037   0.0% |
  XC Correction:                             0.000     0.000   0.0% |
 Calculate atomic Hamiltonians:              0.065     0.065   0.0% |
 Communicate:                               14.746    14.746   0.0% |
 Hartree integrate/restrict:                 4.379     4.379   0.0% |
 Initialize Hamiltonian:                     0.001     0.001   0.0% |
 Poisson:                                   52.727    19.283   0.0% |
  Communicate from 1D:                       5.397     5.397   0.0% |
  Communicate from 2D:                       5.283     5.283   0.0% |
  Communicate to 1D:                         2.993     2.993   0.0% |
  Communicate to 2D:                         5.788     5.788   0.0% |
  FFT 1D:                                    6.944     6.944   0.0% |
  FFT 2D:                                    7.038     7.038   0.0% |
 XC 3D grid:                               989.105   150.737   0.3% |
  VdW-DF integral:                         838.368     6.841   0.0% |
   Convolution:                             73.505    73.505   0.2% |
   FFT:                                     32.351    32.351   0.1% |
   gather:                                 289.974   289.974   0.6% |
   hmm1:                                    28.454    28.454   0.1% |
   hmm2:                                    37.076    37.076   0.1% |
   iFFT:                                    33.061    33.061   0.1% |
   potential:                              333.429     8.698   0.0% |
    collect:                                51.845    51.845   0.1% |
    p1:                                    151.536   151.536   0.3% |
    p2:                                     57.122    57.122   0.1% |
    sum:                                    64.228    64.228   0.1% |
   splines:                                  3.677     3.677   0.0% |
 vbar:                                       0.945     0.945   0.0% |
LCAO initialization:                         1.238     0.184   0.0% |
 LCAO eigensolver:                           0.208     0.000   0.0% |
  Calculate projections:                     0.000     0.000   0.0% |
  DenseAtomicCorrection:                     0.000     0.000   0.0% |
  Distribute overlap matrix:                 0.189     0.189   0.0% |
  Orbital Layouts:                           0.016     0.016   0.0% |
  Potential matrix:                          0.001     0.001   0.0% |
  Sum over cells:                            0.001     0.001   0.0% |
 LCAO to grid:                               0.730     0.730   0.0% |
 Set positions (LCAO WFS):                   0.116     0.067   0.0% |
  Basic WFS set positions:                   0.001     0.001   0.0% |
  Basis functions set positions:             0.000     0.000   0.0% |
  P tci:                                     0.000     0.000   0.0% |
  ST tci:                                    0.014     0.014   0.0% |
  mktci:                                     0.034     0.034   0.0% |
Redistribute:                                0.099     0.099   0.0% |
SCF-cycle:                               46276.213   770.484   1.6% ||
 Davidson:                               13497.903  3965.470   8.3% |--|
  Apply hamiltonian:                       872.939   872.939   1.8% ||
  Subspace diag:                          2535.558     0.684   0.0% |
   calc_h_matrix:                         1340.227   452.159   0.9% |
    Apply hamiltonian:                     888.068   888.068   1.9% ||
   diagonalize:                             72.042    72.042   0.2% |
   rotate_psi:                            1122.605  1122.605   2.4% ||
  calc. matrices:                         4320.133  2248.177   4.7% |-|
   Apply hamiltonian:                     2071.956  2071.956   4.3% |-|
  diagonalize:                              40.301    40.301   0.1% |
  rotate_psi:                             1763.501  1763.501   3.7% ||
 Density:                                  227.006     0.154   0.0% |
  Atomic density matrices:                  20.189    20.189   0.0% |
  Mix:                                      97.889    97.889   0.2% |
  Multipole moments:                        12.307    12.307   0.0% |
  Pseudo density:                           96.466    96.318   0.2% |
   Symmetrize density:                       0.148     0.148   0.0% |
 Hamiltonian:                            31743.527     0.696   0.0% |
  Atomic:                                    1.323     1.308   0.0% |
   XC Correction:                            0.015     0.015   0.0% |
  Calculate atomic Hamiltonians:             2.242     2.242   0.0% |
  Communicate:                             451.595   451.595   0.9% |
  Hartree integrate/restrict:              123.892   123.892   0.3% |
  Poisson:                                1567.663   581.244   1.2% |
   Communicate from 1D:                    157.328   157.328   0.3% |
   Communicate from 2D:                    147.725   147.725   0.3% |
   Communicate to 1D:                       91.085    91.085   0.2% |
   Communicate to 2D:                      171.616   171.616   0.4% |
   FFT 1D:                                 206.970   206.970   0.4% |
   FFT 2D:                                 211.695   211.695   0.4% |
  XC 3D grid:                            29568.398  4605.648   9.7% |---|
   VdW-DF integral:                      24962.750   204.871   0.4% |
    Convolution:                          2205.287  2205.287   4.6% |-|
    FFT:                                   968.288   968.288   2.0% ||
    gather:                               8553.553  8553.553  17.9% |------|
    hmm1:                                  849.018   849.018   1.8% ||
    hmm2:                                 1113.264  1113.264   2.3% ||
    iFFT:                                  991.975   991.975   2.1% ||
    potential:                           10076.443   263.255   0.6% |
     collect:                             1576.251  1576.251   3.3% ||
     p1:                                  4542.373  4542.373   9.5% |---|
     p2:                                  1712.316  1712.316   3.6% ||
     sum:                                 1982.248  1982.248   4.2% |-|
    splines:                                 0.051     0.051   0.0% |
  vbar:                                     27.718    27.718   0.1% |
 Orthonormalize:                            37.293     0.025   0.0% |
  calc_s_matrix:                             6.051     6.051   0.0% |
  inverse-cholesky:                          9.246     9.246   0.0% |
  projections:                               0.004     0.004   0.0% |
  rotate_psi_s:                             21.967    21.967   0.0% |
Set symmetry:                                0.003     0.003   0.0% |
Other:                                     210.849   210.849   0.4% |
-------------------------------------------------------------------
Total:                                             47653.041 100.0%

Memory usage: 1.20 GiB
Date: Sat Mar 11 11:06:48 2023
