
  ___ ___ ___ _ _ _  
 |   |   |_  | | | | 
 | | | | | . | | | | 
 |__ |  _|___|_____|  22.8.0
 |___|_|             

User:   vazumah@c05.hercules
Date:   Tue Mar 14 11:02:26 2023
Arch:   x86_64
Pid:    21956
CWD:    /home/vazumah/Python_projects/LiNRR/Li_adsorb_studies/proton_donors/N2_with_proton_donor/Li_BCC_100/adsorbates/ethanediol_z/ontop/9.702_9.702/N2_y
Python: 3.10.8
gpaw:   /home/vazumah/.conda/envs/GPAW/lib/python3.10/site-packages/gpaw
_gpaw:  /home/vazumah/.conda/envs/GPAW/lib/python3.10/site-packages/
        _gpaw.cpython-310-x86_64-linux-gnu.so
ase:    /home/vazumah/.conda/envs/GPAW/lib/python3.10/site-packages/ase (version 3.22.1)
numpy:  /home/vazumah/.conda/envs/GPAW/lib/python3.10/site-packages/numpy (version 1.24.1)
scipy:  /home/vazumah/.conda/envs/GPAW/lib/python3.10/site-packages/scipy (version 1.10.0)
libxc:  5.2.3
units:  Angstrom and eV
cores: 24
OpenMP: True
OMP_NUM_THREADS: 1

Reading from output.gpw
Reading input parameters:
  h: 0.16
  kpts: {size: [4, 4, 1]}
  occupations: {name: fermi-dirac,
                width: 0.05}
  poissonsolver: {dipolelayer: xy}
  xc: BEEF-vdW

Initialize ...

species:
  Li:
    name: Lithium
    id: 830b4218f175192f93f959cfc0aad614
    Z: 3.0
    valence: 1
    core: 2
    charge: 0.0
    file: /home/vazumah/.conda/envs/GPAW/share/gpaw/Li.PBE.gz
    compensation charges: {type: gauss,
                           rc: 0.33,
                           lmax: 2}
    cutoffs: {filter: 1.91,
              core: 2.55}
    valence states:
      #              energy  rcut
      - 2s(1.00)    -2.874   1.058
      - 2p(0.00)    -1.090   1.058
      -  s          24.337   1.058
  
    # Using partial waves for Li as LCAO basis

  O:
    name: Oxygen
    id: 32ecd46bf208036f09c70b0ec9a88b78
    Z: 8.0
    valence: 6
    core: 2
    charge: 0.0
    file: /home/vazumah/.conda/envs/GPAW/share/gpaw/O.PBE.gz
    compensation charges: {type: gauss,
                           rc: 0.21,
                           lmax: 2}
    cutoffs: {filter: 1.17,
              core: 0.83}
    valence states:
      #              energy  rcut
      - 2s(2.00)   -23.961   0.688
      - 2p(4.00)    -9.029   0.598
      -  s           3.251   0.688
      -  p          18.182   0.598
      -  d           0.000   0.619
  
    # Using partial waves for O as LCAO basis

  C:
    name: Carbon
    id: 4aa54d4b901d75f77cc0ea3eec22967b
    Z: 6.0
    valence: 4
    core: 2
    charge: 0.0
    file: /home/vazumah/.conda/envs/GPAW/share/gpaw/C.PBE.gz
    compensation charges: {type: gauss,
                           rc: 0.20,
                           lmax: 2}
    cutoffs: {filter: 1.14,
              core: 1.14}
    valence states:
      #              energy  rcut
      - 2s(2.00)   -13.751   0.635
      - 2p(2.00)    -5.284   0.635
      -  s          13.461   0.635
      -  p          21.927   0.635
      -  d           0.000   0.635
  
    # Using partial waves for C as LCAO basis

  H:
    name: Hydrogen
    id: d65de229564ff8ea4db303e23b6d1ecf
    Z: 1.0
    valence: 1
    core: 0
    charge: 0.0
    file: /home/vazumah/.conda/envs/GPAW/share/gpaw/H.PBE.gz
    compensation charges: {type: gauss,
                           rc: 0.15,
                           lmax: 2}
    cutoffs: {filter: 0.85,
              core: 0.53}
    valence states:
      #              energy  rcut
      - 1s(1.00)    -6.494   0.476
      -  s          20.717   0.476
      -  p           0.000   0.476
  
    # Using partial waves for H as LCAO basis

  N:
    name: Nitrogen
    id: f7500608b86eaa90eef8b1d9a670dc53
    Z: 7.0
    valence: 5
    core: 2
    charge: 0.0
    file: /home/vazumah/.conda/envs/GPAW/share/gpaw/N.PBE.gz
    compensation charges: {type: gauss,
                           rc: 0.18,
                           lmax: 2}
    cutoffs: {filter: 1.11,
              core: 0.96}
    valence states:
      #              energy  rcut
      - 2s(2.00)   -18.583   0.603
      - 2p(3.00)    -7.089   0.529
      -  s           8.629   0.603
      -  p          20.123   0.529
      -  d           0.000   0.577
  
    # Using partial waves for N as LCAO basis

Reference energy: -16475.706344  # eV

Spin-paired calculation

Convergence criteria:
 Maximum [total energy] change in last 3 cyles: 0.0005 eV / electron
 Maximum integral of absolute [dens]ity change: 0.0001 electrons / valence electron
 Maximum integral of absolute [eigenst]ate change: 4e-08 eV^2 / valence electron
 Maximum number of scf [iter]ations: 333
 (Square brackets indicate name in SCF output, whereas a 'c' in
 the SCF output indicates the quantity has converged.)

Symmetries present (total): 1

  ( 1  0  0)
  ( 0  1  0)
  ( 0  0  1)

16 k-points: 4 x 4 x 1 Monkhorst-Pack grid
8 k-points in the irreducible part of the Brillouin zone
       k-points in crystal coordinates                weights
   0:     0.12500000   -0.37500000    0.00000000          2/16
   1:     0.12500000   -0.12500000    0.00000000          2/16
   2:     0.12500000    0.12500000    0.00000000          2/16
   3:     0.12500000    0.37500000    0.00000000          2/16
   4:     0.37500000   -0.37500000    0.00000000          2/16
   5:     0.37500000   -0.12500000    0.00000000          2/16
   6:     0.37500000    0.12500000    0.00000000          2/16
   7:     0.37500000    0.37500000    0.00000000          2/16

Wave functions: Uniform real-space grid
  Kinetic energy operator: 6*3+1=19 point O(h^6) finite-difference Laplacian
  ScaLapack parameters: grid=1x1, blocksize=None
  Wavefunction extrapolation:
    Improved wavefunction reuse through dual PAW basis 

Occupation numbers: Fermi-Dirac:
  width: 0.0500  # eV
 

Eigensolver
   Davidson(niter=2) 

Densities:
  Coarse grid: 60*60*164 grid
  Fine grid: 120*120*328 grid
  Total Charge: 0.000000 

Density mixing:
  Method: separate
  Backend: pulay
  Linear mixing parameter: 0.05
  old densities: 5
  Damping of long wavelength oscillations: 50 

Hamiltonian:
  XC and Coulomb potentials evaluated on a 120*120*328 grid
  Using the BEEF-vdW Exchange-Correlation functional
  Interpolation: tri-quintic (5. degree polynomial)
  Poisson solver: FastPoissonSolver using
    Stencil: 6*3+1=19 point O(h^6) finite-difference Laplacian
    FFT axes: [0, 1]
    FST axes: [2]

Dipole correction along z-axis 

XC parameters: BEEF-vdW with 2 nearest neighbor stencil

Memory estimate:
  Process memory now: 261.40 MiB
  Calculator: 455.12 MiB
    Density: 120.87 MiB
      Arrays: 38.89 MiB
      Localized functions: 67.14 MiB
      Mixer: 14.83 MiB
    Hamiltonian: 30.74 MiB
      Arrays: 25.43 MiB
      XC: 0.00 MiB
      Poisson: 0.00 MiB
      vbar: 5.30 MiB
    Wavefunctions: 303.52 MiB
      Arrays psit_nG: 142.38 MiB
      Eigensolver: 157.57 MiB
      Projections: 0.07 MiB
      Projectors: 3.49 MiB

Total number of cores used: 24
Parallelization over k-points: 8
Domain decomposition: 1 x 1 x 3

Number of atoms: 48
Number of atomic orbitals: 174
Number of bands in calculation: 48
Number of valence electrons: 72
Bands to converge: occupied

... initialized

Initializing position-dependent things.

Creating initial wave functions:
  48 bands from LCAO basis set

       .-----------------------.  
      /|                       |  
     / |                       |  
    /  |                       |  
   /   |                       |  
  /    |                       |  
 *     |                       |  
 |     |                       |  
 |     |                       |  
 |     |H                     O|  
 |     |                       |  
 |     |                HO H   |  
 |C  H |                       |  
 |     |       Li     HLi      |  
 |     |                CH     |  
 |   Li|     Li      Li        |  
 |     |                       |  
 | Li  |  LLi     LLi     Li   |  
 |     |             N N       |  
 |     |Li      Li      LLi    |  
 |   Li|     Li      LLi       |  
 |    Li  Li  Li  Li      Li   |  
 | Li  |   Li      Li          |  
 |     |Li      Li      Li     |  
 Li    | Li      Li            |  
 |    Li      Li      Li       |  
 |     |                       |  
 |     |                       |  
 |     |                       |  
 |     |                       |  
 |     |                       |  
 |     |                       |  
 |     .-----------------------.  
 |    /                       /   
 |   /                       /    
 |  /                       /     
 | /                       /      
 |/                       /       
 *-----------------------*        

Positions:
   0 Li     1.617037    1.617037   10.000000    ( 0.0000,  0.0000,  0.0000)
   1 Li     4.851111    1.617037   10.000000    ( 0.0000,  0.0000,  0.0000)
   2 Li     8.085185    1.617037   10.000000    ( 0.0000,  0.0000,  0.0000)
   3 Li     1.617037    4.851111   10.000000    ( 0.0000,  0.0000,  0.0000)
   4 Li     4.851111    4.851111   10.000000    ( 0.0000,  0.0000,  0.0000)
   5 Li     8.085185    4.851111   10.000000    ( 0.0000,  0.0000,  0.0000)
   6 Li     1.617037    8.085185   10.000000    ( 0.0000,  0.0000,  0.0000)
   7 Li     4.851111    8.085185   10.000000    ( 0.0000,  0.0000,  0.0000)
   8 Li     8.085185    8.085185   10.000000    ( 0.0000,  0.0000,  0.0000)
   9 Li     0.000000    0.000000   11.617037    ( 0.0000,  0.0000,  0.0000)
  10 Li     3.234074    0.000000   11.617037    ( 0.0000,  0.0000,  0.0000)
  11 Li     6.468148    0.000000   11.617037    ( 0.0000,  0.0000,  0.0000)
  12 Li     0.000000    3.234074   11.617037    ( 0.0000,  0.0000,  0.0000)
  13 Li     3.234074    3.234074   11.617037    ( 0.0000,  0.0000,  0.0000)
  14 Li     6.468148    3.234074   11.617037    ( 0.0000,  0.0000,  0.0000)
  15 Li     0.000000    6.468148   11.617037    ( 0.0000,  0.0000,  0.0000)
  16 Li     3.234074    6.468148   11.617037    ( 0.0000,  0.0000,  0.0000)
  17 Li     6.468148    6.468148   11.617037    ( 0.0000,  0.0000,  0.0000)
  18 Li     1.584892    1.641962   13.512229    ( 0.0000,  0.0000,  0.0000)
  19 Li     4.865968    1.561370   13.514980    ( 0.0000,  0.0000,  0.0000)
  20 Li     8.093131    1.609192   13.619857    ( 0.0000,  0.0000,  0.0000)
  21 Li     1.624144    4.897920   13.498137    ( 0.0000,  0.0000,  0.0000)
  22 Li     4.909853    4.787056   13.491206    ( 0.0000,  0.0000,  0.0000)
  23 Li     8.119849    4.850283   13.508317    ( 0.0000,  0.0000,  0.0000)
  24 Li     1.551706    8.167848   13.515632    ( 0.0000,  0.0000,  0.0000)
  25 Li     4.827555    8.040497   13.498941    ( 0.0000,  0.0000,  0.0000)
  26 Li     8.061364    8.108052   13.519525    ( 0.0000,  0.0000,  0.0000)
  27 Li    -0.226445    0.250365   15.698353    ( 0.0000,  0.0000,  0.0000)
  28 Li     3.099064   -0.053790   15.456256    ( 0.0000,  0.0000,  0.0000)
  29 Li     6.373470   -0.135406   15.540009    ( 0.0000,  0.0000,  0.0000)
  30 Li     0.119287    3.379979   15.498889    ( 0.0000,  0.0000,  0.0000)
  31 Li     3.365461    3.274891   15.426806    ( 0.0000,  0.0000,  0.0000)
  32 Li     6.708044    2.965498   15.605440    ( 0.0000,  0.0000,  0.0000)
  33 Li     0.046332    6.647562   15.468571    ( 0.0000,  0.0000,  0.0000)
  34 Li     3.222040    6.464045   15.452041    ( 0.0000,  0.0000,  0.0000)
  35 Li     6.414004    6.306454   15.444782    ( 0.0000,  0.0000,  0.0000)
  36 O      9.270406    9.651337   19.204679    ( 0.0000,  0.0000,  0.0000)
  37 O      9.288866   11.028129   21.846509    ( 0.0000,  0.0000,  0.0000)
  38 C      9.043921   11.062898   19.394367    ( 0.0000,  0.0000,  0.0000)
  39 C      9.752056   11.603567   20.627458    ( 0.0000,  0.0000,  0.0000)
  40 H      9.359584   11.631455   18.509170    ( 0.0000,  0.0000,  0.0000)
  41 H      7.962554   11.164915   19.504441    ( 0.0000,  0.0000,  0.0000)
  42 H      9.568175   12.677988   20.708700    ( 0.0000,  0.0000,  0.0000)
  43 H     10.838892   11.460692   20.512708    ( 0.0000,  0.0000,  0.0000)
  44 H     10.214715    9.517256   19.044385    ( 0.0000,  0.0000,  0.0000)
  45 H      9.292230   10.068812   21.736759    ( 0.0000,  0.0000,  0.0000)
  46 N      7.661080   10.877425   15.644346    ( 0.0000,  0.0000,  0.0000)
  47 N      8.542002   11.774957   15.653059    ( 0.0000,  0.0000,  0.0000)

Unit cell:
           periodic     x           y           z      points  spacing
  1. axis:    yes    9.702222    0.000000    0.000000    60     0.1617
  2. axis:    yes    0.000000    9.702222    0.000000    60     0.1617
  3. axis:    no     0.000000    0.000000   26.351111   164     0.1607

  Lengths:   9.702222   9.702222  26.351111
  Angles:   90.000000  90.000000  90.000000

Effective grid spacing dv^(1/3) = 0.1614

     iter     time        total  log10-change:
                         energy  eigst   dens
iter:   1 11:05:58  -327.211862  +1.09
iter:   2 11:08:42  -327.912661  +0.38  -1.76
iter:   3 11:11:36  -328.075218  -0.11  -2.06
iter:   4 11:14:21  -328.136559  -0.51  -2.32
iter:   5 11:17:04  -328.163263  -0.87  -2.58
iter:   6 11:19:52  -328.174551  -1.24  -2.72
iter:   7 11:22:45  -328.180921c -1.48  -2.93
iter:   8 11:25:38  -328.184613c -1.74  -3.22
iter:   9 11:28:22  -328.186876c -1.96  -3.27
iter:  10 11:31:13  -328.188465c -2.08  -3.16
iter:  11 11:33:55  -328.189389c -2.35  -3.14
iter:  12 11:36:43  -328.189923c -2.50  -3.06
iter:  13 11:39:25  -328.190293c -2.67  -3.15
iter:  14 11:42:04  -328.190601c -2.83  -3.23
iter:  15 11:44:43  -328.190805c -2.97  -3.20
iter:  16 11:47:31  -328.191010c -3.19  -3.19
iter:  17 11:50:20  -328.191084c -3.31  -3.05
iter:  18 11:53:01  -328.191286c -3.31  -3.06
iter:  19 11:55:46  -328.191163c -3.59  -2.93
iter:  20 11:58:30  -328.191165c -3.62  -3.13
iter:  21 12:01:16  -328.191176c -3.67  -3.22
iter:  22 12:04:02  -328.191199c -3.95  -3.41
iter:  23 12:06:41  -328.191202c -4.08  -3.45
iter:  24 12:09:24  -328.191205c -4.21  -3.57
iter:  25 12:12:01  -328.191205c -4.35  -3.72
iter:  26 12:14:37  -328.191205c -4.58  -3.78
iter:  27 12:17:16  -328.191195c -4.70  -3.81
iter:  28 12:19:57  -328.191197c -4.98  -3.97
iter:  29 12:22:37  -328.191201c -4.93  -4.06c
iter:  30 12:25:17  -328.191204c -5.15  -4.14c
iter:  31 12:27:57  -328.191212c -5.06  -4.27c
iter:  32 12:30:38  -328.191213c -5.39  -4.39c
iter:  33 12:33:12  -328.191213c -5.53  -4.46c
iter:  34 12:35:49  -328.191214c -5.48  -4.56c
iter:  35 12:38:25  -328.191215c -5.64  -4.61c
iter:  36 12:41:11  -328.191216c -5.85  -4.65c
iter:  37 12:43:51  -328.191218c -6.07  -4.68c
iter:  38 12:46:29  -328.191218c -6.24  -4.83c
iter:  39 12:49:16  -328.191218c -6.34  -4.95c
iter:  40 12:51:57  -328.191218c -6.50  -4.96c
iter:  41 12:54:38  -328.191217c -6.50  -5.06c
iter:  42 12:57:12  -328.191217c -6.63  -5.25c
iter:  43 12:59:50  -328.191218c -6.80  -5.29c
iter:  44 13:02:29  -328.191218c -7.00  -5.52c
iter:  45 13:05:13  -328.191218c -7.03  -5.58c
iter:  46 13:07:52  -328.191218c -7.06  -5.62c
iter:  47 13:10:33  -328.191218c -7.22  -5.63c
iter:  48 13:13:10  -328.191218c -7.22  -5.58c
iter:  49 13:15:53  -328.191218c -7.53c -5.55c

Converged after 49 iterations.

Dipole moment: (16.319666, -1.374434, -0.242924) |e|*Ang

Energy contributions relative to reference atoms: (reference = -16475.706344)

Kinetic:       +158.003192
Potential:     -150.731494
External:        +0.000000
XC:            -336.523057
Entropy (-ST):   -0.161421
Local:           +1.140851
--------------------------
Free energy:   -328.271929
Extrapolated:  -328.191218

Dipole-layer corrected work functions: 3.397306, 3.864289 eV

Showing only first 2 kpts
 Kpt  Band  Eigenvalues  Occupancy
  0    34     -3.85923    1.97947
  0    35     -3.66909    1.36529
  0    36     -3.60397    0.73802
  0    37     -3.42129    0.02984

  1    34     -3.87338    1.98449
  1    35     -3.77802    1.90000
  1    36     -3.57543    0.49676
  1    37     -3.38928    0.01584


Fermi level: -3.63080

No gap
