
  ___ ___ ___ _ _ _  
 |   |   |_  | | | | 
 | | | | | . | | | | 
 |__ |  _|___|_____|  22.8.0
 |___|_|             

User:   vazumah@r351.ib.bridges2.psc.edu
Date:   Fri Mar 10 12:22:51 2023
Arch:   x86_64
Pid:    52395
CWD:    /jet/home/vazumah/Calcs/LiMEAS/proton_donors/ethanediol_z/ontop/9.702_9.702/N2_y
Python: 3.11.0
gpaw:   /jet/home/vazumah/.conda/envs/GPAW_mpich/lib/python3.11/site-packages/gpaw
_gpaw:  /jet/home/vazumah/.conda/envs/GPAW_mpich/lib/python3.11/site-packages/
        _gpaw.cpython-311-x86_64-linux-gnu.so
ase:    /jet/home/vazumah/.conda/envs/GPAW_mpich/lib/python3.11/site-packages/ase (version 3.22.1)
numpy:  /jet/home/vazumah/.conda/envs/GPAW_mpich/lib/python3.11/site-packages/numpy (version 1.24.2)
scipy:  /jet/home/vazumah/.conda/envs/GPAW_mpich/lib/python3.11/site-packages/scipy (version 1.10.1)
libxc:  5.2.3
units:  Angstrom and eV
cores: 128
OpenMP: True
OMP_NUM_THREADS: 1

Input parameters:
  h: 0.16
  kpts: {size: [4, 4, 1]}
  occupations: {name: fermi-dirac,
                width: 0.05}
  poissonsolver: {dipolelayer: xy}
  xc: BEEF-vdW

System changes: positions, numbers, cell, pbc, initial_charges, initial_magmoms 

Initialize ...

species:
  Li:
    name: Lithium
    id: 830b4218f175192f93f959cfc0aad614
    Z: 3.0
    valence: 1
    core: 2
    charge: 0.0
    file: /jet/home/vazumah/datasets/gpaw-setups-0.9.20000/Li.PBE.gz
    compensation charges: {type: gauss,
                           rc: 0.33,
                           lmax: 2}
    cutoffs: {filter: 1.91,
              core: 2.55}
    valence states:
      #              energy  rcut
      - 2s(1.00)    -2.874   1.058
      - 2p(0.00)    -1.090   1.058
      -  s          24.337   1.058
  
    # Using partial waves for Li as LCAO basis

  O:
    name: Oxygen
    id: 32ecd46bf208036f09c70b0ec9a88b78
    Z: 8.0
    valence: 6
    core: 2
    charge: 0.0
    file: /jet/home/vazumah/datasets/gpaw-setups-0.9.20000/O.PBE.gz
    compensation charges: {type: gauss,
                           rc: 0.21,
                           lmax: 2}
    cutoffs: {filter: 1.17,
              core: 0.83}
    valence states:
      #              energy  rcut
      - 2s(2.00)   -23.961   0.688
      - 2p(4.00)    -9.029   0.598
      -  s           3.251   0.688
      -  p          18.182   0.598
      -  d           0.000   0.619
  
    # Using partial waves for O as LCAO basis

  C:
    name: Carbon
    id: 4aa54d4b901d75f77cc0ea3eec22967b
    Z: 6.0
    valence: 4
    core: 2
    charge: 0.0
    file: /jet/home/vazumah/datasets/gpaw-setups-0.9.20000/C.PBE.gz
    compensation charges: {type: gauss,
                           rc: 0.20,
                           lmax: 2}
    cutoffs: {filter: 1.14,
              core: 1.14}
    valence states:
      #              energy  rcut
      - 2s(2.00)   -13.751   0.635
      - 2p(2.00)    -5.284   0.635
      -  s          13.461   0.635
      -  p          21.927   0.635
      -  d           0.000   0.635
  
    # Using partial waves for C as LCAO basis

  H:
    name: Hydrogen
    id: d65de229564ff8ea4db303e23b6d1ecf
    Z: 1.0
    valence: 1
    core: 0
    charge: 0.0
    file: /jet/home/vazumah/datasets/gpaw-setups-0.9.20000/H.PBE.gz
    compensation charges: {type: gauss,
                           rc: 0.15,
                           lmax: 2}
    cutoffs: {filter: 0.85,
              core: 0.53}
    valence states:
      #              energy  rcut
      - 1s(1.00)    -6.494   0.476
      -  s          20.717   0.476
      -  p           0.000   0.476
  
    # Using partial waves for H as LCAO basis

  N:
    name: Nitrogen
    id: f7500608b86eaa90eef8b1d9a670dc53
    Z: 7.0
    valence: 5
    core: 2
    charge: 0.0
    file: /jet/home/vazumah/datasets/gpaw-setups-0.9.20000/N.PBE.gz
    compensation charges: {type: gauss,
                           rc: 0.18,
                           lmax: 2}
    cutoffs: {filter: 1.11,
              core: 0.96}
    valence states:
      #              energy  rcut
      - 2s(2.00)   -18.583   0.603
      - 2p(3.00)    -7.089   0.529
      -  s           8.629   0.603
      -  p          20.123   0.529
      -  d           0.000   0.577
  
    # Using partial waves for N as LCAO basis

Reference energy: -16475.706344  # eV

Spin-paired calculation

Convergence criteria:
 Maximum [total energy] change in last 3 cyles: 0.0005 eV / electron
 Maximum integral of absolute [dens]ity change: 0.0001 electrons / valence electron
 Maximum integral of absolute [eigenst]ate change: 4e-08 eV^2 / valence electron
 Maximum number of scf [iter]ations: 333
 (Square brackets indicate name in SCF output, whereas a 'c' in
 the SCF output indicates the quantity has converged.)

Symmetries present (total): 1

  ( 1  0  0)
  ( 0  1  0)
  ( 0  0  1)

16 k-points: 4 x 4 x 1 Monkhorst-Pack grid
8 k-points in the irreducible part of the Brillouin zone
       k-points in crystal coordinates                weights
   0:     0.12500000   -0.37500000    0.00000000          2/16
   1:     0.12500000   -0.12500000    0.00000000          2/16
   2:     0.12500000    0.12500000    0.00000000          2/16
   3:     0.12500000    0.37500000    0.00000000          2/16
   4:     0.37500000   -0.37500000    0.00000000          2/16
   5:     0.37500000   -0.12500000    0.00000000          2/16
   6:     0.37500000    0.12500000    0.00000000          2/16
   7:     0.37500000    0.37500000    0.00000000          2/16

Wave functions: Uniform real-space grid
  Kinetic energy operator: 6*3+1=19 point O(h^6) finite-difference Laplacian
  ScaLapack parameters: grid=1x1, blocksize=None
  Wavefunction extrapolation:
    Improved wavefunction reuse through dual PAW basis 

Occupation numbers: Fermi-Dirac:
  width: 0.0500  # eV
 

Eigensolver
   Davidson(niter=2) 

Densities:
  Coarse grid: 60*60*164 grid
  Fine grid: 120*120*328 grid
  Total Charge: 0.000000 

Density mixing:
  Method: separate
  Backend: pulay
  Linear mixing parameter: 0.05
  old densities: 5
  Damping of long wavelength oscillations: 50 

Hamiltonian:
  XC and Coulomb potentials evaluated on a 120*120*328 grid
  Using the BEEF-vdW Exchange-Correlation functional
  Interpolation: tri-quintic (5. degree polynomial)
  Poisson solver: FastPoissonSolver using
    Stencil: 6*3+1=19 point O(h^6) finite-difference Laplacian
    FFT axes: [0, 1]
    FST axes: [2]

Dipole correction along z-axis 

XC parameters: BEEF-vdW with 2 nearest neighbor stencil

Memory estimate:
  Process memory now: 134.51 MiB
  Calculator: 84.78 MiB
    Density: 22.56 MiB
      Arrays: 7.22 MiB
      Localized functions: 12.59 MiB
      Mixer: 2.75 MiB
    Hamiltonian: 5.72 MiB
      Arrays: 4.72 MiB
      XC: 0.00 MiB
      Poisson: 0.00 MiB
      vbar: 0.99 MiB
    Wavefunctions: 56.50 MiB
      Arrays psit_nG: 26.37 MiB
      Eigensolver: 29.47 MiB
      Projections: 0.01 MiB
      Projectors: 0.66 MiB

Total number of cores used: 128
Parallelization over k-points: 8
Domain decomposition: 2 x 2 x 4

Number of atoms: 48
Number of atomic orbitals: 174
Number of bands in calculation: 48
Number of valence electrons: 72
Bands to converge: occupied

... initialized

Initializing position-dependent things.

Density initialized from atomic densities
Creating initial wave functions:
  48 bands from LCAO basis set

       .-----------------------.  
      /|                       |  
     / |                       |  
    /  |                       |  
   /   |                       |  
  /    |                       |  
 *     |                       |  
 |     |                      H|  
 |     |                       |  
 |     |                       |  
 |     |                       |  
 |     |                  H    N  
 |C  H |                O      |  
 |     |                       |  
 |     |              H  CH    |  
 |   Li|     Li      Li        |  
 O H   |                       |  
 | Li  |  LLi     LLi     Ni   |  
 |     |                       |  
 Li    |LLi     LLi     Li     |  
 |   Li|     Li      Li        |  
 |    Li  Li  Li  Li  Li  Li   |  
 | Li  |   Li      Li          |  
 |     |Li      Li      Li     |  
 Li    | Li      Li            |  
 |    Li      Li      Li       |  
 |     |                       |  
 |     |                       |  
 |     |                       |  
 |     |                       |  
 |     |                       |  
 |     |                       |  
 |     .-----------------------.  
 |    /                       /   
 |   /                       /    
 |  /                       /     
 | /                       /      
 |/                       /       
 *-----------------------*        

Positions:
   0 Li     1.617037    1.617037   10.000000    ( 0.0000,  0.0000,  0.0000)
   1 Li     4.851111    1.617037   10.000000    ( 0.0000,  0.0000,  0.0000)
   2 Li     8.085185    1.617037   10.000000    ( 0.0000,  0.0000,  0.0000)
   3 Li     1.617037    4.851111   10.000000    ( 0.0000,  0.0000,  0.0000)
   4 Li     4.851111    4.851111   10.000000    ( 0.0000,  0.0000,  0.0000)
   5 Li     8.085185    4.851111   10.000000    ( 0.0000,  0.0000,  0.0000)
   6 Li     1.617037    8.085185   10.000000    ( 0.0000,  0.0000,  0.0000)
   7 Li     4.851111    8.085185   10.000000    ( 0.0000,  0.0000,  0.0000)
   8 Li     8.085185    8.085185   10.000000    ( 0.0000,  0.0000,  0.0000)
   9 Li     0.000000    0.000000   11.617037    ( 0.0000,  0.0000,  0.0000)
  10 Li     3.234074    0.000000   11.617037    ( 0.0000,  0.0000,  0.0000)
  11 Li     6.468148    0.000000   11.617037    ( 0.0000,  0.0000,  0.0000)
  12 Li     0.000000    3.234074   11.617037    ( 0.0000,  0.0000,  0.0000)
  13 Li     3.234074    3.234074   11.617037    ( 0.0000,  0.0000,  0.0000)
  14 Li     6.468148    3.234074   11.617037    ( 0.0000,  0.0000,  0.0000)
  15 Li     0.000000    6.468148   11.617037    ( 0.0000,  0.0000,  0.0000)
  16 Li     3.234074    6.468148   11.617037    ( 0.0000,  0.0000,  0.0000)
  17 Li     6.468148    6.468148   11.617037    ( 0.0000,  0.0000,  0.0000)
  18 Li     1.617038    1.617038   13.469728    ( 0.0000,  0.0000,  0.0000)
  19 Li     4.851111    1.617038   13.469729    ( 0.0000,  0.0000,  0.0000)
  20 Li     8.085184    1.617038   13.469728    ( 0.0000,  0.0000,  0.0000)
  21 Li     1.617038    4.851111   13.469729    ( 0.0000,  0.0000,  0.0000)
  22 Li     4.851111    4.851111   13.469730    ( 0.0000,  0.0000,  0.0000)
  23 Li     8.085184    4.851111   13.469729    ( 0.0000,  0.0000,  0.0000)
  24 Li     1.617038    8.085184   13.469728    ( 0.0000,  0.0000,  0.0000)
  25 Li     4.851111    8.085184   13.469729    ( 0.0000,  0.0000,  0.0000)
  26 Li     8.085184    8.085184   13.469728    ( 0.0000,  0.0000,  0.0000)
  27 Li    -0.000000   -0.000000   15.445939    ( 0.0000,  0.0000,  0.0000)
  28 Li     3.234074    0.000000   15.445939    ( 0.0000,  0.0000,  0.0000)
  29 Li     6.468148    0.000000   15.445939    ( 0.0000,  0.0000,  0.0000)
  30 Li     0.000000    3.234074   15.445939    ( 0.0000,  0.0000,  0.0000)
  31 Li     3.234076    3.234076   15.445938    ( 0.0000,  0.0000,  0.0000)
  32 Li     6.468146    3.234076   15.445938    ( 0.0000,  0.0000,  0.0000)
  33 Li     0.000000    6.468148   15.445939    ( 0.0000,  0.0000,  0.0000)
  34 Li     3.234076    6.468146   15.445938    ( 0.0000,  0.0000,  0.0000)
  35 Li     6.468146    6.468146   15.445938    ( 0.0000,  0.0000,  0.0000)
  36 O      9.702222    9.702222   18.445939    ( 0.0000,  0.0000,  0.0000)
  37 O      9.469533    9.746216   21.344137    ( 0.0000,  0.0000,  0.0000)
  38 C      9.289845   10.873434   19.174500    ( 0.0000,  0.0000,  0.0000)
  39 C      9.858996   10.887124   20.583686    ( 0.0000,  0.0000,  0.0000)
  40 H      9.582678   11.787824   18.646375    ( 0.0000,  0.0000,  0.0000)
  41 H      8.200278   10.826136   19.207249    ( 0.0000,  0.0000,  0.0000)
  42 H      9.482515   11.761390   21.120404    ( 0.0000,  0.0000,  0.0000)
  43 H     10.958056   10.962625   20.533956    ( 0.0000,  0.0000,  0.0000)
  44 H     10.649543    9.776737   18.276515    ( 0.0000,  0.0000,  0.0000)
  45 H      9.565972    8.979095   20.764672    ( 0.0000,  0.0000,  0.0000)
  46 N      9.702000    9.702000   16.945939    ( 0.0000,  0.0000,  0.0000)
  47 N      9.702000   10.798622   16.945939    ( 0.0000,  0.0000,  0.0000)

Unit cell:
           periodic     x           y           z      points  spacing
  1. axis:    yes    9.702222    0.000000    0.000000    60     0.1617
  2. axis:    yes    0.000000    9.702222    0.000000    60     0.1617
  3. axis:    no     0.000000    0.000000   26.351111   164     0.1607

  Lengths:   9.702222   9.702222  26.351111
  Angles:   90.000000  90.000000  90.000000

Effective grid spacing dv^(1/3) = 0.1614

     iter     time        total  log10-change:
                         energy  eigst   dens
iter:   1 12:23:06  -664.234804
iter:   2 12:23:13   -24.079726  +2.65  +0.02
iter:   3 12:23:21    36.028469  +3.24  -0.15
iter:   4 12:23:28  -172.142648  +3.22  -0.25
Writing to output.gpw (mode='')

iter:   5 12:23:35  -273.349155  +2.92  -0.28
iter:   6 12:23:42  -327.459639  +2.50  -0.52
iter:   7 12:23:50  -337.028797  +2.18  -0.54
iter:   8 12:23:57  -357.823256  +2.01  -0.54
iter:   9 12:24:04  -398.147866  +2.02  -0.49
Writing to output.gpw (mode='')

iter:  10 12:24:11  -352.959568  +1.59  -0.47
iter:  11 12:24:19  -347.828959  +1.25  -0.58
iter:  12 12:24:26  -336.575334  +1.19  -0.64
iter:  13 12:24:33  -335.048562  +1.24  -0.67
iter:  14 12:24:47  -328.634827  +0.79  -0.61
Writing to output.gpw (mode='')

iter:  15 12:24:55  -327.356788  +0.95  -0.72
iter:  16 12:25:04  -330.315198  +0.54  -0.77
iter:  17 12:25:12  -328.518279  +0.06  -0.72
iter:  18 12:25:19  -326.841275  -0.09  -0.72
iter:  19 12:25:26  -325.257658  -0.10  -0.79
Writing to output.gpw (mode='')

iter:  20 12:25:33  -321.380656  +0.73  -0.84
iter:  21 12:25:41  -320.639716  +0.37  -0.95
iter:  22 12:25:48  -320.289638  +0.41  -1.01
iter:  23 12:25:55  -319.750797  +0.08  -1.05
iter:  24 12:26:02  -319.215876  +0.25  -1.25
Writing to output.gpw (mode='')

iter:  25 12:26:10  -319.185780  -0.02  -1.28
iter:  26 12:26:17  -319.081269  -0.68  -1.33
iter:  27 12:26:24  -319.021460  -0.27  -1.40
iter:  28 12:26:31  -318.992931  -0.48  -1.52
iter:  29 12:26:38  -318.960708  -1.05  -1.69
Writing to output.gpw (mode='')

iter:  30 12:26:46  -318.906015  -1.10  -1.72
iter:  31 12:26:53  -318.914344  -1.21  -1.83
iter:  32 12:27:00  -318.914485c -1.47  -2.01
iter:  33 12:27:07  -318.917073c -1.75  -2.02
iter:  34 12:27:16  -318.914093c -1.63  -2.03
Writing to output.gpw (mode='')

iter:  35 12:27:26  -318.905119c -1.53  -2.07
iter:  36 12:27:35  -318.895147c -1.94  -2.11
iter:  37 12:27:44  -318.892638c -1.73  -2.33
iter:  38 12:27:51  -318.893445c -2.28  -2.43
iter:  39 12:27:58  -318.892978c -2.29  -2.41
Writing to output.gpw (mode='')

iter:  40 12:28:05  -318.892809c -2.26  -2.51
iter:  41 12:28:13  -318.892467c -2.30  -2.62
iter:  42 12:28:20  -318.892972c -2.52  -2.84
iter:  43 12:28:27  -318.893474c -2.57  -2.87
iter:  44 12:28:34  -318.893878c -2.57  -2.91
Writing to output.gpw (mode='')

iter:  45 12:28:42  -318.894095c -2.85  -2.95
iter:  46 12:28:49  -318.893975c -2.97  -3.01
iter:  47 12:28:56  -318.894094c -2.94  -3.13
iter:  48 12:29:04  -318.894260c -3.21  -3.23
iter:  49 12:29:11  -318.894395c -3.09  -3.30
Writing to output.gpw (mode='')

iter:  50 12:29:18  -318.894595c -3.10  -3.38
iter:  51 12:29:25  -318.894605c -3.48  -3.51
iter:  52 12:29:33  -318.894654c -3.57  -3.56
iter:  53 12:29:43  -318.894731c -3.56  -3.64
iter:  54 12:29:53  -318.894818c -3.44  -3.73
Writing to output.gpw (mode='')

iter:  55 12:30:01  -318.894865c -3.67  -3.77
iter:  56 12:30:08  -318.894924c -3.80  -3.78
iter:  57 12:30:15  -318.894953c -4.01  -3.92
iter:  58 12:30:22  -318.894966c -4.08  -4.04c
iter:  59 12:30:30  -318.894983c -4.00  -4.19c
Writing to output.gpw (mode='')

iter:  60 12:30:37  -318.895003c -4.15  -4.19c
iter:  61 12:30:44  -318.895028c -4.02  -4.23c
iter:  62 12:30:51  -318.895049c -4.15  -4.30c
iter:  63 12:30:59  -318.895059c -4.40  -4.37c
iter:  64 12:31:06  -318.895070c -4.51  -4.48c
Writing to output.gpw (mode='')

iter:  65 12:31:13  -318.895079c -4.50  -4.54c
iter:  66 12:31:21  -318.895087c -4.57  -4.68c
iter:  67 12:31:28  -318.895096c -4.54  -4.82c
iter:  68 12:31:35  -318.895102c -4.56  -4.81c
iter:  69 12:31:42  -318.895108c -4.65  -4.83c
Writing to output.gpw (mode='')

iter:  70 12:31:50  -318.895112c -4.71  -4.84c
iter:  71 12:31:57  -318.895117c -4.74  -4.78c
iter:  72 12:32:04  -318.895120c -4.92  -4.70c
iter:  73 12:32:11  -318.895123c -4.86  -4.73c
iter:  74 12:32:19  -318.895125c -4.98  -4.74c
Writing to output.gpw (mode='')

iter:  75 12:32:26  -318.895126c -4.92  -4.67c
iter:  76 12:32:33  -318.895127c -5.06  -4.66c
iter:  77 12:32:40  -318.895129c -5.21  -4.58c
iter:  78 12:32:48  -318.895132c -5.25  -4.52c
iter:  79 12:32:55  -318.895136c -5.19  -4.70c
Writing to output.gpw (mode='')

iter:  80 12:33:02  -318.895138c -5.19  -4.80c
iter:  81 12:33:09  -318.895139c -5.33  -4.84c
iter:  82 12:33:17  -318.895141c -5.33  -4.84c
iter:  83 12:33:24  -318.895141c -5.57  -4.91c
iter:  84 12:33:31  -318.895141c -5.62  -4.90c
Writing to output.gpw (mode='')

iter:  85 12:33:38  -318.895142c -5.70  -4.91c
iter:  86 12:33:46  -318.895143c -5.70  -5.05c
iter:  87 12:33:53  -318.895144c -5.77  -5.28c
iter:  88 12:34:00  -318.895144c -5.88  -5.33c
iter:  89 12:34:07  -318.895144c -5.82  -5.28c
Writing to output.gpw (mode='')

iter:  90 12:34:15  -318.895144c -5.83  -5.24c
iter:  91 12:34:22  -318.895145c -6.01  -5.24c
iter:  92 12:34:29  -318.895145c -6.05  -5.37c
iter:  93 12:34:36  -318.895145c -6.11  -5.43c
iter:  94 12:34:49  -318.895146c -6.12  -5.63c
Writing to output.gpw (mode='')

iter:  95 12:34:57  -318.895146c -6.01  -5.71c
iter:  96 12:35:04  -318.895146c -6.18  -5.74c
iter:  97 12:35:12  -318.895146c -6.25  -5.80c
iter:  98 12:35:19  -318.895146c -6.34  -5.80c
iter:  99 12:35:26  -318.895146c -6.41  -5.68c
Writing to output.gpw (mode='')

iter: 100 12:35:33  -318.895146c -6.46  -5.72c
iter: 101 12:35:41  -318.895146c -6.48  -5.64c
iter: 102 12:35:48  -318.895146c -6.55  -5.63c
iter: 103 12:35:55  -318.895146c -6.57  -5.57c
iter: 104 12:36:02  -318.895146c -6.59  -5.56c
Writing to output.gpw (mode='')

iter: 105 12:36:10  -318.895146c -6.64  -5.54c
iter: 106 12:36:17  -318.895146c -6.73  -5.51c
iter: 107 12:36:24  -318.895146c -6.80  -5.48c
iter: 108 12:36:31  -318.895146c -6.80  -5.41c
iter: 109 12:36:38  -318.895146c -6.88  -5.44c
Writing to output.gpw (mode='')

iter: 110 12:36:46  -318.895146c -6.97  -5.45c
iter: 111 12:36:53  -318.895147c -6.94  -5.41c
iter: 112 12:37:00  -318.895147c -7.05  -5.40c
iter: 113 12:37:07  -318.895147c -7.02  -5.32c
iter: 114 12:37:15  -318.895147c -7.08  -5.31c
Writing to output.gpw (mode='')

iter: 115 12:37:22  -318.895147c -7.20  -5.51c
iter: 116 12:37:29  -318.895147c -7.20  -5.57c
iter: 117 12:37:37  -318.895147c -7.21  -5.62c
iter: 118 12:37:44  -318.895147c -7.39  -5.75c
iter: 119 12:37:51  -318.895147c -7.36  -5.83c
Writing to output.gpw (mode='')

iter: 120 12:37:58  -318.895147c -7.49c -6.01c

Converged after 120 iterations.

Dipole moment: (1.050650, -22.801047, 0.151780) |e|*Ang

Energy contributions relative to reference atoms: (reference = -16475.706344)

Kinetic:       +204.295553
Potential:     -183.467876
External:        +0.000000
XC:            -340.782739
Entropy (-ST):   -0.153158
Local:           +1.136494
--------------------------
Free energy:   -318.971726
Extrapolated:  -318.895147

Dipole-layer corrected work functions: 3.369932, 3.078160 eV

Showing only first 2 kpts
 Kpt  Band  Eigenvalues  Occupancy
  0    34     -3.47613    1.98716
  0    35     -3.34381    1.83294
  0    36     -3.11636    0.20796
  0    37     -2.97942    0.01489

  1    34     -3.30216    1.65334
  1    35     -3.24525    1.20893
  1    36     -3.16116    0.44274
  1    37     -3.11876    0.21710


Fermi level: -3.22405

Gap: 0.036 eV
Transition (v -> c):
  (s=0, k=1, n=35, [0.12, -0.12, 0.00]) -> (s=0, k=4, n=36, [0.38, -0.38, 0.00])

Forces in eV/Ang:
  0 Li    0.01563    0.00417   -0.27900
  1 Li   -0.00182   -0.00221   -0.26563
  2 Li   -0.01357    0.00630   -0.27590
  3 Li   -0.00650    0.00708   -0.26655
  4 Li    0.00062   -0.00094   -0.28021
  5 Li    0.00544    0.00772   -0.26193
  6 Li    0.00373   -0.01381   -0.27780
  7 Li   -0.00138    0.00728   -0.26221
  8 Li   -0.00301   -0.01607   -0.27747
  9 Li    0.00030    0.00604    0.34827
 10 Li    0.01919   -0.00016    0.25385
 11 Li   -0.01938   -0.00001    0.26268
 12 Li   -0.00098    0.00200    0.27721
 13 Li    0.00480   -0.00070    0.26862
 14 Li   -0.00562    0.00494    0.26381
 15 Li   -0.00110   -0.00163    0.24761
 16 Li   -0.00625   -0.00274    0.26302
 17 Li    0.00813   -0.00946    0.25692
 18 Li    0.03354    0.00353   -0.07838
 19 Li    0.00188   -0.00798    0.07207
 20 Li   -0.03631    0.01260   -0.08549
 21 Li   -0.02392   -0.00936    0.06952
 22 Li    0.00213    0.01344   -0.00350
 23 Li    0.02377   -0.01332    0.07759
 24 Li    0.01521    0.00199   -0.01800
 25 Li   -0.00012   -0.00267    0.05504
 26 Li   -0.01370   -0.00165   -0.02314
 27 Li   -0.00402   -0.81694   -7.25169
 28 Li    0.14053   -0.01908   -0.08440
 29 Li   -0.11395   -0.02490   -0.06188
 30 Li    0.00877   -0.26785    0.18090
 31 Li    0.05331    0.03218   -0.01534
 32 Li   -0.05239    0.04874   -0.03781
 33 Li   -0.00021   -0.05020   -0.03334
 34 Li   -0.00029   -0.00320   -0.01571
 35 Li   -0.00098   -0.01360   -0.02116
 36 O     1.35431   -6.33413   13.06139
 37 O    -0.04773    0.05446    0.05540
 38 C    -0.94458    1.32168    1.15144
 39 C     0.26875   -0.59265   -0.12463
 40 H    -0.04440   -0.22145    0.32174
 41 H    -0.01743   -0.10207   -0.07257
 42 H    -0.03031    0.01719   -0.14524
 43 H    -0.05673    0.04401    0.00307
 44 H     0.86022   -0.35248    1.89256
 45 H     0.02236   -0.07138    0.08766
 46 N    -1.59606   -4.76855    0.26153
 47 N     0.19690   12.07992   -9.20690

System changes: positions 

Initializing position-dependent things.

Density initialized from wave functions
       .-----------------------.  
      /|                       |  
     / |                       |  
    /  |                       |  
   /   |                       |  
  /    |                       |  
 *     |                       |  
 |     |                      H|  
 |     |                       |  
 |     |                       |  
 |     O                       |  
 |     |                  H    N  
 |C  H |                O      |  
 |     |       Li      Li      Li 
 |     |              H  CH    |  
 |     |     Li      Li      Li|  
 | H   |                       |  
 |NLi  |  LLi     LLi     Li   |  
 |     |                       |  
 |     |Li      Li      Li     |  
 |   Li|     Li      Li        |  
 |    Li  Li  Li  Li  Li  Li   |  
 | Li  |   Li      Li          |  
 |     |Li      Li      Li     |  
 Li    | Li      Li            |  
 |    Li      Li      Li       |  
 |     |                       |  
 |     |                       |  
 |     |                       |  
 |     |                       |  
 |     |                       |  
 |     |                       |  
 |     .-----------------------.  
 |    /                       /   
 |   /                       /    
 |  /                       /     
 | /                       /      
 |/                       /       
 *-----------------------*        

Positions:
   0 Li     1.617037    1.617037   10.000000    ( 0.0000,  0.0000,  0.0000)
   1 Li     4.851111    1.617037   10.000000    ( 0.0000,  0.0000,  0.0000)
   2 Li     8.085185    1.617037   10.000000    ( 0.0000,  0.0000,  0.0000)
   3 Li     1.617037    4.851111   10.000000    ( 0.0000,  0.0000,  0.0000)
   4 Li     4.851111    4.851111   10.000000    ( 0.0000,  0.0000,  0.0000)
   5 Li     8.085185    4.851111   10.000000    ( 0.0000,  0.0000,  0.0000)
   6 Li     1.617037    8.085185   10.000000    ( 0.0000,  0.0000,  0.0000)
   7 Li     4.851111    8.085185   10.000000    ( 0.0000,  0.0000,  0.0000)
   8 Li     8.085185    8.085185   10.000000    ( 0.0000,  0.0000,  0.0000)
   9 Li     0.000000    0.000000   11.617037    ( 0.0000,  0.0000,  0.0000)
  10 Li     3.234074    0.000000   11.617037    ( 0.0000,  0.0000,  0.0000)
  11 Li     6.468148    0.000000   11.617037    ( 0.0000,  0.0000,  0.0000)
  12 Li     0.000000    3.234074   11.617037    ( 0.0000,  0.0000,  0.0000)
  13 Li     3.234074    3.234074   11.617037    ( 0.0000,  0.0000,  0.0000)
  14 Li     6.468148    3.234074   11.617037    ( 0.0000,  0.0000,  0.0000)
  15 Li     0.000000    6.468148   11.617037    ( 0.0000,  0.0000,  0.0000)
  16 Li     3.234074    6.468148   11.617037    ( 0.0000,  0.0000,  0.0000)
  17 Li     6.468148    6.468148   11.617037    ( 0.0000,  0.0000,  0.0000)
  18 Li     1.617126    1.617047   13.469521    ( 0.0000,  0.0000,  0.0000)
  19 Li     4.851116    1.617017   13.469919    ( 0.0000,  0.0000,  0.0000)
  20 Li     8.085088    1.617071   13.469503    ( 0.0000,  0.0000,  0.0000)
  21 Li     1.616975    4.851086   13.469913    ( 0.0000,  0.0000,  0.0000)
  22 Li     4.851117    4.851146   13.469721    ( 0.0000,  0.0000,  0.0000)
  23 Li     8.085246    4.851076   13.469934    ( 0.0000,  0.0000,  0.0000)
  24 Li     1.617078    8.085189   13.469680    ( 0.0000,  0.0000,  0.0000)
  25 Li     4.851111    8.085177   13.469874    ( 0.0000,  0.0000,  0.0000)
  26 Li     8.085148    8.085180   13.469667    ( 0.0000,  0.0000,  0.0000)
  27 Li    -0.000011   -0.002151   15.426843    ( 0.0000,  0.0000,  0.0000)
  28 Li     3.234444   -0.000050   15.445717    ( 0.0000,  0.0000,  0.0000)
  29 Li     6.467848   -0.000066   15.445776    ( 0.0000,  0.0000,  0.0000)
  30 Li     0.000023    3.233368   15.446415    ( 0.0000,  0.0000,  0.0000)
  31 Li     3.234217    3.234161   15.445898    ( 0.0000,  0.0000,  0.0000)
  32 Li     6.468008    3.234205   15.445838    ( 0.0000,  0.0000,  0.0000)
  33 Li    -0.000001    6.468016   15.445851    ( 0.0000,  0.0000,  0.0000)
  34 Li     3.234076    6.468137   15.445897    ( 0.0000,  0.0000,  0.0000)
  35 Li     6.468143    6.468110   15.445882    ( 0.0000,  0.0000,  0.0000)
  36 O      9.705788    9.685542   18.480335    ( 0.0000,  0.0000,  0.0000)
  37 O      9.469407    9.746359   21.344283    ( 0.0000,  0.0000,  0.0000)
  38 C      9.287357   10.876914   19.177532    ( 0.0000,  0.0000,  0.0000)
  39 C      9.859704   10.885563   20.583358    ( 0.0000,  0.0000,  0.0000)
  40 H      9.582561   11.787241   18.647222    ( 0.0000,  0.0000,  0.0000)
  41 H      8.200232   10.825867   19.207058    ( 0.0000,  0.0000,  0.0000)
  42 H      9.482435   11.761435   21.120022    ( 0.0000,  0.0000,  0.0000)
  43 H     10.957907   10.962741   20.533964    ( 0.0000,  0.0000,  0.0000)
  44 H     10.651808    9.775809   18.281499    ( 0.0000,  0.0000,  0.0000)
  45 H      9.566031    8.978907   20.764902    ( 0.0000,  0.0000,  0.0000)
  46 N      9.697797    9.689443   16.946628    ( 0.0000,  0.0000,  0.0000)
  47 N      9.702518   10.830432   16.921694    ( 0.0000,  0.0000,  0.0000)

Unit cell:
           periodic     x           y           z      points  spacing
  1. axis:    yes    9.702222    0.000000    0.000000    60     0.1617
  2. axis:    yes    0.000000    9.702222    0.000000    60     0.1617
  3. axis:    no     0.000000    0.000000   26.351111   164     0.1607

  Lengths:   9.702222   9.702222  26.351111
  Angles:   90.000000  90.000000  90.000000

Effective grid spacing dv^(1/3) = 0.1614

     iter     time        total  log10-change:
                         energy  eigst   dens
iter:   1 12:38:07  -321.169538  -0.26
iter:   2 12:38:14  -320.433555  -0.48  -1.33
iter:   3 12:38:22  -320.248924  -0.99  -1.36
iter:   4 12:38:29  -320.137032  -0.90  -1.58
Writing to output.gpw (mode='')

iter:   5 12:38:36  -320.121497  -1.51  -1.92
iter:   6 12:38:44  -320.141516c -1.41  -1.91
iter:   7 12:38:51  -320.118327c -1.30  -1.81
iter:   8 12:38:58  -320.108743c -2.12  -2.09
iter:   9 12:39:06  -320.084915c -2.31  -2.13
Writing to output.gpw (mode='')

iter:  10 12:39:13  -320.082326c -2.00  -2.30
iter:  11 12:39:20  -320.088218c -2.15  -2.26
iter:  12 12:39:28  -320.077402c -2.54  -2.36
iter:  13 12:39:35  -320.077555c -2.71  -2.74
iter:  14 12:39:47  -320.077281c -2.93  -2.70
Writing to output.gpw (mode='')

iter:  15 12:39:56  -320.077778c -3.30  -2.80
iter:  16 12:40:03  -320.077195c -3.35  -2.97
iter:  17 12:40:10  -320.077438c -3.53  -3.05
iter:  18 12:40:18  -320.077523c -3.91  -3.32
iter:  19 12:40:25  -320.077493c -4.15  -3.38
Writing to output.gpw (mode='')

iter:  20 12:40:33  -320.077549c -4.33  -3.52
iter:  21 12:40:40  -320.077510c -4.49  -3.56
iter:  22 12:40:47  -320.077473c -4.62  -3.70
iter:  23 12:40:55  -320.077492c -4.64  -3.82
iter:  24 12:41:04  -320.077524c -4.83  -3.93
Writing to output.gpw (mode='')

iter:  25 12:41:11  -320.077515c -5.01  -4.07c
iter:  26 12:41:19  -320.077514c -4.79  -4.14c
iter:  27 12:41:26  -320.077522c -5.20  -4.33c
iter:  28 12:41:33  -320.077524c -5.29  -4.44c
iter:  29 12:41:41  -320.077518c -5.50  -4.50c
Writing to output.gpw (mode='')

iter:  30 12:41:48  -320.077520c -5.70  -4.72c
iter:  31 12:41:55  -320.077520c -5.51  -4.76c
iter:  32 12:42:03  -320.077519c -5.77  -4.78c
iter:  33 12:42:10  -320.077518c -5.84  -4.81c
iter:  34 12:42:17  -320.077520c -5.97  -4.88c
Writing to output.gpw (mode='')

iter:  35 12:42:25  -320.077520c -6.21  -4.95c
iter:  36 12:42:32  -320.077520c -6.24  -4.97c
iter:  37 12:42:39  -320.077518c -6.30  -5.04c
iter:  38 12:42:47  -320.077519c -6.41  -5.17c
iter:  39 12:42:54  -320.077519c -6.38  -5.28c
Writing to output.gpw (mode='')

iter:  40 12:43:01  -320.077519c -6.34  -5.34c
iter:  41 12:43:09  -320.077519c -6.51  -5.47c
iter:  42 12:43:16  -320.077519c -6.79  -5.47c
iter:  43 12:43:23  -320.077518c -6.82  -5.36c
iter:  44 12:43:31  -320.077519c -6.84  -5.51c
Writing to output.gpw (mode='')

iter:  45 12:43:38  -320.077518c -6.90  -5.62c
iter:  46 12:43:45  -320.077518c -6.85  -5.76c
iter:  47 12:43:53  -320.077518c -6.98  -5.74c
iter:  48 12:44:00  -320.077518c -7.11  -5.72c
iter:  49 12:44:07  -320.077518c -7.31  -5.71c
Writing to output.gpw (mode='')

iter:  50 12:44:15  -320.077518c -7.36  -5.60c
iter:  51 12:44:22  -320.077518c -7.31  -5.59c
iter:  52 12:44:29  -320.077518c -7.26  -5.63c
iter:  53 12:44:37  -320.077518c -7.37  -5.59c
iter:  54 12:44:49  -320.077518c -7.52c -5.55c

Converged after 54 iterations.

Dipole moment: (1.007109, -19.951761, 0.122134) |e|*Ang

Energy contributions relative to reference atoms: (reference = -16475.706344)

Kinetic:       +193.995478
Potential:     -175.967017
External:        +0.000000
XC:            -339.165115
Entropy (-ST):   -0.154333
Local:           +1.136302
--------------------------
Free energy:   -320.154685
Extrapolated:  -320.077518

Dipole-layer corrected work functions: 3.373330, 3.138548 eV

Showing only first 2 kpts
 Kpt  Band  Eigenvalues  Occupancy
  0    34     -3.50730    1.98697
  0    35     -3.37371    1.82672
  0    36     -3.16447    0.27661
  0    37     -3.00946    0.01435

  1    34     -3.34434    1.70842
  1    35     -3.27233    1.16249
  1    36     -3.18009    0.35984
  1    37     -3.14510    0.19651


Fermi level: -3.25594

Gap: 0.034 eV
Transition (v -> c):
  (s=0, k=1, n=35, [0.12, -0.12, 0.00]) -> (s=0, k=7, n=36, [0.38, 0.38, 0.00])
Writing to output.gpw (mode='')


Forces in eV/Ang:
  0 Li    0.01581    0.00478   -0.28070
  1 Li   -0.00173   -0.00223   -0.26469
  2 Li   -0.01384    0.00673   -0.27789
  3 Li   -0.00638    0.00752   -0.26641
  4 Li    0.00034   -0.00078   -0.28179
  5 Li    0.00555    0.00796   -0.26150
  6 Li    0.00420   -0.01502   -0.27978
  7 Li   -0.00149    0.00702   -0.26182
  8 Li   -0.00335   -0.01687   -0.27974
  9 Li    0.00039    0.00592    0.35519
 10 Li    0.01757    0.00013    0.25584
 11 Li   -0.01781    0.00022    0.26499
 12 Li   -0.00096    0.00274    0.27919
 13 Li    0.00639   -0.00039    0.26884
 14 Li   -0.00729    0.00430    0.26420
 15 Li   -0.00092   -0.00193    0.24713
 16 Li   -0.00541   -0.00323    0.26178
 17 Li    0.00715   -0.00921    0.25701
 18 Li    0.03682    0.00821   -0.09009
 19 Li    0.00154   -0.00956    0.07490
 20 Li   -0.03901    0.01733   -0.09622
 21 Li   -0.02479   -0.00837    0.06923
 22 Li    0.00256    0.01247   -0.00298
 23 Li    0.02447   -0.01210    0.07682
 24 Li    0.01907   -0.00447   -0.03074
 25 Li   -0.00055    0.00094    0.05850
 26 Li   -0.01728   -0.00823   -0.03700
 27 Li    0.00286   -0.74205   -6.53717
 28 Li    0.12867   -0.01722   -0.07659
 29 Li   -0.09937   -0.02267   -0.04698
 30 Li    0.00824   -0.32258    0.22914
 31 Li    0.05342    0.03416   -0.01525
 32 Li   -0.05175    0.04931   -0.03571
 33 Li   -0.00005   -0.04483   -0.02856
 34 Li    0.00315   -0.00605   -0.01843
 35 Li   -0.00469   -0.01592   -0.02248
 36 O     1.39258   -4.85469   10.51747
 37 O    -0.04393    0.01847    0.04874
 38 C    -0.75115    1.01139    1.13854
 39 C     0.16161   -0.37834   -0.01450
 40 H    -0.00744   -0.24111    0.24082
 41 H    -0.09127   -0.08858   -0.04971
 42 H     0.00640   -0.02187   -0.12867
 43 H    -0.03589    0.03326   -0.01033
 44 H     0.58001   -0.31245    1.77656
 45 H     0.01802   -0.05807    0.09884
 46 N    -1.46430   -0.17344    0.36954
 47 N     0.18842    6.22363   -7.49356

System changes: positions 

Initializing position-dependent things.

Density initialized from wave functions
       .-----------------------.  
      /|                       |  
     / |                       |  
    /  |                       |  
   /   |                       |  
  /    |                       |  
 *     |                       |  
 |     |                      H|  
 |     |                       |  
 |     |                       |  
 |     O                       |  
 |     |                  H    |  
 |C  H |                O      |  
 |     Li      Li      Li      |  
 |     |              H  CH    |  
 |     |     Li      Li      Li|  
 | H   |                       |  
 |NLi  |  LLi     LLi    NLi   |  
 |     |                       |  
 |     |Li      Li      Li     |  
 |   Li|     Li      Li        |  
 |    Li  Li  Li  Li  Li  Li   |  
 | Li  |   Li      Li          |  
 |     |Li      Li      Li     |  
 Li    | Li      Li            |  
 |    Li      Li      Li       |  
 |     |                       |  
 |     |                       |  
 |     |                       |  
 |     |                       |  
 |     |                       |  
 |     |                       |  
 |     .-----------------------.  
 |    /                       /   
 |   /                       /    
 |  /                       /     
 | /                       /      
 |/                       /       
 *-----------------------*        

Positions:
   0 Li     1.617037    1.617037   10.000000    ( 0.0000,  0.0000,  0.0000)
   1 Li     4.851111    1.617037   10.000000    ( 0.0000,  0.0000,  0.0000)
   2 Li     8.085185    1.617037   10.000000    ( 0.0000,  0.0000,  0.0000)
   3 Li     1.617037    4.851111   10.000000    ( 0.0000,  0.0000,  0.0000)
   4 Li     4.851111    4.851111   10.000000    ( 0.0000,  0.0000,  0.0000)
   5 Li     8.085185    4.851111   10.000000    ( 0.0000,  0.0000,  0.0000)
   6 Li     1.617037    8.085185   10.000000    ( 0.0000,  0.0000,  0.0000)
   7 Li     4.851111    8.085185   10.000000    ( 0.0000,  0.0000,  0.0000)
   8 Li     8.085185    8.085185   10.000000    ( 0.0000,  0.0000,  0.0000)
   9 Li     0.000000    0.000000   11.617037    ( 0.0000,  0.0000,  0.0000)
  10 Li     3.234074    0.000000   11.617037    ( 0.0000,  0.0000,  0.0000)
  11 Li     6.468148    0.000000   11.617037    ( 0.0000,  0.0000,  0.0000)
  12 Li     0.000000    3.234074   11.617037    ( 0.0000,  0.0000,  0.0000)
  13 Li     3.234074    3.234074   11.617037    ( 0.0000,  0.0000,  0.0000)
  14 Li     6.468148    3.234074   11.617037    ( 0.0000,  0.0000,  0.0000)
  15 Li     0.000000    6.468148   11.617037    ( 0.0000,  0.0000,  0.0000)
  16 Li     3.234074    6.468148   11.617037    ( 0.0000,  0.0000,  0.0000)
  17 Li     6.468148    6.468148   11.617037    ( 0.0000,  0.0000,  0.0000)
  18 Li     1.617294    1.617098   13.469099    ( 0.0000,  0.0000,  0.0000)
  19 Li     4.851121    1.616971   13.470248    ( 0.0000,  0.0000,  0.0000)
  20 Li     8.084913    1.617161   13.469057    ( 0.0000,  0.0000,  0.0000)
  21 Li     1.616867    4.851054   13.470206    ( 0.0000,  0.0000,  0.0000)
  22 Li     4.851129    4.851196   13.469710    ( 0.0000,  0.0000,  0.0000)
  23 Li     8.085353    4.851028   13.470258    ( 0.0000,  0.0000,  0.0000)
  24 Li     1.617172    8.085148   13.469507    ( 0.0000,  0.0000,  0.0000)
  25 Li     4.851107    8.085193   13.470135    ( 0.0000,  0.0000,  0.0000)
  26 Li     8.085062    8.085123   13.469463    ( 0.0000,  0.0000,  0.0000)
  27 Li     0.000025   -0.005061   15.401397    ( 0.0000,  0.0000,  0.0000)
  28 Li     3.234952   -0.000117   15.445417    ( 0.0000,  0.0000,  0.0000)
  29 Li     6.467474   -0.000155   15.445626    ( 0.0000,  0.0000,  0.0000)
  30 Li     0.000056    3.231812   15.447552    ( 0.0000,  0.0000,  0.0000)
  31 Li     3.234445    3.234313   15.445833    ( 0.0000,  0.0000,  0.0000)
  32 Li     6.467789    3.234417   15.445693    ( 0.0000,  0.0000,  0.0000)
  33 Li    -0.000000    6.467843   15.445745    ( 0.0000,  0.0000,  0.0000)
  34 Li     3.234101    6.468102   15.445809    ( 0.0000,  0.0000,  0.0000)
  35 Li     6.468111    6.468034   15.445782    ( 0.0000,  0.0000,  0.0000)
  36 O      9.711846    9.669818   18.516612    ( 0.0000,  0.0000,  0.0000)
  37 O      9.469233    9.746317   21.344469    ( 0.0000,  0.0000,  0.0000)
  38 C      9.284806   10.880183   19.182337    ( 0.0000,  0.0000,  0.0000)
  39 C      9.860034   10.884669   20.583664    ( 0.0000,  0.0000,  0.0000)
  40 H      9.582653   11.786149   18.647977    ( 0.0000,  0.0000,  0.0000)
  41 H      8.199597   10.825535   19.206923    ( 0.0000,  0.0000,  0.0000)
  42 H      9.482585   11.761211   21.119529    ( 0.0000,  0.0000,  0.0000)
  43 H     10.957824   10.962847   20.533875    ( 0.0000,  0.0000,  0.0000)
  44 H     10.653341    9.774612   18.288675    ( 0.0000,  0.0000,  0.0000)
  45 H      9.566093    8.978705   20.765361    ( 0.0000,  0.0000,  0.0000)
  46 N      9.692003    9.704070   16.948563    ( 0.0000,  0.0000,  0.0000)
  47 N      9.703292   10.837350   16.895516    ( 0.0000,  0.0000,  0.0000)

Unit cell:
           periodic     x           y           z      points  spacing
  1. axis:    yes    9.702222    0.000000    0.000000    60     0.1617
  2. axis:    yes    0.000000    9.702222    0.000000    60     0.1617
  3. axis:    no     0.000000    0.000000   26.351111   164     0.1607

  Lengths:   9.702222   9.702222  26.351111
  Angles:   90.000000  90.000000  90.000000

Effective grid spacing dv^(1/3) = 0.1614

     iter     time        total  log10-change:
                         energy  eigst   dens
iter:   1 12:44:59  -320.972105  -0.84
iter:   2 12:45:06  -320.942141  -1.20  -1.86
iter:   3 12:45:13  -320.930553  -1.65  -1.88
iter:   4 12:45:20  -320.914430c -1.54  -2.09
Writing to output.gpw (mode='')

iter:   5 12:45:28  -320.939597c -1.70  -2.28
iter:   6 12:45:35  -320.941608c -2.05  -2.14
iter:   7 12:45:42  -320.911384c -1.78  -2.10
iter:   8 12:45:50  -320.911737c -2.49  -2.62
iter:   9 12:45:57  -320.912168c -2.91  -2.60
Writing to output.gpw (mode='')

iter:  10 12:46:04  -320.911168c -2.95  -2.68
iter:  11 12:46:11  -320.912346c -2.28  -2.81
iter:  12 12:46:19  -320.911473c -2.34  -2.64
iter:  13 12:46:26  -320.911200c -3.36  -3.04
iter:  14 12:46:33  -320.911172c -3.45  -3.14
Writing to output.gpw (mode='')

iter:  15 12:46:41  -320.911155c -3.75  -3.19
iter:  16 12:46:48  -320.911213c -3.40  -3.26
iter:  17 12:46:55  -320.911168c -3.97  -3.30
iter:  18 12:47:02  -320.911085c -4.32  -3.41
iter:  19 12:47:10  -320.911095c -4.55  -3.65
Writing to output.gpw (mode='')

iter:  20 12:47:17  -320.911117c -4.49  -3.68
iter:  21 12:47:24  -320.911111c -4.62  -3.86
iter:  22 12:47:32  -320.911116c -5.09  -3.87
iter:  23 12:47:39  -320.911126c -4.97  -3.98
iter:  24 12:47:46  -320.911120c -5.35  -4.10c
Writing to output.gpw (mode='')

iter:  25 12:47:53  -320.911128c -5.36  -4.20c
iter:  26 12:48:01  -320.911125c -5.39  -4.22c
iter:  27 12:48:08  -320.911126c -5.82  -4.39c
iter:  28 12:48:15  -320.911130c -5.75  -4.41c
iter:  29 12:48:22  -320.911129c -5.87  -4.60c
Writing to output.gpw (mode='')

iter:  30 12:48:30  -320.911128c -6.05  -4.53c
iter:  31 12:48:37  -320.911130c -6.17  -4.59c
iter:  32 12:48:44  -320.911131c -6.12  -4.61c
iter:  33 12:48:52  -320.911129c -6.22  -4.83c
iter:  34 12:48:59  -320.911130c -6.51  -4.84c
Writing to output.gpw (mode='')

iter:  35 12:49:06  -320.911131c -6.46  -4.85c
iter:  36 12:49:13  -320.911130c -6.53  -4.90c
iter:  37 12:49:21  -320.911132c -6.72  -4.94c
iter:  38 12:49:28  -320.911131c -6.80  -5.10c
iter:  39 12:49:35  -320.911131c -7.08  -5.33c
Writing to output.gpw (mode='')

iter:  40 12:49:47  -320.911131c -7.01  -5.44c
iter:  41 12:49:55  -320.911131c -7.13  -5.55c
iter:  42 12:50:03  -320.911132c -7.10  -5.65c
iter:  43 12:50:10  -320.911132c -7.15  -5.75c
iter:  44 12:50:17  -320.911132c -7.50c -5.82c

Converged after 44 iterations.

Dipole moment: (0.959162, -20.017746, 0.115600) |e|*Ang

Energy contributions relative to reference atoms: (reference = -16475.706344)

Kinetic:       +191.798378
Potential:     -174.937407
External:        +0.000000
XC:            -338.828388
Entropy (-ST):   -0.153034
Local:           +1.132802
--------------------------
Free energy:   -320.987649
Extrapolated:  -320.911132

Dipole-layer corrected work functions: 3.372972, 3.150749 eV

Showing only first 2 kpts
 Kpt  Band  Eigenvalues  Occupancy
  0    34     -3.51476    1.98736
  0    35     -3.38488    1.84263
  0    36     -3.16313    0.24377
  0    37     -3.01561    0.01442

  1    34     -3.34738    1.69377
  1    35     -3.27887    1.16847
  1    36     -3.18717    0.36672
  1    37     -3.15592    0.21455


Fermi level: -3.26186

Gap: 0.032 eV
Transition (v -> c):
  (s=0, k=1, n=35, [0.12, -0.12, 0.00]) -> (s=0, k=7, n=36, [0.38, 0.38, 0.00])
Writing to output.gpw (mode='')


Forces in eV/Ang:
  0 Li    0.01611    0.00464   -0.28098
  1 Li   -0.00175   -0.00237   -0.26408
  2 Li   -0.01415    0.00680   -0.27831
  3 Li   -0.00656    0.00754   -0.26550
  4 Li    0.00037   -0.00091   -0.28232
  5 Li    0.00569    0.00788   -0.26079
  6 Li    0.00415   -0.01494   -0.28017
  7 Li   -0.00158    0.00742   -0.26157
  8 Li   -0.00327   -0.01682   -0.28001
  9 Li    0.00039    0.00648    0.35896
 10 Li    0.01801   -0.00023    0.25534
 11 Li   -0.01820   -0.00007    0.26455
 12 Li   -0.00097    0.00300    0.27933
 13 Li    0.00762    0.00036    0.26752
 14 Li   -0.00851    0.00488    0.26313
 15 Li   -0.00092   -0.00244    0.24684
 16 Li   -0.00530   -0.00357    0.26146
 17 Li    0.00717   -0.00964    0.25686
 18 Li    0.04203    0.01267   -0.09549
 19 Li    0.00150   -0.00948    0.07434
 20 Li   -0.04363    0.02137   -0.10126
 21 Li   -0.02443   -0.00973    0.07040
 22 Li    0.00236    0.01249   -0.00380
 23 Li    0.02424   -0.01321    0.07788
 24 Li    0.02207   -0.00781   -0.03405
 25 Li   -0.00004    0.00039    0.05868
 26 Li   -0.02073   -0.01185   -0.04176
 27 Li    0.01942   -0.79679   -5.82111
 28 Li    0.13075   -0.01750   -0.07967
 29 Li   -0.10292   -0.02204   -0.04986
 30 Li    0.00802   -0.29778    0.21266
 31 Li    0.05305    0.03381   -0.01780
 32 Li   -0.05108    0.04880   -0.03685
 33 Li    0.00055   -0.04752   -0.02841
 34 Li    0.00236   -0.00533   -0.01781
 35 Li   -0.00472   -0.01566   -0.02233
 36 O     1.27405   -3.64075    9.00359
 37 O    -0.04546    0.01934    0.03467
 38 C    -0.49318    0.61118    1.14090
 39 C     0.07627   -0.16028    0.13501
 40 H     0.03404   -0.24340    0.15962
 41 H    -0.14890   -0.08342   -0.03257
 42 H     0.03354   -0.02914   -0.07744
 43 H    -0.03240    0.02470   -0.02395
 44 H     0.43934   -0.33952    1.72720
 45 H     0.01885   -0.05325    0.09698
 46 N    -1.34345   -0.64291   -0.28253
 47 N     0.10749    5.65832   -5.96655

System changes: positions 

Initializing position-dependent things.

Density initialized from wave functions
       .-----------------------.  
      /|                       |  
     / |                       |  
    /  |                       |  
   /   |                       |  
  /    |                       |  
 *     |                       |  
 |     |                      H|  
 |     |                       |  
 |     O                       |  
 |     |                       |  
 |     |                  H    |  
 |C  H |                O      |  
 |     Li      Li      Li      |  
 |     |              H  CH    |  
 |   Li|     Li      Li        |  
 | H   |                       |  
 |NLi  |  LLi     LLi    NLi   |  
 |     |                       |  
 |     |Li      Li      Li     |  
 |   Li|     Li      Li        |  
 |    Li  Li  Li  Li  Li  Li   |  
 | Li  |   Li      Li          |  
 |     |Li      Li      Li     |  
 Li    | Li      Li            |  
 |    Li      Li      Li       |  
 |     |                       |  
 |     |                       |  
 |     |                       |  
 |     |                       |  
 |     |                       |  
 |     |                       |  
 |     .-----------------------.  
 |    /                       /   
 |   /                       /    
 |  /                       /     
 | /                       /      
 |/                       /       
 *-----------------------*        

Positions:
   0 Li     1.617037    1.617037   10.000000    ( 0.0000,  0.0000,  0.0000)
   1 Li     4.851111    1.617037   10.000000    ( 0.0000,  0.0000,  0.0000)
   2 Li     8.085185    1.617037   10.000000    ( 0.0000,  0.0000,  0.0000)
   3 Li     1.617037    4.851111   10.000000    ( 0.0000,  0.0000,  0.0000)
   4 Li     4.851111    4.851111   10.000000    ( 0.0000,  0.0000,  0.0000)
   5 Li     8.085185    4.851111   10.000000    ( 0.0000,  0.0000,  0.0000)
   6 Li     1.617037    8.085185   10.000000    ( 0.0000,  0.0000,  0.0000)
   7 Li     4.851111    8.085185   10.000000    ( 0.0000,  0.0000,  0.0000)
   8 Li     8.085185    8.085185   10.000000    ( 0.0000,  0.0000,  0.0000)
   9 Li     0.000000    0.000000   11.617037    ( 0.0000,  0.0000,  0.0000)
  10 Li     3.234074    0.000000   11.617037    ( 0.0000,  0.0000,  0.0000)
  11 Li     6.468148    0.000000   11.617037    ( 0.0000,  0.0000,  0.0000)
  12 Li     0.000000    3.234074   11.617037    ( 0.0000,  0.0000,  0.0000)
  13 Li     3.234074    3.234074   11.617037    ( 0.0000,  0.0000,  0.0000)
  14 Li     6.468148    3.234074   11.617037    ( 0.0000,  0.0000,  0.0000)
  15 Li     0.000000    6.468148   11.617037    ( 0.0000,  0.0000,  0.0000)
  16 Li     3.234074    6.468148   11.617037    ( 0.0000,  0.0000,  0.0000)
  17 Li     6.468148    6.468148   11.617037    ( 0.0000,  0.0000,  0.0000)
  18 Li     1.617635    1.617239   13.468360    ( 0.0000,  0.0000,  0.0000)
  19 Li     4.851130    1.616901   13.470758    ( 0.0000,  0.0000,  0.0000)
  20 Li     8.084569    1.617358   13.468286    ( 0.0000,  0.0000,  0.0000)
  21 Li     1.616701    4.850981   13.470692    ( 0.0000,  0.0000,  0.0000)
  22 Li     4.851145    4.851277   13.469680    ( 0.0000,  0.0000,  0.0000)
  23 Li     8.085518    4.850935   13.470792    ( 0.0000,  0.0000,  0.0000)
  24 Li     1.617362    8.085042   13.469197    ( 0.0000,  0.0000,  0.0000)
  25 Li     4.851109    8.085206   13.470548    ( 0.0000,  0.0000,  0.0000)
  26 Li     8.084879    8.084986   13.469085    ( 0.0000,  0.0000,  0.0000)
  27 Li     0.000319   -0.010599   15.370720    ( 0.0000,  0.0000,  0.0000)
  28 Li     3.235806   -0.000231   15.444884    ( 0.0000,  0.0000,  0.0000)
  29 Li     6.466807   -0.000290   15.445325    ( 0.0000,  0.0000,  0.0000)
  30 Li     0.000107    3.229773   15.449056    ( 0.0000,  0.0000,  0.0000)
  31 Li     3.234802    3.234548   15.445692    ( 0.0000,  0.0000,  0.0000)
  32 Li     6.467451    3.234746   15.445443    ( 0.0000,  0.0000,  0.0000)
  33 Li     0.000009    6.467521   15.445574    ( 0.0000,  0.0000,  0.0000)
  34 Li     3.234124    6.468060   15.445682    ( 0.0000,  0.0000,  0.0000)
  35 Li     6.468063    6.467921   15.445627    ( 0.0000,  0.0000,  0.0000)
  36 O      9.719668    9.661104   18.554860    ( 0.0000,  0.0000,  0.0000)
  37 O      9.468928    9.746308   21.344561    ( 0.0000,  0.0000,  0.0000)
  38 C      9.284359   10.879791   19.190034    ( 0.0000,  0.0000,  0.0000)
  39 C      9.859416   10.886239   20.586249    ( 0.0000,  0.0000,  0.0000)
  40 H      9.583373   11.784401   18.648065    ( 0.0000,  0.0000,  0.0000)
  41 H      8.197816   10.825067   19.206936    ( 0.0000,  0.0000,  0.0000)
  42 H      9.483184   11.760795   21.119490    ( 0.0000,  0.0000,  0.0000)
  43 H     10.957718   10.962901   20.533547    ( 0.0000,  0.0000,  0.0000)
  44 H     10.654024    9.772255   18.299501    ( 0.0000,  0.0000,  0.0000)
  45 H      9.566210    8.978438   20.766048    ( 0.0000,  0.0000,  0.0000)
  46 N      9.684425    9.714685   16.941772    ( 0.0000,  0.0000,  0.0000)
  47 N      9.703326   10.847117   16.874554    ( 0.0000,  0.0000,  0.0000)

Unit cell:
           periodic     x           y           z      points  spacing
  1. axis:    yes    9.702222    0.000000    0.000000    60     0.1617
  2. axis:    yes    0.000000    9.702222    0.000000    60     0.1617
  3. axis:    no     0.000000    0.000000   26.351111   164     0.1607

  Lengths:   9.702222   9.702222  26.351111
  Angles:   90.000000  90.000000  90.000000

Effective grid spacing dv^(1/3) = 0.1614

     iter     time        total  log10-change:
                         energy  eigst   dens
iter:   1 12:50:26  -321.649287  -0.89
iter:   2 12:50:33  -321.649814  -1.43  -2.17
iter:   3 12:50:41  -321.649060c -1.82  -2.20
iter:   4 12:50:48  -321.644329c -1.87  -2.35
Writing to output.gpw (mode='')

iter:   5 12:50:55  -321.644783c -2.11  -2.51
iter:   6 12:51:03  -321.644430c -2.42  -2.49
iter:   7 12:51:10  -321.642600c -2.74  -2.51
iter:   8 12:51:17  -321.642080c -2.36  -2.62
iter:   9 12:51:25  -321.641544c -3.04  -2.75
Writing to output.gpw (mode='')

iter:  10 12:51:32  -321.641649c -3.36  -2.90
iter:  11 12:51:40  -321.641690c -3.23  -2.88
iter:  12 12:51:47  -321.641698c -3.50  -2.91
iter:  13 12:51:54  -321.641424c -3.59  -2.92
iter:  14 12:52:01  -321.641471c -3.54  -3.04
Writing to output.gpw (mode='')

iter:  15 12:52:09  -321.641447c -3.78  -3.12
iter:  16 12:52:16  -321.641593c -3.82  -3.23
iter:  17 12:52:23  -321.641514c -3.78  -3.24
iter:  18 12:52:31  -321.641412c -4.24  -3.33
iter:  19 12:52:38  -321.641410c -4.44  -3.34
Writing to output.gpw (mode='')

iter:  20 12:52:45  -321.641514c -4.32  -3.50
iter:  21 12:52:53  -321.641489c -4.92  -3.67
iter:  22 12:53:00  -321.641486c -4.82  -3.76
iter:  23 12:53:07  -321.641489c -5.42  -4.15c
iter:  24 12:53:15  -321.641493c -5.17  -4.20c
Writing to output.gpw (mode='')

iter:  25 12:53:22  -321.641492c -5.43  -4.24c
iter:  26 12:53:29  -321.641502c -5.63  -4.31c
iter:  27 12:53:37  -321.641501c -5.85  -4.35c
iter:  28 12:53:44  -321.641501c -5.89  -4.49c
iter:  29 12:53:51  -321.641499c -5.89  -4.51c
Writing to output.gpw (mode='')

iter:  30 12:53:59  -321.641502c -6.20  -4.59c
iter:  31 12:54:06  -321.641501c -6.35  -4.76c
iter:  32 12:54:13  -321.641502c -6.14  -4.82c
iter:  33 12:54:21  -321.641502c -6.39  -4.68c
iter:  34 12:54:28  -321.641502c -6.66  -4.95c
Writing to output.gpw (mode='')

iter:  35 12:54:35  -321.641502c -6.74  -5.15c
iter:  36 12:54:47  -321.641502c -6.58  -5.19c
iter:  37 12:54:56  -321.641502c -6.96  -5.26c
iter:  38 12:55:03  -321.641502c -6.89  -5.34c
iter:  39 12:55:10  -321.641502c -7.09  -5.39c
Writing to output.gpw (mode='')

iter:  40 12:55:18  -321.641502c -7.12  -5.46c
iter:  41 12:55:25  -321.641502c -7.22  -5.56c
iter:  42 12:55:32  -321.641502c -7.47c -5.67c

Converged after 42 iterations.

Dipole moment: (1.073759, -20.202934, 0.090533) |e|*Ang

Energy contributions relative to reference atoms: (reference = -16475.706344)

Kinetic:       +189.378301
Potential:     -173.610420
External:        +0.000000
XC:            -338.465398
Entropy (-ST):   -0.152337
Local:           +1.132184
--------------------------
Free energy:   -321.717671
Extrapolated:  -321.641502

Dipole-layer corrected work functions: 3.374176, 3.200142 eV

Showing only first 2 kpts
 Kpt  Band  Eigenvalues  Occupancy
  0    34     -3.54155    1.98773
  0    35     -3.41545    1.85725
  0    36     -3.18513    0.23003
  0    37     -3.04078    0.01438

  1    34     -3.37155    1.68788
  1    35     -3.30312    1.15827
  1    36     -3.21022    0.35345
  1    37     -3.18582    0.23283


Fermi level: -3.28716

Gap: 0.030 eV
Transition (v -> c):
  (s=0, k=1, n=35, [0.12, -0.12, 0.00]) -> (s=0, k=7, n=36, [0.38, 0.38, 0.00])
Writing to output.gpw (mode='')


Forces in eV/Ang:
  0 Li    0.01655    0.00455   -0.28161
  1 Li   -0.00175   -0.00243   -0.26373
  2 Li   -0.01459    0.00691   -0.27924
  3 Li   -0.00678    0.00772   -0.26468
  4 Li    0.00033   -0.00121   -0.28331
  5 Li    0.00596    0.00788   -0.26016
  6 Li    0.00409   -0.01514   -0.28090
  7 Li   -0.00171    0.00795   -0.26107
  8 Li   -0.00309   -0.01694   -0.28072
  9 Li    0.00037    0.00669    0.36336
 10 Li    0.01818   -0.00045    0.25517
 11 Li   -0.01826   -0.00022    0.26462
 12 Li   -0.00094    0.00386    0.27900
 13 Li    0.00890    0.00118    0.26620
 14 Li   -0.00977    0.00528    0.26226
 15 Li   -0.00088   -0.00293    0.24692
 16 Li   -0.00448   -0.00414    0.26050
 17 Li    0.00639   -0.01014    0.25651
 18 Li    0.04588    0.01771   -0.10061
 19 Li    0.00144   -0.00963    0.07405
 20 Li   -0.04674    0.02598   -0.10628
 21 Li   -0.02388   -0.01071    0.07089
 22 Li    0.00213    0.01255   -0.00398
 23 Li    0.02379   -0.01388    0.07812
 24 Li    0.02689   -0.01283   -0.03964
 25 Li    0.00045    0.00030    0.05876
 26 Li   -0.02601   -0.01721   -0.04928
 27 Li    0.03819   -0.79921   -5.20852
 28 Li    0.12823   -0.01813   -0.08065
 29 Li   -0.10169   -0.02173   -0.04904
 30 Li    0.00786   -0.28125    0.20374
 31 Li    0.05295    0.03397   -0.02055
 32 Li   -0.05078    0.04861   -0.03732
 33 Li    0.00134   -0.04801   -0.02646
 34 Li    0.00156   -0.00445   -0.01777
 35 Li   -0.00497   -0.01520   -0.02241
 36 O     1.10239   -2.82935    7.64211
 37 O    -0.05191    0.03987    0.07331
 38 C    -0.36951    0.45601    1.03291
 39 C     0.07910   -0.09100    0.23911
 40 H     0.04493   -0.30987    0.16013
 41 H    -0.11559   -0.08529   -0.00291
 42 H     0.01940    0.04219    0.02708
 43 H    -0.04951    0.02783   -0.02019
 44 H     0.35116   -0.32506    1.61548
 45 H     0.02550   -0.03543    0.07661
 46 N    -1.17986   -0.44131   -0.60628
 47 N     0.05296    4.72636   -4.93863

System changes: positions 

Initializing position-dependent things.

Density initialized from wave functions
       .-----------------------.  
      /|                       |  
     / |                       |  
    /  |                       |  
   /   |                       |  
  /    |                       |  
 *     |                       |  
 |     |                      H|  
 |     |                       |  
 |     O                       |  
 |     |                       |  
 |     |                  H    |  
 |C  H |                O      |  
 |     Li      Li      Li      |  
 |     |              H  CH    |  
 |   Li|     Li      Li        |  
 | H   |                       |  
 |NLi  |  LLi     LLi    NLi   |  
 |     |                       |  
 |     |Li      Li      Li     |  
 |   Li|     Li      Li        |  
 |    Li  Li  Li  Li  Li  Li   |  
 | Li  |   Li      Li          |  
 |     |Li      Li      Li     |  
 Li    | Li      Li            |  
 |    Li      Li      Li       |  
 |     |                       |  
 |     |                       |  
 |     |                       |  
 |     |                       |  
 |     |                       |  
 |     |                       |  
 |     .-----------------------.  
 |    /                       /   
 |   /                       /    
 |  /                       /     
 | /                       /      
 |/                       /       
 *-----------------------*        

Positions:
   0 Li     1.617037    1.617037   10.000000    ( 0.0000,  0.0000,  0.0000)
   1 Li     4.851111    1.617037   10.000000    ( 0.0000,  0.0000,  0.0000)
   2 Li     8.085185    1.617037   10.000000    ( 0.0000,  0.0000,  0.0000)
   3 Li     1.617037    4.851111   10.000000    ( 0.0000,  0.0000,  0.0000)
   4 Li     4.851111    4.851111   10.000000    ( 0.0000,  0.0000,  0.0000)
   5 Li     8.085185    4.851111   10.000000    ( 0.0000,  0.0000,  0.0000)
   6 Li     1.617037    8.085185   10.000000    ( 0.0000,  0.0000,  0.0000)
   7 Li     4.851111    8.085185   10.000000    ( 0.0000,  0.0000,  0.0000)
   8 Li     8.085185    8.085185   10.000000    ( 0.0000,  0.0000,  0.0000)
   9 Li     0.000000    0.000000   11.617037    ( 0.0000,  0.0000,  0.0000)
  10 Li     3.234074    0.000000   11.617037    ( 0.0000,  0.0000,  0.0000)
  11 Li     6.468148    0.000000   11.617037    ( 0.0000,  0.0000,  0.0000)
  12 Li     0.000000    3.234074   11.617037    ( 0.0000,  0.0000,  0.0000)
  13 Li     3.234074    3.234074   11.617037    ( 0.0000,  0.0000,  0.0000)
  14 Li     6.468148    3.234074   11.617037    ( 0.0000,  0.0000,  0.0000)
  15 Li     0.000000    6.468148   11.617037    ( 0.0000,  0.0000,  0.0000)
  16 Li     3.234074    6.468148   11.617037    ( 0.0000,  0.0000,  0.0000)
  17 Li     6.468148    6.468148   11.617037    ( 0.0000,  0.0000,  0.0000)
  18 Li     1.618131    1.617487   13.467323    ( 0.0000,  0.0000,  0.0000)
  19 Li     4.851141    1.616807   13.471436    ( 0.0000,  0.0000,  0.0000)
  20 Li     8.084077    1.617675   13.467205    ( 0.0000,  0.0000,  0.0000)
  21 Li     1.616487    4.850870   13.471348    ( 0.0000,  0.0000,  0.0000)
  22 Li     4.851163    4.851388   13.469638    ( 0.0000,  0.0000,  0.0000)
  23 Li     8.085732    4.850800   13.471509    ( 0.0000,  0.0000,  0.0000)
  24 Li     1.617678    8.084840   13.468724    ( 0.0000,  0.0000,  0.0000)
  25 Li     4.851119    8.085217   13.471098    ( 0.0000,  0.0000,  0.0000)
  26 Li     8.084566    8.084739   13.468495    ( 0.0000,  0.0000,  0.0000)
  27 Li     0.000949   -0.018008   15.335764    ( 0.0000,  0.0000,  0.0000)
  28 Li     3.236925   -0.000395   15.444150    ( 0.0000,  0.0000,  0.0000)
  29 Li     6.465920   -0.000472   15.444921    ( 0.0000,  0.0000,  0.0000)
  30 Li     0.000173    3.227307   15.450908    ( 0.0000,  0.0000,  0.0000)
  31 Li     3.235280    3.234863   15.445467    ( 0.0000,  0.0000,  0.0000)
  32 Li     6.466999    3.235185   15.445100    ( 0.0000,  0.0000,  0.0000)
  33 Li     0.000032    6.467082   15.445366    ( 0.0000,  0.0000,  0.0000)
  34 Li     3.234140    6.468020   15.445515    ( 0.0000,  0.0000,  0.0000)
  35 Li     6.468002    6.467779   15.445418    ( 0.0000,  0.0000,  0.0000)
  36 O      9.727749    9.655857   18.593682    ( 0.0000,  0.0000,  0.0000)
  37 O      9.468414    9.746683   21.345367    ( 0.0000,  0.0000,  0.0000)
  38 C      9.284546   10.878653   19.198640    ( 0.0000,  0.0000,  0.0000)
  39 C      9.859102   10.888358   20.590699    ( 0.0000,  0.0000,  0.0000)
  40 H      9.584312   11.781025   18.648604    ( 0.0000,  0.0000,  0.0000)
  41 H      8.196281   10.824369   19.207333    ( 0.0000,  0.0000,  0.0000)
  42 H      9.483606   11.761473   21.120916    ( 0.0000,  0.0000,  0.0000)
  43 H     10.957254   10.963070   20.533236    ( 0.0000,  0.0000,  0.0000)
  44 H     10.654467    9.769350   18.312594    ( 0.0000,  0.0000,  0.0000)
  45 H      9.566478    8.978327   20.766631    ( 0.0000,  0.0000,  0.0000)
  46 N      9.676254    9.726213   16.929508    ( 0.0000,  0.0000,  0.0000)
  47 N      9.702785   10.856826   16.854891    ( 0.0000,  0.0000,  0.0000)

Unit cell:
           periodic     x           y           z      points  spacing
  1. axis:    yes    9.702222    0.000000    0.000000    60     0.1617
  2. axis:    yes    0.000000    9.702222    0.000000    60     0.1617
  3. axis:    no     0.000000    0.000000   26.351111   164     0.1607

  Lengths:   9.702222   9.702222  26.351111
  Angles:   90.000000  90.000000  90.000000

Effective grid spacing dv^(1/3) = 0.1614

     iter     time        total  log10-change:
                         energy  eigst   dens
iter:   1 12:55:41  -322.301801  -0.85
iter:   2 12:55:49  -322.301624  -1.41  -2.14
iter:   3 12:55:56  -322.300371c -1.80  -2.18
iter:   4 12:56:03  -322.294733c -1.83  -2.31
Writing to output.gpw (mode='')

iter:   5 12:56:11  -322.295677c -2.13  -2.47
iter:   6 12:56:18  -322.294977c -2.40  -2.45
iter:   7 12:56:25  -322.292574c -2.64  -2.48
iter:   8 12:56:32  -322.292257c -2.42  -2.62
iter:   9 12:56:40  -322.291804c -3.04  -2.75
Writing to output.gpw (mode='')

iter:  10 12:56:47  -322.291931c -3.35  -2.90
iter:  11 12:56:57  -322.291914c -2.98  -2.87
iter:  12 12:57:05  -322.292415c -2.96  -2.95
iter:  13 12:57:12  -322.292180c -3.28  -2.84
iter:  14 12:57:22  -322.291833c -3.21  -3.03
Writing to output.gpw (mode='')

iter:  15 12:57:32  -322.291823c -3.49  -3.13
iter:  16 12:57:41  -322.291732c -3.73  -3.24
iter:  17 12:57:49  -322.291793c -3.88  -3.44
iter:  18 12:57:56  -322.291780c -4.22  -3.52
iter:  19 12:58:03  -322.291776c -4.39  -3.62
Writing to output.gpw (mode='')

iter:  20 12:58:11  -322.291770c -4.28  -3.73
iter:  21 12:58:18  -322.291778c -4.64  -3.74
iter:  22 12:58:25  -322.291785c -4.90  -3.75
iter:  23 12:58:32  -322.291789c -4.80  -3.89
iter:  24 12:58:40  -322.291790c -5.01  -4.15c
Writing to output.gpw (mode='')

iter:  25 12:58:47  -322.291795c -5.29  -4.20c
iter:  26 12:58:54  -322.291795c -5.40  -4.23c
iter:  27 12:59:01  -322.291796c -5.43  -4.31c
iter:  28 12:59:09  -322.291797c -5.64  -4.50c
iter:  29 12:59:16  -322.291799c -5.52  -4.46c
Writing to output.gpw (mode='')

iter:  30 12:59:23  -322.291804c -5.73  -4.42c
iter:  31 12:59:31  -322.291804c -6.00  -4.61c
iter:  32 12:59:38  -322.291804c -5.86  -4.62c
iter:  33 12:59:51  -322.291801c -6.08  -4.72c
iter:  34 12:59:58  -322.291800c -6.34  -4.86c
Writing to output.gpw (mode='')

iter:  35 13:00:05  -322.291801c -6.53  -5.00c
iter:  36 13:00:12  -322.291802c -6.34  -5.12c
iter:  37 13:00:20  -322.291803c -6.31  -5.30c
iter:  38 13:00:27  -322.291803c -6.43  -5.44c
iter:  39 13:00:34  -322.291803c -6.72  -5.50c
Writing to output.gpw (mode='')

iter:  40 13:00:41  -322.291803c -6.85  -5.57c
iter:  41 13:00:49  -322.291803c -6.86  -5.63c
iter:  42 13:00:56  -322.291803c -6.97  -5.66c
iter:  43 13:01:03  -322.291804c -7.11  -5.67c
iter:  44 13:01:11  -322.291804c -7.21  -5.82c
Writing to output.gpw (mode='')

iter:  45 13:01:18  -322.291804c -7.39  -5.91c
iter:  46 13:01:25  -322.291804c -7.49c -5.95c

Converged after 46 iterations.

Dipole moment: (1.319727, -20.733676, 0.057999) |e|*Ang

Energy contributions relative to reference atoms: (reference = -16475.706344)

Kinetic:       +187.472846
Potential:     -172.618931
External:        +0.000000
XC:            -338.200066
Entropy (-ST):   -0.151732
Local:           +1.130213
--------------------------
Free energy:   -322.367669
Extrapolated:  -322.291804

Dipole-layer corrected work functions: 3.375690, 3.264196 eV

Showing only first 2 kpts
 Kpt  Band  Eigenvalues  Occupancy
  0    34     -3.57609    1.98815
  0    35     -3.45424    1.87238
  0    36     -3.21437    0.21599
  0    37     -3.07354    0.01438

  1    34     -3.40301    1.68084
  1    35     -3.33446    1.14417
  1    36     -3.24052    0.33923
  1    37     -3.22358    0.25410


Fermi level: -3.31994

Gap: 0.026 eV
Transition (v -> c):
  (s=0, k=1, n=35, [0.12, -0.12, 0.00]) -> (s=0, k=4, n=36, [0.38, -0.38, 0.00])
Writing to output.gpw (mode='')


Forces in eV/Ang:
  0 Li    0.01700    0.00442   -0.28232
  1 Li   -0.00180   -0.00245   -0.26352
  2 Li   -0.01503    0.00698   -0.28025
  3 Li   -0.00709    0.00795   -0.26379
  4 Li    0.00030   -0.00161   -0.28444
  5 Li    0.00634    0.00797   -0.25950
  6 Li    0.00390   -0.01537   -0.28168
  7 Li   -0.00183    0.00859   -0.26040
  8 Li   -0.00277   -0.01711   -0.28149
  9 Li    0.00034    0.00680    0.36776
 10 Li    0.01835   -0.00064    0.25517
 11 Li   -0.01827   -0.00034    0.26487
 12 Li   -0.00091    0.00500    0.27841
 13 Li    0.01025    0.00207    0.26489
 14 Li   -0.01105    0.00575    0.26142
 15 Li   -0.00085   -0.00336    0.24723
 16 Li   -0.00328   -0.00488    0.25928
 17 Li    0.00521   -0.01084    0.25596
 18 Li    0.04921    0.02326   -0.10497
 19 Li    0.00148   -0.00968    0.07335
 20 Li   -0.04930    0.03103   -0.11077
 21 Li   -0.02311   -0.01169    0.07101
 22 Li    0.00185    0.01271   -0.00395
 23 Li    0.02313   -0.01462    0.07799
 24 Li    0.03309   -0.01910   -0.04628
 25 Li    0.00098    0.00002    0.05835
 26 Li   -0.03265   -0.02373   -0.05775
 27 Li    0.05584   -0.78168   -4.65102
 28 Li    0.12465   -0.01897   -0.08118
 29 Li   -0.09957   -0.02182   -0.04792
 30 Li    0.00792   -0.26442    0.19386
 31 Li    0.05294    0.03416   -0.02332
 32 Li   -0.05078    0.04862   -0.03776
 33 Li    0.00214   -0.04796   -0.02411
 34 Li    0.00041   -0.00325   -0.01776
 35 Li   -0.00491   -0.01442   -0.02246
 36 O     1.00056   -2.31720    6.38760
 37 O    -0.05464    0.03253    0.10973
 38 C    -0.28574    0.37189    0.93063
 39 C     0.05541   -0.01934    0.32153
 40 H     0.05668   -0.34374    0.16822
 41 H    -0.07330   -0.08445    0.03226
 42 H     0.00967    0.10365    0.12879
 43 H    -0.04845    0.03379   -0.00630
 44 H     0.26196   -0.29713    1.48255
 45 H     0.03008    0.01182    0.07355
 46 N    -1.02609   -0.39205   -0.71345
 47 N     0.00325    4.00702   -4.14066

System changes: positions 

Initializing position-dependent things.

Density initialized from wave functions
       .-----------------------.  
      /|                       |  
     / |                       |  
    /  |                       |  
   /   |                       |  
  /    |                       |  
 *     |                       |  
 |     |                      H|  
 |     |                       |  
 |     O                       |  
 |     |                       |  
 |     |                  H    |  
 |C  H |                O      |  
 |     Li      Li      Li      |  
 |     |              H  CH    |  
 |   Li|     Li      Li        |  
 | H   |                       |  
 | Li  |  LLi     LLi    NNi   |  
 |     |                       |  
 |     |Li      Li      Li     |  
 |   Li|     Li      Li        |  
 |    Li  Li  Li  Li  Li  Li   |  
 | Li  |   Li      Li          |  
 |     |Li      Li      Li     |  
 Li    | Li      Li            |  
 |    Li      Li      Li       |  
 |     |                       |  
 |     |                       |  
 |     |                       |  
 |     |                       |  
 |     |                       |  
 |     |                       |  
 |     .-----------------------.  
 |    /                       /   
 |   /                       /    
 |  /                       /     
 | /                       /      
 |/                       /       
 *-----------------------*        

Positions:
   0 Li     1.617037    1.617037   10.000000    ( 0.0000,  0.0000,  0.0000)
   1 Li     4.851111    1.617037   10.000000    ( 0.0000,  0.0000,  0.0000)
   2 Li     8.085185    1.617037   10.000000    ( 0.0000,  0.0000,  0.0000)
   3 Li     1.617037    4.851111   10.000000    ( 0.0000,  0.0000,  0.0000)
   4 Li     4.851111    4.851111   10.000000    ( 0.0000,  0.0000,  0.0000)
   5 Li     8.085185    4.851111   10.000000    ( 0.0000,  0.0000,  0.0000)
   6 Li     1.617037    8.085185   10.000000    ( 0.0000,  0.0000,  0.0000)
   7 Li     4.851111    8.085185   10.000000    ( 0.0000,  0.0000,  0.0000)
   8 Li     8.085185    8.085185   10.000000    ( 0.0000,  0.0000,  0.0000)
   9 Li     0.000000    0.000000   11.617037    ( 0.0000,  0.0000,  0.0000)
  10 Li     3.234074    0.000000   11.617037    ( 0.0000,  0.0000,  0.0000)
  11 Li     6.468148    0.000000   11.617037    ( 0.0000,  0.0000,  0.0000)
  12 Li     0.000000    3.234074   11.617037    ( 0.0000,  0.0000,  0.0000)
  13 Li     3.234074    3.234074   11.617037    ( 0.0000,  0.0000,  0.0000)
  14 Li     6.468148    3.234074   11.617037    ( 0.0000,  0.0000,  0.0000)
  15 Li     0.000000    6.468148   11.617037    ( 0.0000,  0.0000,  0.0000)
  16 Li     3.234074    6.468148   11.617037    ( 0.0000,  0.0000,  0.0000)
  17 Li     6.468148    6.468148   11.617037    ( 0.0000,  0.0000,  0.0000)
  18 Li     1.618792    1.617868   13.465971    ( 0.0000,  0.0000,  0.0000)
  19 Li     4.851156    1.616689   13.472285    ( 0.0000,  0.0000,  0.0000)
  20 Li     8.083430    1.618137   13.465792    ( 0.0000,  0.0000,  0.0000)
  21 Li     1.616227    4.850718   13.472179    ( 0.0000,  0.0000,  0.0000)
  22 Li     4.851181    4.851532   13.469588    ( 0.0000,  0.0000,  0.0000)
  23 Li     8.085994    4.850620   13.472415    ( 0.0000,  0.0000,  0.0000)
  24 Li     1.618160    8.084506   13.468046    ( 0.0000,  0.0000,  0.0000)
  25 Li     4.851138    8.085226   13.471785    ( 0.0000,  0.0000,  0.0000)
  26 Li     8.084082    8.084345   13.467647    ( 0.0000,  0.0000,  0.0000)
  27 Li     0.001954   -0.027073   15.296818    ( 0.0000,  0.0000,  0.0000)
  28 Li     3.238300   -0.000617   15.443211    ( 0.0000,  0.0000,  0.0000)
  29 Li     6.464819   -0.000709   15.444415    ( 0.0000,  0.0000,  0.0000)
  30 Li     0.000261    3.224415   15.453105    ( 0.0000,  0.0000,  0.0000)
  31 Li     3.235889    3.235264   15.445147    ( 0.0000,  0.0000,  0.0000)
  32 Li     6.466422    3.235744   15.444658    ( 0.0000,  0.0000,  0.0000)
  33 Li     0.000071    6.466526   15.445132    ( 0.0000,  0.0000,  0.0000)
  34 Li     3.234141    6.467989   15.445304    ( 0.0000,  0.0000,  0.0000)
  35 Li     6.467929    6.467612   15.445154    ( 0.0000,  0.0000,  0.0000)
  36 O      9.736940    9.651493   18.631432    ( 0.0000,  0.0000,  0.0000)
  37 O      9.467729    9.747029   21.346950    ( 0.0000,  0.0000,  0.0000)
  38 C      9.285089   10.877422   19.208121    ( 0.0000,  0.0000,  0.0000)
  39 C      9.858620   10.891345   20.597021    ( 0.0000,  0.0000,  0.0000)
  40 H      9.585538   11.776345   18.649698    ( 0.0000,  0.0000,  0.0000)
  41 H      8.195173   10.823473   19.208292    ( 0.0000,  0.0000,  0.0000)
  42 H      9.483910   11.763255   21.124047    ( 0.0000,  0.0000,  0.0000)
  43 H     10.956689   10.963408   20.533109    ( 0.0000,  0.0000,  0.0000)
  44 H     10.654371    9.766113   18.327508    ( 0.0000,  0.0000,  0.0000)
  45 H      9.566882    8.978905   20.767358    ( 0.0000,  0.0000,  0.0000)
  46 N      9.667641    9.737530   16.914283    ( 0.0000,  0.0000,  0.0000)
  47 N      9.701594   10.866750   16.835487    ( 0.0000,  0.0000,  0.0000)

Unit cell:
           periodic     x           y           z      points  spacing
  1. axis:    yes    9.702222    0.000000    0.000000    60     0.1617
  2. axis:    yes    0.000000    9.702222    0.000000    60     0.1617
  3. axis:    no     0.000000    0.000000   26.351111   164     0.1607

  Lengths:   9.702222   9.702222  26.351111
  Angles:   90.000000  90.000000  90.000000

Effective grid spacing dv^(1/3) = 0.1614

     iter     time        total  log10-change:
                         energy  eigst   dens
iter:   1 13:01:34  -322.876119  -0.85
iter:   2 13:01:41  -322.877143  -1.47  -2.18
iter:   3 13:01:49  -322.876269c -1.86  -2.23
iter:   4 13:01:56  -322.870864c -1.86  -2.32
Writing to output.gpw (mode='')

iter:   5 13:02:03  -322.871499c -2.23  -2.46
iter:   6 13:02:11  -322.871070c -2.43  -2.51
iter:   7 13:02:18  -322.869139c -2.68  -2.54
iter:   8 13:02:25  -322.869253c -2.56  -2.71
iter:   9 13:02:33  -322.869022c -3.02  -2.80
Writing to output.gpw (mode='')

iter:  10 13:02:40  -322.869051c -3.31  -2.98
iter:  11 13:02:47  -322.869023c -3.22  -3.08
iter:  12 13:02:55  -322.869063c -3.29  -3.26
iter:  13 13:03:02  -322.869023c -3.64  -3.21
iter:  14 13:03:10  -322.869025c -4.05  -3.34
Writing to output.gpw (mode='')

iter:  15 13:03:17  -322.869012c -3.93  -3.39
iter:  16 13:03:24  -322.869051c -4.03  -3.57
iter:  17 13:03:31  -322.869040c -4.30  -3.62
iter:  18 13:03:39  -322.869045c -4.39  -3.71
iter:  19 13:03:46  -322.869045c -4.49  -3.71
Writing to output.gpw (mode='')

iter:  20 13:03:53  -322.869055c -4.76  -3.81
iter:  21 13:04:01  -322.869057c -5.18  -3.93
iter:  22 13:04:08  -322.869069c -4.96  -3.98
iter:  23 13:04:15  -322.869063c -5.03  -4.06c
iter:  24 13:04:23  -322.869065c -5.57  -4.13c
Writing to output.gpw (mode='')

iter:  25 13:04:30  -322.869060c -5.40  -4.20c
iter:  26 13:04:37  -322.869062c -5.59  -4.35c
iter:  27 13:04:51  -322.869063c -5.55  -4.44c
iter:  28 13:04:59  -322.869068c -5.85  -4.55c
iter:  29 13:05:06  -322.869070c -5.71  -4.65c
Writing to output.gpw (mode='')

iter:  30 13:05:13  -322.869068c -6.02  -4.73c
iter:  31 13:05:21  -322.869068c -6.00  -4.76c
iter:  32 13:05:28  -322.869068c -6.19  -4.82c
iter:  33 13:05:35  -322.869070c -6.27  -4.97c
iter:  34 13:05:43  -322.869069c -6.35  -5.11c
Writing to output.gpw (mode='')

iter:  35 13:05:50  -322.869069c -6.56  -5.12c
iter:  36 13:05:57  -322.869069c -6.37  -5.10c
iter:  37 13:06:05  -322.869069c -6.79  -4.91c
iter:  38 13:06:12  -322.869068c -6.58  -5.00c
iter:  39 13:06:19  -322.869069c -6.77  -5.01c
Writing to output.gpw (mode='')

iter:  40 13:06:27  -322.869069c -7.07  -5.20c
iter:  41 13:06:34  -322.869069c -6.94  -5.13c
iter:  42 13:06:41  -322.869071c -6.91  -4.79c
iter:  43 13:06:49  -322.869070c -6.65  -5.20c
iter:  44 13:06:56  -322.869071c -7.25  -5.02c
Writing to output.gpw (mode='')

iter:  45 13:07:03  -322.869071c -7.24  -5.24c
iter:  46 13:07:11  -322.869071c -7.60c -5.38c

Converged after 46 iterations.

Dipole moment: (1.628571, -21.219277, 0.022595) |e|*Ang

Energy contributions relative to reference atoms: (reference = -16475.706344)

Kinetic:       +185.767891
Potential:     -171.709354
External:        +0.000000
XC:            -337.979850
Entropy (-ST):   -0.151208
Local:           +1.127846
--------------------------
Free energy:   -322.944675
Extrapolated:  -322.869071

Dipole-layer corrected work functions: 3.377360, 3.333926 eV

Showing only first 2 kpts
 Kpt  Band  Eigenvalues  Occupancy
  0    34     -3.61374    1.98861
  0    35     -3.49610    1.88634
  0    36     -3.24655    0.20280
  0    37     -3.10928    0.01439

  1    34     -3.43728    1.67310
  1    35     -3.36846    1.12748
  1    36     -3.27488    0.33173
  1    37     -3.26251    0.26877


Fermi level: -3.35564

Gap: 0.022 eV
Transition (v -> c):
  (s=0, k=1, n=35, [0.12, -0.12, 0.00]) -> (s=0, k=4, n=36, [0.38, -0.38, 0.00])
Writing to output.gpw (mode='')


Forces in eV/Ang:
  0 Li    0.01738    0.00428   -0.28323
  1 Li   -0.00191   -0.00247   -0.26338
  2 Li   -0.01534    0.00702   -0.28143
  3 Li   -0.00749    0.00821   -0.26288
  4 Li    0.00028   -0.00201   -0.28572
  5 Li    0.00680    0.00816   -0.25885
  6 Li    0.00362   -0.01561   -0.28264
  7 Li   -0.00192    0.00929   -0.25970
  8 Li   -0.00236   -0.01735   -0.28248
  9 Li    0.00030    0.00682    0.37212
 10 Li    0.01845   -0.00078    0.25546
 11 Li   -0.01822   -0.00042    0.26538
 12 Li   -0.00089    0.00628    0.27780
 13 Li    0.01178    0.00310    0.26361
 14 Li   -0.01242    0.00634    0.26062
 15 Li   -0.00082   -0.00372    0.24765
 16 Li   -0.00181   -0.00585    0.25788
 17 Li    0.00375   -0.01175    0.25526
 18 Li    0.05250    0.02941   -0.10893
 19 Li    0.00164   -0.00962    0.07227
 20 Li   -0.05179    0.03650   -0.11511
 21 Li   -0.02224   -0.01262    0.07079
 22 Li    0.00150    0.01286   -0.00377
 23 Li    0.02239   -0.01536    0.07756
 24 Li    0.04075   -0.02701   -0.05448
 25 Li    0.00150   -0.00038    0.05763
 26 Li   -0.04063   -0.03165   -0.06745
 27 Li    0.07107   -0.74473   -4.09943
 28 Li    0.12010   -0.01964   -0.08095
 29 Li   -0.09656   -0.02215   -0.04635
 30 Li    0.00825   -0.25085    0.18531
 31 Li    0.05280    0.03424   -0.02573
 32 Li   -0.05104    0.04885   -0.03802
 33 Li    0.00288   -0.04736   -0.02153
 34 Li   -0.00080   -0.00196   -0.01781
 35 Li   -0.00473   -0.01352   -0.02242
 36 O     0.79270   -1.98055    5.23949
 37 O    -0.05833    0.04013    0.16387
 38 C    -0.22505    0.32246    0.82432
 39 C     0.04333    0.01980    0.36511
 40 H     0.07079   -0.35467    0.17839
 41 H    -0.03182   -0.08556    0.06568
 42 H    -0.00176    0.16182    0.22899
 43 H    -0.05103    0.04374    0.01900
 44 H     0.25083   -0.25822    1.33086
 45 H     0.03650    0.05505    0.06547
 46 N    -0.88231   -0.33797   -0.79082
 47 N    -0.03666    3.34005   -3.38915

System changes: positions 

Initializing position-dependent things.

Density initialized from wave functions
       .-----------------------.  
      /|                       |  
     / |                       |  
    /  |                       |  
   /   |                       |  
  /    |                       |  
 *     |                       |  
 |     |                      H|  
 |     |                       |  
 |     O                       |  
 |     |                       |  
 |     |                  H    |  
 |C  H |                O      |  
 |     Li      Li      Li      |  
 |     |              H  CH    |  
 |   Li|     Li      Li        |  
 | H   |                       |  
 | Li  |  LLi     LLi    NNi   |  
 |     |                       |  
 |     |Li      Li      Li     |  
 |   Li|     Li      Li        |  
 |    Li  Li  Li  Li  Li  Li   |  
 | Li  |   Li      Li          |  
 |     |Li      Li      Li     |  
 Li    | Li      Li            |  
 |    Li      Li      Li       |  
 |     |                       |  
 |     |                       |  
 |     |                       |  
 |     |                       |  
 |     |                       |  
 |     |                       |  
 |     .-----------------------.  
 |    /                       /   
 |   /                       /    
 |  /                       /     
 | /                       /      
 |/                       /       
 *-----------------------*        

Positions:
   0 Li     1.617037    1.617037   10.000000    ( 0.0000,  0.0000,  0.0000)
   1 Li     4.851111    1.617037   10.000000    ( 0.0000,  0.0000,  0.0000)
   2 Li     8.085185    1.617037   10.000000    ( 0.0000,  0.0000,  0.0000)
   3 Li     1.617037    4.851111   10.000000    ( 0.0000,  0.0000,  0.0000)
   4 Li     4.851111    4.851111   10.000000    ( 0.0000,  0.0000,  0.0000)
   5 Li     8.085185    4.851111   10.000000    ( 0.0000,  0.0000,  0.0000)
   6 Li     1.617037    8.085185   10.000000    ( 0.0000,  0.0000,  0.0000)
   7 Li     4.851111    8.085185   10.000000    ( 0.0000,  0.0000,  0.0000)
   8 Li     8.085185    8.085185   10.000000    ( 0.0000,  0.0000,  0.0000)
   9 Li     0.000000    0.000000   11.617037    ( 0.0000,  0.0000,  0.0000)
  10 Li     3.234074    0.000000   11.617037    ( 0.0000,  0.0000,  0.0000)
  11 Li     6.468148    0.000000   11.617037    ( 0.0000,  0.0000,  0.0000)
  12 Li     0.000000    3.234074   11.617037    ( 0.0000,  0.0000,  0.0000)
  13 Li     3.234074    3.234074   11.617037    ( 0.0000,  0.0000,  0.0000)
  14 Li     6.468148    3.234074   11.617037    ( 0.0000,  0.0000,  0.0000)
  15 Li     0.000000    6.468148   11.617037    ( 0.0000,  0.0000,  0.0000)
  16 Li     3.234074    6.468148   11.617037    ( 0.0000,  0.0000,  0.0000)
[...]

Converged after 21 iterations.

Dipole moment: (16.205252, -1.181811, -0.244248) |e|*Ang

Energy contributions relative to reference atoms: (reference = -16475.706344)

Kinetic:       +157.983053
Potential:     -150.718852
External:        +0.000000
XC:            -336.514078
Entropy (-ST):   -0.161415
Local:           +1.140541
--------------------------
Free energy:   -328.270752
Extrapolated:  -328.190044

Dipole-layer corrected work functions: 3.397341, 3.866868 eV

Showing only first 2 kpts
 Kpt  Band  Eigenvalues  Occupancy
  0    34     -3.86049    1.97945
  0    35     -3.67022    1.36373
  0    36     -3.60549    0.73993
  0    37     -3.42247    0.02976

  1    34     -3.87433    1.98438
  1    35     -3.77831    1.89805
  1    36     -3.57689    0.49787
  1    37     -3.39093    0.01595


Fermi level: -3.63210

No gap
Writing to output.gpw (mode='')


Forces in eV/Ang:
  0 Li   -0.00679    0.00804   -0.29525
  1 Li    0.00553   -0.01048   -0.29582
  2 Li    0.00060   -0.00029   -0.25330
  3 Li    0.00735    0.00741   -0.29329
  4 Li   -0.01233    0.01467   -0.28322
  5 Li    0.01130   -0.00634   -0.29357
  6 Li    0.01373   -0.01325   -0.28393
  7 Li   -0.00869   -0.00754   -0.29184
  8 Li   -0.01073    0.00538   -0.29491
  9 Li   -0.04117    0.03591    0.26225
 10 Li   -0.01005    0.01393    0.29523
 11 Li    0.04476    0.03274    0.33159
 12 Li   -0.04020   -0.03576    0.33748
 13 Li   -0.00215   -0.02571    0.31124
 14 Li    0.04248   -0.04423    0.28895
 15 Li   -0.01986    0.02550    0.28859
 16 Li   -0.00875    0.00808    0.29872
 17 Li    0.02491   -0.00395    0.28841
 18 Li    0.01687    0.01651    0.01015
 19 Li    0.00238    0.00129   -0.00183
 20 Li    0.01378   -0.00362   -0.00212
 21 Li    0.02218   -0.00195   -0.00790
 22 Li    0.00521   -0.01031    0.01020
 23 Li    0.01344   -0.01055    0.00688
 24 Li    0.00280   -0.01210   -0.00699
 25 Li   -0.00088    0.01204    0.00286
 26 Li   -0.01407   -0.00020   -0.00333
 27 Li   -0.02348    0.01315    0.01107
 28 Li   -0.00133    0.00400   -0.01026
 29 Li    0.00005    0.00456   -0.00671
 30 Li   -0.00109    0.00886    0.00936
 31 Li    0.00088    0.00154    0.00936
 32 Li   -0.01090    0.02801   -0.00119
 33 Li   -0.00054   -0.01819    0.00413
 34 Li   -0.00005   -0.00292    0.00146
 35 Li   -0.00380    0.00414    0.00468
 36 O    -0.02423    0.01380   -0.01094
 37 O     0.00180   -0.01687   -0.01734
 38 C    -0.00164   -0.01336    0.00332
 39 C     0.00256   -0.00993   -0.00293
 40 H     0.00728   -0.02042    0.00835
 41 H    -0.00081    0.00472   -0.01470
 42 H     0.00889    0.01015   -0.00881
 43 H     0.01498    0.01898    0.02246
 44 H     0.03225    0.03799   -0.01200
 45 H     0.00468   -0.00174   -0.01205
 46 N    -0.02316    0.01908    0.02993
 47 N     0.01340   -0.05626   -0.03836

System changes: positions 

Initializing position-dependent things.

Density initialized from wave functions
       .-----------------------.  
      /|                       |  
     / |                       |  
    /  |                       |  
   /   |                       |  
  /    |                       |  
 *     |                       |  
 |     |                       |  
 |     |                       |  
 |     |H                     O|  
 |     |                       |  
 |     |                HO H   |  
 |C  H |                       |  
 |     |       Li     HLi      |  
 |     |                CH     |  
 |   Li|     Li      Li        |  
 |     |                       |  
 | Li  |  LLi     LLi     Li   |  
 |     |             N N       |  
 |     |Li      Li      LLi    |  
 |   Li|     Li      LLi       |  
 |    Li  Li  Li  Li      Li   |  
 | Li  |   Li      Li          |  
 |     |Li      Li      Li     |  
 Li    | Li      Li            |  
 |    Li      Li      Li       |  
 |     |                       |  
 |     |                       |  
 |     |                       |  
 |     |                       |  
 |     |                       |  
 |     |                       |  
 |     .-----------------------.  
 |    /                       /   
 |   /                       /    
 |  /                       /     
 | /                       /      
 |/                       /       
 *-----------------------*        

Positions:
   0 Li     1.617037    1.617037   10.000000    ( 0.0000,  0.0000,  0.0000)
   1 Li     4.851111    1.617037   10.000000    ( 0.0000,  0.0000,  0.0000)
   2 Li     8.085185    1.617037   10.000000    ( 0.0000,  0.0000,  0.0000)
   3 Li     1.617037    4.851111   10.000000    ( 0.0000,  0.0000,  0.0000)
   4 Li     4.851111    4.851111   10.000000    ( 0.0000,  0.0000,  0.0000)
   5 Li     8.085185    4.851111   10.000000    ( 0.0000,  0.0000,  0.0000)
   6 Li     1.617037    8.085185   10.000000    ( 0.0000,  0.0000,  0.0000)
   7 Li     4.851111    8.085185   10.000000    ( 0.0000,  0.0000,  0.0000)
   8 Li     8.085185    8.085185   10.000000    ( 0.0000,  0.0000,  0.0000)
   9 Li     0.000000    0.000000   11.617037    ( 0.0000,  0.0000,  0.0000)
  10 Li     3.234074    0.000000   11.617037    ( 0.0000,  0.0000,  0.0000)
  11 Li     6.468148    0.000000   11.617037    ( 0.0000,  0.0000,  0.0000)
  12 Li     0.000000    3.234074   11.617037    ( 0.0000,  0.0000,  0.0000)
  13 Li     3.234074    3.234074   11.617037    ( 0.0000,  0.0000,  0.0000)
  14 Li     6.468148    3.234074   11.617037    ( 0.0000,  0.0000,  0.0000)
  15 Li     0.000000    6.468148   11.617037    ( 0.0000,  0.0000,  0.0000)
  16 Li     3.234074    6.468148   11.617037    ( 0.0000,  0.0000,  0.0000)
  17 Li     6.468148    6.468148   11.617037    ( 0.0000,  0.0000,  0.0000)
  18 Li     1.584892    1.641962   13.512229    ( 0.0000,  0.0000,  0.0000)
  19 Li     4.865968    1.561370   13.514980    ( 0.0000,  0.0000,  0.0000)
  20 Li     8.093131    1.609192   13.619857    ( 0.0000,  0.0000,  0.0000)
  21 Li     1.624144    4.897920   13.498137    ( 0.0000,  0.0000,  0.0000)
  22 Li     4.909853    4.787056   13.491206    ( 0.0000,  0.0000,  0.0000)
  23 Li     8.119849    4.850283   13.508317    ( 0.0000,  0.0000,  0.0000)
  24 Li     1.551706    8.167848   13.515632    ( 0.0000,  0.0000,  0.0000)
  25 Li     4.827555    8.040497   13.498941    ( 0.0000,  0.0000,  0.0000)
  26 Li     8.061364    8.108052   13.519525    ( 0.0000,  0.0000,  0.0000)
  27 Li    -0.226445    0.250365   15.698353    ( 0.0000,  0.0000,  0.0000)
  28 Li     3.099064   -0.053790   15.456256    ( 0.0000,  0.0000,  0.0000)
  29 Li     6.373470   -0.135406   15.540009    ( 0.0000,  0.0000,  0.0000)
  30 Li     0.119287    3.379979   15.498889    ( 0.0000,  0.0000,  0.0000)
  31 Li     3.365461    3.274891   15.426806    ( 0.0000,  0.0000,  0.0000)
  32 Li     6.708044    2.965498   15.605440    ( 0.0000,  0.0000,  0.0000)
  33 Li     0.046332    6.647562   15.468571    ( 0.0000,  0.0000,  0.0000)
  34 Li     3.222040    6.464045   15.452041    ( 0.0000,  0.0000,  0.0000)
  35 Li     6.414004    6.306454   15.444782    ( 0.0000,  0.0000,  0.0000)
  36 O      9.270406    9.651337   19.204679    ( 0.0000,  0.0000,  0.0000)
  37 O      9.288866   11.028129   21.846509    ( 0.0000,  0.0000,  0.0000)
  38 C      9.043921   11.062898   19.394367    ( 0.0000,  0.0000,  0.0000)
  39 C      9.752056   11.603567   20.627458    ( 0.0000,  0.0000,  0.0000)
  40 H      9.359584   11.631455   18.509170    ( 0.0000,  0.0000,  0.0000)
  41 H      7.962554   11.164915   19.504441    ( 0.0000,  0.0000,  0.0000)
  42 H      9.568175   12.677988   20.708700    ( 0.0000,  0.0000,  0.0000)
  43 H     10.838892   11.460692   20.512708    ( 0.0000,  0.0000,  0.0000)
  44 H     10.214715    9.517256   19.044385    ( 0.0000,  0.0000,  0.0000)
  45 H      9.292230   10.068812   21.736759    ( 0.0000,  0.0000,  0.0000)
  46 N      7.661080   10.877425   15.644346    ( 0.0000,  0.0000,  0.0000)
  47 N      8.542002   11.774957   15.653059    ( 0.0000,  0.0000,  0.0000)

Unit cell:
           periodic     x           y           z      points  spacing
  1. axis:    yes    9.702222    0.000000    0.000000    60     0.1617
  2. axis:    yes    0.000000    9.702222    0.000000    60     0.1617
  3. axis:    no     0.000000    0.000000   26.351111   164     0.1607

  Lengths:   9.702222   9.702222  26.351111
  Angles:   90.000000  90.000000  90.000000

Effective grid spacing dv^(1/3) = 0.1614

     iter     time        total  log10-change:
                         energy  eigst   dens
iter:   1 01:51:49  -328.192555  -1.86
iter:   2 01:51:57  -328.192280  -2.61  -2.45
iter:   3 01:52:04  -328.191874c -3.12  -2.58
iter:   4 01:52:12  -328.191432c -3.34  -2.70
Writing to output.gpw (mode='')

iter:   5 01:52:19  -328.191275c -3.29  -2.91
iter:   6 01:52:26  -328.191237c -3.37  -3.09
iter:   7 01:52:34  -328.191265c -3.60  -3.22
iter:   8 01:52:41  -328.191232c -4.36  -3.33
iter:   9 01:52:48  -328.191211c -4.47  -3.48
Writing to output.gpw (mode='')

iter:  10 01:52:56  -328.191219c -4.80  -3.68
iter:  11 01:53:03  -328.191217c -5.06  -3.72
iter:  12 01:53:10  -328.191219c -5.09  -3.77
iter:  13 01:53:18  -328.191216c -5.47  -3.90
iter:  14 01:53:25  -328.191216c -5.77  -3.92
Writing to output.gpw (mode='')

iter:  15 01:53:32  -328.191219c -5.57  -3.99
iter:  16 01:53:40  -328.191219c -5.95  -4.30c
iter:  17 01:53:47  -328.191218c -6.30  -4.49c
iter:  18 01:53:54  -328.191219c -6.52  -4.58c
iter:  19 01:54:02  -328.191219c -6.49  -4.64c
Writing to output.gpw (mode='')

iter:  20 01:54:09  -328.191219c -6.81  -4.66c
iter:  21 01:54:17  -328.191218c -6.85  -4.88c
iter:  22 01:54:24  -328.191218c -7.14  -4.91c
iter:  23 01:54:31  -328.191218c -7.33  -5.06c
iter:  24 01:54:39  -328.191218c -7.19  -5.15c
Writing to output.gpw (mode='')

iter:  25 01:54:52  -328.191218c -7.59c -5.18c

Converged after 25 iterations.

Dipole moment: (16.319635, -1.374412, -0.242900) |e|*Ang

Energy contributions relative to reference atoms: (reference = -16475.706344)

Kinetic:       +158.003996
Potential:     -150.732201
External:        +0.000000
XC:            -336.523140
Entropy (-ST):   -0.161421
Local:           +1.140837
--------------------------
Free energy:   -328.271929
Extrapolated:  -328.191218

Dipole-layer corrected work functions: 3.397391, 3.864328 eV

Showing only first 2 kpts
 Kpt  Band  Eigenvalues  Occupancy
  0    34     -3.85929    1.97947
  0    35     -3.66916    1.36528
  0    36     -3.60404    0.73806
  0    37     -3.42135    0.02984

  1    34     -3.87345    1.98449
  1    35     -3.77806    1.89996
  1    36     -3.57550    0.49678
  1    37     -3.38934    0.01584


Fermi level: -3.63086

No gap

Forces in eV/Ang:
  0 Li   -0.00639    0.00822   -0.29531
  1 Li    0.00576   -0.01040   -0.29582
  2 Li    0.00075   -0.00020   -0.25356
  3 Li    0.00701    0.00746   -0.29294
  4 Li   -0.01230    0.01457   -0.28317
  5 Li    0.01119   -0.00612   -0.29396
  6 Li    0.01370   -0.01312   -0.28405
  7 Li   -0.00873   -0.00766   -0.29238
  8 Li   -0.01075    0.00555   -0.29464
  9 Li   -0.04283    0.03576    0.26242
 10 Li   -0.01006    0.01373    0.29552
 11 Li    0.04312    0.03350    0.33328
 12 Li   -0.04196   -0.03753    0.33685
 13 Li   -0.00225   -0.02402    0.30992
 14 Li    0.04302   -0.04507    0.28811
 15 Li   -0.01813    0.02412    0.28926
 16 Li   -0.00834    0.00626    0.30141
 17 Li    0.02579   -0.00479    0.28997
 18 Li    0.01601    0.01710    0.01665
 19 Li    0.00426   -0.00197   -0.00390
 20 Li    0.02029   -0.00287   -0.01655
 21 Li    0.02623    0.00269   -0.01345
 22 Li   -0.00007   -0.00817    0.00948
 23 Li    0.00686   -0.00756    0.00652
 24 Li    0.00220   -0.01404   -0.00758
 25 Li   -0.00276    0.01053    0.00233
 26 Li   -0.01630   -0.00075   -0.00528
 27 Li   -0.03155    0.01110    0.01037
 28 Li   -0.00092    0.00289   -0.00669
 29 Li    0.00231    0.01432   -0.00296
 30 Li    0.01103    0.01045    0.01177
 31 Li   -0.00074    0.00075    0.00469
 32 Li   -0.00752    0.03537    0.00307
 33 Li    0.00094   -0.01496    0.00583
 34 Li   -0.00053   -0.00003   -0.00032
 35 Li   -0.00027    0.00174    0.00463
 36 O    -0.00209    0.01310   -0.02373
 37 O     0.00267    0.00108   -0.00705
 38 C    -0.00606    0.00182   -0.00470
 39 C     0.00091   -0.00909   -0.01329
 40 H     0.01345    0.00294    0.00223
 41 H    -0.00227   -0.00051    0.00013
 42 H    -0.00363    0.00093   -0.00459
 43 H     0.00387    0.00131    0.01898
 44 H     0.01234    0.01995   -0.01439
 45 H     0.00494   -0.01371   -0.01971
 46 N    -0.00234    0.00302    0.03780
 47 N    -0.02449   -0.03988   -0.01444

Timing:                                      incl.     excl.
-------------------------------------------------------------------
Density initialized from wave functions:    11.114    11.109   0.0% |
 Symmetrize density:                         0.005     0.005   0.0% |
Forces:                                     76.610    76.610   0.2% |
Hamiltonian:                              1054.878     0.026   0.0% |
 Atomic:                                     0.043     0.043   0.0% |
  XC Correction:                             0.000     0.000   0.0% |
 Calculate atomic Hamiltonians:              0.081     0.081   0.0% |
 Communicate:                               11.717    11.717   0.0% |
 Hartree integrate/restrict:                 4.105     4.105   0.0% |
 Initialize Hamiltonian:                     0.000     0.000   0.0% |
 Poisson:                                   50.038    18.592   0.0% |
  Communicate from 1D:                       4.936     4.936   0.0% |
  Communicate from 2D:                       4.858     4.858   0.0% |
  Communicate to 1D:                         2.792     2.792   0.0% |
  Communicate to 2D:                         5.840     5.840   0.0% |
  FFT 1D:                                    6.558     6.558   0.0% |
  FFT 2D:                                    6.463     6.463   0.0% |
 XC 3D grid:                               988.057   148.932   0.3% |
  VdW-DF integral:                         839.125     7.024   0.0% |
   Convolution:                             76.277    76.277   0.2% |
   FFT:                                     33.277    33.277   0.1% |
   gather:                                 293.301   293.301   0.6% |
   hmm1:                                    27.229    27.229   0.1% |
   hmm2:                                    35.933    35.933   0.1% |
   iFFT:                                    34.171    34.171   0.1% |
   potential:                              328.245     8.704   0.0% |
    collect:                                50.430    50.430   0.1% |
    p1:                                    147.103   147.103   0.3% |
    p2:                                     54.969    54.969   0.1% |
    sum:                                    67.039    67.039   0.1% |
   splines:                                  3.669     3.669   0.0% |
 vbar:                                       0.811     0.811   0.0% |
LCAO initialization:                         1.093     0.182   0.0% |
 LCAO eigensolver:                           0.186     0.000   0.0% |
  Calculate projections:                     0.000     0.000   0.0% |
  DenseAtomicCorrection:                     0.000     0.000   0.0% |
  Distribute overlap matrix:                 0.167     0.167   0.0% |
  Orbital Layouts:                           0.017     0.017   0.0% |
  Potential matrix:                          0.001     0.001   0.0% |
  Sum over cells:                            0.001     0.001   0.0% |
 LCAO to grid:                               0.630     0.630   0.0% |
 Set positions (LCAO WFS):                   0.095     0.052   0.0% |
  Basic WFS set positions:                   0.001     0.001   0.0% |
  Basis functions set positions:             0.000     0.000   0.0% |
  P tci:                                     0.000     0.000   0.0% |
  ST tci:                                    0.012     0.012   0.0% |
  mktci:                                     0.029     0.029   0.0% |
Redistribute:                                0.118     0.118   0.0% |
SCF-cycle:                               47376.847   799.730   1.6% ||
 Davidson:                               12717.125  3807.957   7.8% |--|
  Apply hamiltonian:                       793.966   793.966   1.6% ||
  Subspace diag:                          2380.626     0.777   0.0% |
   calc_h_matrix:                         1175.256   369.003   0.8% |
    Apply hamiltonian:                     806.253   806.253   1.7% ||
   diagonalize:                            123.259   123.259   0.3% |
   rotate_psi:                            1081.334  1081.334   2.2% ||
  calc. matrices:                         3986.245  2094.368   4.3% |-|
   Apply hamiltonian:                     1891.876  1891.876   3.9% |-|
  diagonalize:                              38.492    38.492   0.1% |
  rotate_psi:                             1709.838  1709.838   3.5% ||
 Density:                                  235.131     0.161   0.0% |
  Atomic density matrices:                  27.551    27.551   0.1% |
  Mix:                                      99.529    99.529   0.2% |
  Multipole moments:                        11.023    11.023   0.0% |
  Pseudo density:                           96.867    96.736   0.2% |
   Symmetrize density:                       0.131     0.131   0.0% |
 Hamiltonian:                            33589.496     0.823   0.0% |
  Atomic:                                    1.581     1.564   0.0% |
   XC Correction:                            0.017     0.017   0.0% |
  Calculate atomic Hamiltonians:             2.602     2.602   0.0% |
  Communicate:                             472.297   472.297   1.0% |
  Hartree integrate/restrict:              120.655   120.655   0.2% |
  Poisson:                                1604.914   590.990   1.2% |
   Communicate from 1D:                    157.872   157.872   0.3% |
   Communicate from 2D:                    164.101   164.101   0.3% |
   Communicate to 1D:                       90.429    90.429   0.2% |
   Communicate to 2D:                      187.422   187.422   0.4% |
   FFT 1D:                                 208.857   208.857   0.4% |
   FFT 2D:                                 205.243   205.243   0.4% |
  XC 3D grid:                            31359.653  4759.526   9.8% |---|
   VdW-DF integral:                      26600.127   225.329   0.5% |
    Convolution:                          2445.356  2445.356   5.0% |-|
    FFT:                                  1066.042  1066.042   2.2% ||
    gather:                               9295.159  9295.159  19.1% |-------|
    hmm1:                                  876.409   876.409   1.8% ||
    hmm2:                                 1149.489  1149.489   2.4% ||
    iFFT:                                 1094.546  1094.546   2.2% ||
    potential:                           10447.736   281.625   0.6% |
     collect:                             1632.174  1632.174   3.4% ||
     p1:                                  4713.816  4713.816   9.7% |---|
     p2:                                  1762.623  1762.623   3.6% ||
     sum:                                 2057.499  2057.499   4.2% |-|
    splines:                                 0.060     0.060   0.0% |
  vbar:                                     26.970    26.970   0.1% |
 Orthonormalize:                            35.366     0.026   0.0% |
  calc_s_matrix:                             5.191     5.191   0.0% |
  inverse-cholesky:                         10.095    10.095   0.0% |
  projections:                               0.004     0.004   0.0% |
  rotate_psi_s:                             20.050    20.050   0.0% |
Set symmetry:                                0.002     0.002   0.0% |
Other:                                     200.742   200.742   0.4% |
-------------------------------------------------------------------
Total:                                             48721.404 100.0%

Memory usage: 1.13 GiB
Date: Sat Mar 11 01:54:53 2023
