
  ___ ___ ___ _ _ _  
 |   |   |_  | | | | 
 | | | | | . | | | | 
 |__ |  _|___|_____|  22.8.0
 |___|_|             

User:   vazumah@r384.ib.bridges2.psc.edu
Date:   Fri Mar 10 12:22:51 2023
Arch:   x86_64
Pid:    88377
CWD:    /jet/home/vazumah/Calcs/LiMEAS/proton_donors/ethanediol_x/bridge/0.0_1.617/N2_y
Python: 3.11.0
gpaw:   /jet/home/vazumah/.conda/envs/GPAW_mpich/lib/python3.11/site-packages/gpaw
_gpaw:  /jet/home/vazumah/.conda/envs/GPAW_mpich/lib/python3.11/site-packages/
        _gpaw.cpython-311-x86_64-linux-gnu.so
ase:    /jet/home/vazumah/.conda/envs/GPAW_mpich/lib/python3.11/site-packages/ase (version 3.22.1)
numpy:  /jet/home/vazumah/.conda/envs/GPAW_mpich/lib/python3.11/site-packages/numpy (version 1.24.2)
scipy:  /jet/home/vazumah/.conda/envs/GPAW_mpich/lib/python3.11/site-packages/scipy (version 1.10.1)
libxc:  5.2.3
units:  Angstrom and eV
cores: 128
OpenMP: True
OMP_NUM_THREADS: 1

Input parameters:
  h: 0.16
  kpts: {size: [4, 4, 1]}
  occupations: {name: fermi-dirac,
                width: 0.05}
  poissonsolver: {dipolelayer: xy}
  xc: BEEF-vdW

System changes: positions, numbers, cell, pbc, initial_charges, initial_magmoms 

Initialize ...

species:
  Li:
    name: Lithium
    id: 830b4218f175192f93f959cfc0aad614
    Z: 3.0
    valence: 1
    core: 2
    charge: 0.0
    file: /jet/home/vazumah/datasets/gpaw-setups-0.9.20000/Li.PBE.gz
    compensation charges: {type: gauss,
                           rc: 0.33,
                           lmax: 2}
    cutoffs: {filter: 1.91,
              core: 2.55}
    valence states:
      #              energy  rcut
      - 2s(1.00)    -2.874   1.058
      - 2p(0.00)    -1.090   1.058
      -  s          24.337   1.058
  
    # Using partial waves for Li as LCAO basis

  O:
    name: Oxygen
    id: 32ecd46bf208036f09c70b0ec9a88b78
    Z: 8.0
    valence: 6
    core: 2
    charge: 0.0
    file: /jet/home/vazumah/datasets/gpaw-setups-0.9.20000/O.PBE.gz
    compensation charges: {type: gauss,
                           rc: 0.21,
                           lmax: 2}
    cutoffs: {filter: 1.17,
              core: 0.83}
    valence states:
      #              energy  rcut
      - 2s(2.00)   -23.961   0.688
      - 2p(4.00)    -9.029   0.598
      -  s           3.251   0.688
      -  p          18.182   0.598
      -  d           0.000   0.619
  
    # Using partial waves for O as LCAO basis

  C:
    name: Carbon
    id: 4aa54d4b901d75f77cc0ea3eec22967b
    Z: 6.0
    valence: 4
    core: 2
    charge: 0.0
    file: /jet/home/vazumah/datasets/gpaw-setups-0.9.20000/C.PBE.gz
    compensation charges: {type: gauss,
                           rc: 0.20,
                           lmax: 2}
    cutoffs: {filter: 1.14,
              core: 1.14}
    valence states:
      #              energy  rcut
      - 2s(2.00)   -13.751   0.635
      - 2p(2.00)    -5.284   0.635
      -  s          13.461   0.635
      -  p          21.927   0.635
      -  d           0.000   0.635
  
    # Using partial waves for C as LCAO basis

  H:
    name: Hydrogen
    id: d65de229564ff8ea4db303e23b6d1ecf
    Z: 1.0
    valence: 1
    core: 0
    charge: 0.0
    file: /jet/home/vazumah/datasets/gpaw-setups-0.9.20000/H.PBE.gz
    compensation charges: {type: gauss,
                           rc: 0.15,
                           lmax: 2}
    cutoffs: {filter: 0.85,
              core: 0.53}
    valence states:
      #              energy  rcut
      - 1s(1.00)    -6.494   0.476
      -  s          20.717   0.476
      -  p           0.000   0.476
  
    # Using partial waves for H as LCAO basis

  N:
    name: Nitrogen
    id: f7500608b86eaa90eef8b1d9a670dc53
    Z: 7.0
    valence: 5
    core: 2
    charge: 0.0
    file: /jet/home/vazumah/datasets/gpaw-setups-0.9.20000/N.PBE.gz
    compensation charges: {type: gauss,
                           rc: 0.18,
                           lmax: 2}
    cutoffs: {filter: 1.11,
              core: 0.96}
    valence states:
      #              energy  rcut
      - 2s(2.00)   -18.583   0.603
      - 2p(3.00)    -7.089   0.529
      -  s           8.629   0.603
      -  p          20.123   0.529
      -  d           0.000   0.577
  
    # Using partial waves for N as LCAO basis

Reference energy: -16475.706344  # eV

Spin-paired calculation

Convergence criteria:
 Maximum [total energy] change in last 3 cyles: 0.0005 eV / electron
 Maximum integral of absolute [dens]ity change: 0.0001 electrons / valence electron
 Maximum integral of absolute [eigenst]ate change: 4e-08 eV^2 / valence electron
 Maximum number of scf [iter]ations: 333
 (Square brackets indicate name in SCF output, whereas a 'c' in
 the SCF output indicates the quantity has converged.)

Symmetries present (total): 1

  ( 1  0  0)
  ( 0  1  0)
  ( 0  0  1)

16 k-points: 4 x 4 x 1 Monkhorst-Pack grid
8 k-points in the irreducible part of the Brillouin zone
       k-points in crystal coordinates                weights
   0:     0.12500000   -0.37500000    0.00000000          2/16
   1:     0.12500000   -0.12500000    0.00000000          2/16
   2:     0.12500000    0.12500000    0.00000000          2/16
   3:     0.12500000    0.37500000    0.00000000          2/16
   4:     0.37500000   -0.37500000    0.00000000          2/16
   5:     0.37500000   -0.12500000    0.00000000          2/16
   6:     0.37500000    0.12500000    0.00000000          2/16
   7:     0.37500000    0.37500000    0.00000000          2/16

Wave functions: Uniform real-space grid
  Kinetic energy operator: 6*3+1=19 point O(h^6) finite-difference Laplacian
  ScaLapack parameters: grid=1x1, blocksize=None
  Wavefunction extrapolation:
    Improved wavefunction reuse through dual PAW basis 

Occupation numbers: Fermi-Dirac:
  width: 0.0500  # eV
 

Eigensolver
   Davidson(niter=2) 

Densities:
  Coarse grid: 60*60*164 grid
  Fine grid: 120*120*328 grid
  Total Charge: 0.000000 

Density mixing:
  Method: separate
  Backend: pulay
  Linear mixing parameter: 0.05
  old densities: 5
  Damping of long wavelength oscillations: 50 

Hamiltonian:
  XC and Coulomb potentials evaluated on a 120*120*328 grid
  Using the BEEF-vdW Exchange-Correlation functional
  Interpolation: tri-quintic (5. degree polynomial)
  Poisson solver: FastPoissonSolver using
    Stencil: 6*3+1=19 point O(h^6) finite-difference Laplacian
    FFT axes: [0, 1]
    FST axes: [2]

Dipole correction along z-axis 

XC parameters: BEEF-vdW with 2 nearest neighbor stencil

Memory estimate:
  Process memory now: 129.04 MiB
  Calculator: 84.78 MiB
    Density: 22.56 MiB
      Arrays: 7.22 MiB
      Localized functions: 12.59 MiB
      Mixer: 2.75 MiB
    Hamiltonian: 5.72 MiB
      Arrays: 4.72 MiB
      XC: 0.00 MiB
      Poisson: 0.00 MiB
      vbar: 0.99 MiB
    Wavefunctions: 56.50 MiB
      Arrays psit_nG: 26.37 MiB
      Eigensolver: 29.47 MiB
      Projections: 0.01 MiB
      Projectors: 0.66 MiB

Total number of cores used: 128
Parallelization over k-points: 8
Domain decomposition: 2 x 2 x 4

Number of atoms: 48
Number of atomic orbitals: 174
Number of bands in calculation: 48
Number of valence electrons: 72
Bands to converge: occupied

... initialized

Initializing position-dependent things.

Density initialized from atomic densities
Creating initial wave functions:
  48 bands from LCAO basis set

       .-----------------------.  
      /|                       |  
     / |                       |  
    /  |                       |  
   /   |                       |  
  /    |                       |  
 *     |                       |  
 |     |                       |  
 |     |                       |  
 |     |                       |  
 |     |                       |  
 |     |              H        |  
 |H    |             C     H   |  
 |O    |                 C     |  
 |     |           OH          |  
 |   Li|     Li      Li  H     |  
 |NN   |                       |  
 | Li  |  LLi     LLi     Li   |  
 |     |                       |  
 Li    |LLi     LLi     Li     |  
 |   Li|     Li      Li        |  
 |    Li  Li  Li  Li  Li  Li   |  
 | Li  |   Li      Li          |  
 |     |Li      Li      Li     |  
 Li    | Li      Li            |  
 |    Li      Li      Li       |  
 |     |                       |  
 |     |                       |  
 |     |                       |  
 |     |                       |  
 |     |                       |  
 |     |                       |  
 |     .-----------------------.  
 |    /                       /   
 |   /                       /    
 |  /                       /     
 | /                       /      
 |/                       /       
 *-----------------------*        

Positions:
   0 Li     1.617037    1.617037   10.000000    ( 0.0000,  0.0000,  0.0000)
   1 Li     4.851111    1.617037   10.000000    ( 0.0000,  0.0000,  0.0000)
   2 Li     8.085185    1.617037   10.000000    ( 0.0000,  0.0000,  0.0000)
   3 Li     1.617037    4.851111   10.000000    ( 0.0000,  0.0000,  0.0000)
   4 Li     4.851111    4.851111   10.000000    ( 0.0000,  0.0000,  0.0000)
   5 Li     8.085185    4.851111   10.000000    ( 0.0000,  0.0000,  0.0000)
   6 Li     1.617037    8.085185   10.000000    ( 0.0000,  0.0000,  0.0000)
   7 Li     4.851111    8.085185   10.000000    ( 0.0000,  0.0000,  0.0000)
   8 Li     8.085185    8.085185   10.000000    ( 0.0000,  0.0000,  0.0000)
   9 Li     0.000000    0.000000   11.617037    ( 0.0000,  0.0000,  0.0000)
  10 Li     3.234074    0.000000   11.617037    ( 0.0000,  0.0000,  0.0000)
  11 Li     6.468148    0.000000   11.617037    ( 0.0000,  0.0000,  0.0000)
  12 Li     0.000000    3.234074   11.617037    ( 0.0000,  0.0000,  0.0000)
  13 Li     3.234074    3.234074   11.617037    ( 0.0000,  0.0000,  0.0000)
  14 Li     6.468148    3.234074   11.617037    ( 0.0000,  0.0000,  0.0000)
  15 Li     0.000000    6.468148   11.617037    ( 0.0000,  0.0000,  0.0000)
  16 Li     3.234074    6.468148   11.617037    ( 0.0000,  0.0000,  0.0000)
  17 Li     6.468148    6.468148   11.617037    ( 0.0000,  0.0000,  0.0000)
  18 Li     1.617038    1.617038   13.469728    ( 0.0000,  0.0000,  0.0000)
  19 Li     4.851111    1.617038   13.469729    ( 0.0000,  0.0000,  0.0000)
  20 Li     8.085184    1.617038   13.469728    ( 0.0000,  0.0000,  0.0000)
  21 Li     1.617038    4.851111   13.469729    ( 0.0000,  0.0000,  0.0000)
  22 Li     4.851111    4.851111   13.469730    ( 0.0000,  0.0000,  0.0000)
  23 Li     8.085184    4.851111   13.469729    ( 0.0000,  0.0000,  0.0000)
  24 Li     1.617038    8.085184   13.469728    ( 0.0000,  0.0000,  0.0000)
  25 Li     4.851111    8.085184   13.469729    ( 0.0000,  0.0000,  0.0000)
  26 Li     8.085184    8.085184   13.469728    ( 0.0000,  0.0000,  0.0000)
  27 Li    -0.000000   -0.000000   15.445939    ( 0.0000,  0.0000,  0.0000)
  28 Li     3.234074    0.000000   15.445939    ( 0.0000,  0.0000,  0.0000)
  29 Li     6.468148    0.000000   15.445939    ( 0.0000,  0.0000,  0.0000)
  30 Li     0.000000    3.234074   15.445939    ( 0.0000,  0.0000,  0.0000)
  31 Li     3.234076    3.234076   15.445938    ( 0.0000,  0.0000,  0.0000)
  32 Li     6.468146    3.234076   15.445938    ( 0.0000,  0.0000,  0.0000)
  33 Li     0.000000    6.468148   15.445939    ( 0.0000,  0.0000,  0.0000)
  34 Li     3.234076    6.468146   15.445938    ( 0.0000,  0.0000,  0.0000)
  35 Li     6.468146    6.468146   15.445938    ( 0.0000,  0.0000,  0.0000)
  36 O      0.000000    1.617037   19.445939    ( 0.0000,  0.0000,  0.0000)
  37 O     -2.898198    1.661030   19.213250    ( 0.0000,  0.0000,  0.0000)
  38 C     -0.728561    2.788249   19.033562    ( 0.0000,  0.0000,  0.0000)
  39 C     -2.137746    2.801939   19.602713    ( 0.0000,  0.0000,  0.0000)
  40 H     -0.200435    3.702639   19.326395    ( 0.0000,  0.0000,  0.0000)
  41 H     -0.761310    2.740951   17.943996    ( 0.0000,  0.0000,  0.0000)
  42 H     -2.674465    3.676205   19.226232    ( 0.0000,  0.0000,  0.0000)
  43 H     -2.088017    2.877440   20.701774    ( 0.0000,  0.0000,  0.0000)
  44 H      0.169424    1.691552   20.393261    ( 0.0000,  0.0000,  0.0000)
  45 H     -2.318732    0.893910   19.309689    ( 0.0000,  0.0000,  0.0000)
  46 N      0.000000    1.617000   16.945939    ( 0.0000,  0.0000,  0.0000)
  47 N      0.000000    2.713622   16.945939    ( 0.0000,  0.0000,  0.0000)

Unit cell:
           periodic     x           y           z      points  spacing
  1. axis:    yes    9.702222    0.000000    0.000000    60     0.1617
  2. axis:    yes    0.000000    9.702222    0.000000    60     0.1617
  3. axis:    no     0.000000    0.000000   26.351111   164     0.1607

  Lengths:   9.702222   9.702222  26.351111
  Angles:   90.000000  90.000000  90.000000

Effective grid spacing dv^(1/3) = 0.1614

     iter     time        total  log10-change:
                         energy  eigst   dens
iter:   1 12:23:06  -640.339713
iter:   2 12:23:13   -47.394050  +2.62  +0.02
iter:   3 12:23:21   -54.537575  +3.24  -0.18
iter:   4 12:23:28  -199.555300  +3.10  -0.29
Writing to output.gpw (mode='')

iter:   5 12:23:35  -276.199690  +2.83  -0.35
iter:   6 12:23:42  -327.696380  +2.41  -0.56
iter:   7 12:23:50  -337.866540  +2.06  -0.58
iter:   8 12:23:57  -322.673149  +1.80  -0.56
iter:   9 12:24:04  -330.972664  +1.65  -0.73
Writing to output.gpw (mode='')

iter:  10 12:24:12  -332.725084  +1.58  -0.74
iter:  11 12:24:19  -345.712064  +1.31  -0.71
iter:  12 12:24:26  -330.694482  +1.09  -0.74
iter:  13 12:24:34  -326.971627  +0.81  -0.78
iter:  14 12:24:46  -326.181894  +0.79  -0.80
Writing to output.gpw (mode='')

iter:  15 12:24:54  -325.182439  +0.37  -0.80
iter:  16 12:25:01  -324.969314  +0.25  -0.87
iter:  17 12:25:10  -324.886351  +0.49  -0.88
iter:  18 12:25:18  -323.973855  +0.24  -1.00
iter:  19 12:25:25  -323.841342  +0.08  -1.11
Writing to output.gpw (mode='')

iter:  20 12:25:32  -323.659453  -0.19  -1.20
iter:  21 12:25:40  -323.497608  -0.55  -1.28
iter:  22 12:25:47  -323.584580  -0.71  -1.37
iter:  23 12:25:54  -323.630955  -0.27  -1.36
iter:  24 12:26:02  -323.449139  -0.94  -1.32
Writing to output.gpw (mode='')

iter:  25 12:26:09  -323.245428  -0.68  -1.42
iter:  26 12:26:16  -323.184113  -0.92  -1.62
iter:  27 12:26:24  -323.150137  -0.74  -1.75
iter:  28 12:26:31  -323.156224c -1.24  -1.94
iter:  29 12:26:38  -323.164720c -1.41  -1.98
Writing to output.gpw (mode='')

iter:  30 12:26:46  -323.166064c -1.55  -1.99
iter:  31 12:26:53  -323.162852c -1.42  -2.02
iter:  32 12:27:00  -323.166675c -1.51  -2.11
iter:  33 12:27:07  -323.172301c -1.51  -2.21
iter:  34 12:27:15  -323.172470c -1.97  -2.31
Writing to output.gpw (mode='')

iter:  35 12:27:22  -323.172826c -2.13  -2.35
iter:  36 12:27:29  -323.171455c -2.14  -2.39
iter:  37 12:27:37  -323.171921c -2.31  -2.51
iter:  38 12:27:44  -323.172315c -2.48  -2.70
iter:  39 12:27:51  -323.172629c -2.43  -2.80
Writing to output.gpw (mode='')

iter:  40 12:27:58  -323.173146c -2.64  -3.00
iter:  41 12:28:06  -323.173729c -2.73  -3.05
iter:  42 12:28:13  -323.174132c -2.81  -3.26
iter:  43 12:28:20  -323.174417c -2.92  -3.46
iter:  44 12:28:27  -323.174696c -3.00  -3.51
Writing to output.gpw (mode='')

iter:  45 12:28:35  -323.175033c -2.88  -3.55
iter:  46 12:28:42  -323.175263c -3.15  -3.69
iter:  47 12:28:49  -323.175425c -3.25  -3.75
iter:  48 12:28:57  -323.175582c -3.20  -3.70
iter:  49 12:29:04  -323.175721c -3.21  -3.65
Writing to output.gpw (mode='')

iter:  50 12:29:11  -323.175838c -3.31  -3.62
iter:  51 12:29:19  -323.175935c -3.34  -3.59
iter:  52 12:29:26  -323.176023c -3.58  -3.51
iter:  53 12:29:33  -323.176104c -3.54  -3.51
iter:  54 12:29:47  -323.176185c -3.65  -3.50
Writing to output.gpw (mode='')

iter:  55 12:29:55  -323.176243c -3.85  -3.49
iter:  56 12:30:02  -323.176422c -3.54  -3.52
iter:  57 12:30:09  -323.176327c -3.85  -3.46
iter:  58 12:30:16  -323.176403c -3.89  -3.43
iter:  59 12:30:24  -323.176479c -3.87  -3.50
Writing to output.gpw (mode='')

iter:  60 12:30:31  -323.176489c -4.13  -3.55
iter:  61 12:30:38  -323.176523c -4.14  -3.52
iter:  62 12:30:46  -323.176567c -4.08  -3.59
iter:  63 12:30:53  -323.176605c -3.99  -3.62
iter:  64 12:31:00  -323.176632c -4.12  -3.68
Writing to output.gpw (mode='')

iter:  65 12:31:07  -323.176644c -4.35  -3.72
iter:  66 12:31:15  -323.176656c -4.66  -4.00c
iter:  67 12:31:22  -323.176659c -4.35  -4.09c
iter:  68 12:31:29  -323.176668c -4.61  -4.28c
iter:  69 12:31:37  -323.176675c -4.75  -4.29c
Writing to output.gpw (mode='')

iter:  70 12:31:44  -323.176679c -4.82  -4.27c
iter:  71 12:31:51  -323.176679c -4.65  -4.26c
iter:  72 12:31:59  -323.176681c -4.68  -4.20c
iter:  73 12:32:06  -323.176684c -4.97  -4.23c
iter:  74 12:32:13  -323.176689c -5.08  -4.23c
Writing to output.gpw (mode='')

iter:  75 12:32:20  -323.176695c -4.87  -4.26c
iter:  76 12:32:28  -323.176704c -5.10  -4.27c
iter:  77 12:32:35  -323.176698c -5.28  -4.27c
iter:  78 12:32:42  -323.176706c -5.40  -4.31c
iter:  79 12:32:49  -323.176698c -5.25  -4.41c
Writing to output.gpw (mode='')

iter:  80 12:32:57  -323.176703c -5.43  -4.44c
iter:  81 12:33:04  -323.176704c -5.52  -4.53c
iter:  82 12:33:12  -323.176706c -5.44  -4.57c
iter:  83 12:33:19  -323.176703c -5.49  -4.66c
iter:  84 12:33:26  -323.176703c -5.92  -4.71c
Writing to output.gpw (mode='')

iter:  85 12:33:34  -323.176704c -5.83  -4.72c
iter:  86 12:33:41  -323.176704c -5.91  -4.78c
iter:  87 12:33:48  -323.176706c -5.83  -4.75c
iter:  88 12:33:55  -323.176709c -5.60  -4.87c
iter:  89 12:34:03  -323.176708c -6.15  -4.98c
Writing to output.gpw (mode='')

iter:  90 12:34:10  -323.176709c -6.01  -4.95c
iter:  91 12:34:17  -323.176709c -6.04  -4.98c
iter:  92 12:34:25  -323.176709c -6.25  -5.00c
iter:  93 12:34:32  -323.176709c -6.37  -5.02c
iter:  94 12:34:44  -323.176710c -6.45  -5.03c
Writing to output.gpw (mode='')

iter:  95 12:34:51  -323.176711c -6.53  -5.13c
iter:  96 12:34:59  -323.176711c -6.50  -5.33c
iter:  97 12:35:06  -323.176711c -6.55  -5.41c
iter:  98 12:35:13  -323.176711c -6.73  -5.68c
iter:  99 12:35:20  -323.176711c -6.77  -5.72c
Writing to output.gpw (mode='')

iter: 100 12:35:28  -323.176711c -6.78  -5.69c
iter: 101 12:35:35  -323.176711c -6.86  -5.61c
iter: 102 12:35:42  -323.176711c -6.77  -5.58c
iter: 103 12:35:49  -323.176711c -6.77  -5.56c
iter: 104 12:35:57  -323.176712c -6.99  -5.56c
Writing to output.gpw (mode='')

iter: 105 12:36:04  -323.176712c -7.01  -5.63c
iter: 106 12:36:11  -323.176712c -6.99  -5.58c
iter: 107 12:36:19  -323.176712c -7.07  -5.52c
iter: 108 12:36:26  -323.176712c -7.01  -5.66c
iter: 109 12:36:33  -323.176712c -7.16  -5.74c
Writing to output.gpw (mode='')

iter: 110 12:36:40  -323.176712c -7.29  -5.73c
iter: 111 12:36:48  -323.176712c -7.22  -5.72c
iter: 112 12:36:55  -323.176712c -7.17  -5.67c
iter: 113 12:37:02  -323.176712c -7.33  -5.73c
iter: 114 12:37:09  -323.176712c -7.41c -5.66c

Converged after 114 iterations.

Dipole moment: (-11.097716, -3.002405, 0.303947) |e|*Ang

Energy contributions relative to reference atoms: (reference = -16475.706344)

Kinetic:       +188.091204
Potential:     -173.212963
External:        +0.000000
XC:            -339.120718
Entropy (-ST):   -0.159010
Local:           +1.145270
--------------------------
Free energy:   -323.256217
Extrapolated:  -323.176712

Dipole-layer corrected work functions: 3.403468, 2.819177 eV

Showing only first 2 kpts
 Kpt  Band  Eigenvalues  Occupancy
  0    34     -3.36441    1.98741
  0    35     -3.25448    1.89198
  0    36     -3.01469    0.25293
  0    37     -2.86425    0.01419

  1    34     -3.19180    1.66670
  1    35     -3.09942    0.88158
  1    36     -3.03490    0.35646
  1    37     -3.01875    0.27140


Fermi level: -3.11132

No gap
Writing to output.gpw (mode='')


Forces in eV/Ang:
  0 Li    0.02231   -0.00241   -0.27517
  1 Li   -0.00125    0.00094   -0.27121
  2 Li   -0.02100   -0.00238   -0.27537
  3 Li   -0.00075    0.01796   -0.27464
  4 Li    0.00049   -0.00726   -0.26775
  5 Li    0.00022    0.01906   -0.27379
  6 Li   -0.00448   -0.01325   -0.26778
  7 Li    0.00006    0.00652   -0.28195
  8 Li    0.00496   -0.01488   -0.26766
  9 Li    0.00208   -0.00536    0.28690
 10 Li    0.00951    0.00230    0.25779
 11 Li   -0.01203    0.00065    0.25892
 12 Li    0.00098   -0.00126    0.33138
 13 Li    0.01244   -0.00095    0.25505
 14 Li   -0.01323   -0.00171    0.25580
 15 Li   -0.00180    0.00518    0.24199
 16 Li   -0.00281    0.00124    0.25356
 17 Li    0.00416    0.00398    0.25054
 18 Li    0.02632   -0.00956   -0.09381
 19 Li   -0.00394    0.00615    0.06340
 20 Li   -0.02770   -0.01007   -0.09808
 21 Li    0.00101   -0.01534    0.02146
 22 Li    0.00019    0.00114    0.04795
 23 Li   -0.00118   -0.01921    0.03482
 24 Li   -0.01179    0.01570    0.05417
 25 Li   -0.00163   -0.01416    0.01929
 26 Li    0.01272    0.02128    0.05929
 27 Li    0.01603    0.00189    0.27159
 28 Li    0.05247   -0.05427   -0.02930
 29 Li   -0.05503   -0.04225   -0.01087
 30 Li    0.03121    1.74198   -4.25151
 31 Li    0.07814    0.05115   -0.03772
 32 Li   -0.10146    0.04445   -0.04490
 33 Li   -0.00633    0.01884   -0.03878
 34 Li   -0.00682   -0.00113   -0.02183
 35 Li    0.01363   -0.00798   -0.01906
 36 O    -0.27358    0.18313   -0.18432
 37 O    -0.10133   -0.11008   -0.14929
 38 C    -1.21360    0.68945    3.35540
 39 C     0.10979    0.09619    0.25584
 40 H     0.05310    0.06868   -0.00312
 41 H    -2.28226    1.56014    3.47416
 42 H    -0.00989    0.05744    0.01481
 43 H    -0.12806    0.00979    0.04718
 44 H     0.07770   -0.00023   -0.00740
 45 H     0.00950   -0.07239    0.01013
 46 N     1.60956   -7.85700   -2.96092
 47 N     2.11531    3.56677    0.30875

System changes: positions 

Initializing position-dependent things.

Density initialized from wave functions
       .-----------------------.  
      /|                       |  
     / |                       |  
    /  |                       |  
   /   |                       |  
  /    |                       |  
 *     |                       |  
 |     |                       |  
 |     |                       |  
 |     |                       |  
 |     |                       |  
 |     |              H        |  
 |H    |             C     H   |  
 |     |       Li      LiCO    |  
 |     |           OH    H     |  
 |     |     Li      Li      Li|  
 |NN   |                       |  
 | Li  |  LLi     LLi     Li   |  
 |     |                       |  
 Li    |Li      Li      Li     |  
 |   Li|     Li      Li        |  
 |    Li  Li  Li  Li  Li  Li   |  
 | Li  |   Li      Li          |  
 |     |Li      Li      Li     |  
 Li    | Li      Li            |  
 |    Li      Li      Li       |  
 |     |                       |  
 |     |                       |  
 |     |                       |  
 |     |                       |  
 |     |                       |  
 |     |                       |  
 |     .-----------------------.  
 |    /                       /   
 |   /                       /    
 |  /                       /     
 | /                       /      
 |/                       /       
 *-----------------------*        

Positions:
   0 Li     1.617037    1.617037   10.000000    ( 0.0000,  0.0000,  0.0000)
   1 Li     4.851111    1.617037   10.000000    ( 0.0000,  0.0000,  0.0000)
   2 Li     8.085185    1.617037   10.000000    ( 0.0000,  0.0000,  0.0000)
   3 Li     1.617037    4.851111   10.000000    ( 0.0000,  0.0000,  0.0000)
   4 Li     4.851111    4.851111   10.000000    ( 0.0000,  0.0000,  0.0000)
   5 Li     8.085185    4.851111   10.000000    ( 0.0000,  0.0000,  0.0000)
   6 Li     1.617037    8.085185   10.000000    ( 0.0000,  0.0000,  0.0000)
   7 Li     4.851111    8.085185   10.000000    ( 0.0000,  0.0000,  0.0000)
   8 Li     8.085185    8.085185   10.000000    ( 0.0000,  0.0000,  0.0000)
   9 Li     0.000000    0.000000   11.617037    ( 0.0000,  0.0000,  0.0000)
  10 Li     3.234074    0.000000   11.617037    ( 0.0000,  0.0000,  0.0000)
  11 Li     6.468148    0.000000   11.617037    ( 0.0000,  0.0000,  0.0000)
  12 Li     0.000000    3.234074   11.617037    ( 0.0000,  0.0000,  0.0000)
  13 Li     3.234074    3.234074   11.617037    ( 0.0000,  0.0000,  0.0000)
  14 Li     6.468148    3.234074   11.617037    ( 0.0000,  0.0000,  0.0000)
  15 Li     0.000000    6.468148   11.617037    ( 0.0000,  0.0000,  0.0000)
  16 Li     3.234074    6.468148   11.617037    ( 0.0000,  0.0000,  0.0000)
  17 Li     6.468148    6.468148   11.617037    ( 0.0000,  0.0000,  0.0000)
  18 Li     1.617161    1.616993   13.469289    ( 0.0000,  0.0000,  0.0000)
  19 Li     4.851093    1.617067   13.470026    ( 0.0000,  0.0000,  0.0000)
  20 Li     8.085054    1.616991   13.469269    ( 0.0000,  0.0000,  0.0000)
  21 Li     1.617043    4.851039   13.469830    ( 0.0000,  0.0000,  0.0000)
  22 Li     4.851112    4.851116   13.469955    ( 0.0000,  0.0000,  0.0000)
  23 Li     8.085178    4.851021   13.469892    ( 0.0000,  0.0000,  0.0000)
  24 Li     1.616983    8.085257   13.469981    ( 0.0000,  0.0000,  0.0000)
  25 Li     4.851103    8.085117   13.469820    ( 0.0000,  0.0000,  0.0000)
  26 Li     8.085243    8.085283   13.470005    ( 0.0000,  0.0000,  0.0000)
  27 Li     0.000075    0.000009   15.447210    ( 0.0000,  0.0000,  0.0000)
  28 Li     3.234319   -0.000254   15.445802    ( 0.0000,  0.0000,  0.0000)
  29 Li     6.467891   -0.000198   15.445888    ( 0.0000,  0.0000,  0.0000)
  30 Li     0.000146    3.242224   15.426047    ( 0.0000,  0.0000,  0.0000)
  31 Li     3.234442    3.234316   15.445762    ( 0.0000,  0.0000,  0.0000)
  32 Li     6.467671    3.234284   15.445728    ( 0.0000,  0.0000,  0.0000)
  33 Li    -0.000030    6.468236   15.445757    ( 0.0000,  0.0000,  0.0000)
  34 Li     3.234045    6.468140   15.445836    ( 0.0000,  0.0000,  0.0000)
  35 Li     6.468209    6.468108   15.445849    ( 0.0000,  0.0000,  0.0000)
  36 O     -0.001280    1.617894   19.445077    ( 0.0000,  0.0000,  0.0000)
  37 O     -2.898672    1.660515   19.212552    ( 0.0000,  0.0000,  0.0000)
  38 C     -0.734239    2.791475   19.049261    ( 0.0000,  0.0000,  0.0000)
  39 C     -2.137233    2.802389   19.603910    ( 0.0000,  0.0000,  0.0000)
  40 H     -0.200187    3.702961   19.326381    ( 0.0000,  0.0000,  0.0000)
  41 H     -0.771988    2.748250   17.960250    ( 0.0000,  0.0000,  0.0000)
  42 H     -2.674511    3.676473   19.226302    ( 0.0000,  0.0000,  0.0000)
  43 H     -2.088616    2.877486   20.701995    ( 0.0000,  0.0000,  0.0000)
  44 H      0.169788    1.691551   20.393226    ( 0.0000,  0.0000,  0.0000)
  45 H     -2.318688    0.893571   19.309737    ( 0.0000,  0.0000,  0.0000)
  46 N      0.007531    1.580239   16.932086    ( 0.0000,  0.0000,  0.0000)
  47 N      0.009897    2.730310   16.947384    ( 0.0000,  0.0000,  0.0000)

Unit cell:
           periodic     x           y           z      points  spacing
  1. axis:    yes    9.702222    0.000000    0.000000    60     0.1617
  2. axis:    yes    0.000000    9.702222    0.000000    60     0.1617
  3. axis:    no     0.000000    0.000000   26.351111   164     0.1607

  Lengths:   9.702222   9.702222  26.351111
  Angles:   90.000000  90.000000  90.000000

Effective grid spacing dv^(1/3) = 0.1614

     iter     time        total  log10-change:
                         energy  eigst   dens
iter:   1 12:37:18  -326.800663  +0.11
iter:   2 12:37:26  -325.122164  +0.11  -1.06
iter:   3 12:37:33  -323.760551  -0.52  -1.09
iter:   4 12:37:40  -323.699773  -1.05  -1.62
Writing to output.gpw (mode='')

iter:   5 12:37:48  -323.684834  -1.23  -1.86
iter:   6 12:37:55  -323.670418c -0.90  -2.01
iter:   7 12:38:02  -323.671519c -1.54  -2.06
iter:   8 12:38:10  -323.670480c -1.72  -2.21
iter:   9 12:38:17  -323.662921c -1.89  -2.22
Writing to output.gpw (mode='')

iter:  10 12:38:24  -323.662864c -2.39  -2.53
iter:  11 12:38:32  -323.662573c -2.55  -2.57
iter:  12 12:38:39  -323.662574c -2.55  -2.59
iter:  13 12:38:46  -323.662687c -2.91  -2.91
iter:  14 12:38:54  -323.662911c -3.19  -2.98
Writing to output.gpw (mode='')

iter:  15 12:39:01  -323.662965c -3.22  -3.11
iter:  16 12:39:08  -323.663049c -3.27  -3.15
iter:  17 12:39:16  -323.663124c -3.32  -3.22
iter:  18 12:39:23  -323.663217c -3.84  -3.25
iter:  19 12:39:30  -323.663148c -3.92  -3.25
Writing to output.gpw (mode='')

iter:  20 12:39:45  -323.663152c -4.10  -3.36
iter:  21 12:39:53  -323.663250c -3.88  -3.48
iter:  22 12:40:00  -323.663292c -3.93  -3.58
iter:  23 12:40:07  -323.663302c -4.25  -3.62
iter:  24 12:40:15  -323.663302c -4.15  -3.72
Writing to output.gpw (mode='')

iter:  25 12:40:22  -323.663320c -4.51  -3.79
iter:  26 12:40:29  -323.663296c -4.61  -3.79
iter:  27 12:40:37  -323.663278c -4.51  -3.90
iter:  28 12:40:44  -323.663298c -4.80  -3.87
iter:  29 12:40:51  -323.663301c -4.88  -4.16c
Writing to output.gpw (mode='')

iter:  30 12:40:59  -323.663314c -4.87  -4.23c
iter:  31 12:41:09  -323.663308c -4.98  -4.45c
iter:  32 12:41:16  -323.663310c -5.05  -4.62c
iter:  33 12:41:24  -323.663311c -5.29  -4.68c
iter:  34 12:41:31  -323.663312c -5.26  -4.69c
Writing to output.gpw (mode='')

iter:  35 12:41:38  -323.663313c -5.19  -4.69c
iter:  36 12:41:46  -323.663314c -5.48  -4.66c
iter:  37 12:41:54  -323.663314c -5.63  -4.62c
iter:  38 12:42:09  -323.663316c -5.68  -4.56c
iter:  39 12:42:17  -323.663314c -5.68  -4.50c
Writing to output.gpw (mode='')

iter:  40 12:42:25  -323.663314c -5.61  -4.51c
iter:  41 12:42:32  -323.663315c -5.83  -4.58c
iter:  42 12:42:39  -323.663312c -5.76  -4.55c
iter:  43 12:42:47  -323.663313c -6.08  -4.65c
iter:  44 12:42:54  -323.663312c -5.85  -4.65c
Writing to output.gpw (mode='')

iter:  45 12:43:02  -323.663313c -6.07  -4.67c
iter:  46 12:43:09  -323.663315c -6.13  -4.63c
iter:  47 12:43:16  -323.663317c -6.26  -4.63c
iter:  48 12:43:24  -323.663314c -6.45  -4.57c
iter:  49 12:43:31  -323.663311c -6.36  -4.67c
Writing to output.gpw (mode='')

iter:  50 12:43:38  -323.663309c -6.26  -4.67c
iter:  51 12:43:46  -323.663311c -6.49  -4.72c
iter:  52 12:43:53  -323.663306c -6.54  -4.62c
iter:  53 12:44:00  -323.663308c -6.67  -4.88c
iter:  54 12:44:08  -323.663307c -6.80  -4.95c
Writing to output.gpw (mode='')

iter:  55 12:44:15  -323.663307c -6.87  -4.95c
iter:  56 12:44:22  -323.663307c -6.83  -4.96c
iter:  57 12:44:30  -323.663305c -7.00  -5.01c
iter:  58 12:44:43  -323.663307c -7.25  -5.20c
iter:  59 12:44:51  -323.663307c -7.26  -5.30c
Writing to output.gpw (mode='')

iter:  60 12:44:59  -323.663306c -7.16  -5.31c
iter:  61 12:45:06  -323.663306c -7.43c -5.34c

Converged after 61 iterations.

Dipole moment: (-12.792943, -2.887076, 0.269453) |e|*Ang

Energy contributions relative to reference atoms: (reference = -16475.706344)

Kinetic:       +179.958041
Potential:     -166.900168
External:        +0.000000
XC:            -337.783360
Entropy (-ST):   -0.161470
Local:           +1.142916
--------------------------
Free energy:   -323.744042
Extrapolated:  -323.663306

Dipole-layer corrected work functions: 3.406284, 2.888302 eV

Showing only first 2 kpts
 Kpt  Band  Eigenvalues  Occupancy
  0    34     -3.39924    1.98712
  0    35     -3.28535    1.88108
  0    36     -3.06834    0.34186
  0    37     -2.90062    0.01430

  1    34     -3.23128    1.68575
  1    35     -3.13108    0.83926
  1    36     -3.06536    0.32530
  1    37     -3.03940    0.20721


Fermi level: -3.14729

No gap
Writing to output.gpw (mode='')


Forces in eV/Ang:
  0 Li    0.02179   -0.00261   -0.27723
  1 Li   -0.00063    0.00091   -0.27104
  2 Li   -0.02089   -0.00270   -0.27737
  3 Li   -0.00078    0.01939   -0.27647
  4 Li    0.00054   -0.00647   -0.26743
  5 Li   -0.00006    0.01969   -0.27605
  6 Li   -0.00437   -0.01412   -0.26828
  7 Li   -0.00002    0.00643   -0.28279
  8 Li    0.00495   -0.01543   -0.26765
  9 Li    0.00243   -0.00602    0.28971
 10 Li    0.00931    0.00256    0.26057
 11 Li   -0.01308    0.00074    0.26020
 12 Li    0.00053   -0.00036    0.33760
 13 Li    0.01069   -0.00133    0.25853
 14 Li   -0.01089   -0.00229    0.25954
 15 Li   -0.00145    0.00547    0.24226
 16 Li   -0.00185    0.00050    0.25273
 17 Li    0.00312    0.00490    0.24960
 18 Li    0.02723   -0.01196   -0.10695
 19 Li   -0.00441    0.00652    0.06438
 20 Li   -0.02907   -0.01522   -0.10770
 21 Li    0.00630   -0.00756    0.00607
 22 Li   -0.00054   -0.00236    0.05001
 23 Li   -0.00601   -0.01010    0.02004
 24 Li   -0.01172    0.01239    0.05044
 25 Li   -0.00102   -0.01242    0.02046
 26 Li    0.01274    0.01940    0.05539
 27 Li    0.01841    0.05300    0.34118
 28 Li    0.05036   -0.05584   -0.02063
 29 Li   -0.04874   -0.04060   -0.00220
 30 Li   -0.00033    1.49405   -3.75837
 31 Li    0.06708    0.05044   -0.02128
 32 Li   -0.08825    0.04115   -0.02799
 33 Li   -0.00640    0.01810   -0.03840
 34 Li   -0.00312    0.00107   -0.02403
 35 Li    0.00991   -0.00718   -0.02151
 36 O    -0.31309    0.23826   -0.00758
 37 O    -0.06986   -0.08840   -0.14012
 38 C    -0.88218    0.46371    2.85396
 39 C    -0.08739    0.08743    0.38694
 40 H     0.06658    0.14860    0.09526
 41 H    -1.88653    1.31744    2.73875
 42 H     0.00215    0.04954    0.02480
 43 H    -0.18292    0.00867    0.09839
 44 H     0.08826   -0.04662   -0.03987
 45 H     0.01044   -0.05890    0.00131
 46 N     1.37110   -1.83635   -2.73611
 47 N     1.85877   -1.82769    0.30105

System changes: positions 

Initializing position-dependent things.

Density initialized from wave functions
       .-----------------------.  
      /|                       |  
     / |                       |  
    /  |                       |  
   /   |                       |  
  /    |                       |  
 *     |                       |  
 |     |                       |  
 |     |                       |  
 |     |                       |  
 |     |                       |  
 |     |              H        |  
 |H    |             C     H   |  
 |     |       Li      LiCO    |  
 |     |           OH    H     |  
 |     |     Li      Li      Li|  
 | N   |                       |  
 |NLi  |  LLi     LLi     Li   |  
 |     |                       |  
 Li    |Li      Li      Li     |  
 |   Li|     Li      Li        |  
 |    Li  Li  Li  Li  Li  Li   |  
 | Li  |   Li      Li          |  
 |     |Li      Li      Li     |  
 Li    | Li      Li            |  
 |    Li      Li      Li       |  
 |     |                       |  
 |     |                       |  
 |     |                       |  
 |     |                       |  
 |     |                       |  
 |     |                       |  
 |     .-----------------------.  
 |    /                       /   
 |   /                       /    
 |  /                       /     
 | /                       /      
 |/                       /       
 *-----------------------*        

Positions:
   0 Li     1.617037    1.617037   10.000000    ( 0.0000,  0.0000,  0.0000)
   1 Li     4.851111    1.617037   10.000000    ( 0.0000,  0.0000,  0.0000)
   2 Li     8.085185    1.617037   10.000000    ( 0.0000,  0.0000,  0.0000)
   3 Li     1.617037    4.851111   10.000000    ( 0.0000,  0.0000,  0.0000)
   4 Li     4.851111    4.851111   10.000000    ( 0.0000,  0.0000,  0.0000)
   5 Li     8.085185    4.851111   10.000000    ( 0.0000,  0.0000,  0.0000)
   6 Li     1.617037    8.085185   10.000000    ( 0.0000,  0.0000,  0.0000)
   7 Li     4.851111    8.085185   10.000000    ( 0.0000,  0.0000,  0.0000)
   8 Li     8.085185    8.085185   10.000000    ( 0.0000,  0.0000,  0.0000)
   9 Li     0.000000    0.000000   11.617037    ( 0.0000,  0.0000,  0.0000)
  10 Li     3.234074    0.000000   11.617037    ( 0.0000,  0.0000,  0.0000)
  11 Li     6.468148    0.000000   11.617037    ( 0.0000,  0.0000,  0.0000)
  12 Li     0.000000    3.234074   11.617037    ( 0.0000,  0.0000,  0.0000)
  13 Li     3.234074    3.234074   11.617037    ( 0.0000,  0.0000,  0.0000)
  14 Li     6.468148    3.234074   11.617037    ( 0.0000,  0.0000,  0.0000)
  15 Li     0.000000    6.468148   11.617037    ( 0.0000,  0.0000,  0.0000)
  16 Li     3.234074    6.468148   11.617037    ( 0.0000,  0.0000,  0.0000)
  17 Li     6.468148    6.468148   11.617037    ( 0.0000,  0.0000,  0.0000)
  18 Li     1.617429    1.616876   13.468239    ( 0.0000,  0.0000,  0.0000)
  19 Li     4.851049    1.617131   13.470660    ( 0.0000,  0.0000,  0.0000)
  20 Li     8.084768    1.616842   13.468211    ( 0.0000,  0.0000,  0.0000)
  21 Li     1.617104    4.850963   13.469894    ( 0.0000,  0.0000,  0.0000)
  22 Li     4.851107    4.851094   13.470447    ( 0.0000,  0.0000,  0.0000)
  23 Li     8.085120    4.850919   13.470094    ( 0.0000,  0.0000,  0.0000)
  24 Li     1.616867    8.085380   13.470479    ( 0.0000,  0.0000,  0.0000)
  25 Li     4.851093    8.084994   13.470021    ( 0.0000,  0.0000,  0.0000)
  26 Li     8.085369    8.085475   13.470552    ( 0.0000,  0.0000,  0.0000)
  27 Li     0.000256    0.000517   15.450552    ( 0.0000,  0.0000,  0.0000)
  28 Li     3.234816   -0.000804   15.445596    ( 0.0000,  0.0000,  0.0000)
  29 Li     6.467409   -0.000598   15.445864    ( 0.0000,  0.0000,  0.0000)
  30 Li     0.000152    3.257013   15.388881    ( 0.0000,  0.0000,  0.0000)
  31 Li     3.235106    3.234813   15.445547    ( 0.0000,  0.0000,  0.0000)
  32 Li     6.466798    3.234691   15.445448    ( 0.0000,  0.0000,  0.0000)
  33 Li    -0.000093    6.468415   15.445379    ( 0.0000,  0.0000,  0.0000)
  34 Li     3.234013    6.468150   15.445600    ( 0.0000,  0.0000,  0.0000)
  35 Li     6.468308    6.468037   15.445638    ( 0.0000,  0.0000,  0.0000)
  36 O     -0.004354    1.620226   19.444953    ( 0.0000,  0.0000,  0.0000)
  37 O     -2.899369    1.659638   19.211169    ( 0.0000,  0.0000,  0.0000)
  38 C     -0.743023    2.796106   19.077519    ( 0.0000,  0.0000,  0.0000)
  39 C     -2.138039    2.803253   19.607686    ( 0.0000,  0.0000,  0.0000)
  40 H     -0.199535    3.704403   19.327292    ( 0.0000,  0.0000,  0.0000)
  41 H     -0.790685    2.761297   17.987438    ( 0.0000,  0.0000,  0.0000)
  42 H     -2.674493    3.676964   19.226543    ( 0.0000,  0.0000,  0.0000)
  43 H     -2.090403    2.877572   20.702950    ( 0.0000,  0.0000,  0.0000)
  44 H      0.170655    1.691104   20.392842    ( 0.0000,  0.0000,  0.0000)
  45 H     -2.318585    0.892987   19.309752    ( 0.0000,  0.0000,  0.0000)
  46 N      0.021106    1.560477   16.905066    ( 0.0000,  0.0000,  0.0000)
  47 N      0.028282    2.713799   16.950352    ( 0.0000,  0.0000,  0.0000)

Unit cell:
           periodic     x           y           z      points  spacing
  1. axis:    yes    9.702222    0.000000    0.000000    60     0.1617
  2. axis:    yes    0.000000    9.702222    0.000000    60     0.1617
  3. axis:    no     0.000000    0.000000   26.351111   164     0.1607

  Lengths:   9.702222   9.702222  26.351111
  Angles:   90.000000  90.000000  90.000000

Effective grid spacing dv^(1/3) = 0.1614

     iter     time        total  log10-change:
                         energy  eigst   dens
iter:   1 12:45:15  -324.193864  -0.86
iter:   2 12:45:23  -324.192352  -1.64  -2.09
iter:   3 12:45:30  -324.191999c -2.15  -2.19
iter:   4 12:45:37  -324.186167c -2.33  -2.27
Writing to output.gpw (mode='')

iter:   5 12:45:45  -324.181448c -1.94  -2.43
iter:   6 12:45:52  -324.179538c -2.55  -2.49
iter:   7 12:45:59  -324.179564c -2.30  -2.67
iter:   8 12:46:07  -324.179086c -2.99  -2.81
iter:   9 12:46:14  -324.179244c -3.32  -2.79
Writing to output.gpw (mode='')

iter:  10 12:46:22  -324.178764c -3.68  -2.89
iter:  11 12:46:29  -324.178914c -3.56  -3.01
iter:  12 12:46:36  -324.179063c -3.99  -3.23
iter:  13 12:46:44  -324.179005c -4.26  -3.27
iter:  14 12:46:51  -324.178988c -4.35  -3.57
Writing to output.gpw (mode='')

iter:  15 12:46:58  -324.179006c -4.90  -3.64
iter:  16 12:47:06  -324.178990c -5.00  -3.73
iter:  17 12:47:13  -324.179002c -5.44  -3.99
iter:  18 12:47:20  -324.178994c -5.21  -4.01c
iter:  19 12:47:27  -324.179006c -5.64  -3.96
Writing to output.gpw (mode='')

iter:  20 12:47:35  -324.179006c -5.40  -4.15c
iter:  21 12:47:42  -324.179006c -5.87  -4.23c
iter:  22 12:47:49  -324.179003c -5.98  -4.35c
iter:  23 12:47:57  -324.179004c -6.04  -4.42c
iter:  24 12:48:04  -324.179002c -6.37  -4.52c
Writing to output.gpw (mode='')

iter:  25 12:48:12  -324.179003c -6.30  -4.59c
iter:  26 12:48:19  -324.179002c -6.64  -4.69c
iter:  27 12:48:26  -324.179002c -6.74  -4.73c
iter:  28 12:48:34  -324.179003c -6.68  -4.88c
iter:  29 12:48:41  -324.179002c -6.82  -4.94c
Writing to output.gpw (mode='')

iter:  30 12:48:48  -324.179002c -6.86  -5.23c
iter:  31 12:48:56  -324.179002c -6.94  -5.23c
iter:  32 12:49:03  -324.179002c -7.29  -5.25c
iter:  33 12:49:10  -324.179002c -7.03  -5.42c
iter:  34 12:49:17  -324.179002c -7.45c -5.45c

Converged after 34 iterations.

Dipole moment: (-15.584282, -2.898767, 0.282593) |e|*Ang

Energy contributions relative to reference atoms: (reference = -16475.706344)

Kinetic:       +177.910424
Potential:     -165.705226
External:        +0.000000
XC:            -337.441646
Entropy (-ST):   -0.160557
Local:           +1.137726
--------------------------
Free energy:   -324.259281
Extrapolated:  -324.179002

Dipole-layer corrected work functions: 3.404861, 2.861620 eV

Showing only first 2 kpts
 Kpt  Band  Eigenvalues  Occupancy
  0    34     -3.38609    1.98735
  0    35     -3.27432    1.88765
  0    36     -3.05127    0.32511
  0    37     -2.88947    0.01515

  1    34     -3.21144    1.65383
  1    35     -3.11891    0.85770
  1    36     -3.05341    0.33692
  1    37     -3.02220    0.19580


Fermi level: -3.13324

No gap
Writing to output.gpw (mode='')


Forces in eV/Ang:
  0 Li    0.02162   -0.00249   -0.27831
  1 Li   -0.00028    0.00106   -0.27035
  2 Li   -0.02106   -0.00256   -0.27813
  3 Li   -0.00159    0.02014   -0.27743
  4 Li    0.00058   -0.00654   -0.26705
  5 Li    0.00062    0.01986   -0.27728
  6 Li   -0.00476   -0.01486   -0.26785
  7 Li   -0.00012    0.00690   -0.28341
  8 Li    0.00547   -0.01595   -0.26678
  9 Li    0.00272   -0.00593    0.29175
 10 Li    0.01079    0.00157    0.26073
 11 Li   -0.01542    0.00026    0.25926
 12 Li    0.00043   -0.00020    0.34289
 13 Li    0.01077   -0.00105    0.25975
 14 Li   -0.01053   -0.00219    0.26097
 15 Li   -0.00137    0.00571    0.24165
 16 Li   -0.00165    0.00040    0.25232
 17 Li    0.00288    0.00557    0.24967
 18 Li    0.03122   -0.01618   -0.11416
 19 Li   -0.00481    0.00616    0.06404
 20 Li   -0.03228   -0.02130   -0.10945
 21 Li    0.01340    0.00043   -0.00522
 22 Li   -0.00180   -0.00201    0.04933
 23 Li   -0.01232   -0.00179    0.01085
 24 Li   -0.01182    0.01288    0.05040
 25 Li    0.00002   -0.01265    0.02011
 26 Li    0.01262    0.02091    0.05457
 27 Li    0.01733    0.02902    0.32287
 28 Li    0.05245   -0.05713   -0.02113
 29 Li   -0.04688   -0.03961   -0.00312
 30 Li   -0.03514    1.20840   -2.89019
 31 Li    0.06906    0.05092   -0.02161
 32 Li   -0.08609    0.04046   -0.02685
 33 Li   -0.00730    0.01936   -0.03790
 34 Li   -0.00404    0.00121   -0.02414
 35 Li    0.01187   -0.00838   -0.02069
 36 O    -0.30836    0.24856    0.20819
 37 O     0.00466   -0.04271   -0.12676
 38 C    -0.51321    0.25232    1.73510
 39 C    -0.39259    0.08024    0.60425
 40 H     0.08482    0.25816    0.24733
 41 H    -1.49855    1.09198    2.26724
 42 H     0.01929    0.03733    0.04324
 43 H    -0.28550    0.00665    0.21365
 44 H     0.11803   -0.12497   -0.03282
 45 H    -0.00199   -0.04925   -0.00388
 46 N     1.11736   -0.94772   -2.29978
 47 N     1.63070   -2.05286   -0.11833

System changes: positions 

Initializing position-dependent things.

Density initialized from wave functions
       .-----------------------.  
      /|                       |  
     / |                       |  
    /  |                       |  
   /   |                       |  
  /    |                       |  
 *     |                       |  
 |     |                       |  
 |     |                       |  
 |     |                       |  
 |     |                       |  
 |     |              H        |  
 |H    |             C     H   |  
 |     |       Li      LiCO    |  
 |     |           OH    H     |  
 |     |     Li      Li      Li|  
 | N   |                       |  
 |N    |  LLi     LLi     LLi  |  
 |     |                       |  
 Li    |Li      Li      Li     |  
 |   Li|     Li      Li        |  
 |    Li  Li  Li  Li  Li  Li   |  
 | Li  |   Li      Li          |  
 |     |Li      Li      Li     |  
 Li    | Li      Li            |  
 |    Li      Li      Li       |  
 |     |                       |  
 |     |                       |  
 |     |                       |  
 |     |                       |  
 |     |                       |  
 |     |                       |  
 |     .-----------------------.  
 |    /                       /   
 |   /                       /    
 |  /                       /     
 | /                       /      
 |/                       /       
 *-----------------------*        

Positions:
   0 Li     1.617037    1.617037   10.000000    ( 0.0000,  0.0000,  0.0000)
   1 Li     4.851111    1.617037   10.000000    ( 0.0000,  0.0000,  0.0000)
   2 Li     8.085185    1.617037   10.000000    ( 0.0000,  0.0000,  0.0000)
   3 Li     1.617037    4.851111   10.000000    ( 0.0000,  0.0000,  0.0000)
   4 Li     4.851111    4.851111   10.000000    ( 0.0000,  0.0000,  0.0000)
   5 Li     8.085185    4.851111   10.000000    ( 0.0000,  0.0000,  0.0000)
   6 Li     1.617037    8.085185   10.000000    ( 0.0000,  0.0000,  0.0000)
   7 Li     4.851111    8.085185   10.000000    ( 0.0000,  0.0000,  0.0000)
   8 Li     8.085185    8.085185   10.000000    ( 0.0000,  0.0000,  0.0000)
   9 Li     0.000000    0.000000   11.617037    ( 0.0000,  0.0000,  0.0000)
  10 Li     3.234074    0.000000   11.617037    ( 0.0000,  0.0000,  0.0000)
  11 Li     6.468148    0.000000   11.617037    ( 0.0000,  0.0000,  0.0000)
  12 Li     0.000000    3.234074   11.617037    ( 0.0000,  0.0000,  0.0000)
  13 Li     3.234074    3.234074   11.617037    ( 0.0000,  0.0000,  0.0000)
  14 Li     6.468148    3.234074   11.617037    ( 0.0000,  0.0000,  0.0000)
  15 Li     0.000000    6.468148   11.617037    ( 0.0000,  0.0000,  0.0000)
  16 Li     3.234074    6.468148   11.617037    ( 0.0000,  0.0000,  0.0000)
  17 Li     6.468148    6.468148   11.617037    ( 0.0000,  0.0000,  0.0000)
  18 Li     1.617856    1.616651   13.466712    ( 0.0000,  0.0000,  0.0000)
  19 Li     4.850985    1.617212   13.471513    ( 0.0000,  0.0000,  0.0000)
  20 Li     8.084330    1.616548   13.466757    ( 0.0000,  0.0000,  0.0000)
  21 Li     1.617296    4.850980   13.469813    ( 0.0000,  0.0000,  0.0000)
  22 Li     4.851080    4.851073   13.471101    ( 0.0000,  0.0000,  0.0000)
  23 Li     8.084944    4.850906   13.470233    ( 0.0000,  0.0000,  0.0000)
  24 Li     1.616709    8.085558   13.471158    ( 0.0000,  0.0000,  0.0000)
  25 Li     4.851095    8.084822   13.470287    ( 0.0000,  0.0000,  0.0000)
  26 Li     8.085537    8.085761   13.471284    ( 0.0000,  0.0000,  0.0000)
  27 Li     0.000481    0.000764   15.454714    ( 0.0000,  0.0000,  0.0000)
  28 Li     3.235525   -0.001568   15.445300    ( 0.0000,  0.0000,  0.0000)
  29 Li     6.466779   -0.001127   15.445807    ( 0.0000,  0.0000,  0.0000)
  30 Li    -0.000374    3.272680   15.352081    ( 0.0000,  0.0000,  0.0000)
  31 Li     3.236050    3.235495   15.445235    ( 0.0000,  0.0000,  0.0000)
  32 Li     6.465635    3.235234   15.445068    ( 0.0000,  0.0000,  0.0000)
  33 Li    -0.000193    6.468678   15.444874    ( 0.0000,  0.0000,  0.0000)
  34 Li     3.233951    6.468164   15.445280    ( 0.0000,  0.0000,  0.0000)
  35 Li     6.468477    6.467921   15.445367    ( 0.0000,  0.0000,  0.0000)
  36 O     -0.008403    1.623498   19.448106    ( 0.0000,  0.0000,  0.0000)
  37 O     -2.899137    1.659169   19.209501    ( 0.0000,  0.0000,  0.0000)
  38 C     -0.749283    2.799186   19.098183    ( 0.0000,  0.0000,  0.0000)
  39 C     -2.143883    2.804316   19.616197    ( 0.0000,  0.0000,  0.0000)
  40 H     -0.198368    3.708053   19.330894    ( 0.0000,  0.0000,  0.0000)
  41 H     -0.810141    2.775575   18.017398    ( 0.0000,  0.0000,  0.0000)
  42 H     -2.674203    3.677438   19.227160    ( 0.0000,  0.0000,  0.0000)
  43 H     -2.094433    2.877657   20.706062    ( 0.0000,  0.0000,  0.0000)
  44 H      0.172302    1.689275   20.392470    ( 0.0000,  0.0000,  0.0000)
  45 H     -2.318649    0.892338   19.309698    ( 0.0000,  0.0000,  0.0000)
  46 N      0.035635    1.541911   16.875288    ( 0.0000,  0.0000,  0.0000)
  47 N      0.049767    2.693315   16.947577    ( 0.0000,  0.0000,  0.0000)

Unit cell:
           periodic     x           y           z      points  spacing
  1. axis:    yes    9.702222    0.000000    0.000000    60     0.1617
  2. axis:    yes    0.000000    9.702222    0.000000    60     0.1617
  3. axis:    no     0.000000    0.000000   26.351111   164     0.1607

  Lengths:   9.702222   9.702222  26.351111
  Angles:   90.000000  90.000000  90.000000

Effective grid spacing dv^(1/3) = 0.1614

     iter     time        total  log10-change:
                         energy  eigst   dens
iter:   1 12:49:27  -324.639604  -0.87
iter:   2 12:49:34  -324.629779  -1.42  -1.90
iter:   3 12:49:48  -324.615376c -2.17  -1.91
iter:   4 12:49:55  -324.609743c -2.13  -2.35
Writing to output.gpw (mode='')

iter:   5 12:50:02  -324.608529c -2.05  -2.47
iter:   6 12:50:10  -324.608444c -2.69  -2.41
iter:   7 12:50:17  -324.607976c -2.59  -2.73
iter:   8 12:50:25  -324.607349c -3.35  -2.80
iter:   9 12:50:32  -324.607382c -3.38  -2.86
Writing to output.gpw (mode='')

iter:  10 12:50:39  -324.607789c -3.66  -2.97
iter:  11 12:50:47  -324.607339c -3.46  -3.06
iter:  12 12:50:54  -324.607548c -4.39  -3.18
iter:  13 12:51:02  -324.607373c -4.11  -3.28
iter:  14 12:51:09  -324.607422c -4.54  -3.52
Writing to output.gpw (mode='')

iter:  15 12:51:16  -324.607443c -4.77  -3.64
iter:  16 12:51:24  -324.607429c -4.95  -3.74
iter:  17 12:51:31  -324.607433c -5.33  -3.89
iter:  18 12:51:39  -324.607432c -5.16  -3.93
iter:  19 12:51:46  -324.607440c -5.60  -4.15c
Writing to output.gpw (mode='')

iter:  20 12:51:53  -324.607432c -5.56  -4.20c
iter:  21 12:52:01  -324.607436c -5.87  -4.20c
iter:  22 12:52:08  -324.607442c -5.72  -4.24c
iter:  23 12:52:15  -324.607443c -5.81  -4.26c
iter:  24 12:52:23  -324.607438c -6.05  -4.35c
Writing to output.gpw (mode='')

iter:  25 12:52:30  -324.607442c -6.27  -4.48c
iter:  26 12:52:37  -324.607436c -6.29  -4.50c
iter:  27 12:52:45  -324.607440c -6.56  -4.54c
iter:  28 12:52:52  -324.607440c -6.63  -4.75c
iter:  29 12:53:00  -324.607439c -6.89  -4.91c
Writing to output.gpw (mode='')

iter:  30 12:53:07  -324.607441c -6.83  -4.95c
iter:  31 12:53:14  -324.607441c -6.94  -4.98c
iter:  32 12:53:22  -324.607440c -7.19  -5.14c
iter:  33 12:53:29  -324.607440c -7.29  -5.26c
iter:  34 12:53:37  -324.607440c -7.41c -5.32c

Converged after 34 iterations.

Dipole moment: (-18.273752, -2.910749, 0.294229) |e|*Ang

Energy contributions relative to reference atoms: (reference = -16475.706344)

Kinetic:       +176.838594
Potential:     -165.214890
External:        +0.000000
XC:            -337.285521
Entropy (-ST):   -0.159308
Local:           +1.134031
--------------------------
Free energy:   -324.687093
Extrapolated:  -324.607440

Dipole-layer corrected work functions: 3.403282, 2.837674 eV

Showing only first 2 kpts
 Kpt  Band  Eigenvalues  Occupancy
  0    34     -3.37430    1.98759
  0    35     -3.26464    1.89403
  0    36     -3.03464    0.30458
  0    37     -2.88022    0.01624

  1    34     -3.19348    1.62310
  1    35     -3.10856    0.88137
  1    36     -3.04299    0.35025
  1    37     -3.00664    0.18612


Fermi level: -3.12048

No gap
Writing to output.gpw (mode='')


Forces in eV/Ang:
  0 Li    0.02139   -0.00229   -0.27931
  1 Li    0.00010    0.00126   -0.26972
  2 Li   -0.02121   -0.00229   -0.27887
  3 Li   -0.00244    0.02071   -0.27836
  4 Li    0.00062   -0.00667   -0.26663
  5 Li    0.00135    0.01995   -0.27839
  6 Li   -0.00527   -0.01559   -0.26736
  7 Li   -0.00020    0.00733   -0.28386
  8 Li    0.00597   -0.01642   -0.26602
  9 Li    0.00301   -0.00587    0.29366
 10 Li    0.01234    0.00038    0.26085
 11 Li   -0.01767   -0.00033    0.25828
 12 Li    0.00045    0.00011    0.34730
 13 Li    0.01086   -0.00069    0.26102
 14 Li   -0.01055   -0.00201    0.26212
 15 Li   -0.00132    0.00577    0.24128
 16 Li   -0.00129    0.00060    0.25193
 17 Li    0.00251    0.00608    0.24978
 18 Li    0.03480   -0.02046   -0.11984
 19 Li   -0.00515    0.00570    0.06324
 20 Li   -0.03532   -0.02692   -0.10999
 21 Li    0.02123    0.00887   -0.01664
 22 Li   -0.00298   -0.00127    0.04804
 23 Li   -0.01933    0.00650    0.00147
 24 Li   -0.01198    0.01373    0.05039
 25 Li    0.00099   -0.01303    0.01958
 26 Li    0.01257    0.02250    0.05388
 27 Li    0.01523   -0.01404    0.28667
 28 Li    0.05468   -0.05859   -0.02201
 29 Li   -0.04610   -0.03878   -0.00465
 30 Li   -0.06157    0.98702   -2.23176
 31 Li    0.07081    0.05171   -0.02261
 32 Li   -0.08411    0.03985   -0.02624
 33 Li   -0.00815    0.02087   -0.03691
 34 Li   -0.00517    0.00115   -0.02391
 35 Li    0.01396   -0.00929   -0.01956
 36 O    -0.29554    0.18870    0.19769
 37 O     0.00592   -0.01317   -0.09871
 38 C    -0.32814    0.26060    1.23431
 39 C    -0.40750    0.05190    0.57749
 40 H     0.04619    0.25028    0.33366
 41 H    -1.17492    0.84174    1.62497
 42 H    -0.00900    0.04778    0.06921
 43 H    -0.37525    0.00646    0.38159
 44 H     0.15279   -0.14739    0.10222
 45 H     0.00150   -0.03605   -0.00089
 46 N     0.94638   -0.47533   -1.91097
 47 N     1.55440   -2.02609   -0.39755

System changes: positions 

Initializing position-dependent things.

Density initialized from wave functions
       .-----------------------.  
      /|                       |  
     / |                       |  
    /  |                       |  
   /   |                       |  
  /    |                       |  
 *     |                       |  
 |     |                       |  
 |     |                       |  
 |     |                       |  
 |     |                       |  
 |     |              H        |  
 |H    |             C     H   |  
 |     |       Li      LiCO    |  
 |     |           OH    H     |  
 |     |     Li      Li      Li|  
 | N   |                       |  
 |N    |  LLi     LLi     LLi  |  
 |     |                       |  
 Li    |Li      Li      Li     |  
 |   Li|     Li      Li        |  
 |    Li  Li  Li  Li  Li  Li   |  
 | Li  |   Li      Li          |  
 |     |Li      Li      Li     |  
 Li    | Li      Li            |  
 |    Li      Li      Li       |  
 |     |                       |  
 |     |                       |  
 |     |                       |  
 |     |                       |  
 |     |                       |  
 |     |                       |  
 |     .-----------------------.  
 |    /                       /   
 |   /                       /    
 |  /                       /     
 | /                       /      
 |/                       /       
 *-----------------------*        

Positions:
   0 Li     1.617037    1.617037   10.000000    ( 0.0000,  0.0000,  0.0000)
   1 Li     4.851111    1.617037   10.000000    ( 0.0000,  0.0000,  0.0000)
   2 Li     8.085185    1.617037   10.000000    ( 0.0000,  0.0000,  0.0000)
   3 Li     1.617037    4.851111   10.000000    ( 0.0000,  0.0000,  0.0000)
   4 Li     4.851111    4.851111   10.000000    ( 0.0000,  0.0000,  0.0000)
   5 Li     8.085185    4.851111   10.000000    ( 0.0000,  0.0000,  0.0000)
   6 Li     1.617037    8.085185   10.000000    ( 0.0000,  0.0000,  0.0000)
   7 Li     4.851111    8.085185   10.000000    ( 0.0000,  0.0000,  0.0000)
   8 Li     8.085185    8.085185   10.000000    ( 0.0000,  0.0000,  0.0000)
   9 Li     0.000000    0.000000   11.617037    ( 0.0000,  0.0000,  0.0000)
  10 Li     3.234074    0.000000   11.617037    ( 0.0000,  0.0000,  0.0000)
  11 Li     6.468148    0.000000   11.617037    ( 0.0000,  0.0000,  0.0000)
  12 Li     0.000000    3.234074   11.617037    ( 0.0000,  0.0000,  0.0000)
  13 Li     3.234074    3.234074   11.617037    ( 0.0000,  0.0000,  0.0000)
  14 Li     6.468148    3.234074   11.617037    ( 0.0000,  0.0000,  0.0000)
  15 Li     0.000000    6.468148   11.617037    ( 0.0000,  0.0000,  0.0000)
  16 Li     3.234074    6.468148   11.617037    ( 0.0000,  0.0000,  0.0000)
  17 Li     6.468148    6.468148   11.617037    ( 0.0000,  0.0000,  0.0000)
  18 Li     1.618448    1.616303   13.464709    ( 0.0000,  0.0000,  0.0000)
  19 Li     4.850898    1.617306   13.472572    ( 0.0000,  0.0000,  0.0000)
  20 Li     8.083732    1.616092   13.464926    ( 0.0000,  0.0000,  0.0000)
  21 Li     1.617658    4.851132   13.469539    ( 0.0000,  0.0000,  0.0000)
  22 Li     4.851029    4.851060   13.471902    ( 0.0000,  0.0000,  0.0000)
  23 Li     8.084614    4.851016   13.470266    ( 0.0000,  0.0000,  0.0000)
  24 Li     1.616508    8.085797   13.472012    ( 0.0000,  0.0000,  0.0000)
  25 Li     4.851113    8.084599   13.470612    ( 0.0000,  0.0000,  0.0000)
  26 Li     8.085748    8.086147   13.472195    ( 0.0000,  0.0000,  0.0000)
  27 Li     0.000729    0.000362   15.459338    ( 0.0000,  0.0000,  0.0000)
  28 Li     3.236453   -0.002552   15.444911    ( 0.0000,  0.0000,  0.0000)
  29 Li     6.465996   -0.001779   15.445709    ( 0.0000,  0.0000,  0.0000)
  30 Li    -0.001424    3.289098   15.315621    ( 0.0000,  0.0000,  0.0000)
  31 Li     3.237267    3.236367   15.444820    ( 0.0000,  0.0000,  0.0000)
  32 Li     6.464201    3.235908   15.444595    ( 0.0000,  0.0000,  0.0000)
  33 Li    -0.000332    6.469033   15.444254    ( 0.0000,  0.0000,  0.0000)
  34 Li     3.233854    6.468179   15.444883    ( 0.0000,  0.0000,  0.0000)
  35 Li     6.468724    6.467760   15.445046    ( 0.0000,  0.0000,  0.0000)
  36 O     -0.013272    1.626566   19.451539    ( 0.0000,  0.0000,  0.0000)
  37 O     -2.898936    1.659009   19.207859    ( 0.0000,  0.0000,  0.0000)
  38 C     -0.754627    2.803560   19.117375    ( 0.0000,  0.0000,  0.0000)
  39 C     -2.151001    2.805185   19.626105    ( 0.0000,  0.0000,  0.0000)
  40 H     -0.197586    3.712334   19.336647    ( 0.0000,  0.0000,  0.0000)
  41 H     -0.829775    2.789671   18.045056    ( 0.0000,  0.0000,  0.0000)
  42 H     -2.674346    3.678231   19.228347    ( 0.0000,  0.0000,  0.0000)
  43 H     -2.100865    2.877763   20.712650    ( 0.0000,  0.0000,  0.0000)
  44 H      0.174918    1.686718   20.394291    ( 0.0000,  0.0000,  0.0000)
  45 H     -2.318653    0.891729   19.309690    ( 0.0000,  0.0000,  0.0000)
  46 N      0.051430    1.523516   16.843764    ( 0.0000,  0.0000,  0.0000)
  47 N      0.075883    2.669963   16.939936    ( 0.0000,  0.0000,  0.0000)

Unit cell:
           periodic     x           y           z      points  spacing
  1. axis:    yes    9.702222    0.000000    0.000000    60     0.1617
  2. axis:    yes    0.000000    9.702222    0.000000    60     0.1617
  3. axis:    no     0.000000    0.000000   26.351111   164     0.1607

  Lengths:   9.702222   9.702222  26.351111
  Angles:   90.000000  90.000000  90.000000

Effective grid spacing dv^(1/3) = 0.1614

     iter     time        total  log10-change:
                         energy  eigst   dens
iter:   1 12:53:46  -325.002722  -0.86
iter:   2 12:53:53  -324.987666  -1.38  -1.89
iter:   3 12:54:00  -324.974579c -2.14  -1.91
iter:   4 12:54:07  -324.968087c -2.02  -2.29
Writing to output.gpw (mode='')

iter:   5 12:54:15  -324.967841c -2.52  -2.42
iter:   6 12:54:22  -324.968684c -2.45  -2.45
iter:   7 12:54:29  -324.966327c -2.77  -2.59
iter:   8 12:54:43  -324.966184c -3.09  -2.89
iter:   9 12:54:51  -324.966275c -3.60  -2.92
Writing to output.gpw (mode='')

iter:  10 12:54:58  -324.966363c -3.54  -2.98
iter:  11 12:55:06  -324.966267c -3.81  -3.16
iter:  12 12:55:13  -324.966326c -4.40  -3.26
iter:  13 12:55:20  -324.966253c -4.44  -3.32
iter:  14 12:55:28  -324.966287c -4.59  -3.47
Writing to output.gpw (mode='')

iter:  15 12:55:35  -324.966280c -4.82  -3.57
iter:  16 12:55:42  -324.966283c -5.05  -3.52
iter:  17 12:55:49  -324.966279c -4.85  -3.60
iter:  18 12:55:57  -324.966275c -5.44  -4.04c
iter:  19 12:56:04  -324.966273c -5.35  -4.10c
Writing to output.gpw (mode='')

iter:  20 12:56:12  -324.966276c -5.49  -4.38c
iter:  21 12:56:19  -324.966277c -5.72  -4.46c
iter:  22 12:56:26  -324.966282c -5.88  -4.57c
iter:  23 12:56:34  -324.966280c -6.08  -4.63c
iter:  24 12:56:41  -324.966281c -6.18  -4.64c
Writing to output.gpw (mode='')

iter:  25 12:56:48  -324.966281c -6.40  -4.77c
iter:  26 12:56:56  -324.966281c -6.51  -4.82c
iter:  27 12:57:05  -324.966282c -6.62  -4.87c
iter:  28 12:57:12  -324.966282c -6.67  -4.88c
iter:  29 12:57:19  -324.966281c -6.67  -5.06c
Writing to output.gpw (mode='')

iter:  30 12:57:27  -324.966281c -6.77  -5.13c
iter:  31 12:57:34  -324.966281c -7.00  -5.16c
iter:  32 12:57:42  -324.966282c -6.94  -5.21c
iter:  33 12:57:49  -324.966282c -7.15  -5.27c
iter:  34 12:57:56  -324.966282c -7.13  -5.27c
Writing to output.gpw (mode='')

iter:  35 12:58:04  -324.966282c -7.33  -5.31c
iter:  36 12:58:11  -324.966283c -7.51c -5.40c

Converged after 36 iterations.

Dipole moment: (-20.802960, -2.911084, 0.302308) |e|*Ang

Energy contributions relative to reference atoms: (reference = -16475.706344)

Kinetic:       +176.014285
Potential:     -164.886725
External:        +0.000000
XC:            -337.146751
Entropy (-ST):   -0.157942
Local:           +1.131879
--------------------------
Free energy:   -325.045254
Extrapolated:  -324.966283

Dipole-layer corrected work functions: 3.401703, 2.820564 eV

Showing only first 2 kpts
 Kpt  Band  Eigenvalues  Occupancy
  0    34     -3.36592    1.98783
  0    35     -3.25788    1.89910
  0    36     -3.02130    0.28449
  0    37     -2.87468    0.01752

  1    34     -3.17996    1.59684
  1    35     -3.10196    0.90854
  1    36     -3.03556    0.36143
  1    37     -2.99465    0.17738


Fermi level: -3.11113

No gap
Writing to output.gpw (mode='')


Forces in eV/Ang:
  0 Li    0.02107   -0.00205   -0.28031
  1 Li    0.00062    0.00149   -0.26913
  2 Li   -0.02138   -0.00196   -0.27968
  3 Li   -0.00330    0.02116   -0.27941
  4 Li    0.00070   -0.00683   -0.26622
  5 Li    0.00209    0.02000   -0.27949
  6 Li   -0.00585   -0.01633   -0.26683
  7 Li   -0.00022    0.00771   -0.28420
  8 Li    0.00641   -0.01681   -0.26545
  9 Li    0.00333   -0.00586    0.29554
 10 Li    0.01401   -0.00097    0.26103
 11 Li   -0.01992   -0.00115    0.25731
 12 Li    0.00060    0.00054    0.35105
 13 Li    0.01091   -0.00028    0.26252
 14 Li   -0.01087   -0.00178    0.26299
 15 Li   -0.00128    0.00569    0.24110
 16 Li   -0.00079    0.00115    0.25165
 17 Li    0.00200    0.00653    0.24987
 18 Li    0.03793   -0.02481   -0.12421
 19 Li   -0.00554    0.00509    0.06200
 20 Li   -0.03832   -0.03204   -0.10971
 21 Li    0.02976    0.01787   -0.02843
 22 Li   -0.00399   -0.00025    0.04630
 23 Li   -0.02717    0.01500   -0.00837
 24 Li   -0.01205    0.01474    0.05014
 25 Li    0.00177   -0.01347    0.01886
 26 Li    0.01249    0.02390    0.05301
 27 Li    0.01166   -0.07393    0.23556
 28 Li    0.05662   -0.06020   -0.02293
 29 Li   -0.04585   -0.03771   -0.00607
 30 Li   -0.08085    0.81089   -1.72231
 31 Li    0.07188    0.05277   -0.02367
 32 Li   -0.08216    0.03906   -0.02580
 33 Li   -0.00888    0.02259   -0.03567
 34 Li   -0.00629    0.00109   -0.02347
 35 Li    0.01593   -0.00998   -0.01836
 36 O    -0.27331    0.16110    0.28102
 37 O     0.00843    0.00044   -0.06713
 38 C    -0.23322    0.21113    0.82098
 39 C    -0.37103    0.05763    0.55967
 40 H     0.01671    0.24806    0.41014
 41 H    -0.91199    0.63919    1.08530
 42 H    -0.04043    0.04890    0.10470
 43 H    -0.45232    0.00051    0.48028
 44 H     0.16153   -0.16384    0.12586
 45 H    -0.00062   -0.01081    0.00191
 46 N     0.73856   -0.17521   -1.54450
 47 N     1.36258   -1.74976   -0.56819

System changes: positions 

Initializing position-dependent things.

Density initialized from wave functions
       .-----------------------.  
      /|                       |  
     / |                       |  
    /  |                       |  
   /   |                       |  
  /    |                       |  
 *     |                       |  
 |     |                       |  
 |     |                       |  
 |     |                       |  
 |     |                       |  
 |     |              H        |  
 |H    |             C     H   |  
 |     Li      Li      LiCO    |  
 |     |           OH    H     |  
 |     |     Li      Li      Li|  
 | N   |                       |  
 |N    |  LLi     LLi     LLi  |  
 |     |                       |  
 |     |Li      Li      Li     |  
 |   Li|     Li      Li        |  
 |    Li  Li  Li  Li  Li  Li   |  
 | Li  |   Li      Li          |  
 |     |Li      Li      Li     |  
 Li    | Li      Li            |  
 |    Li      Li      Li       |  
 |     |                       |  
 |     |                       |  
 |     |                       |  
 |     |                       |  
 |     |                       |  
 |     |                       |  
 |     .-----------------------.  
 |    /                       /   
 |   /                       /    
 |  /                       /     
 | /                       /      
 |/                       /       
 *-----------------------*        

Positions:
   0 Li     1.617037    1.617037   10.000000    ( 0.0000,  0.0000,  0.0000)
   1 Li     4.851111    1.617037   10.000000    ( 0.0000,  0.0000,  0.0000)
   2 Li     8.085185    1.617037   10.000000    ( 0.0000,  0.0000,  0.0000)
   3 Li     1.617037    4.851111   10.000000    ( 0.0000,  0.0000,  0.0000)
   4 Li     4.851111    4.851111   10.000000    ( 0.0000,  0.0000,  0.0000)
   5 Li     8.085185    4.851111   10.000000    ( 0.0000,  0.0000,  0.0000)
   6 Li     1.617037    8.085185   10.000000    ( 0.0000,  0.0000,  0.0000)
   7 Li     4.851111    8.085185   10.000000    ( 0.0000,  0.0000,  0.0000)
   8 Li     8.085185    8.085185   10.000000    ( 0.0000,  0.0000,  0.0000)
   9 Li     0.000000    0.000000   11.617037    ( 0.0000,  0.0000,  0.0000)
  10 Li     3.234074    0.000000   11.617037    ( 0.0000,  0.0000,  0.0000)
  11 Li     6.468148    0.000000   11.617037    ( 0.0000,  0.0000,  0.0000)
  12 Li     0.000000    3.234074   11.617037    ( 0.0000,  0.0000,  0.0000)
  13 Li     3.234074    3.234074   11.617037    ( 0.0000,  0.0000,  0.0000)
  14 Li     6.468148    3.234074   11.617037    ( 0.0000,  0.0000,  0.0000)
  15 Li     0.000000    6.468148   11.617037    ( 0.0000,  0.0000,  0.0000)
  16 Li     3.234074    6.468148   11.617037    ( 0.0000,  0.0000,  0.0000)
  17 Li     6.468148    6.468148   11.617037    ( 0.0000,  0.0000,  0.0000)
  18 Li     1.619204    1.615817   13.462247    ( 0.0000,  0.0000,  0.0000)
  19 Li     4.850788    1.617409   13.473820    ( 0.0000,  0.0000,  0.0000)
  20 Li     8.082970    1.615468   13.462740    ( 0.0000,  0.0000,  0.0000)
  21 Li     1.618227    4.851456   13.469025    ( 0.0000,  0.0000,  0.0000)
  22 Li     4.850952    4.851060   13.472832    ( 0.0000,  0.0000,  0.0000)
  23 Li     8.084096    4.851281   13.470151    ( 0.0000,  0.0000,  0.0000)
  24 Li     1.616265    8.086099   13.473029    ( 0.0000,  0.0000,  0.0000)
  25 Li     4.851146    8.084326   13.470990    ( 0.0000,  0.0000,  0.0000)
  26 Li     8.085999    8.086629   13.473271    ( 0.0000,  0.0000,  0.0000)
  27 Li     0.000967   -0.001090   15.464044    ( 0.0000,  0.0000,  0.0000)
  28 Li     3.237593   -0.003755   15.444432    ( 0.0000,  0.0000,  0.0000)
  29 Li     6.465062   -0.002543   15.445570    ( 0.0000,  0.0000,  0.0000)
  30 Li    -0.002963    3.306133   15.279462    ( 0.0000,  0.0000,  0.0000)
  31 Li     3.238737    3.237426   15.444308    ( 0.0000,  0.0000,  0.0000)
  32 Li     6.462515    3.236703   15.444037    ( 0.0000,  0.0000,  0.0000)
  33 Li    -0.000509    6.469485   15.443533    ( 0.0000,  0.0000,  0.0000)
  34 Li     3.233721    6.468196   15.444415    ( 0.0000,  0.0000,  0.0000)
  35 Li     6.469050    6.467558   15.444680    ( 0.0000,  0.0000,  0.0000)
  36 O     -0.018736    1.629796   19.456877    ( 0.0000,  0.0000,  0.0000)
  37 O     -2.898729    1.658988   19.206405    ( 0.0000,  0.0000,  0.0000)
  38 C     -0.759860    2.808139   19.134682    ( 0.0000,  0.0000,  0.0000)
  39 C     -2.158586    2.806348   19.637458    ( 0.0000,  0.0000,  0.0000)
  40 H     -0.197150    3.717318   19.344643    ( 0.0000,  0.0000,  0.0000)
  41 H     -0.849326    2.803430   18.069708    ( 0.0000,  0.0000,  0.0000)
  42 H     -2.675055    3.679206   19.230342    ( 0.0000,  0.0000,  0.0000)
  43 H     -2.109728    2.877790   20.722007    ( 0.0000,  0.0000,  0.0000)
  44 H      0.178148    1.683466   20.396783    ( 0.0000,  0.0000,  0.0000)
  45 H     -2.318683    0.891415   19.309731    ( 0.0000,  0.0000,  0.0000)
  46 N      0.067113    1.506096   16.811651    ( 0.0000,  0.0000,  0.0000)
  47 N      0.104106    2.646374   16.928475    ( 0.0000,  0.0000,  0.0000)

Unit cell:
           periodic     x           y           z      points  spacing
  1. axis:    yes    9.702222    0.000000    0.000000    60     0.1617
  2. axis:    yes    0.000000    9.702222    0.000000    60     0.1617
  3. axis:    no     0.000000    0.000000   26.351111   164     0.1607

  Lengths:   9.702222   9.702222  26.351111
  Angles:   90.000000  90.000000  90.000000

Effective grid spacing dv^(1/3) = 0.1614

     iter     time        total  log10-change:
                         energy  eigst   dens
iter:   1 12:58:20  -325.296397  -0.87
iter:   2 12:58:27  -325.281615  -1.40  -1.91
iter:   3 12:58:35  -325.270512c -2.15  -1.94
iter:   4 12:58:42  -325.263804c -2.06  -2.27
Writing to output.gpw (mode='')

iter:   5 12:58:49  -325.263729c -2.63  -2.43
iter:   6 12:58:57  -325.264142c -2.43  -2.49
iter:   7 12:59:04  -325.262040c -2.79  -2.60
iter:   8 12:59:12  -325.261925c -3.08  -2.88
iter:   9 12:59:19  -325.261979c -3.59  -2.93
Writing to output.gpw (mode='')

iter:  10 12:59:27  -325.262082c -3.56  -2.99
iter:  11 12:59:34  -325.261984c -3.80  -3.17
iter:  12 12:59:46  -325.262050c -4.31  -3.27
iter:  13 12:59:54  -325.261950c -4.30  -3.30
iter:  14 13:00:01  -325.262009c -4.56  -3.53
Writing to output.gpw (mode='')

iter:  15 13:00:09  -325.261997c -4.77  -3.66
iter:  16 13:00:16  -325.261998c -4.59  -3.71
iter:  17 13:00:24  -325.261994c -5.39  -3.85
iter:  18 13:00:31  -325.261994c -5.47  -4.06c
iter:  19 13:00:38  -325.262006c -5.45  -4.13c
Writing to output.gpw (mode='')

iter:  20 13:00:46  -325.262000c -5.51  -4.21c
iter:  21 13:00:53  -325.262000c -5.70  -4.34c
iter:  22 13:01:00  -325.261998c -5.96  -4.39c
iter:  23 13:01:08  -325.262000c -6.22  -4.51c
iter:  24 13:01:15  -325.262000c -6.29  -4.53c
Writing to output.gpw (mode='')

iter:  25 13:01:23  -325.262004c -6.38  -4.63c
iter:  26 13:01:30  -325.262001c -6.34  -4.80c
iter:  27 13:01:37  -325.262002c -6.65  -4.93c
iter:  28 13:01:45  -325.262002c -6.60  -5.01c
iter:  29 13:01:52  -325.262002c -6.85  -5.14c
Writing to output.gpw (mode='')

iter:  30 13:01:59  -325.262002c -7.07  -5.22c
iter:  31 13:02:07  -325.262002c -6.95  -5.31c
iter:  32 13:02:14  -325.262002c -7.20  -5.40c
iter:  33 13:02:22  -325.262002c -7.27  -5.45c
iter:  34 13:02:29  -325.262002c -7.50c -5.46c

Converged after 34 iterations.

Dipole moment: (-22.693108, -2.890728, 0.307045) |e|*Ang

Energy contributions relative to reference atoms: (reference = -16475.706344)

Kinetic:       +175.411390
Potential:     -164.684503
External:        +0.000000
XC:            -337.039888
Entropy (-ST):   -0.156604
Local:           +1.129301
--------------------------
Free energy:   -325.340304
Extrapolated:  -325.262002

Dipole-layer corrected work functions: 3.400197, 2.809951 eV

Showing only first 2 kpts
 Kpt  Band  Eigenvalues  Occupancy
  0    34     -3.36077    1.98805
  0    35     -3.25357    1.90239
  0    36     -3.01142    0.26637
  0    37     -2.87288    0.01906

  1    34     -3.17108    1.57839
  1    35     -3.09878    0.93716
  1    36     -3.03071    0.36868
  1    37     -2.98595    0.16902


Fermi level: -3.10507

No gap
Writing to output.gpw (mode='')


Forces in eV/Ang:
  0 Li    0.02067   -0.00179   -0.28133
  1 Li    0.00120    0.00179   -0.26858
  2 Li   -0.02149   -0.00159   -0.28064
  3 Li   -0.00413    0.02149   -0.28054
  4 Li    0.00080   -0.00699   -0.26577
  5 Li    0.00278    0.02002   -0.28059
  6 Li   -0.00649   -0.01703   -0.26627
  7 Li   -0.00018    0.00801   -0.28452
  8 Li    0.00682   -0.01713   -0.26503
  9 Li    0.00368   -0.00593    0.29733
 10 Li    0.01575   -0.00244    0.26127
 11 Li   -0.02215   -0.00218    0.25644
 12 Li    0.00083    0.00111    0.35428
 13 Li    0.01091    0.00015    0.26420
 14 Li   -0.01142   -0.00150    0.26370
 15 Li   -0.00122    0.00553    0.24118
 16 Li   -0.00015    0.00201    0.25142
 17 Li    0.00131    0.00695    0.24986
 18 Li    0.04044   -0.02913   -0.12708
 19 Li   -0.00591    0.00440    0.06035
 20 Li   -0.04125   -0.03665   -0.10885
 21 Li    0.03894    0.02745   -0.04072
 22 Li   -0.00472    0.00087    0.04429
 23 Li   -0.03599    0.02394   -0.01913
 24 Li   -0.01196    0.01570    0.04945
 25 Li    0.00229   -0.01392    0.01794
 26 Li    0.01232    0.02490    0.05184
 27 Li    0.00592   -0.14648    0.17304
 28 Li    0.05800   -0.06176   -0.02360
 29 Li   -0.04575   -0.03643   -0.00702
 30 Li   -0.09103    0.66197   -1.31868
 31 Li    0.07183    0.05387   -0.02434
 32 Li   -0.08003    0.03798   -0.02532
 33 Li   -0.00942    0.02442   -0.03421
 34 Li   -0.00729    0.00113   -0.02287
 35 Li    0.01762   -0.01042   -0.01721
 36 O    -0.26237    0.13022    0.27260
 37 O     0.00346    0.02481   -0.02894
 38 C    -0.13843    0.22699    0.55299
 39 C    -0.28544    0.05173    0.49923
 40 H    -0.02452    0.21541    0.45706
 41 H    -0.67558    0.47038    0.62176
 42 H    -0.07153    0.04472    0.14709
 43 H    -0.50812   -0.00839    0.53081
 44 H     0.16941   -0.15608    0.18956
 45 H     0.00316    0.00999    0.00685
 46 N     0.59176   -0.10582   -1.26819
 47 N     1.22955   -1.36882   -0.52526

System changes: positions 

Initializing position-dependent things.

Density initialized from wave functions
       .-----------------------.  
      /|                       |  
     / |                       |  
    /  |                       |  
   /   |                       |  
  /    |                       |  
 *     |                       |  
 |     |                       |  
 |     |                       |  
 |     |                       |  
 |     |                       |  
 |     |              H        |  
 |H    |             C     H   |  
 |     Li      Li      LiCO    |  
 |     |           OH    H     |  
 |     |     Li      Li      Li|  
 | N   |                       |  
 |N    |  LLi     LLi     LLi  |  
 |     |                       |  
 |     |Li      Li      Li     |  
 |   Li|     Li      Li        |  
 |    Li  Li  Li  Li  Li  Li   |  
 | Li  |   Li      Li          |  
 |     |Li      Li      Li     |  
 Li    | Li      Li            |  
 |    Li      Li      Li       |  
 |     |                       |  
 |     |                       |  
 |     |                       |  
 |     |                       |  
 |     |                       |  
 |     |                       |  
 |     .-----------------------.  
 |    /                       /   
 |   /                       /    
 |  /                       /     
 | /                       /      
 |/                       /       
 *-----------------------*        

Positions:
   0 Li     1.617037    1.617037   10.000000    ( 0.0000,  0.0000,  0.0000)
   1 Li     4.851111    1.617037   10.000000    ( 0.0000,  0.0000,  0.0000)
   2 Li     8.085185    1.617037   10.000000    ( 0.0000,  0.0000,  0.0000)
   3 Li     1.617037    4.851111   10.000000    ( 0.0000,  0.0000,  0.0000)
   4 Li     4.851111    4.851111   10.000000    ( 0.0000,  0.0000,  0.0000)
   5 Li     8.085185    4.851111   10.000000    ( 0.0000,  0.0000,  0.0000)
   6 Li     1.617037    8.085185   10.000000    ( 0.0000,  0.0000,  0.0000)
   7 Li     4.851111    8.085185   10.000000    ( 0.0000,  0.0000,  0.0000)
   8 Li     8.085185    8.085185   10.000000    ( 0.0000,  0.0000,  0.0000)
   9 Li     0.000000    0.000000   11.617037    ( 0.0000,  0.0000,  0.0000)
  10 Li     3.234074    0.000000   11.617037    ( 0.0000,  0.0000,  0.0000)
  11 Li     6.468148    0.000000   11.617037    ( 0.0000,  0.0000,  0.0000)
  12 Li     0.000000    3.234074   11.617037    ( 0.0000,  0.0000,  0.0000)
  13 Li     3.234074    3.234074   11.617037    ( 0.0000,  0.0000,  0.0000)
  14 Li     6.468148    3.234074   11.617037    ( 0.0000,  0.0000,  0.0000)
  15 Li     0.000000    6.468148   11.617037    ( 0.0000,  0.0000,  0.0000)
  16 Li     3.234074    6.468148   11.617037    ( 0.0000,  0.0000,  0.0000)
  17 Li     6.468148    6.468148   11.617037    ( 0.0000,  0.0000,  0.0000)
  18 Li     1.620115    1.615188   13.459362    ( 0.0000,  0.0000,  0.0000)
  19 Li     4.850656    1.617516   13.475230    ( 0.0000,  0.0000,  0.0000)
  20 Li     8.082044    1.614673   13.460233    ( 0.0000,  0.0000,  0.0000)
  21 Li     1.619034    4.851988   13.468228    ( 0.0000,  0.0000,  0.0000)
  22 Li     4.850851    4.851078   13.473871    ( 0.0000,  0.0000,  0.0000)
  23 Li     8.083352    4.851735   13.469838    ( 0.0000,  0.0000,  0.0000)
  24 Li     1.615988    8.086460   13.474188    ( 0.0000,  0.0000,  0.0000)
  25 Li     4.851193    8.084003   13.471411    ( 0.0000,  0.0000,  0.0000)
  26 Li     8.086285    8.087200   13.474491    ( 0.0000,  0.0000,  0.0000)
  27 Li     0.001146   -0.003949   15.468452    ( 0.0000,  0.0000,  0.0000)
  28 Li     3.238927   -0.005167   15.443873    ( 0.0000,  0.0000,  0.0000)
  29 Li     6.463988   -0.003401   15.445398    ( 0.0000,  0.0000,  0.0000)
  30 Li    -0.004893    3.323368   15.244140    ( 0.0000,  0.0000,  0.0000)
  31 Li     3.240424    3.238665   15.443715    ( 0.0000,  0.0000,  0.0000)
  32 Li     6.460612    3.237599   15.443408    ( 0.0000,  0.0000,  0.0000)
  33 Li    -0.000722    6.470036   15.442727    ( 0.0000,  0.0000,  0.0000)
  34 Li     3.233553    6.468217   15.443885    ( 0.0000,  0.0000,  0.0000)
  35 Li     6.469450    6.467319   15.444276    ( 0.0000,  0.0000,  0.0000)
  36 O     -0.024867    1.633033   19.462847    ( 0.0000,  0.0000,  0.0000)
  37 O     -2.898605    1.659350   19.205366    ( 0.0000,  0.0000,  0.0000)
  38 C     -0.764423    2.813704   19.150673    ( 0.0000,  0.0000,  0.0000)
  39 C     -2.165766    2.807600   19.649452    ( 0.0000,  0.0000,  0.0000)
  40 H     -0.197340    3.722478   19.354578    ( 0.0000,  0.0000,  0.0000)
  41 H     -0.868003    2.816528   18.090414    ( 0.0000,  0.0000,  0.0000)
  42 H     -2.676397    3.680256   19.233348    ( 0.0000,  0.0000,  0.0000)
  43 H     -2.120824    2.877670   20.733544    ( 0.0000,  0.0000,  0.0000)
  44 H      0.181976    1.679884   20.400665    ( 0.0000,  0.0000,  0.0000)
  45 H     -2.318647    0.891405   19.309861    ( 0.0000,  0.0000,  0.0000)
  46 N      0.082785    1.488999   16.779062    ( 0.0000,  0.0000,  0.0000)
  47 N      0.134402    2.623603   16.916338    ( 0.0000,  0.0000,  0.0000)

Unit cell:
           periodic     x           y           z      points  spacing
  1. axis:    yes    9.702222    0.000000    0.000000    60     0.1617
  2. axis:    yes    0.000000    9.702222    0.000000    60     0.1617
  3. axis:    no     0.000000    0.000000   26.351111   164     0.1607

  Lengths:   9.702222   9.702222  26.351111
  Angles:   90.000000  90.000000  90.000000

[...]

Converged after 19 iterations.

Dipole moment: (9.895214, -2.738341, 0.385611) |e|*Ang

Energy contributions relative to reference atoms: (reference = -16475.706344)

Kinetic:       +157.662313
Potential:     -150.469122
External:        +0.000000
XC:            -336.444990
Entropy (-ST):   -0.161103
Local:           +1.149901
--------------------------
Free energy:   -328.263001
Extrapolated:  -328.182449

Dipole-layer corrected work functions: 3.396811, 2.655534 eV

Showing only first 2 kpts
 Kpt  Band  Eigenvalues  Occupancy
  0    34     -3.25074    1.97784
  0    35     -3.06297    1.35225
  0    36     -2.99426    0.69130
  0    37     -2.81489    0.02881

  1    34     -3.26978    1.98480
  1    35     -3.17249    1.89827
  1    36     -2.97582    0.53513
  1    37     -2.78713    0.01664


Fermi level: -3.02617

No gap
Writing to output.gpw (mode='')


Forces in eV/Ang:
  0 Li    0.00114   -0.00114   -0.25371
  1 Li   -0.00605    0.00997   -0.29242
  2 Li    0.01066   -0.01076   -0.29423
  3 Li    0.01117   -0.00774   -0.29748
  4 Li    0.00939    0.00615   -0.29004
  5 Li   -0.01239    0.01397   -0.28639
  6 Li   -0.00980    0.00591   -0.29367
  7 Li    0.01670   -0.01488   -0.28438
  8 Li   -0.00564   -0.00811   -0.29398
  9 Li    0.02449    0.04420    0.32776
 10 Li   -0.04864    0.04926    0.27102
 11 Li   -0.02188    0.03392    0.29359
 12 Li    0.03085   -0.04029    0.28775
 13 Li   -0.04481   -0.03470    0.32894
 14 Li    0.00250   -0.03002    0.30436
 15 Li    0.01223   -0.01093    0.31847
 16 Li   -0.02194    0.01855    0.30174
 17 Li   -0.00867   -0.00159    0.30664
 18 Li    0.00792    0.00770   -0.00530
 19 Li    0.00892   -0.00350   -0.00244
 20 Li   -0.01464    0.00570   -0.02110
 21 Li   -0.00499   -0.00031   -0.01324
 22 Li    0.00428    0.00150   -0.00250
 23 Li   -0.00869   -0.00047   -0.00528
 24 Li   -0.00391   -0.01376   -0.00135
 25 Li    0.00164   -0.00087    0.00787
 26 Li    0.00561    0.00282    0.00992
 27 Li   -0.01865   -0.02305   -0.00225
 28 Li   -0.00370    0.02370   -0.02064
 29 Li    0.00752   -0.00154    0.00161
 30 Li    0.00800    0.01065   -0.01033
 31 Li    0.00156   -0.00279   -0.00287
 32 Li    0.00368   -0.00028    0.00091
 33 Li    0.00012    0.01044    0.00446
 34 Li    0.00264   -0.00083    0.00315
 35 Li   -0.00105   -0.00344    0.00754
 36 O    -0.04690    0.01375   -0.01121
 37 O     0.02140    0.02380   -0.00488
 38 C    -0.01143   -0.00114    0.00229
 39 C     0.02449   -0.00018    0.00284
 40 H    -0.01716   -0.01346   -0.02955
 41 H     0.03621    0.01439    0.01613
 42 H     0.01361   -0.02304   -0.01097
 43 H     0.01032   -0.00755   -0.00920
 44 H    -0.01002   -0.01048   -0.01666
 45 H    -0.01055    0.00237   -0.01029
 46 N     0.01351    0.03851    0.02311
 47 N     0.01156   -0.04922   -0.01705

System changes: positions 

Initializing position-dependent things.

Density initialized from wave functions
       .-----------------------.  
      /|                       |  
     / |                       |  
    /  |                       |  
   /   |                       |  
  /    |                       |  
 *     |                       |  
 |     |                       |  
 |     |                       |  
 |     |                       |  
 |     |                       |  
 |     |             H         |  
 |H    |            HC    H    |  
 |     |              Li CO    Li 
 |     |           OH    H     |  
 |     |     Li      Li      Li|  
 |     |                       |  
 | Li  |  LLi     LLi     Li   |  
 |  N  N                       |  
 |     |Li      Li      Li     |  
 |   LLi     Li      Li        |  
 |     |  Li  Li  Li  Li  Li   |  
 | Li  |   Li      Li          |  
 |     |Li      Li      Li     |  
 Li    | Li      Li            |  
 |    Li      Li      Li       |  
 |     |                       |  
 |     |                       |  
 |     |                       |  
 |     |                       |  
 |     |                       |  
 |     |                       |  
 |     .-----------------------.  
 |    /                       /   
 |   /                       /    
 |  /                       /     
 | /                       /      
 |/                       /       
 *-----------------------*        

Positions:
   0 Li     1.617037    1.617037   10.000000    ( 0.0000,  0.0000,  0.0000)
   1 Li     4.851111    1.617037   10.000000    ( 0.0000,  0.0000,  0.0000)
   2 Li     8.085185    1.617037   10.000000    ( 0.0000,  0.0000,  0.0000)
   3 Li     1.617037    4.851111   10.000000    ( 0.0000,  0.0000,  0.0000)
   4 Li     4.851111    4.851111   10.000000    ( 0.0000,  0.0000,  0.0000)
   5 Li     8.085185    4.851111   10.000000    ( 0.0000,  0.0000,  0.0000)
   6 Li     1.617037    8.085185   10.000000    ( 0.0000,  0.0000,  0.0000)
   7 Li     4.851111    8.085185   10.000000    ( 0.0000,  0.0000,  0.0000)
   8 Li     8.085185    8.085185   10.000000    ( 0.0000,  0.0000,  0.0000)
   9 Li     0.000000    0.000000   11.617037    ( 0.0000,  0.0000,  0.0000)
  10 Li     3.234074    0.000000   11.617037    ( 0.0000,  0.0000,  0.0000)
  11 Li     6.468148    0.000000   11.617037    ( 0.0000,  0.0000,  0.0000)
  12 Li     0.000000    3.234074   11.617037    ( 0.0000,  0.0000,  0.0000)
  13 Li     3.234074    3.234074   11.617037    ( 0.0000,  0.0000,  0.0000)
  14 Li     6.468148    3.234074   11.617037    ( 0.0000,  0.0000,  0.0000)
  15 Li     0.000000    6.468148   11.617037    ( 0.0000,  0.0000,  0.0000)
  16 Li     3.234074    6.468148   11.617037    ( 0.0000,  0.0000,  0.0000)
  17 Li     6.468148    6.468148   11.617037    ( 0.0000,  0.0000,  0.0000)
  18 Li     1.601502    1.616429   13.603203    ( 0.0000,  0.0000,  0.0000)
  19 Li     4.811376    1.665446   13.528430    ( 0.0000,  0.0000,  0.0000)
  20 Li     8.081840    1.561295   13.542697    ( 0.0000,  0.0000,  0.0000)
  21 Li     1.664014    4.846138   13.518341    ( 0.0000,  0.0000,  0.0000)
  22 Li     4.878712    4.885630   13.507836    ( 0.0000,  0.0000,  0.0000)
  23 Li     8.138531    4.767617   13.516962    ( 0.0000,  0.0000,  0.0000)
  24 Li     1.568672    8.123497   13.524614    ( 0.0000,  0.0000,  0.0000)
  25 Li     4.775424    8.164442   13.498739    ( 0.0000,  0.0000,  0.0000)
  26 Li     8.035938    8.059546   13.497207    ( 0.0000,  0.0000,  0.0000)
  27 Li    -0.160525   -0.113541   15.546314    ( 0.0000,  0.0000,  0.0000)
  28 Li     2.932328    0.275184   15.676261    ( 0.0000,  0.0000,  0.0000)
  29 Li     6.261759   -0.059614   15.488908    ( 0.0000,  0.0000,  0.0000)
  30 Li     0.190285    3.019929   15.570364    ( 0.0000,  0.0000,  0.0000)
  31 Li     3.302769    3.387474   15.535016    ( 0.0000,  0.0000,  0.0000)
  32 Li     6.567317    3.274814   15.500384    ( 0.0000,  0.0000,  0.0000)
  33 Li    -0.049632    6.323305   15.434889    ( 0.0000,  0.0000,  0.0000)
  34 Li     3.291509    6.643698   15.451816    ( 0.0000,  0.0000,  0.0000)
  35 Li     6.478808    6.467203   15.441402    ( 0.0000,  0.0000,  0.0000)
  36 O     -0.189506    1.743392   19.599196    ( 0.0000,  0.0000,  0.0000)
  37 O     -3.041425    1.775430   19.169806    ( 0.0000,  0.0000,  0.0000)
  38 C     -0.916715    2.964828   19.377004    ( 0.0000,  0.0000,  0.0000)
  39 C     -2.362017    2.841571   19.836602    ( 0.0000,  0.0000,  0.0000)
  40 H     -0.425135    3.816275   19.862805    ( 0.0000,  0.0000,  0.0000)
  41 H     -0.896296    3.128927   18.297278    ( 0.0000,  0.0000,  0.0000)
  42 H     -2.906416    3.758821   19.594655    ( 0.0000,  0.0000,  0.0000)
  43 H     -2.398151    2.704142   20.928453    ( 0.0000,  0.0000,  0.0000)
  44 H      0.094514    1.723922   20.521038    ( 0.0000,  0.0000,  0.0000)
  45 H     -2.460529    1.002578   19.221756    ( 0.0000,  0.0000,  0.0000)
  46 N      1.114270    1.202517   15.636702    ( 0.0000,  0.0000,  0.0000)
  47 N      1.997724    2.095169   15.636431    ( 0.0000,  0.0000,  0.0000)

Unit cell:
           periodic     x           y           z      points  spacing
  1. axis:    yes    9.702222    0.000000    0.000000    60     0.1617
  2. axis:    yes    0.000000    9.702222    0.000000    60     0.1617
  3. axis:    no     0.000000    0.000000   26.351111   164     0.1607

  Lengths:   9.702222   9.702222  26.351111
  Angles:   90.000000  90.000000  90.000000

Effective grid spacing dv^(1/3) = 0.1614

     iter     time        total  log10-change:
                         energy  eigst   dens
iter:   1 19:17:15  -328.183553  -1.87
iter:   2 19:17:22  -328.183970  -2.61  -2.71
iter:   3 19:17:30  -328.183910c -3.10  -2.78
iter:   4 19:17:37  -328.183634c -3.39  -2.81
Writing to output.gpw (mode='')

iter:   5 19:17:44  -328.183463c -3.39  -2.93
iter:   6 19:17:52  -328.183417c -3.51  -3.10
iter:   7 19:17:59  -328.183347c -3.97  -3.19
iter:   8 19:18:06  -328.183322c -3.96  -3.35
iter:   9 19:18:13  -328.183350c -4.22  -3.43
Writing to output.gpw (mode='')

iter:  10 19:18:21  -328.183339c -4.70  -3.60
iter:  11 19:18:28  -328.183342c -5.09  -3.69
iter:  12 19:18:35  -328.183351c -5.05  -3.74
iter:  13 19:18:43  -328.183351c -5.54  -3.97
iter:  14 19:18:50  -328.183347c -5.79  -4.07c
Writing to output.gpw (mode='')

iter:  15 19:18:57  -328.183346c -5.83  -4.13c
iter:  16 19:19:04  -328.183343c -5.83  -4.18c
iter:  17 19:19:12  -328.183347c -6.14  -4.26c
iter:  18 19:19:19  -328.183346c -6.32  -4.31c
iter:  19 19:19:26  -328.183343c -6.26  -4.41c
Writing to output.gpw (mode='')

iter:  20 19:19:34  -328.183344c -6.53  -4.56c
iter:  21 19:19:46  -328.183344c -6.66  -4.64c
iter:  22 19:19:54  -328.183342c -6.95  -4.69c
iter:  23 19:20:02  -328.183342c -6.98  -4.77c
iter:  24 19:20:09  -328.183343c -7.04  -4.92c
Writing to output.gpw (mode='')

iter:  25 19:20:16  -328.183343c -7.49c -5.10c

Converged after 25 iterations.

Dipole moment: (10.098518, -2.741712, 0.385066) |e|*Ang

Energy contributions relative to reference atoms: (reference = -16475.706344)

Kinetic:       +157.921070
Potential:     -150.677031
External:        +0.000000
XC:            -336.496344
Entropy (-ST):   -0.161273
Local:           +1.149598
--------------------------
Free energy:   -328.263980
Extrapolated:  -328.183343

Dipole-layer corrected work functions: 3.396414, 2.656185 eV

Showing only first 2 kpts
 Kpt  Band  Eigenvalues  Occupancy
  0    34     -3.25139    1.97807
  0    35     -3.06214    1.34383
  0    36     -2.99451    0.69237
  0    37     -2.81520    0.02891

  1    34     -3.27026    1.98491
  1    35     -3.17236    1.89777
  1    36     -2.97711    0.54431
  1    37     -2.78832    0.01699


Fermi level: -3.02630

No gap

Forces in eV/Ang:
  0 Li    0.00105   -0.00104   -0.25419
  1 Li   -0.00627    0.00993   -0.29211
  2 Li    0.01045   -0.01066   -0.29399
  3 Li    0.01097   -0.00779   -0.29723
  4 Li    0.00942    0.00635   -0.29022
  5 Li   -0.01256    0.01395   -0.28647
  6 Li   -0.00974    0.00595   -0.29346
  7 Li    0.01656   -0.01498   -0.28439
  8 Li   -0.00563   -0.00804   -0.29406
  9 Li    0.02473    0.04282    0.32938
 10 Li   -0.04698    0.04720    0.27292
 11 Li   -0.02091    0.03093    0.29205
 12 Li    0.03094   -0.04024    0.28937
 13 Li   -0.04225   -0.03344    0.33103
 14 Li    0.00407   -0.02881    0.30293
 15 Li    0.01078   -0.01120    0.31652
 16 Li   -0.02089    0.01813    0.30074
 17 Li   -0.00689   -0.00047    0.30509
 18 Li    0.00121    0.00545   -0.00328
 19 Li    0.00694   -0.00261   -0.00239
 20 Li   -0.01446    0.00688   -0.02212
 21 Li   -0.00430    0.00184   -0.01534
 22 Li    0.00152   -0.00095   -0.00167
 23 Li   -0.00997    0.00189   -0.00591
 24 Li   -0.00218   -0.01183   -0.00216
 25 Li    0.00123    0.00135    0.00799
 26 Li    0.00395    0.00276    0.00815
 27 Li   -0.01894   -0.02431    0.00372
 28 Li   -0.01172    0.02528   -0.01572
 29 Li    0.00760   -0.00011   -0.00120
 30 Li    0.02194   -0.00610   -0.00277
 31 Li   -0.00118   -0.00898   -0.00120
 32 Li   -0.00042   -0.00184   -0.00010
 33 Li    0.00077    0.01098    0.00246
 34 Li    0.00069   -0.00164    0.00000
 35 Li    0.00070   -0.00440    0.00693
 36 O     0.00533   -0.00981    0.00047
 37 O     0.00260    0.00697    0.00303
 38 C    -0.00449    0.00868   -0.01847
 39 C     0.01597    0.00556   -0.00261
 40 H    -0.00434   -0.00614    0.01044
 41 H     0.02091    0.00768   -0.02264
 42 H    -0.00556   -0.01154   -0.00585
 43 H     0.00680   -0.01043   -0.00886
 44 H    -0.01065   -0.01612   -0.01975
 45 H    -0.00809    0.00972   -0.00428
 46 N    -0.01808    0.00182    0.00041
 47 N     0.03688    0.00379    0.03250

Timing:                                      incl.     excl.
-------------------------------------------------------------------
Density initialized from wave functions:     3.779     3.777   0.0% |
 Symmetrize density:                         0.003     0.003   0.0% |
Forces:                                     39.696    39.696   0.2% |
Hamiltonian:                               556.982     0.014   0.0% |
 Atomic:                                     0.023     0.023   0.0% |
  XC Correction:                             0.000     0.000   0.0% |
 Calculate atomic Hamiltonians:              0.040     0.040   0.0% |
 Communicate:                               10.142    10.142   0.0% |
 Hartree integrate/restrict:                 1.945     1.945   0.0% |
 Initialize Hamiltonian:                     0.000     0.000   0.0% |
 Poisson:                                   25.941     9.376   0.0% |
  Communicate from 1D:                       2.537     2.537   0.0% |
  Communicate from 2D:                       2.789     2.789   0.0% |
  Communicate to 1D:                         1.456     1.456   0.0% |
  Communicate to 2D:                         3.022     3.022   0.0% |
  FFT 1D:                                    3.406     3.406   0.0% |
  FFT 2D:                                    3.355     3.355   0.0% |
 XC 3D grid:                               518.443    79.337   0.3% |
  VdW-DF integral:                         439.106     3.660   0.0% |
   Convolution:                             39.895    39.895   0.2% |
   FFT:                                     17.483    17.483   0.1% |
   gather:                                 152.279   152.279   0.6% |
   hmm1:                                    14.074    14.074   0.1% |
   hmm2:                                    18.671    18.671   0.1% |
   iFFT:                                    18.239    18.239   0.1% |
   potential:                              171.232     4.735   0.0% |
    collect:                                26.286    26.286   0.1% |
    p1:                                     76.498    76.498   0.3% |
    p2:                                     27.983    27.983   0.1% |
    sum:                                    35.729    35.729   0.1% |
   splines:                                  3.575     3.575   0.0% |
 vbar:                                       0.434     0.434   0.0% |
LCAO initialization:                         1.167     0.185   0.0% |
 LCAO eigensolver:                           0.217     0.000   0.0% |
  Calculate projections:                     0.000     0.000   0.0% |
  DenseAtomicCorrection:                     0.000     0.000   0.0% |
  Distribute overlap matrix:                 0.197     0.197   0.0% |
  Orbital Layouts:                           0.018     0.018   0.0% |
  Potential matrix:                          0.001     0.001   0.0% |
  Sum over cells:                            0.001     0.001   0.0% |
 LCAO to grid:                               0.624     0.624   0.0% |
 Set positions (LCAO WFS):                   0.142     0.062   0.0% |
  Basic WFS set positions:                   0.001     0.001   0.0% |
  Basis functions set positions:             0.000     0.000   0.0% |
  P tci:                                     0.000     0.000   0.0% |
  ST tci:                                    0.048     0.048   0.0% |
  mktci:                                     0.029     0.029   0.0% |
Redistribute:                                0.066     0.066   0.0% |
SCF-cycle:                               24331.568   360.397   1.4% ||
 Davidson:                                6564.297  1952.377   7.8% |--|
  Apply hamiltonian:                       409.662   409.662   1.6% ||
  Subspace diag:                          1226.598     0.392   0.0% |
   calc_h_matrix:                          605.735   191.629   0.8% |
    Apply hamiltonian:                     414.106   414.106   1.7% ||
   diagonalize:                             68.161    68.161   0.3% |
   rotate_psi:                             552.310   552.310   2.2% ||
  calc. matrices:                         2081.306  1086.534   4.3% |-|
   Apply hamiltonian:                      994.772   994.772   4.0% |-|
  diagonalize:                              19.462    19.462   0.1% |
  rotate_psi:                              874.893   874.893   3.5% ||
 Density:                                  124.398     0.083   0.0% |
  Atomic density matrices:                  15.952    15.952   0.1% |
  Mix:                                      55.363    55.363   0.2% |
  Multipole moments:                         4.133     4.133   0.0% |
  Pseudo density:                           48.867    48.796   0.2% |
   Symmetrize density:                       0.072     0.072   0.0% |
 Hamiltonian:                            17262.730     0.424   0.0% |
  Atomic:                                    0.842     0.834   0.0% |
   XC Correction:                            0.008     0.008   0.0% |
  Calculate atomic Hamiltonians:             1.258     1.258   0.0% |
  Communicate:                             231.954   231.954   0.9% |
  Hartree integrate/restrict:               61.792    61.792   0.2% |
  Poisson:                                 827.938   303.903   1.2% |
   Communicate from 1D:                     81.563    81.563   0.3% |
   Communicate from 2D:                     84.794    84.794   0.3% |
   Communicate to 1D:                       47.294    47.294   0.2% |
   Communicate to 2D:                       97.574    97.574   0.4% |
   FFT 1D:                                 107.031   107.031   0.4% |
   FFT 2D:                                 105.779   105.779   0.4% |
  XC 3D grid:                            16124.680  2471.422   9.9% |---|
   VdW-DF integral:                      13653.258   116.956   0.5% |
    Convolution:                          1259.462  1259.462   5.0% |-|
    FFT:                                   540.545   540.545   2.2% ||
    gather:                               4799.922  4799.922  19.2% |-------|
    hmm1:                                  444.945   444.945   1.8% ||
    hmm2:                                  589.928   589.928   2.4% ||
    iFFT:                                  564.397   564.397   2.3% ||
    potential:                            5337.073   149.086   0.6% |
     collect:                              835.562   835.562   3.3% ||
     p1:                                  2421.377  2421.377   9.7% |---|
     p2:                                   886.578   886.578   3.5% ||
     sum:                                 1044.470  1044.470   4.2% |-|
    splines:                                 0.029     0.029   0.0% |
  vbar:                                     13.843    13.843   0.1% |
 Orthonormalize:                            19.746     0.014   0.0% |
  calc_s_matrix:                             2.728     2.728   0.0% |
  inverse-cholesky:                          5.796     5.796   0.0% |
  projections:                               0.002     0.002   0.0% |
  rotate_psi_s:                             11.205    11.205   0.0% |
Set symmetry:                                0.003     0.003   0.0% |
Other:                                     112.174   112.174   0.4% |
-------------------------------------------------------------------
Total:                                             25045.437 100.0%

Memory usage: 1.12 GiB
Date: Fri Mar 10 19:20:17 2023
