
  ___ ___ ___ _ _ _  
 |   |   |_  | | | | 
 | | | | | . | | | | 
 |__ |  _|___|_____|  22.8.0
 |___|_|             

User:   vazumah@c05.hercules
Date:   Fri Feb 17 09:43:48 2023
Arch:   x86_64
Pid:    18556
CWD:    /home/vazumah/Python_projects/LiNRR/Li_adsorb_studies/proton_donors/ethanol_N2/Li_BCC_100/adsorbates/CH3CH2OH_z/bridge/8.085_1.617/N2_y
Python: 3.10.8
gpaw:   /home/vazumah/.conda/envs/GPAW/lib/python3.10/site-packages/gpaw
_gpaw:  /home/vazumah/.conda/envs/GPAW/lib/python3.10/site-packages/
        _gpaw.cpython-310-x86_64-linux-gnu.so
ase:    /home/vazumah/.conda/envs/GPAW/lib/python3.10/site-packages/ase (version 3.22.1)
numpy:  /home/vazumah/.conda/envs/GPAW/lib/python3.10/site-packages/numpy (version 1.24.1)
scipy:  /home/vazumah/.conda/envs/GPAW/lib/python3.10/site-packages/scipy (version 1.10.0)
libxc:  5.2.3
units:  Angstrom and eV
cores: 24
OpenMP: True
OMP_NUM_THREADS: 1

Reading from output.gpw
Reading input parameters:
  h: 0.16
  kpts: {size: [4, 4, 1]}
  occupations: {name: fermi-dirac,
                width: 0.05}
  poissonsolver: {dipolelayer: xy}
  xc: BEEF-vdW

Initialize ...

species:
  Li:
    name: Lithium
    id: 830b4218f175192f93f959cfc0aad614
    Z: 3.0
    valence: 1
    core: 2
    charge: 0.0
    file: /home/vazumah/.conda/envs/GPAW/share/gpaw/Li.PBE.gz
    compensation charges: {type: gauss,
                           rc: 0.33,
                           lmax: 2}
    cutoffs: {filter: 1.91,
              core: 2.55}
    valence states:
      #              energy  rcut
      - 2s(1.00)    -2.874   1.058
      - 2p(0.00)    -1.090   1.058
      -  s          24.337   1.058
  
    # Using partial waves for Li as LCAO basis

  O:
    name: Oxygen
    id: 32ecd46bf208036f09c70b0ec9a88b78
    Z: 8.0
    valence: 6
    core: 2
    charge: 0.0
    file: /home/vazumah/.conda/envs/GPAW/share/gpaw/O.PBE.gz
    compensation charges: {type: gauss,
                           rc: 0.21,
                           lmax: 2}
    cutoffs: {filter: 1.17,
              core: 0.83}
    valence states:
      #              energy  rcut
      - 2s(2.00)   -23.961   0.688
      - 2p(4.00)    -9.029   0.598
      -  s           3.251   0.688
      -  p          18.182   0.598
      -  d           0.000   0.619
  
    # Using partial waves for O as LCAO basis

  C:
    name: Carbon
    id: 4aa54d4b901d75f77cc0ea3eec22967b
    Z: 6.0
    valence: 4
    core: 2
    charge: 0.0
    file: /home/vazumah/.conda/envs/GPAW/share/gpaw/C.PBE.gz
    compensation charges: {type: gauss,
                           rc: 0.20,
                           lmax: 2}
    cutoffs: {filter: 1.14,
              core: 1.14}
    valence states:
      #              energy  rcut
      - 2s(2.00)   -13.751   0.635
      - 2p(2.00)    -5.284   0.635
      -  s          13.461   0.635
      -  p          21.927   0.635
      -  d           0.000   0.635
  
    # Using partial waves for C as LCAO basis

  H:
    name: Hydrogen
    id: d65de229564ff8ea4db303e23b6d1ecf
    Z: 1.0
    valence: 1
    core: 0
    charge: 0.0
    file: /home/vazumah/.conda/envs/GPAW/share/gpaw/H.PBE.gz
    compensation charges: {type: gauss,
                           rc: 0.15,
                           lmax: 2}
    cutoffs: {filter: 0.85,
              core: 0.53}
    valence states:
      #              energy  rcut
      - 1s(1.00)    -6.494   0.476
      -  s          20.717   0.476
      -  p           0.000   0.476
  
    # Using partial waves for H as LCAO basis

  N:
    name: Nitrogen
    id: f7500608b86eaa90eef8b1d9a670dc53
    Z: 7.0
    valence: 5
    core: 2
    charge: 0.0
    file: /home/vazumah/.conda/envs/GPAW/share/gpaw/N.PBE.gz
    compensation charges: {type: gauss,
                           rc: 0.18,
                           lmax: 2}
    cutoffs: {filter: 1.11,
              core: 0.96}
    valence states:
      #              energy  rcut
      - 2s(2.00)   -18.583   0.603
      - 2p(3.00)    -7.089   0.529
      -  s           8.629   0.603
      -  p          20.123   0.529
      -  d           0.000   0.577
  
    # Using partial waves for N as LCAO basis

Reference energy: -14434.854043  # eV

Spin-paired calculation

Convergence criteria:
 Maximum [total energy] change in last 3 cyles: 0.0005 eV / electron
 Maximum integral of absolute [dens]ity change: 0.0001 electrons / valence electron
 Maximum integral of absolute [eigenst]ate change: 4e-08 eV^2 / valence electron
 Maximum number of scf [iter]ations: 333
 (Square brackets indicate name in SCF output, whereas a 'c' in
 the SCF output indicates the quantity has converged.)

Symmetries present (total): 1

  ( 1  0  0)
  ( 0  1  0)
  ( 0  0  1)

16 k-points: 4 x 4 x 1 Monkhorst-Pack grid
8 k-points in the irreducible part of the Brillouin zone
       k-points in crystal coordinates                weights
   0:     0.12500000   -0.37500000    0.00000000          2/16
   1:     0.12500000   -0.12500000    0.00000000          2/16
   2:     0.12500000    0.12500000    0.00000000          2/16
   3:     0.12500000    0.37500000    0.00000000          2/16
   4:     0.37500000   -0.37500000    0.00000000          2/16
   5:     0.37500000   -0.12500000    0.00000000          2/16
   6:     0.37500000    0.12500000    0.00000000          2/16
   7:     0.37500000    0.37500000    0.00000000          2/16

Wave functions: Uniform real-space grid
  Kinetic energy operator: 6*3+1=19 point O(h^6) finite-difference Laplacian
  ScaLapack parameters: grid=1x1, blocksize=None
  Wavefunction extrapolation:
    Improved wavefunction reuse through dual PAW basis 

Occupation numbers: Fermi-Dirac:
  width: 0.0500  # eV
 

Eigensolver
   Davidson(niter=2) 

Densities:
  Coarse grid: 60*60*156 grid
  Fine grid: 120*120*312 grid
  Total Charge: 0.000000 

Density mixing:
  Method: separate
  Backend: pulay
  Linear mixing parameter: 0.05
  old densities: 5
  Damping of long wavelength oscillations: 50 

Hamiltonian:
  XC and Coulomb potentials evaluated on a 120*120*312 grid
  Using the BEEF-vdW Exchange-Correlation functional
  Interpolation: tri-quintic (5. degree polynomial)
  Poisson solver: FastPoissonSolver using
    Stencil: 6*3+1=19 point O(h^6) finite-difference Laplacian
    FFT axes: [0, 1]
    FST axes: [2]

Dipole correction along z-axis 

XC parameters: BEEF-vdW with 2 nearest neighbor stencil

Memory estimate:
  Process memory now: 218.95 MiB
  Calculator: 411.72 MiB
    Density: 118.00 MiB
      Arrays: 36.75 MiB
      Localized functions: 67.24 MiB
      Mixer: 14.01 MiB
    Hamiltonian: 29.35 MiB
      Arrays: 24.03 MiB
      XC: 0.00 MiB
      Poisson: 0.00 MiB
      vbar: 5.32 MiB
    Wavefunctions: 264.37 MiB
      Arrays psit_nG: 123.27 MiB
      Eigensolver: 137.57 MiB
      Projections: 0.06 MiB
      Projectors: 3.47 MiB

Total number of cores used: 24
Parallelization over k-points: 8
Domain decomposition: 1 x 1 x 3

Number of atoms: 47
Number of atomic orbitals: 170
Number of bands in calculation: 44
Number of valence electrons: 66
Bands to converge: occupied

... initialized

Initializing position-dependent things.

Creating initial wave functions:
  44 bands from LCAO basis set

       .-----------------------.  
      /|                       |  
     / |                       |  
    /  |                       |  
   /   |                       |  
  /    |                       |  
 *     |                       |  
 |     |                       |  
 |     |                       |  
 |     |            H H  H     |  
 |     |                       |  
 |     |            H C        |  
 |     Li      Li  H   LH      |  
 |     |                       |  
 |   Li|     Li      Li        |  
 |     |  Li      Li      LLi  |  
 |     |   Li      LiNN        |  
 |     |Li      Li      Li     |  
 |     |                       |  
 |   LLi     LLi     LLi       |  
 |     |  Li      Li      Li   |  
 | Li  |   Li      Li          |  
 |     |Li      Li      Li     |  
 Li    | Li      Li            |  
 |    Li      Li      Li       |  
 |     |                       |  
 |     |                       |  
 |     |                       |  
 |     |                       |  
 |     |                       |  
 |     |                       |  
 |     .-----------------------.  
 |    /                       /   
 |   /                       /    
 |  /                       /     
 | /                       /      
 |/                       /       
 *-----------------------*        

Positions:
   0 Li     1.617037    1.617037   10.000000    ( 0.0000,  0.0000,  0.0000)
   1 Li     4.851111    1.617037   10.000000    ( 0.0000,  0.0000,  0.0000)
   2 Li     8.085185    1.617037   10.000000    ( 0.0000,  0.0000,  0.0000)
   3 Li     1.617037    4.851111   10.000000    ( 0.0000,  0.0000,  0.0000)
   4 Li     4.851111    4.851111   10.000000    ( 0.0000,  0.0000,  0.0000)
   5 Li     8.085185    4.851111   10.000000    ( 0.0000,  0.0000,  0.0000)
   6 Li     1.617037    8.085185   10.000000    ( 0.0000,  0.0000,  0.0000)
   7 Li     4.851111    8.085185   10.000000    ( 0.0000,  0.0000,  0.0000)
   8 Li     8.085185    8.085185   10.000000    ( 0.0000,  0.0000,  0.0000)
   9 Li     0.000000    0.000000   11.617037    ( 0.0000,  0.0000,  0.0000)
  10 Li     3.234074    0.000000   11.617037    ( 0.0000,  0.0000,  0.0000)
  11 Li     6.468148    0.000000   11.617037    ( 0.0000,  0.0000,  0.0000)
  12 Li     0.000000    3.234074   11.617037    ( 0.0000,  0.0000,  0.0000)
  13 Li     3.234074    3.234074   11.617037    ( 0.0000,  0.0000,  0.0000)
  14 Li     6.468148    3.234074   11.617037    ( 0.0000,  0.0000,  0.0000)
  15 Li     0.000000    6.468148   11.617037    ( 0.0000,  0.0000,  0.0000)
  16 Li     3.234074    6.468148   11.617037    ( 0.0000,  0.0000,  0.0000)
  17 Li     6.468148    6.468148   11.617037    ( 0.0000,  0.0000,  0.0000)
  18 Li     1.616950    1.606344   13.559416    ( 0.0000,  0.0000,  0.0000)
  19 Li     4.933639    1.578985   13.590126    ( 0.0000,  0.0000,  0.0000)
  20 Li     8.103500    1.538827   13.642242    ( 0.0000,  0.0000,  0.0000)
  21 Li     1.600186    4.747785   13.588738    ( 0.0000,  0.0000,  0.0000)
  22 Li     4.930064    4.723260   13.579630    ( 0.0000,  0.0000,  0.0000)
  23 Li     8.097754    4.652265   13.629371    ( 0.0000,  0.0000,  0.0000)
  24 Li     1.553619    8.102206   13.528260    ( 0.0000,  0.0000,  0.0000)
  25 Li     4.933232    8.087873   13.570562    ( 0.0000,  0.0000,  0.0000)
  26 Li     8.078530    8.000964   13.596514    ( 0.0000,  0.0000,  0.0000)
  27 Li     0.251514   -0.375821   15.716938    ( 0.0000,  0.0000,  0.0000)
  28 Li     3.260438   -0.001200   15.352191    ( 0.0000,  0.0000,  0.0000)
  29 Li     6.461829   -0.256964   15.743430    ( 0.0000,  0.0000,  0.0000)
  30 Li    -0.111002    2.981422   15.766135    ( 0.0000,  0.0000,  0.0000)
  31 Li     3.276026    3.217050   15.484010    ( 0.0000,  0.0000,  0.0000)
  32 Li     6.490115    3.105050   15.618701    ( 0.0000,  0.0000,  0.0000)
  33 Li     0.020557    6.295192   15.423852    ( 0.0000,  0.0000,  0.0000)
  34 Li     3.224566    6.522460   15.373050    ( 0.0000,  0.0000,  0.0000)
  35 Li     6.433793    6.306762   15.473565    ( 0.0000,  0.0000,  0.0000)
  36 O      7.866072    2.565400   19.376553    ( 0.0000,  0.0000,  0.0000)
  37 C      7.996717    1.276979   19.985016    ( 0.0000,  0.0000,  0.0000)
  38 C      8.196647    1.347476   21.521044    ( 0.0000,  0.0000,  0.0000)
  39 H      7.092506    0.687233   19.732210    ( 0.0000,  0.0000,  0.0000)
  40 H      8.882907    0.890004   19.477397    ( 0.0000,  0.0000,  0.0000)
  41 H      8.327080    0.340501   21.932604    ( 0.0000,  0.0000,  0.0000)
  42 H      9.043180    2.007721   21.760406    ( 0.0000,  0.0000,  0.0000)
  43 H      7.272619    1.712298   21.969117    ( 0.0000,  0.0000,  0.0000)
  44 H      7.024032    2.918255   19.685524    ( 0.0000,  0.0000,  0.0000)
  45 N      7.526363    1.613741   16.115644    ( 0.0000,  0.0000,  0.0000)
  46 N      8.367717    0.744101   16.174706    ( 0.0000,  0.0000,  0.0000)

Unit cell:
           periodic     x           y           z      points  spacing
  1. axis:    yes    9.702222    0.000000    0.000000    60     0.1617
  2. axis:    yes    0.000000    9.702222    0.000000    60     0.1617
  3. axis:    no     0.000000    0.000000   24.851111   156     0.1593

  Lengths:   9.702222   9.702222  24.851111
  Angles:   90.000000  90.000000  90.000000

Effective grid spacing dv^(1/3) = 0.1609

     iter     time        total  log10-change:
                         energy  eigst   dens
iter:   1 09:47:25  -308.322143  +1.09
iter:   2 09:50:05  -308.975366  +0.39  -1.72
iter:   3 09:52:34  -309.128956  -0.10  -2.02
iter:   4 09:55:01  -309.187838  -0.50  -2.27
Writing to output.gpw (mode='')

iter:   5 09:57:40  -309.213777  -0.85  -2.48
iter:   6 10:00:13  -309.225971  -1.19  -2.59
iter:   7 10:02:52  -309.233205c -1.44  -2.67
iter:   8 10:05:29  -309.236587c -1.74  -2.62
iter:   9 10:08:04  -309.238360c -1.94  -2.70
Writing to output.gpw (mode='')

iter:  10 10:10:37  -309.239636c -1.98  -2.86
iter:  11 10:13:07  -309.240786c -2.25  -3.14
iter:  12 10:15:37  -309.241811c -2.43  -3.24
iter:  13 10:18:17  -309.242243c -2.57  -3.10
iter:  14 10:20:51  -309.242534c -2.63  -3.21
Writing to output.gpw (mode='')

iter:  15 10:23:31  -309.242892c -2.86  -3.52
iter:  16 10:26:11  -309.243084c -2.96  -3.45
iter:  17 10:28:56  -309.243264c -3.03  -3.43
iter:  18 10:31:26  -309.243404c -3.22  -3.36
iter:  19 10:33:58  -309.243529c -3.12  -3.33
Writing to output.gpw (mode='')

iter:  20 10:36:29  -309.243584c -3.42  -3.14
iter:  21 10:39:03  -309.243710c -3.32  -3.17
iter:  22 10:41:54  -309.243754c -3.62  -3.05
iter:  23 10:44:32  -309.243800c -3.50  -3.07
iter:  24 10:47:11  -309.243974c -3.57  -3.01
Writing to output.gpw (mode='')

iter:  25 10:49:42  -309.243736c -3.81  -2.90
iter:  26 10:52:21  -309.243738c -3.62  -3.14
iter:  27 10:54:57  -309.243900c -3.41  -3.32
iter:  28 10:57:31  -309.243737c -4.09  -3.56
iter:  29 11:00:01  -309.243769c -4.61  -3.53
Writing to output.gpw (mode='')

iter:  30 11:02:40  -309.243799c -4.48  -3.88
iter:  31 11:05:14  -309.243836c -4.36  -4.01c
iter:  32 11:07:51  -309.243821c -4.96  -4.04c
iter:  33 11:10:26  -309.243820c -5.15  -4.09c
iter:  34 11:13:00  -309.243822c -5.28  -4.07c
Writing to output.gpw (mode='')

iter:  35 11:14:39  -309.243826c -5.32  -4.06c
iter:  36 11:17:21  -309.243816c -5.51  -4.02c
iter:  37 11:19:54  -309.243815c -5.59  -4.06c
iter:  38 11:22:25  -309.243814c -5.45  -4.06c
iter:  39 11:24:58  -309.243825c -5.63  -4.08c
Writing to output.gpw (mode='')

iter:  40 11:27:33  -309.243814c -5.71  -4.06c
iter:  41 11:30:08  -309.243813c -5.87  -4.08c
iter:  42 11:32:45  -309.243810c -5.96  -4.10c
iter:  43 11:35:16  -309.243811c -6.04  -4.12c
iter:  44 11:37:47  -309.243805c -5.85  -4.31c
Writing to output.gpw (mode='')

iter:  45 11:40:37  -309.243799c -5.54  -4.37c
iter:  46 11:43:13  -309.243802c -5.99  -4.47c
iter:  47 11:45:53  -309.243809c -6.16  -4.51c
iter:  48 11:48:24  -309.243818c -6.12  -4.64c
iter:  49 11:51:11  -309.243809c -6.18  -4.75c
Writing to output.gpw (mode='')

iter:  50 11:53:44  -309.243808c -6.33  -4.63c
iter:  51 11:56:19  -309.243817c -6.55  -4.60c
iter:  52 11:58:55  -309.243817c -6.75  -4.85c
iter:  53 12:01:32  -309.243816c -6.95  -4.87c
iter:  54 12:04:15  -309.243816c -6.95  -4.94c
Writing to output.gpw (mode='')

iter:  55 12:06:51  -309.243819c -6.78  -5.05c
iter:  56 12:09:33  -309.243819c -7.00  -5.25c
iter:  57 12:12:05  -309.243817c -7.21  -5.25c
iter:  58 12:14:46  -309.243816c -7.28  -5.49c
iter:  59 12:17:23  -309.243817c -7.46c -5.56c

Converged after 59 iterations.

Dipole moment: (-2.838489, -0.758021, 0.226292) |e|*Ang

Energy contributions relative to reference atoms: (reference = -14434.854043)

Kinetic:       +141.379291
Potential:     -136.740006
External:        +0.000000
XC:            -314.574246
Entropy (-ST):   -0.154529
Local:           +0.768408
--------------------------
Free energy:   -309.321081
Extrapolated:  -309.243817

Dipole-layer corrected work functions: 3.385795, 2.950783 eV

Showing only first 2 kpts
 Kpt  Band  Eigenvalues  Occupancy
  0    31     -3.34072    1.93838
  0    32     -3.23759    1.59991
  0    33     -3.11486    0.51138
  0    34     -2.99814    0.06440

  1    31     -3.38550    1.97437
  1    32     -3.14954    0.81469
  1    33     -3.04688    0.16209
  1    34     -2.99533    0.06100


Fermi level: -3.16829

No gap
Writing to output.gpw (mode='')


Forces in eV/Ang:
  0 Li    0.00667   -0.00702   -0.30006
  1 Li   -0.01046    0.01195   -0.30170
  2 Li   -0.00174    0.00560   -0.27226
  3 Li    0.00756    0.01720   -0.29241
  4 Li   -0.00665    0.02082   -0.29852
  5 Li   -0.01260    0.02100   -0.29632
  6 Li    0.00809    0.00847   -0.30507
  7 Li   -0.00802    0.00233   -0.30149
  8 Li    0.00816    0.00761   -0.30300
  9 Li   -0.06101    0.02343    0.36382
 10 Li    0.02162    0.00854    0.35567
 11 Li    0.05180   -0.00037    0.32887
 12 Li   -0.03180   -0.06484    0.34829
 13 Li    0.02588   -0.05412    0.33318
 14 Li    0.07782   -0.09608    0.36240
 15 Li   -0.04004   -0.06916    0.35612
 16 Li    0.01041   -0.04229    0.41983
 17 Li    0.04064   -0.06489    0.35503
 18 Li   -0.04536   -0.00106   -0.03225
 19 Li   -0.02048    0.00178   -0.10927
 20 Li   -0.00743   -0.11339    0.16535
 21 Li   -0.03261   -0.03105   -0.06769
 22 Li   -0.05732    0.04199   -0.09388
 23 Li    0.00391    0.07026   -0.12923
 24 Li    0.04596   -0.05776   -0.10286
 25 Li   -0.02236   -0.01722   -0.10462
 26 Li    0.01984    0.00643   -0.07750
 27 Li   -0.46231    0.29850    0.14780
 28 Li    0.05021   -0.02683    0.06477
 29 Li    0.26628    0.33090    0.04254
 30 Li   -0.22149   -0.29436    0.08759
 31 Li   -0.07274    0.03228    0.02682
 32 Li   -0.16435    0.00823    0.13215
 33 Li   -0.00721   -0.06716    0.04109
 34 Li    0.00568    0.01253    0.06083
 35 Li    0.00811    0.01292    0.02166
 36 O    -0.23244    0.34772    0.17725
 37 C     0.08849    0.00765    0.16578
 38 C    -0.24219   -0.15203   -0.75032
 39 H     0.49424   -0.13469    0.11430
 40 H    -0.11665   -0.46958    0.17457
 41 H     0.29963    0.09953   -0.08029
 42 H    -0.28203   -0.28469    0.06799
 43 H     0.03590    0.31519    0.14746
 44 H    -0.04147    0.27654   -0.09264
 45 N     0.66347   -0.37668   -0.25656
 46 N    -0.09797    0.42640   -0.30296

System changes: positions 

Initializing position-dependent things.

Density initialized from wave functions
       .-----------------------.  
      /|                       |  
     / |                       |  
    /  |                       |  
   /   |                       |  
  /    |                       |  
 *     |                       |  
 |     |                       |  
 |     |                       |  
 |     |            H H  H     |  
 |     |                       |  
 |     |            H C        |  
 |     Li      Li  H   LH      |  
 |     |                       |  
 |   Li|     Li      Li        |  
 |     |  Li      Li      LLi  |  
 |     |   Li      LiNN        |  
 |     |Li      Li      Li     |  
 |     |                       |  
 |   LLi     LLi     LLi       |  
 |     |  Li      Li      Li   |  
 | Li  |   Li      Li          |  
 |     |Li      Li      Li     |  
 Li    | Li      Li            |  
 |    Li      Li      Li       |  
 |     |                       |  
 |     |                       |  
 |     |                       |  
 |     |                       |  
 |     |                       |  
 |     |                       |  
 |     .-----------------------.  
 |    /                       /   
 |   /                       /    
 |  /                       /     
 | /                       /      
 |/                       /       
 *-----------------------*        

Positions:
   0 Li     1.617037    1.617037   10.000000    ( 0.0000,  0.0000,  0.0000)
   1 Li     4.851111    1.617037   10.000000    ( 0.0000,  0.0000,  0.0000)
   2 Li     8.085185    1.617037   10.000000    ( 0.0000,  0.0000,  0.0000)
   3 Li     1.617037    4.851111   10.000000    ( 0.0000,  0.0000,  0.0000)
   4 Li     4.851111    4.851111   10.000000    ( 0.0000,  0.0000,  0.0000)
   5 Li     8.085185    4.851111   10.000000    ( 0.0000,  0.0000,  0.0000)
   6 Li     1.617037    8.085185   10.000000    ( 0.0000,  0.0000,  0.0000)
   7 Li     4.851111    8.085185   10.000000    ( 0.0000,  0.0000,  0.0000)
   8 Li     8.085185    8.085185   10.000000    ( 0.0000,  0.0000,  0.0000)
   9 Li     0.000000    0.000000   11.617037    ( 0.0000,  0.0000,  0.0000)
  10 Li     3.234074    0.000000   11.617037    ( 0.0000,  0.0000,  0.0000)
  11 Li     6.468148    0.000000   11.617037    ( 0.0000,  0.0000,  0.0000)
  12 Li     0.000000    3.234074   11.617037    ( 0.0000,  0.0000,  0.0000)
  13 Li     3.234074    3.234074   11.617037    ( 0.0000,  0.0000,  0.0000)
  14 Li     6.468148    3.234074   11.617037    ( 0.0000,  0.0000,  0.0000)
  15 Li     0.000000    6.468148   11.617037    ( 0.0000,  0.0000,  0.0000)
  16 Li     3.234074    6.468148   11.617037    ( 0.0000,  0.0000,  0.0000)
  17 Li     6.468148    6.468148   11.617037    ( 0.0000,  0.0000,  0.0000)
  18 Li     1.616233    1.606311   13.556485    ( 0.0000,  0.0000,  0.0000)
  19 Li     4.934169    1.577227   13.585428    ( 0.0000,  0.0000,  0.0000)
  20 Li     8.103363    1.535527   13.647984    ( 0.0000,  0.0000,  0.0000)
  21 Li     1.598730    4.745976   13.585709    ( 0.0000,  0.0000,  0.0000)
  22 Li     4.928105    4.724619   13.575096    ( 0.0000,  0.0000,  0.0000)
  23 Li     8.098566    4.652553   13.624402    ( 0.0000,  0.0000,  0.0000)
  24 Li     1.555112    8.098763   13.521727    ( 0.0000,  0.0000,  0.0000)
  25 Li     4.934349    8.089600   13.567806    ( 0.0000,  0.0000,  0.0000)
  26 Li     8.078615    8.000759   13.595362    ( 0.0000,  0.0000,  0.0000)
  27 Li     0.239966   -0.379375   15.731467    ( 0.0000,  0.0000,  0.0000)
  28 Li     3.264231   -0.002428   15.355540    ( 0.0000,  0.0000,  0.0000)
  29 Li     6.458493   -0.262047   15.738862    ( 0.0000,  0.0000,  0.0000)
  30 Li    -0.119844    2.967283   15.771801    ( 0.0000,  0.0000,  0.0000)
  31 Li     3.272291    3.220086   15.487214    ( 0.0000,  0.0000,  0.0000)
  32 Li     6.468126    3.104190   15.619354    ( 0.0000,  0.0000,  0.0000)
  33 Li     0.020119    6.291455   15.426023    ( 0.0000,  0.0000,  0.0000)
  34 Li     3.224343    6.521865   15.376518    ( 0.0000,  0.0000,  0.0000)
  35 Li     6.434438    6.308790   15.476063    ( 0.0000,  0.0000,  0.0000)
  36 O      7.869562    2.557360   19.378469    ( 0.0000,  0.0000,  0.0000)
  37 C      7.997300    1.273157   19.998467    ( 0.0000,  0.0000,  0.0000)
  38 C      8.190432    1.349279   21.527493    ( 0.0000,  0.0000,  0.0000)
  39 H      7.100446    0.675489   19.750394    ( 0.0000,  0.0000,  0.0000)
  40 H      8.882538    0.878397   19.494718    ( 0.0000,  0.0000,  0.0000)
  41 H      8.325236    0.338950   21.928315    ( 0.0000,  0.0000,  0.0000)
  42 H      9.039260    2.004485   21.764947    ( 0.0000,  0.0000,  0.0000)
  43 H      7.274007    1.721094   21.987460    ( 0.0000,  0.0000,  0.0000)
  44 H      7.026412    2.921179   19.674701    ( 0.0000,  0.0000,  0.0000)
  45 N      7.539805    1.644385   16.137559    ( 0.0000,  0.0000,  0.0000)
  46 N      8.368889    0.763099   16.192417    ( 0.0000,  0.0000,  0.0000)

Unit cell:
           periodic     x           y           z      points  spacing
  1. axis:    yes    9.702222    0.000000    0.000000    60     0.1617
  2. axis:    yes    0.000000    9.702222    0.000000    60     0.1617
  3. axis:    no     0.000000    0.000000   24.851111   156     0.1593

  Lengths:   9.702222   9.702222  24.851111
  Angles:   90.000000  90.000000  90.000000

Effective grid spacing dv^(1/3) = 0.1609

     iter     time        total  log10-change:
                         energy  eigst   dens
iter:   1 12:20:39  -309.286535  -0.96
iter:   2 12:23:18  -309.284915  -1.70  -2.10
iter:   3 12:25:49  -309.284701c -2.17  -2.26
iter:   4 12:28:23  -309.278812c -2.42  -2.27
Writing to output.gpw (mode='')

iter:   5 12:31:02  -309.274055c -2.16  -2.40
iter:   6 12:33:34  -309.272970c -2.17  -2.57
iter:   7 12:36:09  -309.273275c -2.56  -2.64
iter:   8 12:38:35  -309.273567c -3.18  -2.84
iter:   9 12:41:13  -309.273313c -3.70  -2.90
Writing to output.gpw (mode='')

iter:  10 12:43:55  -309.273144c -3.47  -3.04
iter:  11 12:46:33  -309.273194c -4.01  -3.17
iter:  12 12:49:08  -309.273250c -3.98  -3.24
iter:  13 12:51:37  -309.273217c -4.38  -3.43
iter:  14 12:54:05  -309.273229c -4.85  -3.50
Writing to output.gpw (mode='')

iter:  15 12:56:35  -309.273249c -4.78  -3.54
iter:  16 12:59:12  -309.273315c -4.64  -3.67
iter:  17 13:01:49  -309.273299c -5.31  -3.78
iter:  18 13:04:25  -309.273268c -5.41  -3.86
iter:  19 13:06:56  -309.273242c -5.32  -4.07c
Writing to output.gpw (mode='')

iter:  20 13:09:33  -309.273242c -5.69  -4.23c
iter:  21 13:12:13  -309.273248c -5.97  -4.30c
iter:  22 13:14:46  -309.273252c -6.06  -4.43c
iter:  23 13:17:25  -309.273247c -6.03  -4.54c
iter:  24 13:20:04  -309.273251c -6.51  -4.67c
Writing to output.gpw (mode='')

iter:  25 13:22:45  -309.273253c -6.53  -4.74c
iter:  26 13:25:24  -309.273255c -6.68  -4.79c
iter:  27 13:28:01  -309.273255c -6.81  -5.00c
iter:  28 13:30:40  -309.273256c -6.85  -5.05c
iter:  29 13:33:14  -309.273255c -6.94  -5.10c
Writing to output.gpw (mode='')

iter:  30 13:35:50  -309.273254c -7.10  -5.17c
iter:  31 13:38:20  -309.273256c -7.18  -5.30c
iter:  32 13:40:50  -309.273256c -7.25  -5.51c
iter:  33 13:43:25  -309.273255c -7.45c -5.54c

Converged after 33 iterations.

Dipole moment: (-2.676407, -0.572215, 0.224728) |e|*Ang

Energy contributions relative to reference atoms: (reference = -14434.854043)

Kinetic:       +141.336504
Potential:     -136.747274
External:        +0.000000
XC:            -314.554519
Entropy (-ST):   -0.153664
Local:           +0.768866
--------------------------
Free energy:   -309.350087
Extrapolated:  -309.273255

Dipole-layer corrected work functions: 3.385729, 2.953725 eV

Showing only first 2 kpts
 Kpt  Band  Eigenvalues  Occupancy
  0    31     -3.34297    1.93934
  0    32     -3.24110    1.61302
  0    33     -3.11694    0.51626
  0    34     -2.99596    0.06004

  1    31     -3.38609    1.97394
  1    32     -3.15002    0.80542
  1    33     -3.04692    0.15797
  1    34     -2.99492    0.05884


Fermi level: -3.16973

No gap
Writing to output.gpw (mode='')


Forces in eV/Ang:
  0 Li    0.00727   -0.00723   -0.29918
  1 Li   -0.01090    0.01175   -0.30114
  2 Li   -0.00185    0.00584   -0.27240
  3 Li    0.00773    0.01716   -0.29160
  4 Li   -0.00689    0.02051   -0.29807
  5 Li   -0.01255    0.02150   -0.29582
  6 Li    0.00796    0.00806   -0.30451
  7 Li   -0.00798    0.00247   -0.30050
  8 Li    0.00824    0.00702   -0.30288
  9 Li   -0.06372    0.02414    0.36277
 10 Li    0.02137    0.00867    0.35171
 11 Li    0.05540   -0.00016    0.32980
 12 Li   -0.03285   -0.06663    0.34630
 13 Li    0.02578   -0.05513    0.32980
 14 Li    0.07847   -0.09747    0.36190
 15 Li   -0.04108   -0.07074    0.35221
 16 Li    0.01136   -0.04194    0.41664
 17 Li    0.04129   -0.06555    0.35233
 18 Li   -0.04503   -0.00439   -0.02374
 19 Li   -0.02719    0.00421   -0.10390
 20 Li   -0.01101   -0.10760    0.15514
 21 Li   -0.03212   -0.02908   -0.06199
 22 Li   -0.05762    0.04362   -0.08663
 23 Li   -0.00025    0.06644   -0.11813
 24 Li    0.03954   -0.04804   -0.07950
 25 Li   -0.02390   -0.01980   -0.10023
 26 Li    0.02110    0.00467   -0.07645
 27 Li   -0.45288    0.30425    0.13262
 28 Li    0.04083   -0.02353    0.05937
 29 Li    0.29775    0.37837    0.06037
 30 Li   -0.23200   -0.29208    0.09426
 31 Li   -0.07402    0.02803    0.02048
 32 Li   -0.12853    0.01555    0.13595
 33 Li   -0.00574   -0.06623    0.03656
 34 Li    0.00801    0.01186    0.05546
 35 Li    0.00652    0.01005    0.01578
 36 O    -0.24997    0.32338    0.16665
 37 C     0.04708    0.06190    0.05116
 38 C    -0.16850   -0.14488   -0.62487
 39 H     0.39880   -0.12830    0.06323
 40 H    -0.10022   -0.42744    0.19095
 41 H     0.27274    0.10704   -0.01242
 42 H    -0.22074   -0.25334    0.08805
 43 H     0.03609    0.25963    0.08463
 44 H     0.00328    0.20281   -0.08133
 45 N     0.61587   -0.47449   -0.30302
 46 N    -0.08716    0.46888   -0.34508

System changes: positions 

Initializing position-dependent things.

Density initialized from wave functions
       .-----------------------.  
      /|                       |  
     / |                       |  
    /  |                       |  
   /   |                       |  
  /    |                       |  
 *     |                       |  
 |     |                       |  
 |     |            H          |  
 |     |              H  H     |  
 |     |                       |  
 |     |            H C        |  
 |     Li      Li  H   LH      |  
 |     |                       |  
 |   Li|     Li      Li        |  
 |     |  Li      Li      Li   |  
 |     |   Li      LiNN        |  
 |     |Li      Li      Li     |  
 |     |                       |  
 |   LLi     LLi     LLi       |  
 |     |  Li      Li      Li   |  
 | Li  |   Li      Li          |  
 |     |Li      Li      Li     |  
 Li    | Li      Li            |  
 |    Li      Li      Li       |  
 |     |                       |  
 |     |                       |  
 |     |                       |  
 |     |                       |  
 |     |                       |  
 |     |                       |  
 |     .-----------------------.  
 |    /                       /   
 |   /                       /    
 |  /                       /     
 | /                       /      
 |/                       /       
 *-----------------------*        

Positions:
   0 Li     1.617037    1.617037   10.000000    ( 0.0000,  0.0000,  0.0000)
   1 Li     4.851111    1.617037   10.000000    ( 0.0000,  0.0000,  0.0000)
   2 Li     8.085185    1.617037   10.000000    ( 0.0000,  0.0000,  0.0000)
   3 Li     1.617037    4.851111   10.000000    ( 0.0000,  0.0000,  0.0000)
   4 Li     4.851111    4.851111   10.000000    ( 0.0000,  0.0000,  0.0000)
   5 Li     8.085185    4.851111   10.000000    ( 0.0000,  0.0000,  0.0000)
   6 Li     1.617037    8.085185   10.000000    ( 0.0000,  0.0000,  0.0000)
   7 Li     4.851111    8.085185   10.000000    ( 0.0000,  0.0000,  0.0000)
   8 Li     8.085185    8.085185   10.000000    ( 0.0000,  0.0000,  0.0000)
   9 Li     0.000000    0.000000   11.617037    ( 0.0000,  0.0000,  0.0000)
  10 Li     3.234074    0.000000   11.617037    ( 0.0000,  0.0000,  0.0000)
  11 Li     6.468148    0.000000   11.617037    ( 0.0000,  0.0000,  0.0000)
  12 Li     0.000000    3.234074   11.617037    ( 0.0000,  0.0000,  0.0000)
  13 Li     3.234074    3.234074   11.617037    ( 0.0000,  0.0000,  0.0000)
  14 Li     6.468148    3.234074   11.617037    ( 0.0000,  0.0000,  0.0000)
  15 Li     0.000000    6.468148   11.617037    ( 0.0000,  0.0000,  0.0000)
  16 Li     3.234074    6.468148   11.617037    ( 0.0000,  0.0000,  0.0000)
  17 Li     6.468148    6.468148   11.617037    ( 0.0000,  0.0000,  0.0000)
  18 Li     1.615997    1.606496   13.553520    ( 0.0000,  0.0000,  0.0000)
  19 Li     4.934160    1.575698   13.580058    ( 0.0000,  0.0000,  0.0000)
  20 Li     8.103157    1.531395   13.656092    ( 0.0000,  0.0000,  0.0000)
  21 Li     1.597367    4.743556   13.582747    ( 0.0000,  0.0000,  0.0000)
  22 Li     4.925669    4.726017   13.570185    ( 0.0000,  0.0000,  0.0000)
  23 Li     8.099469    4.652151   13.619463    ( 0.0000,  0.0000,  0.0000)
  24 Li     1.556835    8.094578   13.514894    ( 0.0000,  0.0000,  0.0000)
  25 Li     4.935129    8.090523   13.564527    ( 0.0000,  0.0000,  0.0000)
  26 Li     8.078835    7.999936   13.594572    ( 0.0000,  0.0000,  0.0000)
  27 Li     0.227184   -0.385036   15.748510    ( 0.0000,  0.0000,  0.0000)
  28 Li     3.268205   -0.003922   15.359000    ( 0.0000,  0.0000,  0.0000)
  29 Li     6.457727   -0.264994   15.735565    ( 0.0000,  0.0000,  0.0000)
  30 Li    -0.131539    2.950407   15.779808    ( 0.0000,  0.0000,  0.0000)
  31 Li     3.268029    3.223252   15.491228    ( 0.0000,  0.0000,  0.0000)
  32 Li     6.444127    3.104889   15.620361    ( 0.0000,  0.0000,  0.0000)
  33 Li     0.019887    6.285821   15.428296    ( 0.0000,  0.0000,  0.0000)
  34 Li     3.224239    6.521707   15.380539    ( 0.0000,  0.0000,  0.0000)
  35 Li     6.434957    6.310065   15.479045    ( 0.0000,  0.0000,  0.0000)
  36 O      7.872126    2.551011   19.381892    ( 0.0000,  0.0000,  0.0000)
  37 C      7.997572    1.269532   20.008327    ( 0.0000,  0.0000,  0.0000)
  38 C      8.184455    1.349781   21.530552    ( 0.0000,  0.0000,  0.0000)
  39 H      7.109187    0.664411   19.763952    ( 0.0000,  0.0000,  0.0000)
  40 H      8.881215    0.864611   19.509445    ( 0.0000,  0.0000,  0.0000)
  41 H      8.324603    0.337148   21.923001    ( 0.0000,  0.0000,  0.0000)
  42 H      9.034645    2.000372   21.766431    ( 0.0000,  0.0000,  0.0000)
  43 H      7.276325    1.729586   22.002338    ( 0.0000,  0.0000,  0.0000)
  44 H      7.027558    2.924227   19.665849    ( 0.0000,  0.0000,  0.0000)
  45 N      7.550236    1.678560   16.155538    ( 0.0000,  0.0000,  0.0000)
  46 N      8.373656    0.787931   16.204370    ( 0.0000,  0.0000,  0.0000)

Unit cell:
           periodic     x           y           z      points  spacing
  1. axis:    yes    9.702222    0.000000    0.000000    60     0.1617
  2. axis:    yes    0.000000    9.702222    0.000000    60     0.1617
  3. axis:    no     0.000000    0.000000   24.851111   156     0.1593

  Lengths:   9.702222   9.702222  24.851111
  Angles:   90.000000  90.000000  90.000000

Effective grid spacing dv^(1/3) = 0.1609

     iter     time        total  log10-change:
                         energy  eigst   dens
iter:   1 13:46:44  -309.319277  -0.96
iter:   2 13:49:24  -309.315427  -1.66  -2.06
iter:   3 13:51:56  -309.313830c -2.20  -2.20
iter:   4 13:54:24  -309.303131c -2.00  -2.25
Writing to output.gpw (mode='')

iter:   5 13:57:02  -309.302062c -2.14  -2.49
iter:   6 13:59:38  -309.302282c -2.72  -2.53
iter:   7 14:02:18  -309.302266c -2.35  -2.79
iter:   8 14:05:00  -309.301699c -3.14  -2.68
iter:   9 14:07:35  -309.301774c -3.27  -2.90
Writing to output.gpw (mode='')

iter:  10 14:10:16  -309.301840c -3.75  -3.01
iter:  11 14:12:47  -309.301961c -3.74  -3.00
iter:  12 14:15:25  -309.302042c -3.55  -3.15
iter:  13 14:18:00  -309.301989c -4.26  -3.23
iter:  14 14:20:33  -309.301838c -4.26  -3.29
Writing to output.gpw (mode='')

iter:  15 14:23:12  -309.301907c -4.65  -3.41
iter:  16 14:25:44  -309.301950c -4.48  -3.46
iter:  17 14:28:15  -309.301840c -4.67  -3.54
iter:  18 14:30:48  -309.301841c -5.11  -3.84
iter:  19 14:33:21  -309.301833c -5.13  -3.92
Writing to output.gpw (mode='')

iter:  20 14:36:00  -309.301817c -5.14  -3.99
iter:  21 14:38:36  -309.301836c -5.71  -4.05c
iter:  22 14:41:16  -309.301846c -5.78  -4.21c
iter:  23 14:43:47  -309.301845c -6.21  -4.27c
iter:  24 14:46:24  -309.301850c -6.22  -4.32c
Writing to output.gpw (mode='')

iter:  25 14:49:07  -309.301862c -5.96  -4.46c
iter:  26 14:51:45  -309.301853c -6.56  -4.47c
iter:  27 14:54:28  -309.301846c -6.38  -4.69c
iter:  28 14:57:01  -309.301848c -7.07  -4.86c
iter:  29 14:59:41  -309.301850c -6.93  -4.90c
Writing to output.gpw (mode='')

iter:  30 15:02:21  -309.301848c -7.03  -5.03c
iter:  31 15:04:57  -309.301847c -7.23  -5.11c
iter:  32 15:07:35  -309.301848c -7.51c -5.12c

Converged after 32 iterations.

Dipole moment: (-2.479143, -0.361495, 0.221128) |e|*Ang

Energy contributions relative to reference atoms: (reference = -14434.854043)

Kinetic:       +141.139636
Potential:     -136.604283
External:        +0.000000
XC:            -314.529451
Entropy (-ST):   -0.152998
Local:           +0.768749
--------------------------
Free energy:   -309.378347
Extrapolated:  -309.301848

Dipole-layer corrected work functions: 3.385774, 2.960691 eV

Showing only first 2 kpts
 Kpt  Band  Eigenvalues  Occupancy
  0    31     -3.34671    1.93961
  0    32     -3.24561    1.61927
  0    33     -3.12158    0.52499
  0    34     -2.99744    0.05773

  1    31     -3.39040    1.97435
  1    32     -3.15245    0.79508
  1    33     -3.04885    0.15346
  1    34     -2.99677    0.05699


Fermi level: -3.17323

No gap
Writing to output.gpw (mode='')


Forces in eV/Ang:
  0 Li    0.00769   -0.00743   -0.29829
  1 Li   -0.01109    0.01180   -0.30078
  2 Li   -0.00196    0.00606   -0.27242
  3 Li    0.00801    0.01719   -0.29071
  4 Li   -0.00706    0.02020   -0.29753
  5 Li   -0.01258    0.02179   -0.29566
  6 Li    0.00779    0.00756   -0.30389
  7 Li   -0.00793    0.00243   -0.29944
  8 Li    0.00847    0.00659   -0.30265
  9 Li   -0.06656    0.02518    0.36166
 10 Li    0.02095    0.00864    0.34793
 11 Li    0.05923    0.00010    0.33044
 12 Li   -0.03405   -0.06901    0.34407
 13 Li    0.02561   -0.05608    0.32595
 14 Li    0.07935   -0.09931    0.36125
 15 Li   -0.04220   -0.07257    0.34833
 16 Li    0.01199   -0.04198    0.41268
 17 Li    0.04212   -0.06640    0.34957
 18 Li   -0.04603   -0.00807   -0.01430
 19 Li   -0.03325    0.00644   -0.09759
 20 Li   -0.01508   -0.10208    0.15230
 21 Li   -0.03161   -0.02655   -0.05632
 22 Li   -0.05826    0.04584   -0.07891
 23 Li   -0.00482    0.06352   -0.10787
 24 Li    0.03314   -0.03807   -0.05551
 25 Li   -0.02456   -0.02107   -0.09429
 26 Li    0.02243    0.00376   -0.07389
 27 Li   -0.44815    0.32081    0.11507
 28 Li    0.03202   -0.02086    0.05362
 29 Li    0.32530    0.41658    0.07584
 30 Li   -0.24535   -0.29495    0.10172
 31 Li   -0.07630    0.02494    0.01364
 32 Li   -0.09825    0.02732    0.13804
 33 Li   -0.00402   -0.06433    0.03239
 34 Li    0.01008    0.01033    0.05011
 35 Li    0.00482    0.00919    0.00960
 36 O    -0.25448    0.31494    0.12925
 37 C     0.01294    0.08761   -0.01470
 38 C    -0.09662   -0.14605   -0.48400
 39 H     0.26610   -0.13274    0.00375
 40 H    -0.07642   -0.36299    0.19082
 41 H     0.23858    0.11428    0.04508
 42 H    -0.15155   -0.21956    0.11005
 43 H     0.02838    0.19907    0.01828
 44 H     0.05036    0.12380   -0.06842
 45 N     0.68528   -0.68548   -0.33030
 46 N    -0.19390    0.59301   -0.28311

System changes: positions 

Initializing position-dependent things.

Density initialized from wave functions
       .-----------------------.  
      /|                       |  
     / |                       |  
    /  |                       |  
   /   |                       |  
  /    |                       |  
 *     |                       |  
 |     |                       |  
 |     |            H          |  
 |     |              H  H     |  
 |     |                       |  
 |     |            H C        |  
 |     Li      Li  H   Hi      |  
 |     |                       |  
 |   Li|     Li      Li        |  
 |     |  Li      Li      Li   |  
 |     |   Li      LiNN        |  
 |     |Li      Li      Li     |  
 |     |                       |  
 |   LLi     LLi     LLi       |  
 |     |  Li      Li      Li   |  
 | Li  |   Li      Li          |  
 |     |Li      Li      Li     |  
 Li    | Li      Li            |  
 |    Li      Li      Li       |  
 |     |                       |  
 |     |                       |  
 |     |                       |  
 |     |                       |  
 |     |                       |  
 |     |                       |  
 |     .-----------------------.  
 |    /                       /   
 |   /                       /    
 |  /                       /     
 | /                       /      
 |/                       /       
 *-----------------------*        

Positions:
   0 Li     1.617037    1.617037   10.000000    ( 0.0000,  0.0000,  0.0000)
   1 Li     4.851111    1.617037   10.000000    ( 0.0000,  0.0000,  0.0000)
   2 Li     8.085185    1.617037   10.000000    ( 0.0000,  0.0000,  0.0000)
   3 Li     1.617037    4.851111   10.000000    ( 0.0000,  0.0000,  0.0000)
   4 Li     4.851111    4.851111   10.000000    ( 0.0000,  0.0000,  0.0000)
   5 Li     8.085185    4.851111   10.000000    ( 0.0000,  0.0000,  0.0000)
   6 Li     1.617037    8.085185   10.000000    ( 0.0000,  0.0000,  0.0000)
   7 Li     4.851111    8.085185   10.000000    ( 0.0000,  0.0000,  0.0000)
   8 Li     8.085185    8.085185   10.000000    ( 0.0000,  0.0000,  0.0000)
   9 Li     0.000000    0.000000   11.617037    ( 0.0000,  0.0000,  0.0000)
  10 Li     3.234074    0.000000   11.617037    ( 0.0000,  0.0000,  0.0000)
  11 Li     6.468148    0.000000   11.617037    ( 0.0000,  0.0000,  0.0000)
  12 Li     0.000000    3.234074   11.617037    ( 0.0000,  0.0000,  0.0000)
  13 Li     3.234074    3.234074   11.617037    ( 0.0000,  0.0000,  0.0000)
  14 Li     6.468148    3.234074   11.617037    ( 0.0000,  0.0000,  0.0000)
  15 Li     0.000000    6.468148   11.617037    ( 0.0000,  0.0000,  0.0000)
  16 Li     3.234074    6.468148   11.617037    ( 0.0000,  0.0000,  0.0000)
  17 Li     6.468148    6.468148   11.617037    ( 0.0000,  0.0000,  0.0000)
  18 Li     1.614494    1.606312   13.549691    ( 0.0000,  0.0000,  0.0000)
  19 Li     4.933991    1.574063   13.573038    ( 0.0000,  0.0000,  0.0000)
  20 Li     8.102519    1.526581   13.661546    ( 0.0000,  0.0000,  0.0000)
  21 Li     1.594959    4.741346   13.578249    ( 0.0000,  0.0000,  0.0000)
  22 Li     4.922875    4.728195   13.563926    ( 0.0000,  0.0000,  0.0000)
  23 Li     8.099984    4.653874   13.612399    ( 0.0000,  0.0000,  0.0000)
  24 Li     1.558869    8.090815   13.507391    ( 0.0000,  0.0000,  0.0000)
  25 Li     4.935834    8.092127   13.559458    ( 0.0000,  0.0000,  0.0000)
  26 Li     8.079331    7.999782   13.590839    ( 0.0000,  0.0000,  0.0000)
  27 Li     0.209344   -0.382697   15.764905    ( 0.0000,  0.0000,  0.0000)
  28 Li     3.272299   -0.005196   15.363903    ( 0.0000,  0.0000,  0.0000)
  29 Li     6.458375   -0.261075   15.731612    ( 0.0000,  0.0000,  0.0000)
  30 Li    -0.144727    2.931308   15.787831    ( 0.0000,  0.0000,  0.0000)
  31 Li     3.262708    3.226457   15.494430    ( 0.0000,  0.0000,  0.0000)
  32 Li     6.424280    3.098582   15.626089    ( 0.0000,  0.0000,  0.0000)
  33 Li     0.019189    6.281347   15.431331    ( 0.0000,  0.0000,  0.0000)
  34 Li     3.224265    6.521132   15.384700    ( 0.0000,  0.0000,  0.0000)
  35 Li     6.435822    6.312339   15.481844    ( 0.0000,  0.0000,  0.0000)
  36 O      7.875681    2.541967   19.386882    ( 0.0000,  0.0000,  0.0000)
  37 C      7.997604    1.265373   20.022885    ( 0.0000,  0.0000,  0.0000)
  38 C      8.177251    1.351287   21.537784    ( 0.0000,  0.0000,  0.0000)
  39 H      7.119385    0.651461   19.781495    ( 0.0000,  0.0000,  0.0000)
  40 H      8.878907    0.844969   19.532749    ( 0.0000,  0.0000,  0.0000)
  41 H      8.326613    0.337290   21.922495    ( 0.0000,  0.0000,  0.0000)
  42 H      9.029767    1.994649   21.773984    ( 0.0000,  0.0000,  0.0000)
  43 H      7.277966    1.741321   22.022023    ( 0.0000,  0.0000,  0.0000)
  44 H      7.029719    2.926604   19.654715    ( 0.0000,  0.0000,  0.0000)
  45 N      7.567471    1.709358   16.174365    ( 0.0000,  0.0000,  0.0000)
  46 N      8.373823    0.806974   16.231114    ( 0.0000,  0.0000,  0.0000)

Unit cell:
           periodic     x           y           z      points  spacing
  1. axis:    yes    9.702222    0.000000    0.000000    60     0.1617
  2. axis:    yes    0.000000    9.702222    0.000000    60     0.1617
  3. axis:    no     0.000000    0.000000   24.851111   156     0.1593

  Lengths:   9.702222   9.702222  24.851111
  Angles:   90.000000  90.000000  90.000000

Effective grid spacing dv^(1/3) = 0.1609

     iter     time        total  log10-change:
                         energy  eigst   dens
iter:   1 15:10:59  -309.354775  -0.86
iter:   2 15:13:31  -309.346648  -1.60  -1.93
iter:   3 15:16:05  -309.343125c -2.06  -2.17
iter:   4 15:18:36  -309.338137c -2.27  -2.17
Writing to output.gpw (mode='')

iter:   5 15:21:14  -309.331290c -2.02  -2.32
iter:   6 15:23:44  -309.330511c -1.91  -2.51
iter:   7 15:26:18  -309.330885c -3.01  -2.52
iter:   8 15:28:53  -309.331385c -2.77  -2.81
iter:   9 15:31:36  -309.330603c -2.84  -2.80
Writing to output.gpw (mode='')

iter:  10 15:34:10  -309.330702c -3.49  -2.80
iter:  11 15:36:44  -309.330911c -3.70  -2.85
iter:  12 15:39:19  -309.331001c -3.74  -2.89
iter:  13 15:42:02  -309.330930c -4.16  -2.90
iter:  14 15:44:36  -309.330460c -3.62  -2.95
Writing to output.gpw (mode='')

iter:  15 15:47:07  -309.330803c -3.71  -3.06
iter:  16 15:49:43  -309.330979c -3.65  -3.24
iter:  17 15:52:05  -309.330706c -4.68  -3.24
iter:  18 15:54:39  -309.330647c -4.76  -3.52
iter:  19 15:57:22  -309.330670c -4.60  -3.60
Writing to output.gpw (mode='')

iter:  20 15:59:54  -309.330686c -4.87  -3.93
iter:  21 16:02:26  -309.330694c -5.27  -3.87
iter:  22 16:05:05  -309.330678c -5.74  -3.86
iter:  23 16:07:44  -309.330668c -5.71  -3.99
iter:  24 16:10:19  -309.330657c -5.76  -4.04c
Writing to output.gpw (mode='')

iter:  25 16:12:57  -309.330658c -6.20  -4.05c
iter:  26 16:15:30  -309.330686c -5.95  -4.09c
iter:  27 16:18:00  -309.330682c -6.66  -4.49c
iter:  28 16:20:43  -309.330678c -6.75  -4.60c
iter:  29 16:23:15  -309.330676c -6.53  -4.76c
Writing to output.gpw (mode='')

iter:  30 16:25:48  -309.330678c -6.63  -4.96c
iter:  31 16:28:26  -309.330677c -7.01  -5.04c
iter:  32 16:31:02  -309.330677c -6.96  -5.10c
iter:  33 16:33:40  -309.330677c -7.10  -5.25c
iter:  34 16:36:19  -309.330677c -7.41c -5.22c

Converged after 34 iterations.

Dipole moment: (-2.217819, -0.290096, 0.219014) |e|*Ang

Energy contributions relative to reference atoms: (reference = -14434.854043)

Kinetic:       +141.559146
Potential:     -136.950005
External:        +0.000000
XC:            -314.633194
Entropy (-ST):   -0.151850
Local:           +0.769301
--------------------------
Free energy:   -309.406602
Extrapolated:  -309.330677

Dipole-layer corrected work functions: 3.385798, 2.964779 eV

Showing only first 2 kpts
 Kpt  Band  Eigenvalues  Occupancy
  0    31     -3.34983    1.94086
  0    32     -3.25077    1.63800
  0    33     -3.12438    0.53078
  0    34     -2.99585    0.05378

  1    31     -3.39284    1.97454
  1    32     -3.15275    0.77832
  1    33     -3.04984    0.15047
  1    34     -2.99677    0.05475


Fermi level: -3.17529

No gap
Writing to output.gpw (mode='')


Forces in eV/Ang:
  0 Li    0.00846   -0.00734   -0.29731
  1 Li   -0.01174    0.01160   -0.29990
  2 Li   -0.00204    0.00617   -0.27263
  3 Li    0.00829    0.01704   -0.28973
  4 Li   -0.00730    0.01983   -0.29692
  5 Li   -0.01247    0.02265   -0.29481
  6 Li    0.00746    0.00727   -0.30305
  7 Li   -0.00766    0.00244   -0.29817
  8 Li    0.00835    0.00591   -0.30232
  9 Li   -0.06879    0.02559    0.35965
 10 Li    0.01991    0.00879    0.34243
 11 Li    0.06321    0.00071    0.33025
 12 Li   -0.03570   -0.07172    0.34099
 13 Li    0.02482   -0.05731    0.32162
 14 Li    0.08005   -0.10093    0.35912
 15 Li   -0.04311   -0.07434    0.34284
 16 Li    0.01250   -0.04158    0.40834
 17 Li    0.04286   -0.06706    0.34530
 18 Li   -0.04444   -0.01165   -0.00421
 19 Li   -0.03935    0.00929   -0.08801
 20 Li   -0.01829   -0.09251    0.13452
 21 Li   -0.03030   -0.02337   -0.04839
 22 Li   -0.05638    0.04534   -0.06655
 23 Li   -0.00965    0.05611   -0.09231
 24 Li    0.02495   -0.02710   -0.02798
 25 Li   -0.02426   -0.02136   -0.08396
 26 Li    0.02312    0.00153   -0.06832
 27 Li   -0.41764    0.30392    0.10130
 28 Li    0.02144   -0.01652    0.04652
 29 Li    0.33390    0.42853    0.08609
 30 Li   -0.24279   -0.28233    0.10683
 31 Li   -0.07705    0.02022    0.00674
 32 Li   -0.07370    0.05180    0.12591
 33 Li   -0.00222   -0.06001    0.02685
 34 Li    0.01196    0.00854    0.04282
 35 Li    0.00327    0.00887    0.00298
 36 O    -0.24755    0.35092    0.06994
 37 C    -0.00396    0.09677   -0.10089
 38 C    -0.03522   -0.15226   -0.30427
 39 H     0.11101   -0.13181   -0.04417
 40 H    -0.04426   -0.27591    0.17480
 41 H     0.17705    0.11261    0.10382
 42 H    -0.08004   -0.16291    0.11956
 43 H     0.04095    0.11649   -0.04868
 44 H     0.09416    0.03513   -0.04810
 45 N     0.53152   -0.64817   -0.34058
 46 N    -0.02494    0.49649   -0.30569

System changes: positions 

Initializing position-dependent things.

Density initialized from wave functions
       .-----------------------.  
      /|                       |  
     / |                       |  
    /  |                       |  
   /   |                       |  
  /    |                       |  
 *     |                       |  
 |     |                       |  
 |     |            H          |  
 |     |              H  H     |  
 |     |                       |  
 |     |            H C        |  
 |     Li      Li  H   Hi      |  
 |     |                       |  
 |   Li|     Li      Li        |  
 |     |  Li      Li      Li   |  
 |     |   Li      LiNN        |  
 |     |Li      Li      Li     |  
 |     |                       |  
 |   LLi     LLi     LLi       |  
 |     |  Li      Li      Li   |  
 | Li  |   Li      Li          |  
 |     |Li      Li      Li     |  
 Li    | Li      Li            |  
 |    Li      Li      Li       |  
 |     |                       |  
 |     |                       |  
 |     |                       |  
 |     |                       |  
 |     |                       |  
 |     |                       |  
 |     .-----------------------.  
 |    /                       /   
 |   /                       /    
 |  /                       /     
 | /                       /      
 |/                       /       
 *-----------------------*        

Positions:
   0 Li     1.617037    1.617037   10.000000    ( 0.0000,  0.0000,  0.0000)
   1 Li     4.851111    1.617037   10.000000    ( 0.0000,  0.0000,  0.0000)
   2 Li     8.085185    1.617037   10.000000    ( 0.0000,  0.0000,  0.0000)
   3 Li     1.617037    4.851111   10.000000    ( 0.0000,  0.0000,  0.0000)
   4 Li     4.851111    4.851111   10.000000    ( 0.0000,  0.0000,  0.0000)
   5 Li     8.085185    4.851111   10.000000    ( 0.0000,  0.0000,  0.0000)
   6 Li     1.617037    8.085185   10.000000    ( 0.0000,  0.0000,  0.0000)
   7 Li     4.851111    8.085185   10.000000    ( 0.0000,  0.0000,  0.0000)
   8 Li     8.085185    8.085185   10.000000    ( 0.0000,  0.0000,  0.0000)
   9 Li     0.000000    0.000000   11.617037    ( 0.0000,  0.0000,  0.0000)
  10 Li     3.234074    0.000000   11.617037    ( 0.0000,  0.0000,  0.0000)
  11 Li     6.468148    0.000000   11.617037    ( 0.0000,  0.0000,  0.0000)
  12 Li     0.000000    3.234074   11.617037    ( 0.0000,  0.0000,  0.0000)
  13 Li     3.234074    3.234074   11.617037    ( 0.0000,  0.0000,  0.0000)
  14 Li     6.468148    3.234074   11.617037    ( 0.0000,  0.0000,  0.0000)
  15 Li     0.000000    6.468148   11.617037    ( 0.0000,  0.0000,  0.0000)
  16 Li     3.234074    6.468148   11.617037    ( 0.0000,  0.0000,  0.0000)
  17 Li     6.468148    6.468148   11.617037    ( 0.0000,  0.0000,  0.0000)
  18 Li     1.613962    1.606606   13.545770    ( 0.0000,  0.0000,  0.0000)
  19 Li     4.932078    1.573240   13.564180    ( 0.0000,  0.0000,  0.0000)
  20 Li     8.101704    1.520347   13.671336    ( 0.0000,  0.0000,  0.0000)
  21 Li     1.592962    4.738229   13.573690    ( 0.0000,  0.0000,  0.0000)
  22 Li     4.918544    4.730977   13.556727    ( 0.0000,  0.0000,  0.0000)
  23 Li     8.100600    4.654874   13.604900    ( 0.0000,  0.0000,  0.0000)
  24 Li     1.561597    8.085344   13.499472    ( 0.0000,  0.0000,  0.0000)
  25 Li     4.935347    8.091726   13.553002    ( 0.0000,  0.0000,  0.0000)
  26 Li     8.080209    7.998463   13.587293    ( 0.0000,  0.0000,  0.0000)
  27 Li     0.186582   -0.383282   15.785545    ( 0.0000,  0.0000,  0.0000)
  28 Li     3.276552   -0.007031   15.368820    ( 0.0000,  0.0000,  0.0000)
  29 Li     6.466601   -0.251268   15.729757    ( 0.0000,  0.0000,  0.0000)
  30 Li    -0.163749    2.907173   15.799304    ( 0.0000,  0.0000,  0.0000)
  31 Li     3.256077    3.229867   15.498970    ( 0.0000,  0.0000,  0.0000)
  32 Li     6.400588    3.096124   15.631531    ( 0.0000,  0.0000,  0.0000)
  33 Li     0.018913    6.273350   15.434231    ( 0.0000,  0.0000,  0.0000)
  34 Li     3.224638    6.521498   15.390351    ( 0.0000,  0.0000,  0.0000)
  35 Li     6.436495    6.313443   15.485051    ( 0.0000,  0.0000,  0.0000)
  36 O      7.877331    2.537150   19.395220    ( 0.0000,  0.0000,  0.0000)
  37 C      7.997503    1.260175   20.031858    ( 0.0000,  0.0000,  0.0000)
  38 C      8.170413    1.349061   21.540542    ( 0.0000,  0.0000,  0.0000)
  39 H      7.129881    0.638643   19.791328    ( 0.0000,  0.0000,  0.0000)
  40 H      8.875313    0.822547   19.549459    ( 0.0000,  0.0000,  0.0000)
  41 H      8.330268    0.337530   21.924951    ( 0.0000,  0.0000,  0.0000)
  42 H      9.024066    1.987406   21.774547    ( 0.0000,  0.0000,  0.0000)
  43 H      7.280411    1.751480   22.033132    ( 0.0000,  0.0000,  0.0000)
  44 H      7.029836    2.929903   19.650149    ( 0.0000,  0.0000,  0.0000)
  45 N      7.580971    1.745396   16.185272    ( 0.0000,  0.0000,  0.0000)
  46 N      8.382876    0.834512   16.245722    ( 0.0000,  0.0000,  0.0000)

Unit cell:
           periodic     x           y           z      points  spacing
  1. axis:    yes    9.702222    0.000000    0.000000    60     0.1617
  2. axis:    yes    0.000000    9.702222    0.000000    60     0.1617
  3. axis:    no     0.000000    0.000000   24.851111   156     0.1593

  Lengths:   9.702222   9.702222  24.851111
  Angles:   90.000000  90.000000  90.000000

Effective grid spacing dv^(1/3) = 0.1609

     iter     time        total  log10-change:
                         energy  eigst   dens
iter:   1 16:39:35  -309.398480  -0.85
iter:   2 16:42:19  -309.385887  -1.50  -1.87
iter:   3 16:44:48  -309.381794c -2.06  -2.09
iter:   4 16:47:19  -309.373628c -2.32  -2.19
Writing to output.gpw (mode='')

iter:   5 16:49:58  -309.368536c -2.24  -2.32
iter:   6 16:52:36  -309.366008c -2.02  -2.48
iter:   7 16:55:19  -309.366785c -2.89  -2.58
iter:   8 16:58:01  -309.366572c -2.75  -2.79
iter:   9 17:00:34  -309.366302c -3.14  -2.85
Writing to output.gpw (mode='')

iter:  10 17:03:11  -309.365938c -3.02  -2.91
iter:  11 17:05:47  -309.366164c -3.60  -2.92
iter:  12 17:08:25  -309.366077c -3.85  -3.17
iter:  13 17:11:04  -309.366021c -3.86  -3.24
iter:  14 17:13:41  -309.366142c -4.29  -3.35
Writing to output.gpw (mode='')

iter:  15 17:16:22  -309.366188c -4.36  -3.48
iter:  16 17:19:00  -309.366087c -4.68  -3.48
iter:  17 17:21:41  -309.366136c -4.79  -3.62
iter:  18 17:24:17  -309.366174c -4.73  -3.81
iter:  19 17:26:54  -309.366156c -5.20  -3.88
Writing to output.gpw (mode='')

iter:  20 17:29:37  -309.366137c -5.49  -3.96
iter:  21 17:32:24  -309.366128c -5.75  -4.04c
iter:  22 17:35:01  -309.366118c -5.61  -4.11c
iter:  23 17:37:39  -309.366121c -5.79  -4.24c
iter:  24 17:40:04  -309.366124c -6.12  -4.37c
Writing to output.gpw (mode='')

iter:  25 17:42:29  -309.366127c -6.07  -4.48c
iter:  26 17:45:06  -309.366133c -6.43  -4.59c
iter:  27 17:47:34  -309.366135c -6.48  -4.72c
iter:  28 17:49:59  -309.366133c -6.85  -4.79c
iter:  29 17:52:28  -309.366129c -6.68  -4.85c
Writing to output.gpw (mode='')

iter:  30 17:54:58  -309.366131c -6.85  -4.91c
iter:  31 17:57:30  -309.366132c -7.15  -5.03c
iter:  32 18:00:10  -309.366132c -7.11  -5.18c
iter:  33 18:02:44  -309.366132c -7.45c -5.32c

Converged after 33 iterations.

Dipole moment: (-1.864489, -0.204506, 0.214156) |e|*Ang

Energy contributions relative to reference atoms: (reference = -14434.854043)

Kinetic:       +141.505264
Potential:     -136.872451
External:        +0.000000
XC:            -314.693922
Entropy (-ST):   -0.150981
Local:           +0.770468
--------------------------
Free energy:   -309.441622
Extrapolated:  -309.366132

Dipole-layer corrected work functions: 3.386113, 2.974432 eV

Showing only first 2 kpts
 Kpt  Band  Eigenvalues  Occupancy
  0    31     -3.35500    1.94107
  0    32     -3.25691    1.64480
  0    33     -3.13129    0.54592
  0    34     -3.00014    0.05305

  1    31     -3.40227    1.97668
  1    32     -3.15537    0.75603
  1    33     -3.05313    0.14583
  1    34     -2.99993    0.05284


Fermi level: -3.18027

No gap
Writing to output.gpw (mode='')


Forces in eV/Ang:
  0 Li    0.00885   -0.00727   -0.29640
  1 Li   -0.01194    0.01182   -0.29933
  2 Li   -0.00211    0.00625   -0.27255
  3 Li    0.00877    0.01700   -0.28863
  4 Li   -0.00750    0.01945   -0.29603
  5 Li   -0.01251    0.02308   -0.29453
  6 Li    0.00704    0.00680   -0.30214
  7 Li   -0.00745    0.00212   -0.29672
  8 Li    0.00851    0.00556   -0.30186
  9 Li   -0.07131    0.02658    0.35774
 10 Li    0.01836    0.00859    0.33708
 11 Li    0.06752    0.00142    0.32965
 12 Li   -0.03759   -0.07536    0.33748
 13 Li    0.02363   -0.05835    0.31605
 14 Li    0.08105   -0.10316    0.35690
 15 Li   -0.04395   -0.07664    0.33724
 16 Li    0.01233   -0.04194    0.40186
 17 Li    0.04391   -0.06816    0.34069
 18 Li   -0.04529   -0.01606    0.00693
 19 Li   -0.04325    0.01145   -0.07560
 20 Li   -0.02228   -0.08293    0.13156
 21 Li   -0.02891   -0.01914   -0.04076
 22 Li   -0.05480    0.04560   -0.05330
 23 Li   -0.01508    0.05007   -0.07835
 24 Li    0.01638   -0.01515    0.00053
 25 Li   -0.02109   -0.01797   -0.06950
 26 Li    0.02371    0.00064   -0.06024
 27 Li   -0.38157    0.29590    0.07972
 28 Li    0.01276   -0.01353    0.03900
 29 Li    0.34471    0.44108    0.09467
 30 Li   -0.24271   -0.27688    0.11393
 31 Li   -0.07907    0.01814   -0.00117
 32 Li   -0.04954    0.07088    0.11516
 33 Li    0.00022   -0.05373    0.02209
 34 Li    0.01312    0.00441    0.03543
 35 Li    0.00127    0.01313   -0.00425
 36 O    -0.21118    0.34153   -0.01279
 37 C    -0.01781    0.10881   -0.15544
 38 C     0.04476   -0.12535   -0.13880
 39 H    -0.06420   -0.13343   -0.09327
 40 H    -0.00919   -0.14778    0.15487
 41 H     0.11197    0.08332    0.14042
 42 H     0.00151   -0.09602    0.13568
 43 H     0.02221    0.04483   -0.08323
 44 H     0.14008   -0.05984   -0.02526
 45 N     0.56187   -0.75541   -0.38104
 46 N    -0.11590    0.59495   -0.33106

System changes: positions 

Initializing position-dependent things.

Density initialized from wave functions
       .-----------------------.  
      /|                       |  
     / |                       |  
    /  |                       |  
   /   |                       |  
  /    |                       |  
 *     |                       |  
 |     |                       |  
 |     |            H          |  
 |     |              H  H     |  
 |     |                       |  
 |     |            H C        |  
 |     Li      Li  H   Hi      |  
 |     |                       |  
 |   Li|     Li      Li        |  
 |     |  Li      Li      Li   |  
 |     |   Li      LiNN        |  
 |     |Li      Li      Li     |  
 |     |                       |  
 |   LLi     LLi     LLi       |  
 |     |  Li      Li      Li   |  
 | Li  |   Li      Li          |  
 |     |Li      Li      Li     |  
 Li    | Li      Li            |  
 |    Li      Li      Li       |  
 |     |                       |  
 |     |                       |  
 |     |                       |  
 |     |                       |  
 |     |                       |  
 |     |                       |  
 |     .-----------------------.  
 |    /                       /   
 |   /                       /    
 |  /                       /     
 | /                       /      
 |/                       /       
 *-----------------------*        

Positions:
   0 Li     1.617037    1.617037   10.000000    ( 0.0000,  0.0000,  0.0000)
   1 Li     4.851111    1.617037   10.000000    ( 0.0000,  0.0000,  0.0000)
   2 Li     8.085185    1.617037   10.000000    ( 0.0000,  0.0000,  0.0000)
   3 Li     1.617037    4.851111   10.000000    ( 0.0000,  0.0000,  0.0000)
   4 Li     4.851111    4.851111   10.000000    ( 0.0000,  0.0000,  0.0000)
   5 Li     8.085185    4.851111   10.000000    ( 0.0000,  0.0000,  0.0000)
   6 Li     1.617037    8.085185   10.000000    ( 0.0000,  0.0000,  0.0000)
   7 Li     4.851111    8.085185   10.000000    ( 0.0000,  0.0000,  0.0000)
   8 Li     8.085185    8.085185   10.000000    ( 0.0000,  0.0000,  0.0000)
   9 Li     0.000000    0.000000   11.617037    ( 0.0000,  0.0000,  0.0000)
  10 Li     3.234074    0.000000   11.617037    ( 0.0000,  0.0000,  0.0000)
  11 Li     6.468148    0.000000   11.617037    ( 0.0000,  0.0000,  0.0000)
  12 Li     0.000000    3.234074   11.617037    ( 0.0000,  0.0000,  0.0000)
  13 Li     3.234074    3.234074   11.617037    ( 0.0000,  0.0000,  0.0000)
  14 Li     6.468148    3.234074   11.617037    ( 0.0000,  0.0000,  0.0000)
  15 Li     0.000000    6.468148   11.617037    ( 0.0000,  0.0000,  0.0000)
  16 Li     3.234074    6.468148   11.617037    ( 0.0000,  0.0000,  0.0000)
  17 Li     6.468148    6.468148   11.617037    ( 0.0000,  0.0000,  0.0000)
  18 Li     1.612092    1.605647   13.544856    ( 0.0000,  0.0000,  0.0000)
  19 Li     4.931214    1.571346   13.558193    ( 0.0000,  0.0000,  0.0000)
  20 Li     8.100787    1.512930   13.687108    ( 0.0000,  0.0000,  0.0000)
  21 Li     1.590139    4.733962   13.571278    ( 0.0000,  0.0000,  0.0000)
  22 Li     4.914837    4.732850   13.551566    ( 0.0000,  0.0000,  0.0000)
  23 Li     8.101098    4.653386   13.599843    ( 0.0000,  0.0000,  0.0000)
  24 Li     1.562443    8.081299   13.494850    ( 0.0000,  0.0000,  0.0000)
  25 Li     4.936776    8.092620   13.549538    ( 0.0000,  0.0000,  0.0000)
  26 Li     8.081126    7.997578   13.587644    ( 0.0000,  0.0000,  0.0000)
  27 Li     0.163599   -0.385322   15.807992    ( 0.0000,  0.0000,  0.0000)
  28 Li     3.281069   -0.008981   15.371835    ( 0.0000,  0.0000,  0.0000)
  29 Li     6.481135   -0.238518   15.732573    ( 0.0000,  0.0000,  0.0000)
  30 Li    -0.186603    2.877553   15.813459    ( 0.0000,  0.0000,  0.0000)
  31 Li     3.249056    3.233958   15.502860    ( 0.0000,  0.0000,  0.0000)
  32 Li     6.376570    3.092941   15.638143    ( 0.0000,  0.0000,  0.0000)
  33 Li     0.019046    6.264090   15.436152    ( 0.0000,  0.0000,  0.0000)
  34 Li     3.225057    6.521651   15.394765    ( 0.0000,  0.0000,  0.0000)
  35 Li     6.436594    6.314047   15.487288    ( 0.0000,  0.0000,  0.0000)
  36 O      7.878676    2.536308   19.397348    ( 0.0000,  0.0000,  0.0000)
  37 C      7.996071    1.258292   20.031443    ( 0.0000,  0.0000,  0.0000)
  38 C      8.165212    1.345503   21.537266    ( 0.0000,  0.0000,  0.0000)
  39 H      7.135989    0.631795   19.788776    ( 0.0000,  0.0000,  0.0000)
  40 H      8.869558    0.805856   19.554763    ( 0.0000,  0.0000,  0.0000)
  41 H      8.338182    0.335347   21.919921    ( 0.0000,  0.0000,  0.0000)
  42 H      9.021507    1.976783   21.772785    ( 0.0000,  0.0000,  0.0000)
  43 H      7.281560    1.755951   22.037033    ( 0.0000,  0.0000,  0.0000)
  44 H      7.028311    2.933194   19.639683    ( 0.0000,  0.0000,  0.0000)
  45 N      7.592121    1.782381   16.183068    ( 0.0000,  0.0000,  0.0000)
  46 N      8.392204    0.867064   16.248052    ( 0.0000,  0.0000,  0.0000)

Unit cell:
           periodic     x           y           z      points  spacing
  1. axis:    yes    9.702222    0.000000    0.000000    60     0.1617
  2. axis:    yes    0.000000    9.702222    0.000000    60     0.1617
  3. axis:    no     0.000000    0.000000   24.851111   156     0.1593

  Lengths:   9.702222   9.702222  24.851111
  Angles:   90.000000  90.000000  90.000000

Effective grid spacing dv^(1/3) = 0.1609

     iter     time        total  log10-change:
                         energy  eigst   dens
iter:   1 18:05:54  -309.418122  -0.87
iter:   2 18:08:27  -309.416592  -1.61  -2.11
iter:   3 18:11:03  -309.413274c -2.08  -2.14
iter:   4 18:13:38  -309.409552c -2.22  -2.27
Writing to output.gpw (mode='')

iter:   5 18:16:14  -309.404436c -2.18  -2.34
iter:   6 18:18:48  -309.403961c -2.14  -2.59
iter:   7 18:21:20  -309.404402c -3.10  -2.61
iter:   8 18:23:51  -309.404471c -2.89  -2.81
iter:   9 18:26:23  -309.403970c -2.91  -2.90
Writing to output.gpw (mode='')

iter:  10 18:29:04  -309.404115c -3.63  -2.92
iter:  11 18:31:37  -309.403894c -3.73  -3.10
iter:  12 18:34:06  -309.403940c -3.63  -3.11
iter:  13 18:36:42  -309.403942c -4.45  -3.28
iter:  14 18:39:24  -309.404047c -4.24  -3.43
Writing to output.gpw (mode='')

iter:  15 18:41:56  -309.404053c -4.44  -3.61
iter:  16 18:44:33  -309.404065c -4.77  -3.56
iter:  17 18:47:14  -309.404056c -4.87  -3.71
iter:  18 18:49:54  -309.404033c -5.15  -3.77
iter:  19 18:52:32  -309.403998c -5.18  -3.89
Writing to output.gpw (mode='')

iter:  20 18:55:08  -309.404010c -5.10  -3.93
iter:  21 18:57:45  -309.404006c -5.60  -3.96
iter:  22 19:00:25  -309.404010c -5.48  -4.17c
iter:  23 19:03:13  -309.404015c -6.00  -4.30c
iter:  24 19:05:52  -309.404019c -6.03  -4.39c
Writing to output.gpw (mode='')

iter:  25 19:08:24  -309.404024c -6.07  -4.43c
iter:  26 19:11:01  -309.404030c -6.31  -4.58c
iter:  27 19:13:39  -309.404030c -6.47  -4.67c
iter:  28 19:16:12  -309.404030c -6.82  -4.67c
iter:  29 19:18:44  -309.404024c -6.83  -4.76c
Writing to output.gpw (mode='')

iter:  30 19:21:18  -309.404026c -6.93  -5.05c
iter:  31 19:23:55  -309.404026c -7.24  -5.18c
iter:  32 19:26:38  -309.404025c -7.05  -5.22c
iter:  33 19:29:08  -309.404025c -7.21  -5.28c
iter:  34 19:31:45  -309.404025c -7.31  -5.27c
Writing to output.gpw (mode='')

iter:  35 19:34:19  -309.404026c -7.58c -5.37c

Converged after 35 iterations.

Dipole moment: (-1.463337, -0.132355, 0.209849) |e|*Ang

Energy contributions relative to reference atoms: (reference = -14434.854043)

Kinetic:       +141.553326
Potential:     -136.851786
External:        +0.000000
XC:            -314.802209
Entropy (-ST):   -0.150355
Local:           +0.771821
--------------------------
Free energy:   -309.479203
Extrapolated:  -309.404026

Dipole-layer corrected work functions: 3.386276, 2.982874 eV

Showing only first 2 kpts
 Kpt  Band  Eigenvalues  Occupancy
  0    31     -3.35832    1.93993
  0    32     -3.26198    1.64926
  0    33     -3.13794    0.56477
  0    34     -3.00429    0.05289

  1    31     -3.41379    1.97978
  1    32     -3.15765    0.73708
  1    33     -3.05635    0.14291
  1    34     -3.00304    0.05162


Fermi level: -3.18458

No gap

Forces in eV/Ang:
  0 Li    0.00887   -0.00733   -0.29607
  1 Li   -0.01168    0.01205   -0.29941
  2 Li   -0.00218    0.00625   -0.27295
  3 Li    0.00928    0.01701   -0.28780
  4 Li   -0.00762    0.01902   -0.29544
  5 Li   -0.01262    0.02315   -0.29495
  6 Li    0.00640    0.00653   -0.30158
  7 Li   -0.00711    0.00188   -0.29570
  8 Li    0.00875    0.00566   -0.30191
  9 Li   -0.07506    0.02806    0.35729
 10 Li    0.01658    0.00819    0.33492
 11 Li    0.07292    0.00278    0.32974
 12 Li   -0.03978   -0.08015    0.33519
 13 Li    0.02213   -0.06033    0.31341
 14 Li    0.08218   -0.10653    0.35615
 15 Li   -0.04523   -0.07857    0.33465
 16 Li    0.01196   -0.04137    0.39881
 17 Li    0.04533   -0.06897    0.33892
 18 Li   -0.04571   -0.01903    0.01433
 19 Li   -0.04665    0.01492   -0.06646
 20 Li   -0.02640   -0.07367    0.12913
 21 Li   -0.02697   -0.01479   -0.03752
 22 Li   -0.05386    0.04604   -0.04339
 23 Li   -0.02051    0.04559   -0.06767
 24 Li    0.01045   -0.00616    0.02212
 25 Li   -0.01834   -0.01527   -0.05847
 26 Li    0.02457   -0.00068   -0.05581
 27 Li   -0.35311    0.29983    0.05686
 28 Li    0.00639   -0.01105    0.03582
 29 Li    0.34626    0.44792    0.09730
 30 Li   -0.22381   -0.25492    0.11619
 31 Li   -0.08182    0.01564   -0.00681
 32 Li   -0.04496    0.10865    0.09589
 33 Li    0.00194   -0.04703    0.02067
 34 Li    0.01374    0.00053    0.02940
 35 Li   -0.00013    0.01888   -0.00845
 36 O    -0.19257    0.33260   -0.06056
 37 C    -0.03133    0.08783   -0.15493
 38 C     0.11413   -0.12385   -0.02208
 39 H    -0.18677   -0.12994   -0.10965
 40 H     0.04287   -0.04536    0.13038
 41 H     0.02744    0.07595    0.14927
 42 H     0.05076   -0.01970    0.12563
 43 H     0.02913   -0.02475   -0.11434
 44 H     0.17665   -0.12906   -0.01166
 45 N     0.50442   -0.80915   -0.36265
 46 N    -0.09512    0.53447   -0.35875

System changes: positions 

Initializing position-dependent things.

Density initialized from wave functions
       .-----------------------.  
      /|                       |  
     / |                       |  
    /  |                       |  
   /   |                       |  
  /    |                       |  
 *     |                       |  
 |     |                       |  
 |     |            H          |  
 |     |              H  H     |  
 |     |                       |  
 |     Li           H C        |  
 |     |       Li  H   Hi      |  
 |     |                       |  
 |   Li|     Li      Li        |  
 |     |  Li      Li      Li   |  
 |     |   Li      LiNN        |  
 |     |Li      Li      Li     |  
 |     |                       |  
 |   LLi     LLi     LLi       |  
 |     |  Li      Li      Li   |  
 | Li  |   Li      Li          |  
 |     |Li      Li      Li     |  
 Li    | Li      Li            |  
 |    Li      Li      Li       |  
 |     |                       |  
 |     |                       |  
 |     |                       |  
 |     |                       |  
 |     |                       |  
 |     |                       |  
 |     .-----------------------.  
 |    /                       /   
 |   /                       /    
 |  /                       /     
 | /                       /      
 |/                       /       
 *-----------------------*        

Positions:
   0 Li     1.617037    1.617037   10.000000    ( 0.0000,  0.0000,  0.0000)
   1 Li     4.851111    1.617037   10.000000    ( 0.0000,  0.0000,  0.0000)
   2 Li     8.085185    1.617037   10.000000    ( 0.0000,  0.0000,  0.0000)
   3 Li     1.617037    4.851111   10.000000    ( 0.0000,  0.0000,  0.0000)
   4 Li     4.851111    4.851111   10.000000    ( 0.0000,  0.0000,  0.0000)
   5 Li     8.085185    4.851111   10.000000    ( 0.0000,  0.0000,  0.0000)
   6 Li     1.617037    8.085185   10.000000    ( 0.0000,  0.0000,  0.0000)
   7 Li     4.851111    8.085185   10.000000    ( 0.0000,  0.0000,  0.0000)
   8 Li     8.085185    8.085185   10.000000    ( 0.0000,  0.0000,  0.0000)
   9 Li     0.000000    0.000000   11.617037    ( 0.0000,  0.0000,  0.0000)
  10 Li     3.234074    0.000000   11.617037    ( 0.0000,  0.0000,  0.0000)
  11 Li     6.468148    0.000000   11.617037    ( 0.0000,  0.0000,  0.0000)
  12 Li     0.000000    3.234074   11.617037    ( 0.0000,  0.0000,  0.0000)
  13 Li     3.234074    3.234074   11.617037    ( 0.0000,  0.0000,  0.0000)
  14 Li     6.468148    3.234074   11.617037    ( 0.0000,  0.0000,  0.0000)
  15 Li     0.000000    6.468148   11.617037    ( 0.0000,  0.0000,  0.0000)
  16 Li     3.234074    6.468148   11.617037    ( 0.0000,  0.0000,  0.0000)
  17 Li     6.468148    6.468148   11.617037    ( 0.0000,  0.0000,  0.0000)
  18 Li     1.610468    1.604671   13.544972    ( 0.0000,  0.0000,  0.0000)
  19 Li     4.929065    1.570279   13.552416    ( 0.0000,  0.0000,  0.0000)
  20 Li     8.099694    1.505766   13.703977    ( 0.0000,  0.0000,  0.0000)
  21 Li     1.587882    4.729894   13.569524    ( 0.0000,  0.0000,  0.0000)
  22 Li     4.910318    4.735213   13.546986    ( 0.0000,  0.0000,  0.0000)
  23 Li     8.101342    4.651893   13.595438    ( 0.0000,  0.0000,  0.0000)
  24 Li     1.563183    8.077346   13.492186    ( 0.0000,  0.0000,  0.0000)
  25 Li     4.937347    8.092273   13.546261    ( 0.0000,  0.0000,  0.0000)
  26 Li     8.082297    7.996386   13.588262    ( 0.0000,  0.0000,  0.0000)
  27 Li     0.139215   -0.386537   15.827709    ( 0.0000,  0.0000,  0.0000)
  28 Li     3.284744   -0.010945   15.373726    ( 0.0000,  0.0000,  0.0000)
  29 Li     6.502787   -0.219319   15.736952    ( 0.0000,  0.0000,  0.0000)
  30 Li    -0.210678    2.848574   15.826900    ( 0.0000,  0.0000,  0.0000)
  31 Li     3.241841    3.237603   15.506207    ( 0.0000,  0.0000,  0.0000)
  32 Li     6.355373    3.092450   15.643491    ( 0.0000,  0.0000,  0.0000)
  33 Li     0.019496    6.254295   15.437061    ( 0.0000,  0.0000,  0.0000)
  34 Li     3.225783    6.522222   15.399279    ( 0.0000,  0.0000,  0.0000)
  35 Li     6.436467    6.314216   15.488384    ( 0.0000,  0.0000,  0.0000)
  36 O      7.878548    2.538817   19.400314    ( 0.0000,  0.0000,  0.0000)
  37 C      7.994208    1.256175   20.025772    ( 0.0000,  0.0000,  0.0000)
  38 C      8.161997    1.339599   21.530936    ( 0.0000,  0.0000,  0.0000)
  39 H      7.138861    0.627236   19.779163    ( 0.0000,  0.0000,  0.0000)
  40 H      8.864076    0.792436   19.552556    ( 0.0000,  0.0000,  0.0000)
  41 H      8.347353    0.334112   21.919415    ( 0.0000,  0.0000,  0.0000)
  42 H      9.020409    1.965839   21.767451    ( 0.0000,  0.0000,  0.0000)
  43 H      7.281512    1.756585   22.031690    ( 0.0000,  0.0000,  0.0000)
  44 H      7.026081    2.936796   19.635538    ( 0.0000,  0.0000,  0.0000)
  45 N      7.600293    1.812071   16.169621    ( 0.0000,  0.0000,  0.0000)
  46 N      8.404801    0.896241   16.238866    ( 0.0000,  0.0000,  0.0000)

Unit cell:
           periodic     x           y           z      points  spacing
  1. axis:    yes    9.702222    0.000000    0.000000    60     0.1617
  2. axis:    yes    0.000000    9.702222    0.000000    60     0.1617
  3. axis:    no     0.000000    0.000000   24.851111   156     0.1593

  Lengths:   9.702222   9.702222  24.851111
  Angles:   90.000000  90.000000  90.000000

Effective grid spacing dv^(1/3) = 0.1609

     iter     time        total  log10-change:
                         energy  eigst   dens
iter:   1 19:37:36  -309.461337  -0.87
iter:   2 19:40:14  -309.461778  -1.61  -2.16
iter:   3 19:42:50  -309.459718c -2.08  -2.19
iter:   4 19:45:24  -309.456798c -2.24  -2.29
Writing to output.gpw (mode='')

iter:   5 19:47:57  -309.452627c -2.22  -2.35
iter:   6 19:50:29  -309.452301c -2.35  -2.61
iter:   7 19:53:05  -309.452366c -3.24  -2.67
iter:   8 19:55:39  -309.452269c -3.02  -2.78
iter:   9 19:58:12  -309.452070c -3.06  -2.95
Writing to output.gpw (mode='')

iter:  10 20:00:53  -309.452062c -3.77  -2.97
iter:  11 20:03:31  -309.451964c -3.76  -3.17
iter:  12 20:06:15  -309.452038c -3.86  -3.20
iter:  13 20:08:52  -309.452043c -4.30  -3.25
iter:  14 20:11:23  -309.452073c -4.47  -3.50
Writing to output.gpw (mode='')

iter:  15 20:13:56  -309.452087c -4.67  -3.55
iter:  16 20:16:36  -309.452101c -4.57  -3.59
iter:  17 20:19:14  -309.452114c -5.01  -3.76
iter:  18 20:21:50  -309.452078c -5.21  -3.81
iter:  19 20:24:32  -309.452074c -5.22  -4.04c
Writing to output.gpw (mode='')

iter:  20 20:27:12  -309.452073c -5.66  -4.05c
iter:  21 20:29:53  -309.452078c -5.92  -4.08c
iter:  22 20:32:37  -309.452085c -5.80  -4.16c
iter:  23 20:35:11  -309.452084c -6.18  -4.39c
iter:  24 20:37:39  -309.452083c -6.10  -4.47c
Writing to output.gpw (mode='')

iter:  25 20:40:15  -309.452087c -6.17  -4.57c
iter:  26 20:42:51  -309.452087c -6.49  -4.72c
iter:  27 20:45:23  -309.452087c -6.47  -4.72c
iter:  28 20:47:56  -309.452087c -6.69  -4.98c
iter:  29 20:50:24  -309.452087c -6.69  -5.02c
Writing to output.gpw (mode='')

iter:  30 20:52:56  -309.452087c -6.90  -5.02c
iter:  31 20:55:32  -309.452086c -7.02  -5.17c
iter:  32 20:58:08  -309.452086c -7.24  -5.31c
iter:  33 21:00:40  -309.452087c -7.23  -5.36c
iter:  34 21:03:13  -309.452087c -7.41c -5.48c

Converged after 34 iterations.

Dipole moment: (-1.036764, -0.158736, 0.206486) |e|*Ang

Energy contributions relative to reference atoms: (reference = -14434.854043)

Kinetic:       +141.561771
Potential:     -136.775493
External:        +0.000000
XC:            -314.935887
Entropy (-ST):   -0.149966
Local:           +0.772505
--------------------------
Free energy:   -309.527070
Extrapolated:  -309.452087

Dipole-layer corrected work functions: 3.386495, 2.989558 eV

Showing only first 2 kpts
 Kpt  Band  Eigenvalues  Occupancy
  0    31     -3.36039    1.93830
  0    32     -3.26523    1.64808
  0    33     -3.14411    0.58705
  0    34     -3.00925    0.05448

  1    31     -3.42750    1.98351
  1    32     -3.15899    0.71757
  1    33     -3.05897    0.14073
  1    34     -3.00602    0.05116


Fermi level: -3.18803

No gap
Writing to output.gpw (mode='')


Forces in eV/Ang:
  0 Li    0.00855   -0.00739   -0.29614
  1 Li   -0.01110    0.01243   -0.29969
  2 Li   -0.00221    0.00620   -0.27333
  3 Li    0.00981    0.01706   -0.28713
  4 Li   -0.00774    0.01858   -0.29474
  5 Li   -0.01276    0.02283   -0.29570
  6 Li    0.00567    0.00631   -0.30114
  7 Li   -0.00684    0.00154   -0.29481
  8 Li    0.00910    0.00605   -0.30210
  9 Li   -0.07848    0.02955    0.35760
 10 Li    0.01443    0.00743    0.33390
 11 Li    0.07770    0.00430    0.32992
 12 Li   -0.04169   -0.08478    0.33316
 13 Li    0.02020   -0.06208    0.31112
 14 Li    0.08289   -0.10964    0.35569
 15 Li   -0.04603   -0.08027    0.33304
 16 Li    0.01101   -0.04081    0.39560
 17 Li    0.04665   -0.06975    0.33773
 18 Li   -0.04667   -0.02154    0.01905
 19 Li   -0.04708    0.01765   -0.05716
 20 Li   -0.02953   -0.06451    0.13208
 21 Li   -0.02490   -0.01035   -0.03649
 22 Li   -0.05250    0.04608   -0.03504
 23 Li   -0.02537    0.04185   -0.05961
 24 Li    0.00573    0.00125    0.03812
 25 Li   -0.01351   -0.00997   -0.04698
 26 Li    0.02488   -0.00152   -0.05183
 27 Li   -0.31220    0.29476    0.03262
 28 Li    0.00334   -0.00961    0.03441
 29 Li    0.34080    0.44921    0.09531
 30 Li   -0.18327   -0.21619    0.11313
 31 Li   -0.08430    0.01494   -0.01106
 32 Li   -0.03702    0.12883    0.08036
 33 Li    0.00349   -0.03956    0.02113
 34 Li    0.01328   -0.00454    0.02456
 35 Li   -0.00134    0.02748   -0.01106
 36 O    -0.15354    0.28963   -0.10292
 37 C    -0.02916    0.05597   -0.10929
 38 C     0.17090   -0.10178    0.03996
 39 H    -0.26336   -0.11359   -0.11304
 40 H     0.06154    0.04173    0.09842
 41 H    -0.05286    0.04464    0.12250
 42 H     0.07220    0.05085    0.10454
 43 H     0.03517   -0.06406   -0.11415
 44 H     0.19452   -0.17592   -0.00244
 45 N     0.41820   -0.76980   -0.33266
 46 N    -0.05844    0.45586   -0.35895

System changes: positions 

Initializing position-dependent things.

Density initialized from wave functions
       .-----------------------.  
      /|                       |  
     / |                       |  
    /  |                       |  
   /   |                       |  
  /    |                       |  
 *     |                       |  
 |     |                       |  
 |     |            H          |  
 |     |              H  H     |  
 |     |                       |  
 |     Li           H CLi      |  
 |     |       Li  H   H       |  
 |     |                       |  
 |   Li|     Li      Li        |  
 |     |  Li      Li      Li   |  
 |     |   Li      LiNN        |  
 |     |Li      Li      Li     |  
 |     |                       |  
 |   LLi     LLi     LLi       |  
 |     |  Li      Li      Li   |  
 | Li  |   Li      Li          |  
 |     |Li      Li      Li     |  
 Li    | Li      Li            |  
 |    Li      Li      Li       |  
 |     |                       |  
 |     |                       |  
 |     |                       |  
 |     |                       |  
[...]
iter:   5 09:09:05  -309.913572c -3.66  -3.00
iter:   6 09:11:37  -309.913517c -3.58  -3.18
iter:   7 09:14:13  -309.913678c -3.29  -3.42
iter:   8 09:16:45  -309.913500c -4.56  -3.33
iter:   9 09:19:22  -309.913487c -4.87  -3.65
Writing to output.gpw (mode='')

iter:  10 09:22:02  -309.913506c -4.98  -3.67
iter:  11 09:24:36  -309.913539c -4.89  -3.79
iter:  12 09:27:07  -309.913518c -5.40  -3.85
iter:  13 09:29:36  -309.913519c -5.89  -3.96
iter:  14 09:32:09  -309.913523c -5.68  -3.98
Writing to output.gpw (mode='')

iter:  15 09:34:49  -309.913511c -5.69  -4.10c
iter:  16 09:37:17  -309.913511c -6.25  -4.22c
iter:  17 09:39:52  -309.913508c -5.93  -4.33c
iter:  18 09:42:32  -309.913501c -6.15  -4.47c
iter:  19 09:45:08  -309.913507c -6.83  -4.54c
Writing to output.gpw (mode='')

iter:  20 09:47:51  -309.913505c -6.95  -4.66c
iter:  21 09:50:45  -309.913508c -6.96  -4.80c
iter:  22 09:53:26  -309.913508c -7.25  -4.90c
iter:  23 09:56:00  -309.913508c -7.32  -4.97c
iter:  24 09:58:36  -309.913508c -7.60c -5.19c

Converged after 24 iterations.

Dipole moment: (-0.438613, -6.338467, 0.237163) |e|*Ang

Energy contributions relative to reference atoms: (reference = -14434.854043)

Kinetic:       +146.373816
Potential:     -139.448492
External:        +0.000000
XC:            -317.531952
Entropy (-ST):   -0.162853
Local:           +0.774546
--------------------------
Free energy:   -309.994934
Extrapolated:  -309.913508

Dipole-layer corrected work functions: 3.395328, 2.939418 eV

Showing only first 2 kpts
 Kpt  Band  Eigenvalues  Occupancy
  0    31     -3.35386    1.95313
  0    32     -3.18165    1.14182
  0    33     -3.15227    0.85011
  0    34     -3.06434    0.22595

  1    31     -3.47737    1.99595
  1    32     -3.12907    0.63467
  1    33     -3.06436    0.22603
  1    34     -3.05105    0.17790


Fermi level: -3.16737

No gap
Writing to output.gpw (mode='')


Forces in eV/Ang:
  0 Li   -0.00787   -0.00995   -0.29588
  1 Li    0.00862    0.01225   -0.29489
  2 Li    0.00004    0.00035   -0.25120
  3 Li    0.01483    0.01460   -0.28612
  4 Li   -0.00512    0.00744   -0.29435
  5 Li   -0.01043   -0.00743   -0.29448
  6 Li    0.00805   -0.00714   -0.29321
  7 Li   -0.01413   -0.01387   -0.28808
  8 Li    0.01097    0.00890   -0.29526
  9 Li   -0.02798    0.02950    0.32892
 10 Li    0.01126    0.02877    0.30570
 11 Li    0.02963    0.03363    0.27466
 12 Li   -0.03801   -0.02898    0.26616
 13 Li   -0.01499   -0.01552    0.29808
 14 Li    0.02986   -0.02805    0.31736
 15 Li   -0.02831   -0.02016    0.29577
 16 Li    0.00118   -0.01639    0.30077
 17 Li    0.01692    0.00206    0.30132
 18 Li   -0.00176   -0.00261   -0.00554
 19 Li   -0.00382   -0.00713   -0.00437
 20 Li   -0.00618    0.00449   -0.00040
 21 Li    0.00614   -0.00224   -0.00522
 22 Li   -0.00634    0.00509   -0.00781
 23 Li    0.00445   -0.00019   -0.00818
 24 Li    0.00077    0.00325    0.00339
 25 Li    0.00847    0.00033   -0.00171
 26 Li    0.00240   -0.00847   -0.01287
 27 Li    0.00206   -0.00846    0.00423
 28 Li    0.00351   -0.00430   -0.00102
 29 Li   -0.01578    0.00281    0.00385
 30 Li    0.00131    0.00182    0.01931
 31 Li   -0.00804    0.00466   -0.00583
 32 Li   -0.01653    0.01048   -0.01179
 33 Li   -0.00227   -0.00979   -0.00254
 34 Li   -0.00282   -0.00157    0.00026
 35 Li   -0.00275   -0.00190   -0.00306
 36 O    -0.03839   -0.00276    0.00318
 37 C     0.00074   -0.00920   -0.02820
 38 C    -0.00612   -0.00420   -0.01720
 39 H     0.00766    0.02051   -0.02541
 40 H     0.00589    0.01370   -0.00531
 41 H    -0.02228   -0.00022    0.00730
 42 H     0.00135    0.01295   -0.03632
 43 H     0.00594   -0.00370    0.00570
 44 H     0.01049    0.00772   -0.01083
 45 N     0.01839    0.04964   -0.03579
 46 N     0.00539   -0.01452    0.03564

System changes: positions 

Initializing position-dependent things.

Density initialized from wave functions
       .-----------------------.  
      /|                       |  
     / |                       |  
    /  |                       |  
   /   |                       |  
  /    |                       |  
 *     |                       |  
 |     |                       |  
 |     |                       |  
 |     |            H    H     |  
 |     |              H        |  
 |     |            H O        |  
 |     Li      Li  H  C H      |  
 |     |                       |  
 |   Li|     Li      Li        |  
 |     |  Li      Li      Li   |  
 |     |   Li      LiN    Li   |  
 |     |Li      LiLi   NLi     |  
 |     |                       |  
 |   LLi     LLi     LLi       |  
 |     |  Li      Li      Li   |  
 | Li  |   Li      Li          |  
 |     |Li      Li      Li     |  
 Li    | Li      Li            |  
 |    Li      Li      Li       |  
 |     |                       |  
 |     |                       |  
 |     |                       |  
 |     |                       |  
 |     |                       |  
 |     |                       |  
 |     .-----------------------.  
 |    /                       /   
 |   /                       /    
 |  /                       /     
 | /                       /      
 |/                       /       
 *-----------------------*        

Positions:
   0 Li     1.617037    1.617037   10.000000    ( 0.0000,  0.0000,  0.0000)
   1 Li     4.851111    1.617037   10.000000    ( 0.0000,  0.0000,  0.0000)
   2 Li     8.085185    1.617037   10.000000    ( 0.0000,  0.0000,  0.0000)
   3 Li     1.617037    4.851111   10.000000    ( 0.0000,  0.0000,  0.0000)
   4 Li     4.851111    4.851111   10.000000    ( 0.0000,  0.0000,  0.0000)
   5 Li     8.085185    4.851111   10.000000    ( 0.0000,  0.0000,  0.0000)
   6 Li     1.617037    8.085185   10.000000    ( 0.0000,  0.0000,  0.0000)
   7 Li     4.851111    8.085185   10.000000    ( 0.0000,  0.0000,  0.0000)
   8 Li     8.085185    8.085185   10.000000    ( 0.0000,  0.0000,  0.0000)
   9 Li     0.000000    0.000000   11.617037    ( 0.0000,  0.0000,  0.0000)
  10 Li     3.234074    0.000000   11.617037    ( 0.0000,  0.0000,  0.0000)
  11 Li     6.468148    0.000000   11.617037    ( 0.0000,  0.0000,  0.0000)
  12 Li     0.000000    3.234074   11.617037    ( 0.0000,  0.0000,  0.0000)
  13 Li     3.234074    3.234074   11.617037    ( 0.0000,  0.0000,  0.0000)
  14 Li     6.468148    3.234074   11.617037    ( 0.0000,  0.0000,  0.0000)
  15 Li     0.000000    6.468148   11.617037    ( 0.0000,  0.0000,  0.0000)
  16 Li     3.234074    6.468148   11.617037    ( 0.0000,  0.0000,  0.0000)
  17 Li     6.468148    6.468148   11.617037    ( 0.0000,  0.0000,  0.0000)
  18 Li     1.599723    1.593504   13.517184    ( 0.0000,  0.0000,  0.0000)
  19 Li     4.873165    1.675757   13.523711    ( 0.0000,  0.0000,  0.0000)
  20 Li     8.091052    1.627186   13.553198    ( 0.0000,  0.0000,  0.0000)
  21 Li     1.534464    4.789779   13.516410    ( 0.0000,  0.0000,  0.0000)
  22 Li     4.810914    4.881573   13.506516    ( 0.0000,  0.0000,  0.0000)
  23 Li     8.028858    4.838848   13.531935    ( 0.0000,  0.0000,  0.0000)
  24 Li     1.654717    8.047023   13.487371    ( 0.0000,  0.0000,  0.0000)
  25 Li     4.909476    8.145218   13.494054    ( 0.0000,  0.0000,  0.0000)
  26 Li     8.127021    8.104239   13.512577    ( 0.0000,  0.0000,  0.0000)
  27 Li     0.127978   -0.101522   15.466022    ( 0.0000,  0.0000,  0.0000)
  28 Li     3.371030   -0.044178   15.435587    ( 0.0000,  0.0000,  0.0000)
  29 Li     6.705194    0.220104   15.573592    ( 0.0000,  0.0000,  0.0000)
  30 Li    -0.306284    2.993064   15.671427    ( 0.0000,  0.0000,  0.0000)
  31 Li     3.078501    3.283819   15.464490    ( 0.0000,  0.0000,  0.0000)
  32 Li     6.320914    3.351697   15.552768    ( 0.0000,  0.0000,  0.0000)
  33 Li     0.050352    6.361537   15.458149    ( 0.0000,  0.0000,  0.0000)
  34 Li     3.245296    6.474026   15.448394    ( 0.0000,  0.0000,  0.0000)
  35 Li     6.418500    6.615570   15.448795    ( 0.0000,  0.0000,  0.0000)
  36 O      7.898826    2.548068   19.227314    ( 0.0000,  0.0000,  0.0000)
  37 C      8.024693    1.223520   19.768637    ( 0.0000,  0.0000,  0.0000)
  38 C      8.197599    1.218920   21.283575    ( 0.0000,  0.0000,  0.0000)
  39 H      7.162602    0.609121   19.475746    ( 0.0000,  0.0000,  0.0000)
  40 H      8.901605    0.799799   19.274874    ( 0.0000,  0.0000,  0.0000)
  41 H      8.353051    0.201000   21.649041    ( 0.0000,  0.0000,  0.0000)
  42 H      9.056302    1.824549   21.575840    ( 0.0000,  0.0000,  0.0000)
  43 H      7.311641    1.624132   21.782078    ( 0.0000,  0.0000,  0.0000)
  44 H      7.060326    2.915241   19.533371    ( 0.0000,  0.0000,  0.0000)
  45 N      7.599977    2.039430   15.569529    ( 0.0000,  0.0000,  0.0000)
  46 N      8.506494    1.168270   15.554366    ( 0.0000,  0.0000,  0.0000)

Unit cell:
           periodic     x           y           z      points  spacing
  1. axis:    yes    9.702222    0.000000    0.000000    60     0.1617
  2. axis:    yes    0.000000    9.702222    0.000000    60     0.1617
  3. axis:    no     0.000000    0.000000   24.851111   156     0.1593

  Lengths:   9.702222   9.702222  24.851111
  Angles:   90.000000  90.000000  90.000000

Effective grid spacing dv^(1/3) = 0.1609

     iter     time        total  log10-change:
                         energy  eigst   dens
iter:   1 10:02:02  -310.088922  -0.50
iter:   2 10:04:38  -309.967954  -1.10  -1.48
iter:   3 10:07:12  -309.932875  -1.99  -1.72
iter:   4 10:09:47  -309.922282  -2.38  -1.97
Writing to output.gpw (mode='')

iter:   5 10:12:28  -309.915197c -1.72  -2.12
iter:   6 10:15:05  -309.913353c -2.10  -2.42
iter:   7 10:17:40  -309.913902c -1.92  -2.59
iter:   8 10:20:04  -309.912845c -2.95  -2.62
iter:   9 10:22:45  -309.912414c -2.91  -2.78
Writing to output.gpw (mode='')

iter:  10 10:25:21  -309.912932c -2.79  -2.72
iter:  11 10:27:54  -309.912577c -3.47  -2.97
iter:  12 10:30:35  -309.912702c -3.55  -3.13
iter:  13 10:33:10  -309.912697c -3.85  -3.13
iter:  14 10:35:50  -309.912485c -3.97  -3.16
Writing to output.gpw (mode='')

iter:  15 10:38:24  -309.912516c -4.27  -3.48
iter:  16 10:41:01  -309.912585c -4.55  -3.55
iter:  17 10:43:38  -309.912570c -4.81  -3.59
iter:  18 10:46:12  -309.912537c -4.96  -3.66
iter:  19 10:48:46  -309.912537c -5.15  -3.77
Writing to output.gpw (mode='')

iter:  20 10:51:27  -309.912545c -5.34  -3.83
iter:  21 10:54:06  -309.912550c -5.49  -3.92
iter:  22 10:56:36  -309.912534c -5.41  -3.95
iter:  23 10:59:13  -309.912540c -5.85  -4.18c
iter:  24 11:01:50  -309.912545c -5.68  -4.24c
Writing to output.gpw (mode='')

iter:  25 11:04:32  -309.912538c -6.11  -4.32c
iter:  26 11:07:12  -309.912538c -6.16  -4.48c
iter:  27 11:09:47  -309.912538c -6.26  -4.63c
iter:  28 11:12:16  -309.912537c -6.49  -4.75c
iter:  29 11:14:45  -309.912537c -6.42  -4.83c
Writing to output.gpw (mode='')

iter:  30 11:17:21  -309.912538c -6.54  -4.93c
iter:  31 11:19:52  -309.912538c -6.77  -4.99c
iter:  32 11:22:27  -309.912537c -6.94  -5.06c
iter:  33 11:24:59  -309.912536c -7.02  -5.18c
iter:  34 11:27:39  -309.912536c -7.19  -5.30c
Writing to output.gpw (mode='')

iter:  35 11:30:21  -309.912537c -7.31  -5.38c
iter:  36 11:33:00  -309.912537c -7.48c -5.41c

Converged after 36 iterations.

Dipole moment: (-0.476393, -6.725578, 0.230112) |e|*Ang

Energy contributions relative to reference atoms: (reference = -14434.854043)

Kinetic:       +146.703347
Potential:     -139.644959
External:        +0.000000
XC:            -317.663464
Entropy (-ST):   -0.163145
Local:           +0.774113
--------------------------
Free energy:   -309.994109
Extrapolated:  -309.912537

Dipole-layer corrected work functions: 3.396473, 2.954117 eV

Showing only first 2 kpts
 Kpt  Band  Eigenvalues  Occupancy
  0    31     -3.36380    1.95494
  0    32     -3.18785    1.12485
  0    33     -3.16035    0.85168
  0    34     -3.07499    0.23713

  1    31     -3.48419    1.99586
  1    32     -3.13848    0.64763
  1    33     -3.07220    0.22570
  1    34     -3.06097    0.18451


Fermi level: -3.17530

No gap
Writing to output.gpw (mode='')


Forces in eV/Ang:
  0 Li   -0.00888   -0.01066   -0.29528
  1 Li    0.00933    0.01187   -0.29408
  2 Li   -0.00015   -0.00033   -0.24938
  3 Li    0.01504    0.01401   -0.28646
  4 Li   -0.00514    0.00662   -0.29418
  5 Li   -0.01043   -0.00921   -0.29420
  6 Li    0.00819   -0.00836   -0.29313
  7 Li   -0.01454   -0.01517   -0.28779
  8 Li    0.01127    0.00870   -0.29377
  9 Li   -0.02229    0.03012    0.32172
 10 Li    0.01226    0.03074    0.30372
 11 Li    0.02492    0.03450    0.26667
 12 Li   -0.03414   -0.02066    0.25949
 13 Li   -0.01441   -0.01117    0.29727
 14 Li    0.02683   -0.02038    0.31189
 15 Li   -0.02677   -0.01516    0.29555
 16 Li   -0.00084   -0.01173    0.29705
 17 Li    0.01536    0.00787    0.29624
 18 Li   -0.00144   -0.00132   -0.00728
 19 Li   -0.00399   -0.00823   -0.00280
 20 Li   -0.01084    0.01139   -0.01223
 21 Li    0.00690   -0.00073   -0.00676
 22 Li   -0.00558    0.00281   -0.00764
 23 Li    0.00598   -0.00306   -0.00657
 24 Li    0.00448   -0.00058   -0.00147
 25 Li    0.00862    0.00119   -0.00152
 26 Li    0.00108   -0.00940   -0.00942
 27 Li   -0.01198   -0.00137    0.00472
 28 Li    0.00457   -0.00447    0.00041
 29 Li   -0.00836   -0.00529    0.00096
 30 Li    0.00673    0.00272    0.02021
 31 Li   -0.00903    0.00475   -0.00423
 32 Li   -0.02325    0.00882   -0.01231
 33 Li   -0.00254   -0.01617   -0.00079
 34 Li   -0.00421   -0.00044    0.00179
 35 Li   -0.00340   -0.00349   -0.00189
 36 O    -0.00335    0.03071   -0.03448
 37 C    -0.00700   -0.00469    0.00780
 38 C    -0.02852    0.00741   -0.02462
 39 H    -0.03013   -0.00032    0.01224
 40 H     0.03594    0.01606    0.02059
 41 H    -0.01790   -0.02277   -0.01162
 42 H     0.02817    0.01681   -0.02012
 43 H     0.00385   -0.01881   -0.02684
 44 H    -0.00196    0.02779   -0.01744
 45 N     0.07378    0.01608   -0.02314
 46 N    -0.04568   -0.02606    0.07555

System changes: positions 

Initializing position-dependent things.

Density initialized from wave functions
       .-----------------------.  
      /|                       |  
     / |                       |  
    /  |                       |  
   /   |                       |  
  /    |                       |  
 *     |                       |  
 |     |                       |  
 |     |                       |  
 |     |            H    H     |  
 |     |              H        |  
 |     |            H O        |  
 |     Li      Li  H  C H      |  
 |     |                       |  
 |   Li|     Li      Li        |  
 |     |  Li      Li      Li   |  
 |     |   Li      LiN    Li   |  
 |     |Li      LiLi   NLi     |  
 |     |                       |  
 |   LLi     LLi     LLi       |  
 |     |  Li      Li      Li   |  
 | Li  |   Li      Li          |  
 |     |Li      Li      Li     |  
 Li    | Li      Li            |  
 |    Li      Li      Li       |  
 |     |                       |  
 |     |                       |  
 |     |                       |  
 |     |                       |  
 |     |                       |  
 |     |                       |  
 |     .-----------------------.  
 |    /                       /   
 |   /                       /    
 |  /                       /     
 | /                       /      
 |/                       /       
 *-----------------------*        

Positions:
   0 Li     1.617037    1.617037   10.000000    ( 0.0000,  0.0000,  0.0000)
   1 Li     4.851111    1.617037   10.000000    ( 0.0000,  0.0000,  0.0000)
   2 Li     8.085185    1.617037   10.000000    ( 0.0000,  0.0000,  0.0000)
   3 Li     1.617037    4.851111   10.000000    ( 0.0000,  0.0000,  0.0000)
   4 Li     4.851111    4.851111   10.000000    ( 0.0000,  0.0000,  0.0000)
   5 Li     8.085185    4.851111   10.000000    ( 0.0000,  0.0000,  0.0000)
   6 Li     1.617037    8.085185   10.000000    ( 0.0000,  0.0000,  0.0000)
   7 Li     4.851111    8.085185   10.000000    ( 0.0000,  0.0000,  0.0000)
   8 Li     8.085185    8.085185   10.000000    ( 0.0000,  0.0000,  0.0000)
   9 Li     0.000000    0.000000   11.617037    ( 0.0000,  0.0000,  0.0000)
  10 Li     3.234074    0.000000   11.617037    ( 0.0000,  0.0000,  0.0000)
  11 Li     6.468148    0.000000   11.617037    ( 0.0000,  0.0000,  0.0000)
  12 Li     0.000000    3.234074   11.617037    ( 0.0000,  0.0000,  0.0000)
  13 Li     3.234074    3.234074   11.617037    ( 0.0000,  0.0000,  0.0000)
  14 Li     6.468148    3.234074   11.617037    ( 0.0000,  0.0000,  0.0000)
  15 Li     0.000000    6.468148   11.617037    ( 0.0000,  0.0000,  0.0000)
  16 Li     3.234074    6.468148   11.617037    ( 0.0000,  0.0000,  0.0000)
  17 Li     6.468148    6.468148   11.617037    ( 0.0000,  0.0000,  0.0000)
  18 Li     1.598182    1.592398   13.518900    ( 0.0000,  0.0000,  0.0000)
  19 Li     4.873295    1.673751   13.524181    ( 0.0000,  0.0000,  0.0000)
  20 Li     8.090300    1.623699   13.560240    ( 0.0000,  0.0000,  0.0000)
  21 Li     1.534719    4.788296   13.516129    ( 0.0000,  0.0000,  0.0000)
  22 Li     4.811690    4.878895   13.507356    ( 0.0000,  0.0000,  0.0000)
  23 Li     8.029768    4.834134   13.532811    ( 0.0000,  0.0000,  0.0000)
  24 Li     1.653736    8.046124   13.487415    ( 0.0000,  0.0000,  0.0000)
  25 Li     4.910109    8.144622   13.495127    ( 0.0000,  0.0000,  0.0000)
  26 Li     8.126994    8.100793   13.514297    ( 0.0000,  0.0000,  0.0000)
  27 Li     0.126254   -0.107871   15.472784    ( 0.0000,  0.0000,  0.0000)
  28 Li     3.370325   -0.043746   15.436637    ( 0.0000,  0.0000,  0.0000)
  29 Li     6.703646    0.211325   15.577218    ( 0.0000,  0.0000,  0.0000)
  30 Li    -0.305683    2.986206   15.679286    ( 0.0000,  0.0000,  0.0000)
  31 Li     3.077740    3.284069   15.465931    ( 0.0000,  0.0000,  0.0000)
  32 Li     6.319481    3.344128   15.556400    ( 0.0000,  0.0000,  0.0000)
  33 Li     0.050101    6.354340   15.459921    ( 0.0000,  0.0000,  0.0000)
  34 Li     3.244518    6.474799   15.448917    ( 0.0000,  0.0000,  0.0000)
  35 Li     6.418684    6.609504   15.449855    ( 0.0000,  0.0000,  0.0000)
  36 O      7.896739    2.546599   19.227678    ( 0.0000,  0.0000,  0.0000)
  37 C      8.023438    1.224644   19.776648    ( 0.0000,  0.0000,  0.0000)
  38 C      8.196854    1.222576   21.290994    ( 0.0000,  0.0000,  0.0000)
  39 H      7.161160    0.607475   19.489160    ( 0.0000,  0.0000,  0.0000)
  40 H      8.902276    0.801118   19.285839    ( 0.0000,  0.0000,  0.0000)
  41 H      8.352219    0.202815   21.653217    ( 0.0000,  0.0000,  0.0000)
  42 H      9.057257    1.826773   21.583416    ( 0.0000,  0.0000,  0.0000)
  43 H      7.309754    1.625558   21.788500    ( 0.0000,  0.0000,  0.0000)
  44 H      7.061302    2.919134   19.536298    ( 0.0000,  0.0000,  0.0000)
  45 N      7.601219    2.033172   15.579150    ( 0.0000,  0.0000,  0.0000)
  46 N      8.504052    1.159983   15.566444    ( 0.0000,  0.0000,  0.0000)

Unit cell:
           periodic     x           y           z      points  spacing
  1. axis:    yes    9.702222    0.000000    0.000000    60     0.1617
  2. axis:    yes    0.000000    9.702222    0.000000    60     0.1617
  3. axis:    no     0.000000    0.000000   24.851111   156     0.1593

  Lengths:   9.702222   9.702222  24.851111
  Angles:   90.000000  90.000000  90.000000

Effective grid spacing dv^(1/3) = 0.1609

     iter     time        total  log10-change:
                         energy  eigst   dens
iter:   1 11:36:21  -309.937244  -1.43
iter:   2 11:39:05  -309.923528  -1.95  -1.91
iter:   3 11:41:46  -309.916839c -2.88  -2.12
iter:   4 11:44:29  -309.914736c -3.04  -2.45
Writing to output.gpw (mode='')

iter:   5 11:47:09  -309.913956c -2.81  -2.70
iter:   6 11:49:47  -309.913557c -2.71  -2.85
iter:   7 11:52:18  -309.913663c -3.15  -3.00
iter:   8 11:54:53  -309.913780c -3.74  -3.20
iter:   9 11:57:25  -309.913784c -4.11  -3.24
