
  ___ ___ ___ _ _ _  
 |   |   |_  | | | | 
 | | | | | . | | | | 
 |__ |  _|___|_____|  22.8.0
 |___|_|             

User:   vazumah@d009
Date:   Fri Mar 10 05:37:25 2023
Arch:   x86_64
Pid:    47123
CWD:    /home/vazumah/Research_Projects/LiMEAS/LiNRR_proton_donors/N2_with_proton_donor/Li_BCC_100/adsorbates/CH3CH2OH_z/bridge/8.085_1.617/N2_y/barrier/8.42_2.97_15.78
Python: 3.10.6
gpaw:   /home/vazumah/anaconda3/envs/NAME/lib/python3.10/site-packages/gpaw
_gpaw:  /home/vazumah/anaconda3/envs/NAME/lib/python3.10/site-packages/
        _gpaw.cpython-310-x86_64-linux-gnu.so
ase:    /home/vazumah/anaconda3/envs/NAME/lib/python3.10/site-packages/ase (version 3.22.1)
numpy:  /home/vazumah/anaconda3/envs/NAME/lib/python3.10/site-packages/numpy (version 1.23.3)
scipy:  /home/vazumah/anaconda3/envs/NAME/lib/python3.10/site-packages/scipy (version 1.9.1)
libxc:  5.2.3
units:  Angstrom and eV
cores: 32
OpenMP: True
OMP_NUM_THREADS: 1

Reading from output.gpw
Reading input parameters:
  h: 0.16
  kpts: {size: [4, 4, 1]}
  occupations: {name: fermi-dirac,
                width: 0.05}
  poissonsolver: {dipolelayer: xy}
  xc: BEEF-vdW

Initialize ...

species:
  Li:
    name: Lithium
    id: 830b4218f175192f93f959cfc0aad614
    Z: 3.0
    valence: 1
    core: 2
    charge: 0.0
    file: /home/vazumah/anaconda3/envs/NAME/share/gpaw/Li.PBE.gz
    compensation charges: {type: gauss,
                           rc: 0.33,
                           lmax: 2}
    cutoffs: {filter: 1.91,
              core: 2.55}
    valence states:
      #              energy  rcut
      - 2s(1.00)    -2.874   1.058
      - 2p(0.00)    -1.090   1.058
      -  s          24.337   1.058
  
    # Using partial waves for Li as LCAO basis

  O:
    name: Oxygen
    id: 32ecd46bf208036f09c70b0ec9a88b78
    Z: 8.0
    valence: 6
    core: 2
    charge: 0.0
    file: /home/vazumah/anaconda3/envs/NAME/share/gpaw/O.PBE.gz
    compensation charges: {type: gauss,
                           rc: 0.21,
                           lmax: 2}
    cutoffs: {filter: 1.17,
              core: 0.83}
    valence states:
      #              energy  rcut
      - 2s(2.00)   -23.961   0.688
      - 2p(4.00)    -9.029   0.598
      -  s           3.251   0.688
      -  p          18.182   0.598
      -  d           0.000   0.619
  
    # Using partial waves for O as LCAO basis

  C:
    name: Carbon
    id: 4aa54d4b901d75f77cc0ea3eec22967b
    Z: 6.0
    valence: 4
    core: 2
    charge: 0.0
    file: /home/vazumah/anaconda3/envs/NAME/share/gpaw/C.PBE.gz
    compensation charges: {type: gauss,
                           rc: 0.20,
                           lmax: 2}
    cutoffs: {filter: 1.14,
              core: 1.14}
    valence states:
      #              energy  rcut
      - 2s(2.00)   -13.751   0.635
      - 2p(2.00)    -5.284   0.635
      -  s          13.461   0.635
      -  p          21.927   0.635
      -  d           0.000   0.635
  
    # Using partial waves for C as LCAO basis

  H:
    name: Hydrogen
    id: d65de229564ff8ea4db303e23b6d1ecf
    Z: 1.0
    valence: 1
    core: 0
    charge: 0.0
    file: /home/vazumah/anaconda3/envs/NAME/share/gpaw/H.PBE.gz
    compensation charges: {type: gauss,
                           rc: 0.15,
                           lmax: 2}
    cutoffs: {filter: 0.85,
              core: 0.53}
    valence states:
      #              energy  rcut
      - 1s(1.00)    -6.494   0.476
      -  s          20.717   0.476
      -  p           0.000   0.476
  
    # Using partial waves for H as LCAO basis

  N:
    name: Nitrogen
    id: f7500608b86eaa90eef8b1d9a670dc53
    Z: 7.0
    valence: 5
    core: 2
    charge: 0.0
    file: /home/vazumah/anaconda3/envs/NAME/share/gpaw/N.PBE.gz
    compensation charges: {type: gauss,
                           rc: 0.18,
                           lmax: 2}
    cutoffs: {filter: 1.11,
              core: 0.96}
    valence states:
      #              energy  rcut
      - 2s(2.00)   -18.583   0.603
      - 2p(3.00)    -7.089   0.529
      -  s           8.629   0.603
      -  p          20.123   0.529
      -  d           0.000   0.577
  
    # Using partial waves for N as LCAO basis

Reference energy: -14434.854043  # eV

Spin-paired calculation

Convergence criteria:
 Maximum [total energy] change in last 3 cyles: 0.0005 eV / electron
 Maximum integral of absolute [dens]ity change: 0.0001 electrons / valence electron
 Maximum integral of absolute [eigenst]ate change: 4e-08 eV^2 / valence electron
 Maximum number of scf [iter]ations: 333
 (Square brackets indicate name in SCF output, whereas a 'c' in
 the SCF output indicates the quantity has converged.)

Symmetries present (total): 1

  ( 1  0  0)
  ( 0  1  0)
  ( 0  0  1)

16 k-points: 4 x 4 x 1 Monkhorst-Pack grid
8 k-points in the irreducible part of the Brillouin zone
       k-points in crystal coordinates                weights
   0:     0.12500000   -0.37500000    0.00000000          2/16
   1:     0.12500000   -0.12500000    0.00000000          2/16
   2:     0.12500000    0.12500000    0.00000000          2/16
   3:     0.12500000    0.37500000    0.00000000          2/16
   4:     0.37500000   -0.37500000    0.00000000          2/16
   5:     0.37500000   -0.12500000    0.00000000          2/16
   6:     0.37500000    0.12500000    0.00000000          2/16
   7:     0.37500000    0.37500000    0.00000000          2/16

Wave functions: Uniform real-space grid
  Kinetic energy operator: 6*3+1=19 point O(h^6) finite-difference Laplacian
  ScaLapack parameters: grid=1x1, blocksize=None
  Wavefunction extrapolation:
    Improved wavefunction reuse through dual PAW basis 

Occupation numbers: Fermi-Dirac:
  width: 0.0500  # eV
 

Eigensolver
   Davidson(niter=2) 

Densities:
  Coarse grid: 60*60*156 grid
  Fine grid: 120*120*312 grid
  Total Charge: 0.000000 

Density mixing:
  Method: separate
  Backend: pulay
  Linear mixing parameter: 0.05
  old densities: 5
  Damping of long wavelength oscillations: 50 

Hamiltonian:
  XC and Coulomb potentials evaluated on a 120*120*312 grid
  Using the BEEF-vdW Exchange-Correlation functional
  Interpolation: tri-quintic (5. degree polynomial)
  Poisson solver: FastPoissonSolver using
    Stencil: 6*3+1=19 point O(h^6) finite-difference Laplacian
    FFT axes: [0, 1]
    FST axes: [2]

Dipole correction along z-axis 

XC parameters: BEEF-vdW with 2 nearest neighbor stencil

Memory estimate:
  Process memory now: 213.80 MiB
  Calculator: 307.36 MiB
    Density: 88.33 MiB
      Arrays: 27.47 MiB
      Localized functions: 50.43 MiB
      Mixer: 10.44 MiB
    Hamiltonian: 21.95 MiB
      Arrays: 17.96 MiB
      XC: 0.00 MiB
      Poisson: 0.00 MiB
      vbar: 3.99 MiB
    Wavefunctions: 197.08 MiB
      Arrays psit_nG: 91.85 MiB
      Eigensolver: 102.58 MiB
      Projections: 0.05 MiB
      Projectors: 2.60 MiB

Total number of cores used: 32
Parallelization over k-points: 8
Domain decomposition: 1 x 1 x 4

Number of atoms: 47
Number of atomic orbitals: 170
Number of bands in calculation: 44
Number of valence electrons: 66
Bands to converge: occupied

... initialized

Initializing position-dependent things.

Creating initial wave functions:
  44 bands from LCAO basis set

       .-----------------------.  
      /|                       |  
     / |                       |  
    /  |                       |  
   /   |                       |  
  /    |                       |  
 *     |                       |  
 |     |                       |  
 |     |                       |  
 |     |                       |  
 |     |           H  HH       |  
 |     |             C         |  
 |     |       Li              |  
 |     |         HHOCLH        |  
 |     |     Li              Li|  
 | Li  |  Li      LiLi    Li   |  
 |     |   Li                  |  
 |     |Li      Li     NLi     |  
 |     |          Li     Li    |  
 |   LLi     LLi     LLi       |  
 |     |  Li      Li      Li   |  
 | Li  |   Li      Li          |  
 |     |Li      Li      Li     |  
 Li    | Li      Li            |  
 |    Li      Li      Li       |  
 |     |                       |  
 |     |                       |  
 |     |                       |  
 |     |                       |  
 |     |                       |  
 |     |                       |  
 |     .-----------------------.  
 |    /                       /   
 |   /                       /    
 |  /                       /     
 | /                       /      
 |/                       /       
 *-----------------------*        

Positions:
   0 Li     1.617037    1.617037   10.000000    ( 0.0000,  0.0000,  0.0000)
   1 Li     4.851111    1.617037   10.000000    ( 0.0000,  0.0000,  0.0000)
   2 Li     8.085185    1.617037   10.000000    ( 0.0000,  0.0000,  0.0000)
   3 Li     1.617037    4.851111   10.000000    ( 0.0000,  0.0000,  0.0000)
   4 Li     4.851111    4.851111   10.000000    ( 0.0000,  0.0000,  0.0000)
   5 Li     8.085185    4.851111   10.000000    ( 0.0000,  0.0000,  0.0000)
   6 Li     1.617037    8.085185   10.000000    ( 0.0000,  0.0000,  0.0000)
   7 Li     4.851111    8.085185   10.000000    ( 0.0000,  0.0000,  0.0000)
   8 Li     8.085185    8.085185   10.000000    ( 0.0000,  0.0000,  0.0000)
   9 Li     0.000000    0.000000   11.617037    ( 0.0000,  0.0000,  0.0000)
  10 Li     3.234074    0.000000   11.617037    ( 0.0000,  0.0000,  0.0000)
  11 Li     6.468148    0.000000   11.617037    ( 0.0000,  0.0000,  0.0000)
  12 Li     0.000000    3.234074   11.617037    ( 0.0000,  0.0000,  0.0000)
  13 Li     3.234074    3.234074   11.617037    ( 0.0000,  0.0000,  0.0000)
  14 Li     6.468148    3.234074   11.617037    ( 0.0000,  0.0000,  0.0000)
  15 Li     0.000000    6.468148   11.617037    ( 0.0000,  0.0000,  0.0000)
  16 Li     3.234074    6.468148   11.617037    ( 0.0000,  0.0000,  0.0000)
  17 Li     6.468148    6.468148   11.617037    ( 0.0000,  0.0000,  0.0000)
  18 Li     1.451451    1.733525   13.688218    ( 0.0000,  0.0000,  0.0000)
  19 Li     4.848941    1.651315   13.489410    ( 0.0000,  0.0000,  0.0000)
  20 Li     8.090489    1.805541   13.415547    ( 0.0000,  0.0000,  0.0000)
  21 Li     1.690904    4.924160   13.520181    ( 0.0000,  0.0000,  0.0000)
  22 Li     4.966560    4.890596   13.592549    ( 0.0000,  0.0000,  0.0000)
  23 Li     8.040214    4.977349   13.552975    ( 0.0000,  0.0000,  0.0000)
  24 Li     1.671703    8.061479   13.494766    ( 0.0000,  0.0000,  0.0000)
  25 Li     4.984044    8.094239   13.529084    ( 0.0000,  0.0000,  0.0000)
  26 Li     8.070567    8.042231   13.448925    ( 0.0000,  0.0000,  0.0000)
  27 Li    -0.043468    0.040724   15.346765    ( 0.0000,  0.0000,  0.0000)
  28 Li     3.385404   -0.103997   15.393618    ( 0.0000,  0.0000,  0.0000)
  29 Li     6.880098    0.403285   15.416146    ( 0.0000,  0.0000,  0.0000)
  30 Li     0.077983    3.561515   15.577361    ( 0.0000,  0.0000,  0.0000)
  31 Li     3.367648    3.313495   15.429187    ( 0.0000,  0.0000,  0.0000)
  32 Li     7.039203    3.100731   15.972628    ( 0.0000,  0.0000,  0.0000)
  33 Li    -0.015871    6.668280   15.466202    ( 0.0000,  0.0000,  0.0000)
  34 Li     3.199369    6.469094   15.568337    ( 0.0000,  0.0000,  0.0000)
  35 Li     6.471697    6.692033   15.585447    ( 0.0000,  0.0000,  0.0000)
  36 O      6.645846    2.657149   17.843422    ( 0.0000,  0.0000,  0.0000)
  37 C      7.294723    1.650351   18.672782    ( 0.0000,  0.0000,  0.0000)
  38 C      7.566227    2.129410   20.089073    ( 0.0000,  0.0000,  0.0000)
  39 H      6.680305    0.742909   18.661526    ( 0.0000,  0.0000,  0.0000)
  40 H      8.227194    1.429951   18.151306    ( 0.0000,  0.0000,  0.0000)
  41 H      8.077483    1.335471   20.639226    ( 0.0000,  0.0000,  0.0000)
  42 H      8.209189    3.011515   20.085041    ( 0.0000,  0.0000,  0.0000)
  43 H      6.644417    2.363474   20.627824    ( 0.0000,  0.0000,  0.0000)
  44 H      5.757055    2.836467   18.185974    ( 0.0000,  0.0000,  0.0000)
  45 N      8.525925    1.852051   15.421650    ( 0.0000,  0.0000,  0.0000)
  46 N      9.620515    1.851743   14.708151    ( 0.0000,  0.0000,  0.0000)

Unit cell:
           periodic     x           y           z      points  spacing
  1. axis:    yes    9.702222    0.000000    0.000000    60     0.1617
  2. axis:    yes    0.000000    9.702222    0.000000    60     0.1617
  3. axis:    no     0.000000    0.000000   24.851111   156     0.1593

  Lengths:   9.702222   9.702222  24.851111
  Angles:   90.000000  90.000000  90.000000

Effective grid spacing dv^(1/3) = 0.1609

     iter     time        total  log10-change:
                         energy  eigst   dens
iter:   1 05:38:26  -309.127913  +1.06
iter:   2 05:39:01  -309.734836  +0.37  -1.72
iter:   3 05:39:37  -309.887442  -0.10  -1.97
iter:   4 05:40:15  -309.947926  -0.48  -2.21
Writing to output.gpw (mode='')

iter:   5 05:40:50  -309.977210  -0.78  -2.38
iter:   6 05:41:26  -309.993127  -1.04  -2.51
iter:   7 05:42:23  -310.002231c -1.28  -2.63
iter:   8 05:43:02  -310.008581c -1.42  -2.86
iter:   9 05:43:43  -310.012677c -1.66  -3.01
Writing to output.gpw (mode='')

iter:  10 05:44:22  -310.015807c -1.77  -3.05
iter:  11 05:44:57  -310.018207c -1.89  -2.95
iter:  12 05:45:33  -310.019993c -2.09  -2.95
iter:  13 05:46:09  -310.020633c -2.17  -2.85
iter:  14 05:46:46  -310.021491c -2.29  -3.04
Writing to output.gpw (mode='')

iter:  15 05:47:22  -310.022101c -2.45  -3.09
iter:  16 05:47:58  -310.022584c -2.58  -3.11
iter:  17 05:48:34  -310.022923c -2.71  -3.08
iter:  18 05:49:10  -310.023295c -2.99  -3.06
iter:  19 05:49:46  -310.023486c -3.10  -3.01
Writing to output.gpw (mode='')

iter:  20 05:50:26  -310.023672c -3.17  -2.98
iter:  21 05:51:13  -310.023800c -3.30  -2.95
iter:  22 05:52:14  -310.023767c -3.44  -2.93
iter:  23 05:53:14  -310.023803c -3.56  -2.95
iter:  24 05:54:46  -310.023879c -3.46  -2.96
Writing to output.gpw (mode='')

iter:  25 05:56:55  -310.023744c -3.82  -2.91
iter:  26 05:57:56  -310.023852c -3.77  -2.98
iter:  27 05:59:00  -310.023774c -4.13  -2.95
iter:  28 06:00:04  -310.023610c -3.87  -2.99
iter:  29 06:01:10  -310.023597c -4.35  -3.06
Writing to output.gpw (mode='')

iter:  30 06:02:27  -310.023566c -4.04  -3.11
iter:  31 06:03:45  -310.023575c -3.42  -3.24
iter:  32 06:04:51  -310.023538c -4.48  -3.34
iter:  33 06:06:01  -310.023543c -4.71  -3.36
iter:  34 06:07:08  -310.023588c -4.52  -3.41
Writing to output.gpw (mode='')

iter:  35 06:08:35  -310.023590c -4.91  -3.74
iter:  36 06:10:59  -310.023577c -4.86  -3.78
iter:  37 06:13:19  -310.023586c -4.82  -3.94
iter:  38 06:15:41  -310.023589c -5.01  -4.04c
iter:  39 06:20:27  -310.023589c -5.31  -4.04c
Writing to output.gpw (mode='')

iter:  40 06:25:18  -310.023580c -5.41  -4.06c
iter:  41 06:29:19  -310.023585c -5.55  -4.22c
iter:  42 06:32:44  -310.023584c -5.79  -4.26c
iter:  43 06:37:15  -310.023583c -5.88  -4.52c
iter:  44 06:39:32  -310.023583c -5.88  -4.60c
Writing to output.gpw (mode='')

iter:  45 06:41:35  -310.023584c -6.10  -4.64c
iter:  46 06:43:44  -310.023586c -6.11  -4.67c
iter:  47 06:46:57  -310.023585c -6.32  -4.75c
iter:  48 06:49:41  -310.023585c -6.27  -4.79c
iter:  49 06:52:52  -310.023585c -6.39  -4.88c
Writing to output.gpw (mode='')

iter:  50 06:55:32  -310.023585c -6.43  -5.08c
iter:  51 06:58:50  -310.023584c -6.51  -5.17c
iter:  52 07:01:52  -310.023585c -6.70  -5.17c
iter:  53 07:06:53  -310.023585c -6.73  -5.28c
iter:  54 07:12:35  -310.023585c -6.80  -5.37c
Writing to output.gpw (mode='')

iter:  55 07:17:12  -310.023585c -6.85  -5.41c
iter:  56 07:23:38  -310.023585c -6.90  -5.48c
iter:  57 07:29:25  -310.023585c -7.02  -5.54c
iter:  58 07:33:34  -310.023585c -7.15  -5.58c
iter:  59 07:38:18  -310.023585c -7.08  -5.74c
Writing to output.gpw (mode='')

iter:  60 07:42:13  -310.023585c -6.99  -5.79c
iter:  61 07:46:26  -310.023585c -6.96  -5.89c
iter:  62 07:52:43  -310.023586c -7.19  -5.98c
iter:  63 07:57:22  -310.023586c -7.46c -6.13c

Converged after 63 iterations.

Dipole moment: (2.444896, -5.364295, 0.387356) |e|*Ang

Energy contributions relative to reference atoms: (reference = -14434.854043)

Kinetic:       +146.143352
Potential:     -138.498871
External:        +0.000000
XC:            -318.364026
Entropy (-ST):   -0.162500
Local:           +0.777210
--------------------------
Free energy:   -310.104835
Extrapolated:  -310.023586

Dipole-layer corrected work functions: 3.403819, 2.659189 eV

Showing only first 2 kpts
 Kpt  Band  Eigenvalues  Occupancy
  0    31     -3.20562    1.94036
  0    32     -3.08761    1.50874
  0    33     -2.97877    0.51662
  0    34     -2.87098    0.07755

  1    31     -3.23772    1.96817
  1    32     -3.10933    1.65169
  1    33     -2.93208    0.24083
  1    34     -2.85650    0.05862


Fermi level: -3.03150

Gap: 0.036 eV
Transition (v -> c):
  (s=0, k=7, n=32, [0.38, 0.38, 0.00]) -> (s=0, k=7, n=33, [0.38, 0.38, 0.00])
Writing to output.gpw (mode='')


Forces in eV/Ang:
  0 Li   -0.00455    0.00646   -0.29377
  1 Li    0.01845   -0.00595   -0.32429
  2 Li    0.00622    0.00266   -0.25686
  3 Li   -0.00205    0.00152   -0.30335
  4 Li   -0.02076   -0.01162   -0.27788
  5 Li   -0.00612   -0.01831   -0.26205
  6 Li   -0.00886   -0.02321   -0.28637
  7 Li   -0.01037   -0.00094   -0.27046
  8 Li   -0.01526    0.00800   -0.27728
  9 Li    0.00485    0.05191    0.33952
 10 Li   -0.03566    0.07117    0.37611
 11 Li    0.02471    0.06035    0.29237
 12 Li    0.04622    0.07282    0.24944
 13 Li   -0.02919   -0.01100    0.36006
 14 Li   -0.04996    0.04252    0.20130
 15 Li    0.03892   -0.02189    0.28724
 16 Li    0.11745    0.01819    0.29550
 17 Li   -0.01841   -0.02617    0.16706
 18 Li   -0.01087   -0.01078    0.00568
 19 Li    0.05069    0.01169   -0.01196
 20 Li   -0.01648   -0.05419    0.00692
 21 Li   -0.02526   -0.01127   -0.00778
 22 Li    0.01870    0.00988    0.01151
 23 Li   -0.00583    0.00961   -0.02236
 24 Li    0.00262    0.04243   -0.01483
 25 Li   -0.04920   -0.00261    0.00620
 26 Li   -0.02110   -0.00906   -0.01503
 27 Li    0.00361   -0.05317    0.06701
 28 Li   -0.00591    0.03410    0.02571
 29 Li    0.09697    0.01480   -0.01177
 30 Li   -0.01010   -0.03469    0.00879
 31 Li   -0.00024   -0.02049    0.01744
 32 Li   -0.00302    0.01199    0.01271
 33 Li    0.01810   -0.04159    0.02302
 34 Li   -0.01719   -0.01728   -0.03581
 35 Li    0.02844   -0.00811    0.01457
 36 O     0.02793    0.00973    0.04490
 37 C    -0.03445    0.01791   -0.04677
 38 C    -0.01008   -0.01672   -0.04263
 39 H     0.01554   -0.00435    0.05771
 40 H    -0.02873    0.01645    0.00523
 41 H     0.01433   -0.00248    0.01601
 42 H    -0.04122    0.01065   -0.00477
 43 H    -0.01019    0.02058   -0.04580
 44 H     0.03355   -0.04408   -0.01811
 45 N    -0.08010   -0.00910   -0.06196
 46 N     0.04613   -0.07384   -0.03959

System changes: positions 

Initializing position-dependent things.

Density initialized from wave functions
       .-----------------------.  
      /|                       |  
     / |                       |  
    /  |                       |  
   /   |                       |  
  /    |                       |  
 *     |                       |  
 |     |                       |  
 |     |                       |  
 |     |                       |  
 |     |           H  HH       |  
 |     |             C         |  
 |     |       Li              |  
 |     |         HHOCLH        |  
 |     |     Li              Li|  
 | Li  |  Li      LiLi    Li   |  
 |     |   Li                  |  
 |     |Li      Li     NLi     |  
 |     |          Li     Li    |  
 |   LLi     LLi     LLi       |  
 |     |  Li      Li      Li   |  
 | Li  |   Li      Li          |  
 |     |Li      Li      Li     |  
 Li    | Li      Li            |  
 |    Li      Li      Li       |  
 |     |                       |  
 |     |                       |  
 |     |                       |  
 |     |                       |  
 |     |                       |  
 |     |                       |  
 |     .-----------------------.  
 |    /                       /   
 |   /                       /    
 |  /                       /     
 | /                       /      
 |/                       /       
 *-----------------------*        

Positions:
   0 Li     1.617037    1.617037   10.000000    ( 0.0000,  0.0000,  0.0000)
   1 Li     4.851111    1.617037   10.000000    ( 0.0000,  0.0000,  0.0000)
   2 Li     8.085185    1.617037   10.000000    ( 0.0000,  0.0000,  0.0000)
   3 Li     1.617037    4.851111   10.000000    ( 0.0000,  0.0000,  0.0000)
   4 Li     4.851111    4.851111   10.000000    ( 0.0000,  0.0000,  0.0000)
   5 Li     8.085185    4.851111   10.000000    ( 0.0000,  0.0000,  0.0000)
   6 Li     1.617037    8.085185   10.000000    ( 0.0000,  0.0000,  0.0000)
   7 Li     4.851111    8.085185   10.000000    ( 0.0000,  0.0000,  0.0000)
   8 Li     8.085185    8.085185   10.000000    ( 0.0000,  0.0000,  0.0000)
   9 Li     0.000000    0.000000   11.617037    ( 0.0000,  0.0000,  0.0000)
  10 Li     3.234074    0.000000   11.617037    ( 0.0000,  0.0000,  0.0000)
  11 Li     6.468148    0.000000   11.617037    ( 0.0000,  0.0000,  0.0000)
  12 Li     0.000000    3.234074   11.617037    ( 0.0000,  0.0000,  0.0000)
  13 Li     3.234074    3.234074   11.617037    ( 0.0000,  0.0000,  0.0000)
  14 Li     6.468148    3.234074   11.617037    ( 0.0000,  0.0000,  0.0000)
  15 Li     0.000000    6.468148   11.617037    ( 0.0000,  0.0000,  0.0000)
  16 Li     3.234074    6.468148   11.617037    ( 0.0000,  0.0000,  0.0000)
  17 Li     6.468148    6.468148   11.617037    ( 0.0000,  0.0000,  0.0000)
  18 Li     1.449838    1.731330   13.690051    ( 0.0000,  0.0000,  0.0000)
  19 Li     4.852930    1.652597   13.489190    ( 0.0000,  0.0000,  0.0000)
  20 Li     8.091367    1.802621   13.414048    ( 0.0000,  0.0000,  0.0000)
  21 Li     1.688255    4.923019   13.519293    ( 0.0000,  0.0000,  0.0000)
  22 Li     4.967391    4.891363   13.593376    ( 0.0000,  0.0000,  0.0000)
  23 Li     8.038812    4.976716   13.552254    ( 0.0000,  0.0000,  0.0000)
  24 Li     1.674212    8.061496   13.492063    ( 0.0000,  0.0000,  0.0000)
  25 Li     4.983174    8.095466   13.529018    ( 0.0000,  0.0000,  0.0000)
  26 Li     8.068790    8.043468   13.447356    ( 0.0000,  0.0000,  0.0000)
  27 Li    -0.039733    0.036904   15.350274    ( 0.0000,  0.0000,  0.0000)
  28 Li     3.388555   -0.102803   15.393807    ( 0.0000,  0.0000,  0.0000)
  29 Li     6.891460    0.410797   15.419718    ( 0.0000,  0.0000,  0.0000)
  30 Li     0.076696    3.554362   15.574740    ( 0.0000,  0.0000,  0.0000)
  31 Li     3.365565    3.312462   15.429667    ( 0.0000,  0.0000,  0.0000)
  32 Li     7.038472    3.103313   15.972050    ( 0.0000,  0.0000,  0.0000)
  33 Li    -0.016016    6.664293   15.465944    ( 0.0000,  0.0000,  0.0000)
  34 Li     3.197582    6.467862   15.566630    ( 0.0000,  0.0000,  0.0000)
  35 Li     6.473479    6.694180   15.585126    ( 0.0000,  0.0000,  0.0000)
  36 O      6.645043    2.655408   17.840083    ( 0.0000,  0.0000,  0.0000)
  37 C      7.294027    1.650821   18.670118    ( 0.0000,  0.0000,  0.0000)
  38 C      7.562896    2.131927   20.086649    ( 0.0000,  0.0000,  0.0000)
  39 H      6.679955    0.743011   18.661648    ( 0.0000,  0.0000,  0.0000)
  40 H      8.224401    1.430728   18.145571    ( 0.0000,  0.0000,  0.0000)
  41 H      8.075908    1.340155   20.637595    ( 0.0000,  0.0000,  0.0000)
  42 H      8.208047    3.012210   20.085920    ( 0.0000,  0.0000,  0.0000)
  43 H      6.641384    2.365587   20.627478    ( 0.0000,  0.0000,  0.0000)
  44 H      5.757810    2.829442   18.186800    ( 0.0000,  0.0000,  0.0000)
  45 N      8.521576    1.846237   15.421882    ( 0.0000,  0.0000,  0.0000)
  46 N      9.620676    1.845614   14.709442    ( 0.0000,  0.0000,  0.0000)

Unit cell:
           periodic     x           y           z      points  spacing
  1. axis:    yes    9.702222    0.000000    0.000000    60     0.1617
  2. axis:    yes    0.000000    9.702222    0.000000    60     0.1617
  3. axis:    no     0.000000    0.000000   24.851111   156     0.1593

  Lengths:   9.702222   9.702222  24.851111
  Angles:   90.000000  90.000000  90.000000

Effective grid spacing dv^(1/3) = 0.1609

     iter     time        total  log10-change:
                         energy  eigst   dens
iter:   1 08:03:58  -310.029205  -1.89
iter:   2 08:09:20  -310.028465  -2.53  -2.36
iter:   3 08:13:35  -310.027778c -3.14  -2.61
iter:   4 08:19:38  -310.027253c -3.20  -2.79
Writing to output.gpw (mode='')

iter:   5 08:25:59  -310.027209c -3.42  -2.99
iter:   6 08:31:53  -310.027152c -3.73  -3.09
iter:   7 08:37:15  -310.027146c -3.50  -3.26
iter:   8 08:42:01  -310.027150c -4.25  -3.33
iter:   9 08:47:50  -310.027149c -4.43  -3.54
Writing to output.gpw (mode='')

iter:  10 08:53:46  -310.027123c -4.80  -3.59
iter:  11 08:57:38  -310.027110c -4.90  -3.72
iter:  12 09:02:36  -310.027115c -5.29  -3.83
iter:  13 09:07:14  -310.027108c -5.36  -3.89
iter:  14 09:10:29  -310.027118c -5.56  -4.04c
Writing to output.gpw (mode='')

iter:  15 09:14:31  -310.027117c -5.79  -4.18c
iter:  16 09:19:21  -310.027119c -5.95  -4.37c
iter:  17 09:23:08  -310.027121c -6.08  -4.40c
iter:  18 09:27:42  -310.027119c -6.33  -4.41c
iter:  19 09:31:10  -310.027120c -6.36  -4.64c
Writing to output.gpw (mode='')

iter:  20 09:37:08  -310.027121c -6.57  -4.71c
iter:  21 09:43:16  -310.027120c -6.71  -4.82c
iter:  22 09:47:43  -310.027120c -6.97  -4.87c
iter:  23 09:51:00  -310.027119c -7.03  -5.01c
iter:  24 09:54:44  -310.027120c -7.12  -5.08c
Writing to output.gpw (mode='')

iter:  25 09:58:19  -310.027120c -7.36  -5.13c
iter:  26 10:02:39  -310.027120c -7.36  -5.16c
iter:  27 10:07:35  -310.027120c -7.57c -5.20c

Converged after 27 iterations.

Dipole moment: (2.383171, -5.305004, 0.388251) |e|*Ang

Energy contributions relative to reference atoms: (reference = -14434.854043)

Kinetic:       +146.184104
Potential:     -138.511472
External:        +0.000000
XC:            -318.395818
Entropy (-ST):   -0.162484
Local:           +0.777309
--------------------------
Free energy:   -310.108362
Extrapolated:  -310.027120

Dipole-layer corrected work functions: 3.404011, 2.657660 eV

Showing only first 2 kpts
 Kpt  Band  Eigenvalues  Occupancy
  0    31     -3.20485    1.94024
  0    32     -3.08749    1.51279
  0    33     -2.97902    0.52373
  0    34     -2.87019    0.07737

  1    31     -3.23777    1.96861
  1    32     -3.10857    1.65118
  1    33     -2.93114    0.23970
  1    34     -2.85625    0.05910


Fermi level: -3.03084

Gap: 0.035 eV
Transition (v -> c):
  (s=0, k=7, n=32, [0.38, 0.38, 0.00]) -> (s=0, k=7, n=33, [0.38, 0.38, 0.00])
Writing to output.gpw (mode='')


Forces in eV/Ang:
  0 Li   -0.00477    0.00637   -0.29392
  1 Li    0.01855   -0.00571   -0.32423
  2 Li    0.00589    0.00248   -0.25660
  3 Li   -0.00204    0.00185   -0.30290
  4 Li   -0.02053   -0.01162   -0.27797
  5 Li   -0.00621   -0.01828   -0.26199
  6 Li   -0.00864   -0.02322   -0.28641
  7 Li   -0.01052   -0.00103   -0.27014
  8 Li   -0.01516    0.00798   -0.27695
  9 Li    0.00580    0.05163    0.33838
 10 Li   -0.03432    0.07300    0.37557
 11 Li    0.02356    0.06023    0.28924
 12 Li    0.04597    0.07163    0.24982
 13 Li   -0.02874   -0.01183    0.36164
 14 Li   -0.04895    0.04317    0.20013
 15 Li    0.03800   -0.02108    0.28717
 16 Li    0.11773    0.01658    0.29513
 17 Li   -0.01935   -0.02563    0.16649
 18 Li   -0.00200   -0.01232    0.00045
 19 Li    0.04767    0.00999   -0.01041
 20 Li   -0.00768   -0.04991    0.01581
 21 Li   -0.02313   -0.01146   -0.00743
 22 Li    0.01629    0.00971    0.01132
 23 Li   -0.00442    0.00999   -0.02168
 24 Li   -0.00052    0.04146   -0.01003
 25 Li   -0.04650   -0.00334    0.00609
 26 Li   -0.01786   -0.01027   -0.01212
 27 Li    0.00110   -0.05154    0.06749
 28 Li   -0.00614    0.03296    0.02576
 29 Li    0.08303    0.00635   -0.01011
 30 Li   -0.01269   -0.02671    0.01412
 31 Li   -0.00017   -0.01929    0.01538
 32 Li    0.00032    0.01211    0.00554
 33 Li    0.01825   -0.04133    0.02034
 34 Li   -0.01599   -0.01559   -0.03532
 35 Li    0.02648   -0.00730    0.01446
 36 O     0.01916    0.00548    0.03439
 37 C    -0.02861    0.01029   -0.02932
 38 C     0.01270   -0.02159   -0.02990
 39 H     0.01565   -0.00426    0.05000
 40 H    -0.00582    0.00561    0.03062
 41 H     0.00911   -0.02457    0.02114
 42 H    -0.05210    0.03019   -0.02172
 43 H     0.00317    0.01618   -0.07223
 44 H    -0.01383   -0.00593   -0.02907
 45 N     0.00775    0.01573   -0.10796
 46 N    -0.03822   -0.11016   -0.00092

System changes: positions 

Initializing position-dependent things.

Density initialized from wave functions
       .-----------------------.  
      /|                       |  
     / |                       |  
    /  |                       |  
   /   |                       |  
  /    |                       |  
 *     |                       |  
 |     |                       |  
 |     |                       |  
 |     |                       |  
 |     |           H  HH       |  
 |     |             C         |  
 |     |       Li              |  
 |     |         HHOCLH        |  
 |     |     Li              Li|  
 | Li  |  Li      LiLi    Li   |  
 |     |   Li                  |  
 |     |Li      LiLi   NLi     |  
 |     |                 Li    |  
 |   LLi     LLi     LLi       |  
 |     |  Li      Li      Li   |  
 | Li  |   Li      Li          |  
 |     |Li      Li      Li     |  
 Li    | Li      Li            |  
 |    Li      Li      Li       |  
 |     |                       |  
 |     |                       |  
 |     |                       |  
 |     |                       |  
 |     |                       |  
 |     |                       |  
 |     .-----------------------.  
 |    /                       /   
 |   /                       /    
 |  /                       /     
 | /                       /      
 |/                       /       
 *-----------------------*        

Positions:
   0 Li     1.617037    1.617037   10.000000    ( 0.0000,  0.0000,  0.0000)
   1 Li     4.851111    1.617037   10.000000    ( 0.0000,  0.0000,  0.0000)
   2 Li     8.085185    1.617037   10.000000    ( 0.0000,  0.0000,  0.0000)
   3 Li     1.617037    4.851111   10.000000    ( 0.0000,  0.0000,  0.0000)
   4 Li     4.851111    4.851111   10.000000    ( 0.0000,  0.0000,  0.0000)
   5 Li     8.085185    4.851111   10.000000    ( 0.0000,  0.0000,  0.0000)
   6 Li     1.617037    8.085185   10.000000    ( 0.0000,  0.0000,  0.0000)
   7 Li     4.851111    8.085185   10.000000    ( 0.0000,  0.0000,  0.0000)
   8 Li     8.085185    8.085185   10.000000    ( 0.0000,  0.0000,  0.0000)
   9 Li     0.000000    0.000000   11.617037    ( 0.0000,  0.0000,  0.0000)
  10 Li     3.234074    0.000000   11.617037    ( 0.0000,  0.0000,  0.0000)
  11 Li     6.468148    0.000000   11.617037    ( 0.0000,  0.0000,  0.0000)
  12 Li     0.000000    3.234074   11.617037    ( 0.0000,  0.0000,  0.0000)
  13 Li     3.234074    3.234074   11.617037    ( 0.0000,  0.0000,  0.0000)
  14 Li     6.468148    3.234074   11.617037    ( 0.0000,  0.0000,  0.0000)
  15 Li     0.000000    6.468148   11.617037    ( 0.0000,  0.0000,  0.0000)
  16 Li     3.234074    6.468148   11.617037    ( 0.0000,  0.0000,  0.0000)
  17 Li     6.468148    6.468148   11.617037    ( 0.0000,  0.0000,  0.0000)
  18 Li     1.445278    1.725027   13.694838    ( 0.0000,  0.0000,  0.0000)
  19 Li     4.863347    1.655053   13.488044    ( 0.0000,  0.0000,  0.0000)
  20 Li     8.095292    1.800268   13.411668    ( 0.0000,  0.0000,  0.0000)
  21 Li     1.682853    4.921890   13.515573    ( 0.0000,  0.0000,  0.0000)
  22 Li     4.970093    4.894320   13.595537    ( 0.0000,  0.0000,  0.0000)
  23 Li     8.033327    4.985973   13.544324    ( 0.0000,  0.0000,  0.0000)
  24 Li     1.680619    8.061703   13.485945    ( 0.0000,  0.0000,  0.0000)
  25 Li     4.982876    8.098282   13.528886    ( 0.0000,  0.0000,  0.0000)
  26 Li     8.064749    8.050213   13.442996    ( 0.0000,  0.0000,  0.0000)
  27 Li    -0.020629    0.022238   15.356616    ( 0.0000,  0.0000,  0.0000)
  28 Li     3.399667   -0.100688   15.392114    ( 0.0000,  0.0000,  0.0000)
  29 Li     6.924813    0.430446   15.429792    ( 0.0000,  0.0000,  0.0000)
  30 Li     0.068193    3.532220   15.563534    ( 0.0000,  0.0000,  0.0000)
  31 Li     3.361323    3.311138   15.429548    ( 0.0000,  0.0000,  0.0000)
  32 Li     7.038155    3.116928   15.968985    ( 0.0000,  0.0000,  0.0000)
  33 Li    -0.015617    6.656395   15.463995    ( 0.0000,  0.0000,  0.0000)
  34 Li     3.193579    6.465858   15.562931    ( 0.0000,  0.0000,  0.0000)
  35 Li     6.477780    6.704480   15.583614    ( 0.0000,  0.0000,  0.0000)
  36 O      6.640488    2.644716   17.828308    ( 0.0000,  0.0000,  0.0000)
  37 C      7.291981    1.649669   18.663345    ( 0.0000,  0.0000,  0.0000)
  38 C      7.554058    2.139750   20.078859    ( 0.0000,  0.0000,  0.0000)
  39 H      6.681229    0.740080   18.663277    ( 0.0000,  0.0000,  0.0000)
  40 H      8.219069    1.430144   18.134601    ( 0.0000,  0.0000,  0.0000)
  41 H      8.067777    1.353518   20.635639    ( 0.0000,  0.0000,  0.0000)
  42 H      8.202252    3.017555   20.082978    ( 0.0000,  0.0000,  0.0000)
  43 H      6.632421    2.373567   20.621825    ( 0.0000,  0.0000,  0.0000)
  44 H      5.757570    2.811547   18.184659    ( 0.0000,  0.0000,  0.0000)
  45 N      8.509018    1.829822   15.421324    ( 0.0000,  0.0000,  0.0000)
  46 N      9.617371    1.817847   14.715605    ( 0.0000,  0.0000,  0.0000)

Unit cell:
           periodic     x           y           z      points  spacing
  1. axis:    yes    9.702222    0.000000    0.000000    60     0.1617
  2. axis:    yes    0.000000    9.702222    0.000000    60     0.1617
  3. axis:    no     0.000000    0.000000   24.851111   156     0.1593

  Lengths:   9.702222   9.702222  24.851111
  Angles:   90.000000  90.000000  90.000000

Effective grid spacing dv^(1/3) = 0.1609

     iter     time        total  log10-change:
                         energy  eigst   dens
iter:   1 10:12:22  -310.049354  -0.89
iter:   2 10:17:37  -310.039255  -1.58  -1.89
iter:   3 10:21:11  -310.035723c -2.14  -2.15
iter:   4 10:25:10  -310.033399c -2.45  -2.32
Writing to output.gpw (mode='')

iter:   5 10:30:13  -310.031837c -2.32  -2.48
iter:   6 10:34:50  -310.031664c -2.45  -2.67
iter:   7 10:37:49  -310.031470c -2.88  -2.76
iter:   8 10:40:52  -310.031504c -3.24  -2.95
iter:   9 10:44:32  -310.031568c -3.52  -3.01
Writing to output.gpw (mode='')

iter:  10 10:50:33  -310.031524c -3.70  -3.19
iter:  11 10:55:42  -310.031543c -4.10  -3.29
iter:  12 11:01:33  -310.031529c -4.24  -3.32
iter:  13 11:06:57  -310.031569c -4.33  -3.51
iter:  14 11:10:31  -310.031554c -4.66  -3.54
Writing to output.gpw (mode='')

iter:  15 11:17:20  -310.031550c -4.63  -3.62
iter:  16 11:23:04  -310.031541c -4.85  -3.68
iter:  17 11:27:46  -310.031544c -4.90  -3.86
iter:  18 11:33:17  -310.031544c -5.28  -3.98
iter:  19 11:40:53  -310.031547c -5.51  -4.06c
Writing to output.gpw (mode='')

iter:  20 11:46:40  -310.031547c -5.69  -4.29c
iter:  21 11:51:20  -310.031548c -5.73  -4.40c
iter:  22 11:57:14  -310.031547c -6.01  -4.47c
iter:  23 12:03:53  -310.031548c -6.17  -4.49c
iter:  24 12:09:26  -310.031547c -6.26  -4.53c
Writing to output.gpw (mode='')

iter:  25 12:12:51  -310.031548c -6.39  -4.72c
iter:  26 12:17:53  -310.031548c -6.46  -4.82c
iter:  27 12:22:01  -310.031548c -6.65  -4.89c
iter:  28 12:25:27  -310.031548c -6.75  -4.94c
iter:  29 12:30:04  -310.031548c -6.80  -5.09c
Writing to output.gpw (mode='')

iter:  30 12:35:18  -310.031548c -6.90  -5.14c
iter:  31 12:39:45  -310.031548c -7.00  -5.25c
iter:  32 12:44:11  -310.031548c -7.19  -5.31c
iter:  33 12:48:48  -310.031548c -7.31  -5.40c
iter:  34 12:54:00  -310.031548c -7.35  -5.54c
Writing to output.gpw (mode='')

iter:  35 13:00:06  -310.031548c -7.47c -5.59c

Converged after 35 iterations.

Dipole moment: (2.516718, -5.069236, 0.390964) |e|*Ang

Energy contributions relative to reference atoms: (reference = -14434.854043)

Kinetic:       +146.586401
Potential:     -138.772967
External:        +0.000000
XC:            -318.541345
Entropy (-ST):   -0.162314
Local:           +0.777521
--------------------------
Free energy:   -310.112705
Extrapolated:  -310.031548

Dipole-layer corrected work functions: 3.404375, 2.652808 eV

Showing only first 2 kpts
 Kpt  Band  Eigenvalues  Occupancy
  0    31     -3.20251    1.94013
  0    32     -3.08767    1.53050
  0    33     -2.97805    0.53363
  0    34     -2.86899    0.07893

  1    31     -3.23737    1.96973
  1    32     -3.10405    1.63787
  1    33     -2.92883    0.23939
  1    34     -2.85406    0.05916


Fermi level: -3.02859

Gap: 0.033 eV
Transition (v -> c):
  (s=0, k=7, n=32, [0.38, 0.38, 0.00]) -> (s=0, k=7, n=33, [0.38, 0.38, 0.00])

Forces in eV/Ang:
  0 Li   -0.00544    0.00571   -0.29402
  1 Li    0.01867   -0.00524   -0.32418
  2 Li    0.00530    0.00171   -0.25571
  3 Li   -0.00226    0.00289   -0.30192
  4 Li   -0.01981   -0.01178   -0.27760
  5 Li   -0.00691   -0.01836   -0.26197
  6 Li   -0.00801   -0.02332   -0.28688
  7 Li   -0.01120   -0.00139   -0.26954
  8 Li   -0.01463    0.00699   -0.27577
  9 Li    0.00825    0.05189    0.33568
 10 Li   -0.03142    0.07722    0.37528
 11 Li    0.02067    0.06167    0.28098
 12 Li    0.04641    0.07150    0.24911
 13 Li   -0.02767   -0.01419    0.36637
 14 Li   -0.04568    0.04543    0.19882
 15 Li    0.03738   -0.01610    0.28502
 16 Li    0.11988    0.01351    0.29348
 17 Li   -0.02386   -0.01975    0.16075
 18 Li    0.00499   -0.01959   -0.00167
 19 Li    0.04137    0.00622   -0.00695
 20 Li   -0.00078   -0.04078    0.01783
 21 Li   -0.02032   -0.01520   -0.00388
 22 Li    0.01049    0.00966    0.01108
 23 Li    0.00169    0.00240   -0.01173
 24 Li   -0.00473    0.03708   -0.00229
 25 Li   -0.04077   -0.00567    0.00311
 26 Li   -0.00944   -0.01291   -0.00637
 27 Li   -0.01566   -0.08545    0.09044
 28 Li   -0.00733    0.03015    0.02760
 29 Li    0.02316   -0.02670   -0.00227
 30 Li   -0.00962   -0.01016    0.01360
 31 Li   -0.00372   -0.01682    0.00988
 32 Li    0.00566   -0.00255   -0.00757
 33 Li    0.01672   -0.04782    0.01473
 34 Li   -0.01255   -0.01075   -0.03454
 35 Li    0.02239   -0.00756    0.01515
 36 O    -0.03105    0.02408    0.01857
 37 C    -0.00400   -0.00291    0.00822
 38 C     0.05823   -0.03127    0.01354
 39 H     0.00679   -0.02048    0.03380
 40 H     0.04252   -0.01956    0.07326
 41 H     0.01363   -0.06954    0.02875
 42 H    -0.07071    0.05278   -0.05349
 43 H     0.02230    0.00847   -0.12140
 44 H    -0.10106    0.06073   -0.05344
 45 N     0.10774   -0.02960   -0.13088
 46 N    -0.10238   -0.00155    0.03312

System changes: positions 

Initializing position-dependent things.

Density initialized from wave functions
       .-----------------------.  
      /|                       |  
     / |                       |  
    /  |                       |  
   /   |                       |  
  /    |                       |  
 *     |                       |  
 |     |                       |  
 |     |                       |  
 |     |                       |  
 |     |           H  HH       |  
 |     |             C         |  
 |     |       Li              |  
 |     |         HHOCLH        |  
 |     |     Li              Li|  
 | Li  |  Li      LiLi    Li   |  
 |     |   Li                  |  
 |     |Li      LiLi   NLi     |  
 |     |                 Li    |  
 |   LLi     LLi     LLi       |  
 |     |  Li      Li      Li   |  
 | Li  |   Li      Li          |  
 |     |Li      Li      Li     |  
 Li    | Li      Li            |  
 |    Li      Li      Li       |  
 |     |                       |  
 |     |                       |  
 |     |                       |  
 |     |                       |  
 |     |                       |  
 |     |                       |  
 |     .-----------------------.  
 |    /                       /   
 |   /                       /    
 |  /                       /     
 | /                       /      
 |/                       /       
 *-----------------------*        

Positions:
   0 Li     1.617037    1.617037   10.000000    ( 0.0000,  0.0000,  0.0000)
   1 Li     4.851111    1.617037   10.000000    ( 0.0000,  0.0000,  0.0000)
   2 Li     8.085185    1.617037   10.000000    ( 0.0000,  0.0000,  0.0000)
   3 Li     1.617037    4.851111   10.000000    ( 0.0000,  0.0000,  0.0000)
   4 Li     4.851111    4.851111   10.000000    ( 0.0000,  0.0000,  0.0000)
   5 Li     8.085185    4.851111   10.000000    ( 0.0000,  0.0000,  0.0000)
   6 Li     1.617037    8.085185   10.000000    ( 0.0000,  0.0000,  0.0000)
   7 Li     4.851111    8.085185   10.000000    ( 0.0000,  0.0000,  0.0000)
   8 Li     8.085185    8.085185   10.000000    ( 0.0000,  0.0000,  0.0000)
   9 Li     0.000000    0.000000   11.617037    ( 0.0000,  0.0000,  0.0000)
  10 Li     3.234074    0.000000   11.617037    ( 0.0000,  0.0000,  0.0000)
  11 Li     6.468148    0.000000   11.617037    ( 0.0000,  0.0000,  0.0000)
  12 Li     0.000000    3.234074   11.617037    ( 0.0000,  0.0000,  0.0000)
  13 Li     3.234074    3.234074   11.617037    ( 0.0000,  0.0000,  0.0000)
  14 Li     6.468148    3.234074   11.617037    ( 0.0000,  0.0000,  0.0000)
  15 Li     0.000000    6.468148   11.617037    ( 0.0000,  0.0000,  0.0000)
  16 Li     3.234074    6.468148   11.617037    ( 0.0000,  0.0000,  0.0000)
  17 Li     6.468148    6.468148   11.617037    ( 0.0000,  0.0000,  0.0000)
  18 Li     1.445415    1.723737   13.694613    ( 0.0000,  0.0000,  0.0000)
  19 Li     4.865242    1.656105   13.487621    ( 0.0000,  0.0000,  0.0000)
  20 Li     8.097934    1.798751   13.409822    ( 0.0000,  0.0000,  0.0000)
  21 Li     1.682304    4.923310   13.513365    ( 0.0000,  0.0000,  0.0000)
  22 Li     4.971729    4.894284   13.597102    ( 0.0000,  0.0000,  0.0000)
  23 Li     8.032510    4.988032   13.541454    ( 0.0000,  0.0000,  0.0000)
  24 Li     1.679164    8.064696   13.486169    ( 0.0000,  0.0000,  0.0000)
  25 Li     4.980050    8.098116   13.530412    ( 0.0000,  0.0000,  0.0000)
  26 Li     8.062682    8.049610   13.443073    ( 0.0000,  0.0000,  0.0000)
  27 Li    -0.018131    0.019347   15.358001    ( 0.0000,  0.0000,  0.0000)
  28 Li     3.399844   -0.097615   15.393238    ( 0.0000,  0.0000,  0.0000)
  29 Li     6.926538    0.431043   15.428167    ( 0.0000,  0.0000,  0.0000)
  30 Li     0.066625    3.528236   15.561109    ( 0.0000,  0.0000,  0.0000)
  31 Li     3.363390    3.309816   15.430950    ( 0.0000,  0.0000,  0.0000)
  32 Li     7.037614    3.118209   15.966692    ( 0.0000,  0.0000,  0.0000)
  33 Li    -0.014207    6.660192   15.466004    ( 0.0000,  0.0000,  0.0000)
  34 Li     3.192246    6.463987   15.560754    ( 0.0000,  0.0000,  0.0000)
  35 Li     6.481151    6.706109   15.584507    ( 0.0000,  0.0000,  0.0000)
  36 O      6.638595    2.643565   17.826756    ( 0.0000,  0.0000,  0.0000)
  37 C      7.290902    1.649604   18.662797    ( 0.0000,  0.0000,  0.0000)
  38 C      7.553800    2.139990   20.078317    ( 0.0000,  0.0000,  0.0000)
  39 H      6.681720    0.738835   18.664998    ( 0.0000,  0.0000,  0.0000)
  40 H      8.218746    1.429870   18.135715    ( 0.0000,  0.0000,  0.0000)
  41 H      8.067465    1.353953   20.636388    ( 0.0000,  0.0000,  0.0000)
  42 H      8.199983    3.019292   20.082887    ( 0.0000,  0.0000,  0.0000)
  43 H      6.632168    2.374574   20.620156    ( 0.0000,  0.0000,  0.0000)
  44 H      5.756458    2.811182   18.184473    ( 0.0000,  0.0000,  0.0000)
  45 N      8.507609    1.826971   15.417889    ( 0.0000,  0.0000,  0.0000)
  46 N      9.616547    1.814674   14.714695    ( 0.0000,  0.0000,  0.0000)

Unit cell:
           periodic     x           y           z      points  spacing
  1. axis:    yes    9.702222    0.000000    0.000000    60     0.1617
  2. axis:    yes    0.000000    9.702222    0.000000    60     0.1617
  3. axis:    no     0.000000    0.000000   24.851111   156     0.1593

  Lengths:   9.702222   9.702222  24.851111
  Angles:   90.000000  90.000000  90.000000

Effective grid spacing dv^(1/3) = 0.1609

     iter     time        total  log10-change:
                         energy  eigst   dens
iter:   1 13:05:13  -310.034339  -2.39
iter:   2 13:11:26  -310.034143  -3.15  -2.64
iter:   3 13:15:22  -310.033942c -3.69  -2.82
iter:   4 13:19:13  -310.033679c -3.80  -2.91
Writing to output.gpw (mode='')

iter:   5 13:25:43  -310.033610c -4.04  -3.12
iter:   6 13:31:02  -310.033574c -3.80  -3.30
iter:   7 13:35:39  -310.033571c -4.38  -3.44
iter:   8 13:40:18  -310.033563c -4.25  -3.59
iter:   9 13:44:38  -310.033567c -4.88  -3.67
Writing to output.gpw (mode='')

iter:  10 13:47:42  -310.033570c -5.07  -3.85
iter:  11 13:52:04  -310.033574c -5.57  -4.01c
iter:  12 13:58:09  -310.033571c -5.82  -4.06c
iter:  13 14:02:02  -310.033574c -5.88  -4.10c
iter:  14 14:07:20  -310.033574c -5.85  -4.24c
Writing to output.gpw (mode='')

iter:  15 14:12:27  -310.033573c -6.13  -4.41c
iter:  16 14:18:21  -310.033572c -6.30  -4.44c
iter:  17 14:23:09  -310.033572c -6.42  -4.51c
iter:  18 14:27:16  -310.033572c -6.55  -4.62c
iter:  19 14:31:31  -310.033571c -6.79  -4.72c
Writing to output.gpw (mode='')

iter:  20 14:36:03  -310.033572c -7.04  -4.89c
iter:  21 14:41:27  -310.033572c -7.13  -4.93c
iter:  22 14:47:14  -310.033572c -7.42c -5.05c

Converged after 22 iterations.

Dipole moment: (2.559506, -5.069809, 0.391200) |e|*Ang

Energy contributions relative to reference atoms: (reference = -14434.854043)

Kinetic:       +146.622776
Potential:     -138.801886
External:        +0.000000
XC:            -318.550848
Entropy (-ST):   -0.162395
Local:           +0.777584
--------------------------
Free energy:   -310.114770
Extrapolated:  -310.033572

Dipole-layer corrected work functions: 3.404518, 2.652497 eV

Showing only first 2 kpts
 Kpt  Band  Eigenvalues  Occupancy
  0    31     -3.20277    1.94053
  0    32     -3.08770    1.53126
  0    33     -2.97831    0.53636
  0    34     -2.86897    0.07903

  1    31     -3.23707    1.96960
  1    32     -3.10364    1.63594
  1    33     -2.92858    0.23870
  1    34     -2.85434    0.05957


Fermi level: -3.02851

Gap: 0.032 eV
Transition (v -> c):
  (s=0, k=7, n=32, [0.38, 0.38, 0.00]) -> (s=0, k=7, n=33, [0.38, 0.38, 0.00])
Writing to output.gpw (mode='')


Forces in eV/Ang:
  0 Li   -0.00560    0.00545   -0.29375
  1 Li    0.01859   -0.00519   -0.32423
  2 Li    0.00520    0.00159   -0.25566
  3 Li   -0.00226    0.00287   -0.30199
  4 Li   -0.01963   -0.01196   -0.27740
  5 Li   -0.00693   -0.01827   -0.26176
  6 Li   -0.00784   -0.02328   -0.28686
  7 Li   -0.01115   -0.00134   -0.26982
  8 Li   -0.01436    0.00692   -0.27550
  9 Li    0.00805    0.05112    0.33430
 10 Li   -0.03085    0.07779    0.37511
 11 Li    0.01959    0.06069    0.28120
 12 Li    0.04727    0.07188    0.24809
 13 Li   -0.02720   -0.01413    0.36679
 14 Li   -0.04483    0.04538    0.19875
 15 Li    0.03729   -0.01414    0.28395
 16 Li    0.11972    0.01436    0.29424
 17 Li   -0.02631   -0.01819    0.15970
 18 Li    0.00433   -0.01862   -0.00018
 19 Li    0.03976    0.00452   -0.00687
 20 Li   -0.00895   -0.03999    0.00942
 21 Li   -0.02012   -0.01779   -0.00008
 22 Li    0.00931    0.01019    0.01001
 23 Li    0.00442    0.00043   -0.00702
 24 Li   -0.00255    0.03402   -0.00304
 25 Li   -0.03774   -0.00604    0.00131
 26 Li   -0.00709   -0.01116   -0.00665
 27 Li   -0.01978   -0.07927    0.08948
 28 Li   -0.00755    0.02728    0.02738
 29 Li    0.01854   -0.02914   -0.00097
 30 Li   -0.00610    0.00230    0.01522
 31 Li   -0.00642   -0.01548    0.00757
 32 Li    0.00512   -0.00819   -0.00543
 33 Li    0.01525   -0.05546    0.01243
 34 Li   -0.01078   -0.00748   -0.03297
 35 Li    0.01961   -0.00831    0.01480
 36 O    -0.02675    0.01069    0.02185
 37 C     0.00981   -0.00817    0.02296
 38 C     0.05330   -0.02335    0.01451
 39 H     0.00349   -0.01254    0.02445
 40 H     0.04033   -0.01706    0.05927
 41 H     0.00756   -0.05587    0.01570
 42 H    -0.06191    0.04609   -0.05742
 43 H     0.00929    0.00396   -0.10892
 44 H    -0.10578    0.06264   -0.05476
 45 N     0.10470   -0.04039   -0.11692
 46 N    -0.07759   -0.02742    0.00289

System changes: positions 

Initializing position-dependent things.

Density initialized from wave functions
       .-----------------------.  
      /|                       |  
     / |                       |  
    /  |                       |  
   /   |                       |  
  /    |                       |  
 *     |                       |  
 |     |                       |  
 |     |                       |  
 |     |                       |  
 |     |           H  HH       |  
 |     |             C         |  
 |     |       Li              Li 
 |     |         HHOCLH        |  
 |     |     Li              Li|  
 | Li  |  Li      LiLi    Li   |  
 |     |   Li                  |  
 |     |Li      LiLi   NLi     |  
 |     |                  N    |  
 |   LLi     LLi     LLi       |  
 |     |  Li      Li      Li   |  
 | Li  |   Li      Li          |  
 |     |Li      Li      Li     |  
 Li    | Li      Li            |  
 |    Li      Li      Li       |  
 |     |                       |  
 |     |                       |  
 |     |                       |  
 |     |                       |  
 |     |                       |  
 |     |                       |  
 |     .-----------------------.  
 |    /                       /   
 |   /                       /    
 |  /                       /     
 | /                       /      
 |/                       /       
 *-----------------------*        

Positions:
   0 Li     1.617037    1.617037   10.000000    ( 0.0000,  0.0000,  0.0000)
   1 Li     4.851111    1.617037   10.000000    ( 0.0000,  0.0000,  0.0000)
   2 Li     8.085185    1.617037   10.000000    ( 0.0000,  0.0000,  0.0000)
   3 Li     1.617037    4.851111   10.000000    ( 0.0000,  0.0000,  0.0000)
   4 Li     4.851111    4.851111   10.000000    ( 0.0000,  0.0000,  0.0000)
   5 Li     8.085185    4.851111   10.000000    ( 0.0000,  0.0000,  0.0000)
   6 Li     1.617037    8.085185   10.000000    ( 0.0000,  0.0000,  0.0000)
   7 Li     4.851111    8.085185   10.000000    ( 0.0000,  0.0000,  0.0000)
   8 Li     8.085185    8.085185   10.000000    ( 0.0000,  0.0000,  0.0000)
   9 Li     0.000000    0.000000   11.617037    ( 0.0000,  0.0000,  0.0000)
  10 Li     3.234074    0.000000   11.617037    ( 0.0000,  0.0000,  0.0000)
  11 Li     6.468148    0.000000   11.617037    ( 0.0000,  0.0000,  0.0000)
  12 Li     0.000000    3.234074   11.617037    ( 0.0000,  0.0000,  0.0000)
  13 Li     3.234074    3.234074   11.617037    ( 0.0000,  0.0000,  0.0000)
  14 Li     6.468148    3.234074   11.617037    ( 0.0000,  0.0000,  0.0000)
  15 Li     0.000000    6.468148   11.617037    ( 0.0000,  0.0000,  0.0000)
  16 Li     3.234074    6.468148   11.617037    ( 0.0000,  0.0000,  0.0000)
  17 Li     6.468148    6.468148   11.617037    ( 0.0000,  0.0000,  0.0000)
  18 Li     1.446795    1.714421   13.691469    ( 0.0000,  0.0000,  0.0000)
  19 Li     4.879340    1.663971   13.486120    ( 0.0000,  0.0000,  0.0000)
  20 Li     8.113330    1.792596   13.396023    ( 0.0000,  0.0000,  0.0000)
  21 Li     1.676279    4.929515   13.499088    ( 0.0000,  0.0000,  0.0000)
  22 Li     4.980047    4.894804   13.607323    ( 0.0000,  0.0000,  0.0000)
  23 Li     8.026131    4.999309   13.523520    ( 0.0000,  0.0000,  0.0000)
  24 Li     1.671060    8.081829   13.488596    ( 0.0000,  0.0000,  0.0000)
  25 Li     4.968036    8.100226   13.540182    ( 0.0000,  0.0000,  0.0000)
  26 Li     8.050491    8.048581   13.443289    ( 0.0000,  0.0000,  0.0000)
  27 Li    -0.004063   -0.002939   15.372332    ( 0.0000,  0.0000,  0.0000)
  28 Li     3.404433   -0.080193   15.398228    ( 0.0000,  0.0000,  0.0000)
  29 Li     6.955701    0.452508   15.425069    ( 0.0000,  0.0000,  0.0000)
  30 Li     0.048119    3.502077   15.548462    ( 0.0000,  0.0000,  0.0000)
  31 Li     3.369099    3.301612   15.438391    ( 0.0000,  0.0000,  0.0000)
  32 Li     7.036417    3.126938   15.954202    ( 0.0000,  0.0000,  0.0000)
  33 Li    -0.007308    6.676450   15.475229    ( 0.0000,  0.0000,  0.0000)
  34 Li     3.183736    6.452833   15.547294    ( 0.0000,  0.0000,  0.0000)
  35 Li     6.501949    6.720314   15.589284    ( 0.0000,  0.0000,  0.0000)
  36 O      6.622660    2.633340   17.812017    ( 0.0000,  0.0000,  0.0000)
  37 C      7.283585    1.649633   18.657267    ( 0.0000,  0.0000,  0.0000)
  38 C      7.549897    2.145204   20.070875    ( 0.0000,  0.0000,  0.0000)
  39 H      6.685216    0.731160   18.674215    ( 0.0000,  0.0000,  0.0000)
  40 H      8.216122    1.428467   18.139678    ( 0.0000,  0.0000,  0.0000)
  41 H      8.060893    1.360017   20.636564    ( 0.0000,  0.0000,  0.0000)
  42 H      8.182912    3.034436   20.074555    ( 0.0000,  0.0000,  0.0000)
  43 H      6.627073    2.382569   20.604617    ( 0.0000,  0.0000,  0.0000)
  44 H      5.742614    2.805033   18.173622    ( 0.0000,  0.0000,  0.0000)
  45 N      8.500228    1.794333   15.395972    ( 0.0000,  0.0000,  0.0000)
  46 N      9.612706    1.783060   14.705880    ( 0.0000,  0.0000,  0.0000)

Unit cell:
           periodic     x           y           z      points  spacing
  1. axis:    yes    9.702222    0.000000    0.000000    60     0.1617
  2. axis:    yes    0.000000    9.702222    0.000000    60     0.1617
  3. axis:    no     0.000000    0.000000   24.851111   156     0.1593

  Lengths:   9.702222   9.702222  24.851111
  Angles:   90.000000  90.000000  90.000000

Effective grid spacing dv^(1/3) = 0.1609

     iter     time        total  log10-change:
                         energy  eigst   dens
iter:   1 14:53:00  -310.085986  -0.64
iter:   2 14:57:31  -310.061057  -1.42  -1.76
iter:   3 15:01:09  -310.050669  -1.95  -1.95
iter:   4 15:06:24  -310.042224c -2.09  -2.07
Writing to output.gpw (mode='')

iter:   5 15:09:50  -310.036687c -1.97  -2.23
iter:   6 15:13:49  -310.036811c -2.04  -2.49
iter:   7 15:17:59  -310.036477c -2.88  -2.53
iter:   8 15:22:00  -310.036509c -2.53  -2.71
iter:   9 15:25:40  -310.036291c -3.26  -2.76
Writing to output.gpw (mode='')

iter:  10 15:30:46  -310.036305c -3.56  -2.84
iter:  11 15:33:03  -310.036264c -3.33  -2.95
iter:  12 15:35:24  -310.036247c -3.98  -3.12
iter:  13 15:39:33  -310.036239c -4.04  -3.21
iter:  14 15:44:29  -310.036307c -3.88  -3.30
Writing to output.gpw (mode='')

iter:  15 15:48:48  -310.036262c -4.31  -3.31
iter:  16 15:52:38  -310.036248c -4.31  -3.53
iter:  17 15:57:12  -310.036248c -4.90  -3.61
iter:  18 16:01:44  -310.036254c -4.83  -3.71
iter:  19 16:07:44  -310.036248c -5.02  -3.85
Writing to output.gpw (mode='')

iter:  20 16:11:35  -310.036249c -5.25  -3.95
iter:  21 16:15:53  -310.036251c -5.33  -4.03c
iter:  22 16:20:25  -310.036254c -5.56  -4.16c
iter:  23 16:25:41  -310.036253c -5.73  -4.19c
iter:  24 16:30:13  -310.036253c -5.82  -4.28c
Writing to output.gpw (mode='')

iter:  25 16:33:40  -310.036251c -5.91  -4.34c
iter:  26 16:37:52  -310.036252c -6.23  -4.50c
iter:  27 16:41:07  -310.036253c -6.22  -4.60c
iter:  28 16:44:42  -310.036252c -6.34  -4.78c
iter:  29 16:50:45  -310.036252c -6.66  -4.96c
Writing to output.gpw (mode='')

iter:  30 16:55:06  -310.036253c -6.78  -5.00c
iter:  31 16:58:49  -310.036253c -6.84  -5.08c
iter:  32 17:02:33  -310.036253c -6.86  -5.16c
iter:  33 17:06:38  -310.036253c -7.01  -5.25c
iter:  34 17:11:58  -310.036253c -7.07  -5.31c
Writing to output.gpw (mode='')

iter:  35 17:17:16  -310.036253c -7.30  -5.40c
iter:  36 17:22:25  -310.036253c -7.46c -5.50c

Converged after 36 iterations.

Dipole moment: (2.854943, -4.928688, 0.393589) |e|*Ang

Energy contributions relative to reference atoms: (reference = -14434.854043)

Kinetic:       +146.914541
Potential:     -139.005052
External:        +0.000000
XC:            -318.642522
Entropy (-ST):   -0.163002
Local:           +0.778281
--------------------------
Free energy:   -310.117754
Extrapolated:  -310.036253

Dipole-layer corrected work functions: 3.405757, 2.649144 eV

Showing only first 2 kpts
 Kpt  Band  Eigenvalues  Occupancy
  0    31     -3.20390    1.94301
  0    32     -3.08768    1.53870
  0    33     -2.97965    0.55539
  0    34     -2.86917    0.08096

  1    31     -3.23364    1.96815
  1    32     -3.10065    1.62428
  1    33     -2.92667    0.23515
  1    34     -2.85686    0.06386


Fermi level: -3.02745

Gap: 0.029 eV
Transition (v -> c):
  (s=0, k=7, n=32, [0.38, 0.38, 0.00]) -> (s=0, k=7, n=33, [0.38, 0.38, 0.00])
Writing to output.gpw (mode='')


Forces in eV/Ang:
  0 Li   -0.00667    0.00398   -0.29222
  1 Li    0.01807   -0.00474   -0.32476
  2 Li    0.00450    0.00099   -0.25556
  3 Li   -0.00220    0.00301   -0.30183
  4 Li   -0.01834   -0.01289   -0.27673
  5 Li   -0.00693   -0.01818   -0.26095
  6 Li   -0.00662   -0.02289   -0.28757
  7 Li   -0.01117   -0.00121   -0.27157
  8 Li   -0.01282    0.00615   -0.27358
  9 Li    0.00855    0.04678    0.32593
 10 Li   -0.02623    0.08120    0.37501
 11 Li    0.01269    0.05652    0.27835
 12 Li    0.05147    0.07366    0.24059
 13 Li   -0.02321   -0.01444    0.36959
 14 Li   -0.04009    0.04715    0.19669
 15 Li    0.03616   -0.00068    0.27821
 16 Li    0.11894    0.01940    0.30072
 17 Li   -0.04113   -0.00788    0.15335
 18 Li    0.00198   -0.01932    0.00885
 19 Li    0.03014   -0.00605   -0.00520
 20 Li   -0.05064   -0.03458   -0.03324
 21 Li   -0.01983   -0.03314    0.02432
 22 Li    0.00355    0.01283    0.00406
 23 Li    0.01929   -0.00756    0.02048
 24 Li    0.01057    0.01551   -0.00887
 25 Li   -0.02378   -0.00969   -0.01087
 26 Li    0.00818   -0.00150   -0.00784
 27 Li   -0.02997   -0.05970    0.08630
 28 Li   -0.00939    0.01246    0.02813
 29 Li   -0.07320   -0.09944    0.01032
 30 Li    0.02415    0.01692   -0.00746
 31 Li   -0.02149   -0.00710   -0.00655
 32 Li    0.00263   -0.03570   -0.00692
 33 Li    0.00718   -0.09982   -0.00011
 34 Li   -0.00110    0.01164   -0.02402
 35 Li    0.00484   -0.01474    0.01468
 36 O     0.02809   -0.05512    0.10581
 37 C     0.06128   -0.03590    0.07256
 38 C     0.00341    0.03977    0.01175
 39 H    -0.01318    0.02706   -0.02069
 40 H     0.01644    0.00836   -0.01723
 41 H    -0.00009    0.02016   -0.04116
 42 H    -0.00717   -0.00176   -0.06959
 43 H    -0.06579   -0.00658   -0.02930
 44 H    -0.09524    0.05002   -0.05435
 45 N     0.04891    0.06891    0.07513
 46 N     0.11982    0.02537   -0.10121

System changes: positions 

Initializing position-dependent things.

Density initialized from wave functions
       .-----------------------.  
      /|                       |  
     / |                       |  
    /  |                       |  
   /   |                       |  
  /    |                       |  
 *     |                       |  
 |     |                       |  
 |     |                       |  
 |     |                       |  
 |     |           H  HH       |  
 |     |             C         |  
 |     |       Li              |  
 |     |         HHOCLH        |  
 |     |     Li              Li|  
 | Li  |  Li      LiLi    Li   |  
 |     |   Li                  |  
 |     |Li      Li     NLi     |  
 |     |          Li     Li    |  
 |   LLi     LLi     LLi       |  
 |     |  Li      Li      Li   |  
 | Li  |   Li      Li          |  
 |     |Li      Li      Li     |  
 Li    | Li      Li            |  
 |    Li      Li      Li       |  
 |     |                       |  
 |     |                       |  
 |     |                       |  
 |     |                       |  
 |     |                       |  
 |     |                       |  
 |     .-----------------------.  
 |    /                       /   
 |   /                       /    
 |  /                       /     
 | /                       /      
 |/                       /       
 *-----------------------*        

Positions:
   0 Li     1.617037    1.617037   10.000000    ( 0.0000,  0.0000,  0.0000)
   1 Li     4.851111    1.617037   10.000000    ( 0.0000,  0.0000,  0.0000)
   2 Li     8.085185    1.617037   10.000000    ( 0.0000,  0.0000,  0.0000)
   3 Li     1.617037    4.851111   10.000000    ( 0.0000,  0.0000,  0.0000)
   4 Li     4.851111    4.851111   10.000000    ( 0.0000,  0.0000,  0.0000)
   5 Li     8.085185    4.851111   10.000000    ( 0.0000,  0.0000,  0.0000)
   6 Li     1.617037    8.085185   10.000000    ( 0.0000,  0.0000,  0.0000)
   7 Li     4.851111    8.085185   10.000000    ( 0.0000,  0.0000,  0.0000)
   8 Li     8.085185    8.085185   10.000000    ( 0.0000,  0.0000,  0.0000)
   9 Li     0.000000    0.000000   11.617037    ( 0.0000,  0.0000,  0.0000)
  10 Li     3.234074    0.000000   11.617037    ( 0.0000,  0.0000,  0.0000)
  11 Li     6.468148    0.000000   11.617037    ( 0.0000,  0.0000,  0.0000)
  12 Li     0.000000    3.234074   11.617037    ( 0.0000,  0.0000,  0.0000)
  13 Li     3.234074    3.234074   11.617037    ( 0.0000,  0.0000,  0.0000)
  14 Li     6.468148    3.234074   11.617037    ( 0.0000,  0.0000,  0.0000)
  15 Li     0.000000    6.468148   11.617037    ( 0.0000,  0.0000,  0.0000)
  16 Li     3.234074    6.468148   11.617037    ( 0.0000,  0.0000,  0.0000)
  17 Li     6.468148    6.468148   11.617037    ( 0.0000,  0.0000,  0.0000)
  18 Li     1.450879    1.718792   13.688719    ( 0.0000,  0.0000,  0.0000)
  19 Li     4.879065    1.662993   13.483870    ( 0.0000,  0.0000,  0.0000)
  20 Li     8.104677    1.780157   13.398348    ( 0.0000,  0.0000,  0.0000)
  21 Li     1.676640    4.927209   13.503145    ( 0.0000,  0.0000,  0.0000)
  22 Li     4.982136    4.894825   13.606346    ( 0.0000,  0.0000,  0.0000)
  23 Li     8.031651    4.986911   13.531476    ( 0.0000,  0.0000,  0.0000)
  24 Li     1.667231    8.089970   13.490174    ( 0.0000,  0.0000,  0.0000)
  25 Li     4.956400    8.095845   13.540066    ( 0.0000,  0.0000,  0.0000)
  26 Li     8.050292    8.040207   13.444025    ( 0.0000,  0.0000,  0.0000)
  27 Li    -0.020201    0.008487   15.376120    ( 0.0000,  0.0000,  0.0000)
  28 Li     3.392966   -0.076265   15.405939    ( 0.0000,  0.0000,  0.0000)
  29 Li     6.930964    0.423828   15.412202    ( 0.0000,  0.0000,  0.0000)
  30 Li     0.057297    3.512409   15.562278    ( 0.0000,  0.0000,  0.0000)
  31 Li     3.376091    3.298696   15.442119    ( 0.0000,  0.0000,  0.0000)
  32 Li     7.033101    3.117999   15.963180    ( 0.0000,  0.0000,  0.0000)
  33 Li    -0.003971    6.674764   15.481933    ( 0.0000,  0.0000,  0.0000)
  34 Li     3.183536    6.451293   15.544338    ( 0.0000,  0.0000,  0.0000)
  35 Li     6.501421    6.707086   15.593421    ( 0.0000,  0.0000,  0.0000)
  36 O      6.631492    2.645733   17.827516    ( 0.0000,  0.0000,  0.0000)
  37 C      7.287607    1.651664   18.663191    ( 0.0000,  0.0000,  0.0000)
  38 C      7.557011    2.138549   20.077694    ( 0.0000,  0.0000,  0.0000)
  39 H      6.683048    0.737852   18.676603    ( 0.0000,  0.0000,  0.0000)
  40 H      8.218098    1.428597   18.142159    ( 0.0000,  0.0000,  0.0000)
  41 H      8.068455    1.349971   20.638175    ( 0.0000,  0.0000,  0.0000)
  42 H      8.187673    3.029081   20.081458    ( 0.0000,  0.0000,  0.0000)
  43 H      6.632947    2.372858   20.610598    ( 0.0000,  0.0000,  0.0000)
  44 H      5.747866    2.815965   18.182500    ( 0.0000,  0.0000,  0.0000)
  45 N      8.507314    1.818354   15.391720    ( 0.0000,  0.0000,  0.0000)
  46 N      9.616171    1.799022   14.699797    ( 0.0000,  0.0000,  0.0000)

Unit cell:
           periodic     x           y           z      points  spacing
  1. axis:    yes    9.702222    0.000000    0.000000    60     0.1617
  2. axis:    yes    0.000000    9.702222    0.000000    60     0.1617
  3. axis:    no     0.000000    0.000000   24.851111   156     0.1593

  Lengths:   9.702222   9.702222  24.851111
  Angles:   90.000000  90.000000  90.000000

Effective grid spacing dv^(1/3) = 0.1609

     iter     time        total  log10-change:
                         energy  eigst   dens
iter:   1 17:26:59  -310.066401  -0.94
iter:   2 17:31:44  -310.050124  -1.58  -1.88
iter:   3 17:37:21  -310.046413c -2.19  -2.09
iter:   4 17:41:28  -310.042499c -2.34  -2.27
Writing to output.gpw (mode='')

iter:   5 17:45:12  -310.041912c -2.41  -2.55
iter:   6 17:49:24  -310.041576c -2.65  -2.64
iter:   7 17:54:00  -310.042095c -2.42  -2.78
iter:   8 17:57:47  -310.041645c -3.37  -2.80
iter:   9 18:01:53  -310.041594c -3.58  -2.98
Writing to output.gpw (mode='')

iter:  10 18:07:57  -310.041571c -3.80  -3.03
iter:  11 18:12:38  -310.041542c -3.71  -3.14
iter:  12 18:16:50  -310.041540c -3.76  -3.29
iter:  13 18:20:08  -310.041549c -4.46  -3.34
iter:  14 18:23:49  -310.041545c -4.70  -3.53
Writing to output.gpw (mode='')

iter:  15 18:29:34  -310.041545c -4.81  -3.56
iter:  16 18:34:42  -310.041525c -4.63  -3.65
iter:  17 18:39:49  -310.041537c -4.96  -3.68
iter:  18 18:43:33  -310.041540c -5.05  -3.76
iter:  19 18:48:39  -310.041540c -5.30  -3.82
Writing to output.gpw (mode='')

iter:  20 18:52:33  -310.041538c -5.42  -4.11c
iter:  21 18:55:55  -310.041541c -5.58  -4.31c
iter:  22 19:01:09  -310.041541c -5.83  -4.40c
iter:  23 19:06:18  -310.041541c -6.07  -4.42c
iter:  24 19:12:20  -310.041541c -6.28  -4.45c
Writing to output.gpw (mode='')

iter:  25 19:16:30  -310.041541c -6.32  -4.64c
iter:  26 19:20:49  -310.041541c -6.44  -4.76c
iter:  27 19:26:31  -310.041542c -6.67  -4.91c
iter:  28 19:31:33  -310.041541c -6.74  -4.98c
iter:  29 19:36:26  -310.041542c -6.79  -5.09c
Writing to output.gpw (mode='')

iter:  30 19:40:35  -310.041542c -6.96  -5.14c
iter:  31 19:46:41  -310.041542c -7.09  -5.16c
