
  ___ ___ ___ _ _ _  
 |   |   |_  | | | | 
 | | | | | . | | | | 
 |__ |  _|___|_____|  22.8.0
 |___|_|             

User:   vazumah@r335.ib.bridges2.psc.edu
Date:   Wed Mar  8 22:17:59 2023
Arch:   x86_64
Pid:    57798
CWD:    /jet/home/vazumah/Calcs/N2_with_proton_donor/CH3CH2OH_x/ontop/9.702_9.702/N2_x
Python: 3.11.0
gpaw:   /jet/home/vazumah/.conda/envs/GPAW_mpich/lib/python3.11/site-packages/gpaw
_gpaw:  /jet/home/vazumah/.conda/envs/GPAW_mpich/lib/python3.11/site-packages/
        _gpaw.cpython-311-x86_64-linux-gnu.so
ase:    /jet/home/vazumah/.conda/envs/GPAW_mpich/lib/python3.11/site-packages/ase (version 3.22.1)
numpy:  /jet/home/vazumah/.conda/envs/GPAW_mpich/lib/python3.11/site-packages/numpy (version 1.24.2)
scipy:  /jet/home/vazumah/.conda/envs/GPAW_mpich/lib/python3.11/site-packages/scipy (version 1.10.1)
libxc:  5.2.3
units:  Angstrom and eV
cores: 128
OpenMP: True
OMP_NUM_THREADS: 1

Input parameters:
  h: 0.16
  kpts: {size: [4, 4, 1]}
  occupations: {name: fermi-dirac,
                width: 0.05}
  poissonsolver: {dipolelayer: xy}
  xc: BEEF-vdW

System changes: positions, numbers, cell, pbc, initial_charges, initial_magmoms 

Initialize ...

species:
  Li:
    name: Lithium
    id: 830b4218f175192f93f959cfc0aad614
    Z: 3.0
    valence: 1
    core: 2
    charge: 0.0
    file: /jet/home/vazumah/datasets/gpaw-setups-0.9.20000/Li.PBE.gz
    compensation charges: {type: gauss,
                           rc: 0.33,
                           lmax: 2}
    cutoffs: {filter: 1.91,
              core: 2.55}
    valence states:
      #              energy  rcut
      - 2s(1.00)    -2.874   1.058
      - 2p(0.00)    -1.090   1.058
      -  s          24.337   1.058
  
    # Using partial waves for Li as LCAO basis

  O:
    name: Oxygen
    id: 32ecd46bf208036f09c70b0ec9a88b78
    Z: 8.0
    valence: 6
    core: 2
    charge: 0.0
    file: /jet/home/vazumah/datasets/gpaw-setups-0.9.20000/O.PBE.gz
    compensation charges: {type: gauss,
                           rc: 0.21,
                           lmax: 2}
    cutoffs: {filter: 1.17,
              core: 0.83}
    valence states:
      #              energy  rcut
      - 2s(2.00)   -23.961   0.688
      - 2p(4.00)    -9.029   0.598
      -  s           3.251   0.688
      -  p          18.182   0.598
      -  d           0.000   0.619
  
    # Using partial waves for O as LCAO basis

  C:
    name: Carbon
    id: 4aa54d4b901d75f77cc0ea3eec22967b
    Z: 6.0
    valence: 4
    core: 2
    charge: 0.0
    file: /jet/home/vazumah/datasets/gpaw-setups-0.9.20000/C.PBE.gz
    compensation charges: {type: gauss,
                           rc: 0.20,
                           lmax: 2}
    cutoffs: {filter: 1.14,
              core: 1.14}
    valence states:
      #              energy  rcut
      - 2s(2.00)   -13.751   0.635
      - 2p(2.00)    -5.284   0.635
      -  s          13.461   0.635
      -  p          21.927   0.635
      -  d           0.000   0.635
  
    # Using partial waves for C as LCAO basis

  H:
    name: Hydrogen
    id: d65de229564ff8ea4db303e23b6d1ecf
    Z: 1.0
    valence: 1
    core: 0
    charge: 0.0
    file: /jet/home/vazumah/datasets/gpaw-setups-0.9.20000/H.PBE.gz
    compensation charges: {type: gauss,
                           rc: 0.15,
                           lmax: 2}
    cutoffs: {filter: 0.85,
              core: 0.53}
    valence states:
      #              energy  rcut
      - 1s(1.00)    -6.494   0.476
      -  s          20.717   0.476
      -  p           0.000   0.476
  
    # Using partial waves for H as LCAO basis

  N:
    name: Nitrogen
    id: f7500608b86eaa90eef8b1d9a670dc53
    Z: 7.0
    valence: 5
    core: 2
    charge: 0.0
    file: /jet/home/vazumah/datasets/gpaw-setups-0.9.20000/N.PBE.gz
    compensation charges: {type: gauss,
                           rc: 0.18,
                           lmax: 2}
    cutoffs: {filter: 1.11,
              core: 0.96}
    valence states:
      #              energy  rcut
      - 2s(2.00)   -18.583   0.603
      - 2p(3.00)    -7.089   0.529
      -  s           8.629   0.603
      -  p          20.123   0.529
      -  d           0.000   0.577
  
    # Using partial waves for N as LCAO basis

Reference energy: -14434.854043  # eV

Spin-paired calculation

Convergence criteria:
 Maximum [total energy] change in last 3 cyles: 0.0005 eV / electron
 Maximum integral of absolute [dens]ity change: 0.0001 electrons / valence electron
 Maximum integral of absolute [eigenst]ate change: 4e-08 eV^2 / valence electron
 Maximum number of scf [iter]ations: 333
 (Square brackets indicate name in SCF output, whereas a 'c' in
 the SCF output indicates the quantity has converged.)

Symmetries present (total): 1

  ( 1  0  0)
  ( 0  1  0)
  ( 0  0  1)

16 k-points: 4 x 4 x 1 Monkhorst-Pack grid
8 k-points in the irreducible part of the Brillouin zone
       k-points in crystal coordinates                weights
   0:     0.12500000   -0.37500000    0.00000000          2/16
   1:     0.12500000   -0.12500000    0.00000000          2/16
   2:     0.12500000    0.12500000    0.00000000          2/16
   3:     0.12500000    0.37500000    0.00000000          2/16
   4:     0.37500000   -0.37500000    0.00000000          2/16
   5:     0.37500000   -0.12500000    0.00000000          2/16
   6:     0.37500000    0.12500000    0.00000000          2/16
   7:     0.37500000    0.37500000    0.00000000          2/16

Wave functions: Uniform real-space grid
  Kinetic energy operator: 6*3+1=19 point O(h^6) finite-difference Laplacian
  ScaLapack parameters: grid=1x1, blocksize=None
  Wavefunction extrapolation:
    Improved wavefunction reuse through dual PAW basis 

Occupation numbers: Fermi-Dirac:
  width: 0.0500  # eV
 

Eigensolver
   Davidson(niter=2) 

Densities:
  Coarse grid: 60*60*164 grid
  Fine grid: 120*120*328 grid
  Total Charge: 0.000000 

Density mixing:
  Method: separate
  Backend: pulay
  Linear mixing parameter: 0.05
  old densities: 5
  Damping of long wavelength oscillations: 50 

Hamiltonian:
  XC and Coulomb potentials evaluated on a 120*120*328 grid
  Using the BEEF-vdW Exchange-Correlation functional
  Interpolation: tri-quintic (5. degree polynomial)
  Poisson solver: FastPoissonSolver using
    Stencil: 6*3+1=19 point O(h^6) finite-difference Laplacian
    FFT axes: [0, 1]
    FST axes: [2]

Dipole correction along z-axis 

XC parameters: BEEF-vdW with 2 nearest neighbor stencil

Memory estimate:
  Process memory now: 127.83 MiB
  Calculator: 80.22 MiB
    Density: 22.47 MiB
      Arrays: 7.22 MiB
      Localized functions: 12.50 MiB
      Mixer: 2.75 MiB
    Hamiltonian: 5.71 MiB
      Arrays: 4.72 MiB
      XC: 0.00 MiB
      Poisson: 0.00 MiB
      vbar: 0.99 MiB
    Wavefunctions: 52.04 MiB
      Arrays psit_nG: 24.17 MiB
      Eigensolver: 27.21 MiB
      Projections: 0.01 MiB
      Projectors: 0.65 MiB

Total number of cores used: 128
Parallelization over k-points: 8
Domain decomposition: 2 x 2 x 4

Number of atoms: 47
Number of atomic orbitals: 170
Number of bands in calculation: 44
Number of valence electrons: 66
Bands to converge: occupied

... initialized

Initializing position-dependent things.

Density initialized from atomic densities
Creating initial wave functions:
  44 bands from LCAO basis set

       .-----------------------.  
      /|                       |  
     / |                       |  
    /  |                       |  
   /   |                       |  
  /    |                       |  
 *     |                       |  
 |     |                       |  
 |     |                       |  
 |     |                H      H  
 |     |                 C     |  
 |     |                H   N  N  
 |     |                       |  
 |     |                       |  
 |     |               H       |  
 |   Li|     Li  H   LiC       |  
 |     |               H O     |  
 | Li  |  LLi     LLi     Li   |  
 |     |                       |  
 Li    |LLi     LLi     Li     |  
 |   Li|     Li      Li        |  
 |    Li  Li  Li  Li  Li  Li   |  
 | Li  |   Li      Li          |  
 |     |Li      Li      Li     |  
 Li    | Li      Li            |  
 |    Li      Li      Li       |  
 |     |                       |  
 |     |                       |  
 |     |                       |  
 |     |                       |  
 |     |                       |  
 |     |                       |  
 |     .-----------------------.  
 |    /                       /   
 |   /                       /    
 |  /                       /     
 | /                       /      
 |/                       /       
 *-----------------------*        

Positions:
   0 Li     1.617037    1.617037   10.000000    ( 0.0000,  0.0000,  0.0000)
   1 Li     4.851111    1.617037   10.000000    ( 0.0000,  0.0000,  0.0000)
   2 Li     8.085185    1.617037   10.000000    ( 0.0000,  0.0000,  0.0000)
   3 Li     1.617037    4.851111   10.000000    ( 0.0000,  0.0000,  0.0000)
   4 Li     4.851111    4.851111   10.000000    ( 0.0000,  0.0000,  0.0000)
   5 Li     8.085185    4.851111   10.000000    ( 0.0000,  0.0000,  0.0000)
   6 Li     1.617037    8.085185   10.000000    ( 0.0000,  0.0000,  0.0000)
   7 Li     4.851111    8.085185   10.000000    ( 0.0000,  0.0000,  0.0000)
   8 Li     8.085185    8.085185   10.000000    ( 0.0000,  0.0000,  0.0000)
   9 Li     0.000000    0.000000   11.617037    ( 0.0000,  0.0000,  0.0000)
  10 Li     3.234074    0.000000   11.617037    ( 0.0000,  0.0000,  0.0000)
  11 Li     6.468148    0.000000   11.617037    ( 0.0000,  0.0000,  0.0000)
  12 Li     0.000000    3.234074   11.617037    ( 0.0000,  0.0000,  0.0000)
  13 Li     3.234074    3.234074   11.617037    ( 0.0000,  0.0000,  0.0000)
  14 Li     6.468148    3.234074   11.617037    ( 0.0000,  0.0000,  0.0000)
  15 Li     0.000000    6.468148   11.617037    ( 0.0000,  0.0000,  0.0000)
  16 Li     3.234074    6.468148   11.617037    ( 0.0000,  0.0000,  0.0000)
  17 Li     6.468148    6.468148   11.617037    ( 0.0000,  0.0000,  0.0000)
  18 Li     1.617038    1.617038   13.469728    ( 0.0000,  0.0000,  0.0000)
  19 Li     4.851111    1.617038   13.469729    ( 0.0000,  0.0000,  0.0000)
  20 Li     8.085184    1.617038   13.469728    ( 0.0000,  0.0000,  0.0000)
  21 Li     1.617038    4.851111   13.469729    ( 0.0000,  0.0000,  0.0000)
  22 Li     4.851111    4.851111   13.469730    ( 0.0000,  0.0000,  0.0000)
  23 Li     8.085184    4.851111   13.469729    ( 0.0000,  0.0000,  0.0000)
  24 Li     1.617038    8.085184   13.469728    ( 0.0000,  0.0000,  0.0000)
  25 Li     4.851111    8.085184   13.469729    ( 0.0000,  0.0000,  0.0000)
  26 Li     8.085184    8.085184   13.469728    ( 0.0000,  0.0000,  0.0000)
  27 Li    -0.000000   -0.000000   15.445939    ( 0.0000,  0.0000,  0.0000)
  28 Li     3.234074    0.000000   15.445939    ( 0.0000,  0.0000,  0.0000)
  29 Li     6.468148    0.000000   15.445939    ( 0.0000,  0.0000,  0.0000)
  30 Li     0.000000    3.234074   15.445939    ( 0.0000,  0.0000,  0.0000)
  31 Li     3.234076    3.234076   15.445938    ( 0.0000,  0.0000,  0.0000)
  32 Li     6.468146    3.234076   15.445938    ( 0.0000,  0.0000,  0.0000)
  33 Li     0.000000    6.468148   15.445939    ( 0.0000,  0.0000,  0.0000)
  34 Li     3.234076    6.468146   15.445938    ( 0.0000,  0.0000,  0.0000)
  35 Li     6.468146    6.468146   15.445938    ( 0.0000,  0.0000,  0.0000)
  36 O      9.702222    9.702222   18.445939    ( 0.0000,  0.0000,  0.0000)
  37 C      8.519814   10.518979   18.450238    ( 0.0000,  0.0000,  0.0000)
  38 C      7.235600    9.699361   18.435704    ( 0.0000,  0.0000,  0.0000)
  39 H      8.528438   11.202515   19.310398    ( 0.0000,  0.0000,  0.0000)
  40 H      8.595203   11.128705   17.547442    ( 0.0000,  0.0000,  0.0000)
  41 H      6.358673   10.353307   18.420269    ( 0.0000,  0.0000,  0.0000)
  42 H      7.200889    9.050338   17.558886    ( 0.0000,  0.0000,  0.0000)
  43 H      7.165412    9.070873   19.328265    ( 0.0000,  0.0000,  0.0000)
  44 H      9.663055    9.119245   19.214164    ( 0.0000,  0.0000,  0.0000)
  45 N      9.702000    9.702000   16.945939    ( 0.0000,  0.0000,  0.0000)
  46 N      8.605378    9.702000   16.945939    ( 0.0000,  0.0000,  0.0000)

Unit cell:
           periodic     x           y           z      points  spacing
  1. axis:    yes    9.702222    0.000000    0.000000    60     0.1617
  2. axis:    yes    0.000000    9.702222    0.000000    60     0.1617
  3. axis:    no     0.000000    0.000000   26.351111   164     0.1607

  Lengths:   9.702222   9.702222  26.351111
  Angles:   90.000000  90.000000  90.000000

Effective grid spacing dv^(1/3) = 0.1614

     iter     time        total  log10-change:
                         energy  eigst   dens
iter:   1 22:18:15  -513.759943
iter:   2 22:18:22  -135.934611  +2.52  -0.02
iter:   3 22:18:29  -135.826119  +3.12  -0.25
iter:   4 22:18:37  -237.996567  +3.04  -0.35
Writing to output.gpw (mode='')

iter:   5 22:18:44  -265.204533  +2.62  -0.41
iter:   6 22:18:51  -290.877240  +2.27  -0.68
iter:   7 22:18:58  -301.667723  +1.90  -0.71
iter:   8 22:19:06  -302.746662  +1.55  -0.69
iter:   9 22:19:13  -320.363240  +1.56  -0.75
Writing to output.gpw (mode='')

iter:  10 22:19:20  -312.326769  +1.24  -0.58
iter:  11 22:19:27  -312.145756  +1.29  -0.70
iter:  12 22:19:35  -300.853709  +0.90  -0.73
iter:  13 22:19:48  -298.792631  +0.72  -0.85
iter:  14 22:19:55  -297.815002  +0.67  -0.88
Writing to output.gpw (mode='')

iter:  15 22:20:02  -297.274798  +0.62  -0.96
iter:  16 22:20:09  -297.125297  +0.41  -1.14
iter:  17 22:20:16  -297.181978  +0.04  -1.24
iter:  18 22:20:24  -296.970783  +0.01  -1.24
iter:  19 22:20:31  -297.013019  -0.21  -1.37
Writing to output.gpw (mode='')

iter:  20 22:20:38  -296.993799  -0.45  -1.45
iter:  21 22:20:45  -296.973252  -0.57  -1.55
iter:  22 22:20:53  -296.978709c -0.76  -1.71
iter:  23 22:21:02  -296.971031c -0.92  -1.80
iter:  24 22:21:13  -296.982246c -0.98  -2.02
Writing to output.gpw (mode='')

iter:  25 22:21:22  -296.987610c -1.31  -2.14
iter:  26 22:21:29  -296.992312c -1.39  -2.21
iter:  27 22:21:37  -296.997039c -1.42  -2.26
iter:  28 22:21:44  -297.001810c -1.57  -2.36
iter:  29 22:21:51  -297.005519c -1.64  -2.58
Writing to output.gpw (mode='')

iter:  30 22:21:58  -297.008613c -1.83  -2.67
iter:  31 22:22:05  -297.011089c -1.86  -2.69
iter:  32 22:22:13  -297.012903c -1.98  -2.85
iter:  33 22:22:20  -297.014553c -2.10  -2.98
iter:  34 22:22:27  -297.016017c -2.14  -2.98
Writing to output.gpw (mode='')

iter:  35 22:22:34  -297.017639c -2.12  -2.93
iter:  36 22:22:41  -297.019153c -2.19  -2.91
iter:  37 22:22:49  -297.020140c -2.29  -2.98
iter:  38 22:22:56  -297.020809c -2.49  -3.06
iter:  39 22:23:03  -297.021502c -2.40  -3.03
Writing to output.gpw (mode='')

iter:  40 22:23:10  -297.022187c -2.41  -3.04
iter:  41 22:23:18  -297.022568c -2.83  -2.99
iter:  42 22:23:25  -297.023005c -2.76  -3.00
iter:  43 22:23:32  -297.023386c -2.79  -2.97
iter:  44 22:23:39  -297.023565c -3.03  -2.95
Writing to output.gpw (mode='')

iter:  45 22:23:46  -297.023755c -3.23  -3.06
iter:  46 22:23:54  -297.024030c -3.07  -3.07
iter:  47 22:24:01  -297.024093c -3.01  -3.20
iter:  48 22:24:08  -297.024218c -3.12  -3.19
iter:  49 22:24:15  -297.024414c -3.23  -3.36
Writing to output.gpw (mode='')

iter:  50 22:24:22  -297.024428c -3.36  -3.46
iter:  51 22:24:30  -297.024495c -3.45  -3.55
iter:  52 22:24:43  -297.024551c -3.59  -3.61
iter:  53 22:24:52  -297.024619c -3.53  -3.68
iter:  54 22:24:59  -297.024641c -3.70  -3.80
Writing to output.gpw (mode='')

iter:  55 22:25:06  -297.024671c -3.89  -3.90
iter:  56 22:25:14  -297.024708c -3.71  -3.93
iter:  57 22:25:21  -297.024727c -3.91  -3.96
iter:  58 22:25:28  -297.024750c -3.98  -4.05c
iter:  59 22:25:35  -297.024778c -4.02  -4.19c
Writing to output.gpw (mode='')

iter:  60 22:25:43  -297.024785c -4.24  -4.30c
iter:  61 22:25:50  -297.024793c -4.25  -4.41c
iter:  62 22:25:57  -297.024804c -4.21  -4.43c
iter:  63 22:26:05  -297.024809c -4.48  -4.47c
iter:  64 22:26:14  -297.024815c -4.54  -4.46c
Writing to output.gpw (mode='')

iter:  65 22:26:22  -297.024821c -4.31  -4.45c
iter:  66 22:26:29  -297.024825c -4.57  -4.40c
iter:  67 22:26:36  -297.024826c -4.53  -4.31c
iter:  68 22:26:43  -297.024829c -4.78  -4.37c
iter:  69 22:26:50  -297.024832c -4.92  -4.38c
Writing to output.gpw (mode='')

iter:  70 22:26:58  -297.024831c -4.96  -4.36c
iter:  71 22:27:05  -297.024835c -4.79  -4.31c
iter:  72 22:27:12  -297.024835c -5.03  -4.33c
iter:  73 22:27:19  -297.024837c -4.91  -4.35c
iter:  74 22:27:27  -297.024840c -5.00  -4.29c
Writing to output.gpw (mode='')

iter:  75 22:27:34  -297.024840c -5.23  -4.27c
iter:  76 22:27:41  -297.024845c -5.23  -4.19c
iter:  77 22:27:48  -297.024843c -5.19  -4.18c
iter:  78 22:27:55  -297.024844c -5.28  -4.30c
iter:  79 22:28:03  -297.024847c -5.24  -4.40c
Writing to output.gpw (mode='')

iter:  80 22:28:10  -297.024847c -5.41  -4.55c
iter:  81 22:28:17  -297.024845c -5.40  -4.66c
iter:  82 22:28:24  -297.024846c -5.49  -4.69c
iter:  83 22:28:31  -297.024847c -5.41  -4.72c
iter:  84 22:28:39  -297.024849c -5.41  -4.81c
Writing to output.gpw (mode='')

iter:  85 22:28:46  -297.024848c -5.76  -4.97c
iter:  86 22:28:53  -297.024848c -5.90  -5.09c
iter:  87 22:29:00  -297.024849c -5.85  -5.19c
iter:  88 22:29:07  -297.024849c -5.87  -5.30c
iter:  89 22:29:15  -297.024849c -6.23  -5.50c
Writing to output.gpw (mode='')

iter:  90 22:29:22  -297.024849c -6.17  -5.57c
iter:  91 22:29:29  -297.024849c -6.08  -5.62c
iter:  92 22:29:43  -297.024849c -6.18  -5.77c
iter:  93 22:29:51  -297.024849c -6.31  -5.82c
iter:  94 22:29:58  -297.024849c -6.26  -5.79c
Writing to output.gpw (mode='')

iter:  95 22:30:05  -297.024849c -6.28  -5.72c
iter:  96 22:30:13  -297.024849c -6.57  -5.71c
iter:  97 22:30:20  -297.024849c -6.41  -5.66c
iter:  98 22:30:27  -297.024849c -6.51  -5.64c
iter:  99 22:30:34  -297.024849c -6.75  -5.61c
Writing to output.gpw (mode='')

iter: 100 22:30:41  -297.024849c -6.76  -5.60c
iter: 101 22:30:49  -297.024849c -6.51  -5.56c
iter: 102 22:30:56  -297.024849c -6.69  -5.52c
iter: 103 22:31:03  -297.024849c -6.93  -5.48c
iter: 104 22:31:10  -297.024849c -6.81  -5.49c
Writing to output.gpw (mode='')

iter: 105 22:31:18  -297.024849c -7.05  -5.48c
iter: 106 22:31:25  -297.024849c -7.18  -5.43c
iter: 107 22:31:32  -297.024848c -6.90  -5.48c
iter: 108 22:31:39  -297.024848c -7.14  -5.43c
iter: 109 22:31:46  -297.024849c -7.13  -5.28c
Writing to output.gpw (mode='')

iter: 110 22:31:54  -297.024849c -7.00  -5.43c
iter: 111 22:32:01  -297.024849c -7.28  -5.37c
iter: 112 22:32:08  -297.024849c -7.04  -5.47c
iter: 113 22:32:15  -297.024849c -7.10  -5.38c
iter: 114 22:32:22  -297.024849c -7.08  -5.44c
Writing to output.gpw (mode='')

iter: 115 22:32:30  -297.024849c -7.12  -5.48c
iter: 116 22:32:37  -297.024849c -7.36  -5.52c
iter: 117 22:32:44  -297.024849c -7.38  -5.56c
iter: 118 22:32:51  -297.024849c -7.46c -5.69c

Converged after 118 iterations.

Dipole moment: (-7.898619, -17.148975, 0.417817) |e|*Ang

Energy contributions relative to reference atoms: (reference = -14434.854043)

Kinetic:       +209.472200
Potential:     -182.203561
External:        +0.000000
XC:            -324.986843
Entropy (-ST):   -0.150954
Local:           +0.768833
--------------------------
Free energy:   -297.100326
Extrapolated:  -297.024849

Dipole-layer corrected work functions: 3.374986, 2.571798 eV

Showing only first 2 kpts
 Kpt  Band  Eigenvalues  Occupancy
  0    31     -3.22504    1.98705
  0    32     -3.12900    1.91479
  0    33     -2.79384    0.05366
  0    34     -2.77456    0.03680

  1    31     -3.02957    1.50930
  1    32     -2.99089    1.17319
  1    33     -2.91631    0.48406
  1    34     -2.87178    0.23172


Fermi level: -2.97339

Gap: 0.022 eV
Transition (v -> c):
  (s=0, k=1, n=32, [0.12, -0.12, 0.00]) -> (s=0, k=4, n=33, [0.38, -0.38, 0.00])
Writing to output.gpw (mode='')


Forces in eV/Ang:
  0 Li    0.01240    0.00543   -0.27836
  1 Li   -0.00627   -0.00437   -0.26504
  2 Li   -0.00378    0.01209   -0.27632
  3 Li   -0.00382   -0.00293   -0.26601
  4 Li   -0.00121   -0.00117   -0.28005
  5 Li    0.00124    0.00096   -0.26651
  6 Li    0.01221   -0.00367   -0.27494
  7 Li   -0.00403    0.00372   -0.26451
  8 Li   -0.00768   -0.01202   -0.27412
  9 Li   -0.00356   -0.00485    0.33844
 10 Li    0.00134    0.00045    0.25268
 11 Li   -0.00330    0.00276    0.27253
 12 Li   -0.00066    0.01985    0.25086
 13 Li   -0.00052   -0.00317    0.26282
 14 Li    0.00307    0.00029    0.26457
 15 Li   -0.00075   -0.01818    0.26505
 16 Li    0.01470    0.00486    0.25372
 17 Li   -0.00974   -0.00349    0.26292
 18 Li   -0.00752    0.01613   -0.02199
 19 Li    0.01182   -0.01929    0.08139
 20 Li   -0.00391    0.03491   -0.06120
 21 Li    0.00677    0.00811    0.04963
 22 Li   -0.01218   -0.00293    0.00198
 23 Li    0.00592    0.00041    0.06725
 24 Li    0.00969   -0.02022   -0.03359
 25 Li    0.01016    0.02327    0.07616
 26 Li   -0.01827   -0.03889   -0.06453
 27 Li    0.82809   -0.00546   -7.14981
 28 Li    0.04048    0.00259   -0.03124
 29 Li    0.10996    0.00534   -0.05301
 30 Li    0.04036    0.15164   -0.08912
 31 Li    0.01400    0.00384   -0.01707
 32 Li   -0.04518    0.07205   -0.05871
 33 Li    0.00794   -0.09823   -0.06371
 34 Li    0.01711   -0.00771   -0.02872
 35 Li   -0.03598   -0.05471   -0.04548
 36 O     3.70624    1.88937   11.40716
 37 C    -2.86946    2.45572    3.86191
 38 C    -2.25162   -0.10435    2.51527
 39 H     0.34732   -0.29248    0.71862
 40 H    -0.66731    2.24329    1.63379
 41 H    -0.05923    0.15950    0.21306
 42 H    -1.16397   -0.34166    1.28556
 43 H    -0.09228    0.07676    0.26058
 44 H     0.69922   -1.00114    1.35701
 45 N     7.39360   -3.03264   -1.90926
 46 N    -5.95992   -2.10567  -13.85393

System changes: positions 

Initializing position-dependent things.

Density initialized from wave functions
       .-----------------------.  
      /|                       |  
     / |                       |  
    /  |                       |  
   /   |                       |  
  /    |                       |  
 *     |                       |  
 |     |                       |  
 |     |                       |  
 |     |                H      H  
 |     |                 C     |  
 |     N                H   N  |  
 |     |                       |  
 |     Li                      |  
 |     |               H       |  
 |   Li|     Li  H   LiC       |  
 O     |               H       |  
 | Li  |  LLi     LLi     Li   |  
 |     |                       |  
 |     |LLi     LLi     Li     |  
 |   Li|     Li      Li        |  
 |    Li  Li  Li  Li  Li  Li   |  
 | Li  |   Li      Li          |  
 |     |Li      Li      Li     |  
 Li    | Li      Li            |  
 |    Li      Li      Li       |  
 |     |                       |  
 |     |                       |  
 |     |                       |  
 |     |                       |  
 |     |                       |  
 |     |                       |  
 |     .-----------------------.  
 |    /                       /   
 |   /                       /    
 |  /                       /     
 | /                       /      
 |/                       /       
 *-----------------------*        

Positions:
   0 Li     1.617037    1.617037   10.000000    ( 0.0000,  0.0000,  0.0000)
   1 Li     4.851111    1.617037   10.000000    ( 0.0000,  0.0000,  0.0000)
   2 Li     8.085185    1.617037   10.000000    ( 0.0000,  0.0000,  0.0000)
   3 Li     1.617037    4.851111   10.000000    ( 0.0000,  0.0000,  0.0000)
   4 Li     4.851111    4.851111   10.000000    ( 0.0000,  0.0000,  0.0000)
   5 Li     8.085185    4.851111   10.000000    ( 0.0000,  0.0000,  0.0000)
   6 Li     1.617037    8.085185   10.000000    ( 0.0000,  0.0000,  0.0000)
   7 Li     4.851111    8.085185   10.000000    ( 0.0000,  0.0000,  0.0000)
   8 Li     8.085185    8.085185   10.000000    ( 0.0000,  0.0000,  0.0000)
   9 Li     0.000000    0.000000   11.617037    ( 0.0000,  0.0000,  0.0000)
  10 Li     3.234074    0.000000   11.617037    ( 0.0000,  0.0000,  0.0000)
  11 Li     6.468148    0.000000   11.617037    ( 0.0000,  0.0000,  0.0000)
  12 Li     0.000000    3.234074   11.617037    ( 0.0000,  0.0000,  0.0000)
  13 Li     3.234074    3.234074   11.617037    ( 0.0000,  0.0000,  0.0000)
  14 Li     6.468148    3.234074   11.617037    ( 0.0000,  0.0000,  0.0000)
  15 Li     0.000000    6.468148   11.617037    ( 0.0000,  0.0000,  0.0000)
  16 Li     3.234074    6.468148   11.617037    ( 0.0000,  0.0000,  0.0000)
  17 Li     6.468148    6.468148   11.617037    ( 0.0000,  0.0000,  0.0000)
  18 Li     1.617018    1.617080   13.469670    ( 0.0000,  0.0000,  0.0000)
  19 Li     4.851142    1.616988   13.469943    ( 0.0000,  0.0000,  0.0000)
  20 Li     8.085174    1.617130   13.469567    ( 0.0000,  0.0000,  0.0000)
  21 Li     1.617056    4.851132   13.469860    ( 0.0000,  0.0000,  0.0000)
  22 Li     4.851079    4.851103   13.469735    ( 0.0000,  0.0000,  0.0000)
  23 Li     8.085199    4.851112   13.469906    ( 0.0000,  0.0000,  0.0000)
  24 Li     1.617064    8.085131   13.469640    ( 0.0000,  0.0000,  0.0000)
  25 Li     4.851138    8.085245   13.469930    ( 0.0000,  0.0000,  0.0000)
  26 Li     8.085136    8.085082   13.469558    ( 0.0000,  0.0000,  0.0000)
  27 Li     0.002175   -0.000014   15.427158    ( 0.0000,  0.0000,  0.0000)
  28 Li     3.234180    0.000007   15.445857    ( 0.0000,  0.0000,  0.0000)
  29 Li     6.468437    0.000014   15.445800    ( 0.0000,  0.0000,  0.0000)
  30 Li     0.000106    3.234472   15.445705    ( 0.0000,  0.0000,  0.0000)
  31 Li     3.234113    3.234087   15.445893    ( 0.0000,  0.0000,  0.0000)
  32 Li     6.468027    3.234266   15.445784    ( 0.0000,  0.0000,  0.0000)
  33 Li     0.000021    6.467890   15.445771    ( 0.0000,  0.0000,  0.0000)
  34 Li     3.234121    6.468125   15.445863    ( 0.0000,  0.0000,  0.0000)
  35 Li     6.468051    6.468002   15.445819    ( 0.0000,  0.0000,  0.0000)
  36 O      9.711957    9.707185   18.475903    ( 0.0000,  0.0000,  0.0000)
  37 C      8.512277   10.525430   18.460382    ( 0.0000,  0.0000,  0.0000)
  38 C      7.229685    9.699087   18.442311    ( 0.0000,  0.0000,  0.0000)
  39 H      8.529350   11.201746   19.312285    ( 0.0000,  0.0000,  0.0000)
  40 H      8.593450   11.134598   17.551734    ( 0.0000,  0.0000,  0.0000)
  41 H      6.358518   10.353726   18.420829    ( 0.0000,  0.0000,  0.0000)
  42 H      7.197831    9.049441   17.562263    ( 0.0000,  0.0000,  0.0000)
  43 H      7.165170    9.071075   19.328950    ( 0.0000,  0.0000,  0.0000)
  44 H      9.664892    9.116616   19.217729    ( 0.0000,  0.0000,  0.0000)
  45 N      9.721421    9.694034   16.940924    ( 0.0000,  0.0000,  0.0000)
  46 N      8.589723    9.696469   16.909548    ( 0.0000,  0.0000,  0.0000)

Unit cell:
           periodic     x           y           z      points  spacing
  1. axis:    yes    9.702222    0.000000    0.000000    60     0.1617
  2. axis:    yes    0.000000    9.702222    0.000000    60     0.1617
  3. axis:    no     0.000000    0.000000   26.351111   164     0.1607

  Lengths:   9.702222   9.702222  26.351111
  Angles:   90.000000  90.000000  90.000000

Effective grid spacing dv^(1/3) = 0.1614

     iter     time        total  log10-change:
                         energy  eigst   dens
iter:   1 22:33:00  -298.730883  -0.37
iter:   2 22:33:07  -298.549719  -0.72  -1.43
iter:   3 22:33:15  -298.390875  -0.86  -1.41
iter:   4 22:33:22  -298.332115  -1.37  -1.69
Writing to output.gpw (mode='')

iter:   5 22:33:29  -298.316395  -1.23  -2.02
iter:   6 22:33:36  -298.315234c -1.26  -2.19
iter:   7 22:33:44  -298.312601c -1.94  -2.30
iter:   8 22:33:51  -298.313796c -2.14  -2.52
iter:   9 22:33:58  -298.313678c -2.54  -2.47
Writing to output.gpw (mode='')

iter:  10 22:34:06  -298.313264c -2.74  -2.59
iter:  11 22:34:13  -298.313387c -2.65  -2.69
iter:  12 22:34:20  -298.313326c -3.23  -2.91
iter:  13 22:34:27  -298.313462c -3.16  -3.00
iter:  14 22:34:35  -298.313675c -3.13  -3.03
Writing to output.gpw (mode='')

iter:  15 22:34:48  -298.313603c -3.84  -3.01
iter:  16 22:34:55  -298.313637c -3.73  -3.22
iter:  17 22:35:03  -298.313634c -3.75  -3.34
iter:  18 22:35:10  -298.313642c -3.94  -3.41
iter:  19 22:35:17  -298.313669c -3.79  -3.45
Writing to output.gpw (mode='')

iter:  20 22:35:25  -298.313669c -4.32  -3.35
iter:  21 22:35:32  -298.313677c -4.38  -3.71
iter:  22 22:35:39  -298.313676c -4.85  -3.86
iter:  23 22:35:46  -298.313676c -4.88  -3.91
iter:  24 22:35:53  -298.313677c -4.93  -3.90
Writing to output.gpw (mode='')

iter:  25 22:36:01  -298.313675c -4.91  -3.91
iter:  26 22:36:08  -298.313667c -5.19  -3.95
iter:  27 22:36:15  -298.313666c -5.26  -4.18c
iter:  28 22:36:23  -298.313665c -5.15  -4.36c
iter:  29 22:36:30  -298.313665c -5.38  -4.36c
Writing to output.gpw (mode='')

iter:  30 22:36:37  -298.313669c -5.43  -4.38c
iter:  31 22:36:44  -298.313669c -5.67  -4.58c
iter:  32 22:36:52  -298.313671c -5.89  -4.67c
iter:  33 22:36:59  -298.313672c -5.69  -4.76c
iter:  34 22:37:06  -298.313672c -5.74  -4.93c
Writing to output.gpw (mode='')

iter:  35 22:37:13  -298.313671c -5.91  -4.92c
iter:  36 22:37:21  -298.313671c -6.07  -5.03c
iter:  37 22:37:28  -298.313672c -6.33  -5.04c
iter:  38 22:37:35  -298.313672c -6.28  -5.15c
iter:  39 22:37:43  -298.313671c -6.35  -5.24c
Writing to output.gpw (mode='')

iter:  40 22:37:50  -298.313671c -6.51  -5.34c
iter:  41 22:37:57  -298.313671c -6.64  -5.39c
iter:  42 22:38:04  -298.313671c -6.54  -5.51c
iter:  43 22:38:12  -298.313671c -6.56  -5.55c
iter:  44 22:38:19  -298.313671c -6.76  -5.69c
Writing to output.gpw (mode='')

iter:  45 22:38:26  -298.313671c -6.81  -5.72c
iter:  46 22:38:34  -298.313671c -7.01  -5.74c
iter:  47 22:38:41  -298.313671c -7.07  -5.79c
iter:  48 22:38:48  -298.313671c -7.18  -5.98c
iter:  49 22:38:55  -298.313671c -7.20  -5.97c
Writing to output.gpw (mode='')

iter:  50 22:39:03  -298.313671c -7.23  -6.07c
iter:  51 22:39:10  -298.313671c -7.18  -5.99c
iter:  52 22:39:17  -298.313671c -7.22  -6.09c
iter:  53 22:39:25  -298.313671c -7.35  -6.12c
iter:  54 22:39:32  -298.313671c -7.59c -6.26c

Converged after 54 iterations.

Dipole moment: (-10.736131, -16.192736, 0.413203) |e|*Ang

Energy contributions relative to reference atoms: (reference = -14434.854043)

Kinetic:       +200.182115
Potential:     -175.612287
External:        +0.000000
XC:            -323.578948
Entropy (-ST):   -0.151729
Local:           +0.771314
--------------------------
Free energy:   -298.389535
Extrapolated:  -298.313671

Dipole-layer corrected work functions: 3.376247, 2.581929 eV

Showing only first 2 kpts
 Kpt  Band  Eigenvalues  Occupancy
  0    31     -3.22926    1.98666
  0    32     -3.12833    1.90377
  0    33     -2.83028    0.09704
  0    34     -2.77490    0.03313

  1    31     -3.04140    1.55333
  1    32     -2.99493    1.15707
  1    33     -2.91449    0.43101
  1    34     -2.87109    0.20682


Fermi level: -2.97909

Gap: 0.024 eV
Transition (v -> c):
  (s=0, k=1, n=32, [0.12, -0.12, 0.00]) -> (s=0, k=4, n=33, [0.38, -0.38, 0.00])
Writing to output.gpw (mode='')


Forces in eV/Ang:
  0 Li    0.01400    0.00552   -0.28039
  1 Li   -0.00713   -0.00503   -0.26382
  2 Li   -0.00434    0.01273   -0.27794
  3 Li   -0.00453   -0.00313   -0.26441
  4 Li   -0.00067   -0.00101   -0.28101
  5 Li    0.00154    0.00158   -0.26498
  6 Li    0.01310   -0.00352   -0.27694
  7 Li   -0.00409    0.00461   -0.26348
  8 Li   -0.00833   -0.01292   -0.27637
  9 Li   -0.00412   -0.00451    0.34688
 10 Li    0.00248    0.00025    0.25146
 11 Li   -0.00415    0.00254    0.27315
 12 Li   -0.00018    0.01883    0.25232
 13 Li    0.00016   -0.00260    0.26233
 14 Li    0.00226    0.00291    0.26381
 15 Li   -0.00071   -0.01743    0.26629
 16 Li    0.01429    0.00427    0.25374
 17 Li   -0.00913   -0.00616    0.26310
 18 Li   -0.00166    0.01931   -0.03269
 19 Li    0.01229   -0.02101    0.08301
 20 Li   -0.00943    0.03897   -0.07431
 21 Li    0.00359    0.00836    0.05337
 22 Li   -0.01275   -0.00217    0.00023
 23 Li    0.00845   -0.00122    0.07184
 24 Li    0.01567   -0.02355   -0.04656
 25 Li    0.01009    0.02369    0.07662
 26 Li   -0.02284   -0.04195   -0.07433
 27 Li    0.81403    0.01669   -6.73940
 28 Li    0.03523    0.00333   -0.02529
 29 Li    0.15548    0.00280   -0.02095
 30 Li    0.04230    0.14626   -0.08445
 31 Li    0.01512    0.00563   -0.01732
 32 Li   -0.05048    0.07420   -0.06087
 33 Li    0.00417   -0.08765   -0.05216
 34 Li    0.02000   -0.01088   -0.02993
 35 Li   -0.03735   -0.05563   -0.04394
 36 O     2.55298    2.57958    8.99338
 37 C    -2.26618    2.01585    3.30413
 38 C    -1.81426   -0.08811    2.11469
 39 H     0.25427   -0.10922    0.90184
 40 H    -0.58789    1.84511    1.70562
 41 H    -0.15707    0.21319    0.22345
 42 H    -1.07681   -0.27383    1.33603
 43 H    -0.13422   -0.01203    0.39760
 44 H     0.46547   -1.41374    1.71281
 45 N     3.05860   -2.83681   -1.50157
 46 N    -1.30484   -2.00148  -12.15623

System changes: positions 

Initializing position-dependent things.

Density initialized from wave functions
       .-----------------------.  
      /|                       |  
     / |                       |  
    /  |                       |  
   /   |                       |  
  /    |                       |  
 *     |                       |  
 |     |                       |  
 |     |                       |  
 |     |                H      H  
 |     |                 C     |  
 |     N                H      |  
 |     |                    N  |  
 |     |                       |  
 |     |               H       |  
 |   Li|     Li  H   LiC       |  
 O     |               H       |  
 | Li  |  LLi     LLi     Li   |  
 |     |                       |  
 Li    |LLi     LLi     Li     |  
 |   Li|     Li      Li        |  
 |    Li  Li  Li  Li  Li  Li   |  
 | Li  |   Li      Li          |  
 |     |Li      Li      Li     |  
 Li    | Li      Li            |  
 |    Li      Li      Li       |  
 |     |                       |  
 |     |                       |  
 |     |                       |  
 |     |                       |  
 |     |                       |  
 |     |                       |  
 |     .-----------------------.  
 |    /                       /   
 |   /                       /    
 |  /                       /     
 | /                       /      
 |/                       /       
 *-----------------------*        

Positions:
   0 Li     1.617037    1.617037   10.000000    ( 0.0000,  0.0000,  0.0000)
   1 Li     4.851111    1.617037   10.000000    ( 0.0000,  0.0000,  0.0000)
   2 Li     8.085185    1.617037   10.000000    ( 0.0000,  0.0000,  0.0000)
   3 Li     1.617037    4.851111   10.000000    ( 0.0000,  0.0000,  0.0000)
   4 Li     4.851111    4.851111   10.000000    ( 0.0000,  0.0000,  0.0000)
   5 Li     8.085185    4.851111   10.000000    ( 0.0000,  0.0000,  0.0000)
   6 Li     1.617037    8.085185   10.000000    ( 0.0000,  0.0000,  0.0000)
   7 Li     4.851111    8.085185   10.000000    ( 0.0000,  0.0000,  0.0000)
   8 Li     8.085185    8.085185   10.000000    ( 0.0000,  0.0000,  0.0000)
   9 Li     0.000000    0.000000   11.617037    ( 0.0000,  0.0000,  0.0000)
  10 Li     3.234074    0.000000   11.617037    ( 0.0000,  0.0000,  0.0000)
  11 Li     6.468148    0.000000   11.617037    ( 0.0000,  0.0000,  0.0000)
  12 Li     0.000000    3.234074   11.617037    ( 0.0000,  0.0000,  0.0000)
  13 Li     3.234074    3.234074   11.617037    ( 0.0000,  0.0000,  0.0000)
  14 Li     6.468148    3.234074   11.617037    ( 0.0000,  0.0000,  0.0000)
  15 Li     0.000000    6.468148   11.617037    ( 0.0000,  0.0000,  0.0000)
  16 Li     3.234074    6.468148   11.617037    ( 0.0000,  0.0000,  0.0000)
  17 Li     6.468148    6.468148   11.617037    ( 0.0000,  0.0000,  0.0000)
  18 Li     1.617028    1.617158   13.469525    ( 0.0000,  0.0000,  0.0000)
  19 Li     4.851187    1.616908   13.470243    ( 0.0000,  0.0000,  0.0000)
  20 Li     8.085125    1.617279   13.469267    ( 0.0000,  0.0000,  0.0000)
  21 Li     1.617060    4.851163   13.470060    ( 0.0000,  0.0000,  0.0000)
  22 Li     4.851032    4.851098   13.469732    ( 0.0000,  0.0000,  0.0000)
  23 Li     8.085236    4.851103   13.470174    ( 0.0000,  0.0000,  0.0000)
  24 Li     1.617135    8.085038   13.469439    ( 0.0000,  0.0000,  0.0000)
  25 Li     4.851173    8.085330   13.470203    ( 0.0000,  0.0000,  0.0000)
  26 Li     8.085042    8.084924   13.469268    ( 0.0000,  0.0000,  0.0000)
  27 Li     0.005030    0.000105   15.404322    ( 0.0000,  0.0000,  0.0000)
  28 Li     3.234291    0.000021   15.445783    ( 0.0000,  0.0000,  0.0000)
  29 Li     6.469113    0.000017   15.445812    ( 0.0000,  0.0000,  0.0000)
  30 Li     0.000262    3.234977   15.445417    ( 0.0000,  0.0000,  0.0000)
  31 Li     3.234170    3.234111   15.445831    ( 0.0000,  0.0000,  0.0000)
  32 Li     6.467833    3.234535   15.445562    ( 0.0000,  0.0000,  0.0000)
  33 Li     0.000025    6.467607   15.445617    ( 0.0000,  0.0000,  0.0000)
  34 Li     3.234200    6.468078   15.445753    ( 0.0000,  0.0000,  0.0000)
  35 Li     6.467915    6.467802   15.445667    ( 0.0000,  0.0000,  0.0000)
  36 O      9.717900    9.718226   18.501312    ( 0.0000,  0.0000,  0.0000)
  37 C      8.505861   10.531400   18.470610    ( 0.0000,  0.0000,  0.0000)
  38 C      7.224425    9.698818   18.448739    ( 0.0000,  0.0000,  0.0000)
  39 H      8.530001   11.201856   19.315988    ( 0.0000,  0.0000,  0.0000)
  40 H      8.591577   11.140074   17.557990    ( 0.0000,  0.0000,  0.0000)
  41 H      6.357694   10.354630   18.421651    ( 0.0000,  0.0000,  0.0000)
  42 H      7.194241    9.048652   17.567148    ( 0.0000,  0.0000,  0.0000)
  43 H      7.164579    9.070791   19.330735    ( 0.0000,  0.0000,  0.0000)
  44 H      9.665911    9.110471   19.224781    ( 0.0000,  0.0000,  0.0000)
  45 N      9.720525    9.684484   16.936695    ( 0.0000,  0.0000,  0.0000)
  46 N      8.597721    9.689639   16.870956    ( 0.0000,  0.0000,  0.0000)

Unit cell:
           periodic     x           y           z      points  spacing
  1. axis:    yes    9.702222    0.000000    0.000000    60     0.1617
  2. axis:    yes    0.000000    9.702222    0.000000    60     0.1617
  3. axis:    no     0.000000    0.000000   26.351111   164     0.1607

  Lengths:   9.702222   9.702222  26.351111
  Angles:   90.000000  90.000000  90.000000

Effective grid spacing dv^(1/3) = 0.1614

     iter     time        total  log10-change:
                         energy  eigst   dens
iter:   1 22:39:47  -299.457995  -0.75
iter:   2 22:39:54  -299.376947  -0.84  -1.59
iter:   3 22:40:01  -299.347650  -1.57  -1.73
iter:   4 22:40:09  -299.337386  -1.18  -2.12
Writing to output.gpw (mode='')

iter:   5 22:40:16  -299.345972c -1.76  -2.13
iter:   6 22:40:23  -299.360170c -1.64  -2.20
iter:   7 22:40:30  -299.333723c -1.94  -2.04
iter:   8 22:40:37  -299.331661c -2.14  -2.52
iter:   9 22:40:45  -299.332455c -2.75  -2.64
Writing to output.gpw (mode='')

iter:  10 22:40:52  -299.333316c -2.72  -2.70
iter:  11 22:40:59  -299.331776c -2.26  -2.65
iter:  12 22:41:06  -299.331845c -3.13  -2.73
iter:  13 22:41:13  -299.331859c -3.46  -3.07
iter:  14 22:41:20  -299.331665c -3.21  -3.07
Writing to output.gpw (mode='')

iter:  15 22:41:28  -299.331869c -3.59  -3.15
iter:  16 22:41:35  -299.331806c -3.92  -3.31
iter:  17 22:41:42  -299.331825c -4.03  -3.40
iter:  18 22:41:49  -299.331829c -4.07  -3.65
iter:  19 22:41:57  -299.331848c -4.33  -3.71
Writing to output.gpw (mode='')

iter:  20 22:42:04  -299.331852c -4.51  -3.72
iter:  21 22:42:11  -299.331889c -4.50  -3.91
iter:  22 22:42:21  -299.331889c -4.94  -4.01c
iter:  23 22:42:28  -299.331887c -4.81  -4.07c
iter:  24 22:42:36  -299.331895c -4.95  -4.18c
Writing to output.gpw (mode='')

iter:  25 22:42:43  -299.331895c -5.03  -4.33c
iter:  26 22:42:50  -299.331899c -5.00  -4.34c
iter:  27 22:42:57  -299.331900c -5.06  -4.42c
iter:  28 22:43:05  -299.331904c -5.35  -4.45c
iter:  29 22:43:12  -299.331908c -5.42  -4.52c
Writing to output.gpw (mode='')

iter:  30 22:43:19  -299.331908c -5.54  -4.65c
iter:  31 22:43:26  -299.331907c -5.64  -4.71c
iter:  32 22:43:33  -299.331909c -5.74  -4.74c
iter:  33 22:43:40  -299.331910c -5.86  -4.81c
iter:  34 22:43:47  -299.331912c -6.00  -4.91c
Writing to output.gpw (mode='')

iter:  35 22:43:55  -299.331913c -6.13  -5.03c
iter:  36 22:44:02  -299.331914c -6.15  -5.08c
iter:  37 22:44:09  -299.331914c -6.34  -5.10c
iter:  38 22:44:16  -299.331913c -6.23  -5.19c
iter:  39 22:44:23  -299.331914c -6.23  -5.38c
Writing to output.gpw (mode='')

iter:  40 22:44:30  -299.331914c -6.38  -5.46c
iter:  41 22:44:43  -299.331915c -6.47  -5.44c
iter:  42 22:44:52  -299.331915c -6.51  -5.49c
iter:  43 22:44:59  -299.331916c -6.66  -5.67c
iter:  44 22:45:06  -299.331915c -6.71  -5.69c
Writing to output.gpw (mode='')

iter:  45 22:45:13  -299.331916c -6.95  -5.75c
iter:  46 22:45:20  -299.331916c -6.81  -5.87c
iter:  47 22:45:27  -299.331916c -7.08  -5.99c
iter:  48 22:45:35  -299.331916c -7.13  -5.88c
iter:  49 22:45:42  -299.331916c -7.04  -5.72c
Writing to output.gpw (mode='')

iter:  50 22:45:49  -299.331916c -7.23  -5.68c
iter:  51 22:45:56  -299.331916c -7.34  -5.57c
iter:  52 22:46:03  -299.331916c -7.10  -5.57c
iter:  53 22:46:10  -299.331916c -7.39  -5.50c
iter:  54 22:46:17  -299.331916c -7.54c -5.50c

Converged after 54 iterations.

Dipole moment: (-11.197743, -15.401095, 0.434112) |e|*Ang

Energy contributions relative to reference atoms: (reference = -14434.854043)

Kinetic:       +197.362656
Potential:     -174.194571
External:        +0.000000
XC:            -323.195937
Entropy (-ST):   -0.150939
Local:           +0.771405
--------------------------
Free energy:   -299.407385
Extrapolated:  -299.331916

Dipole-layer corrected work functions: 3.375959, 2.541447 eV

Showing only first 2 kpts
 Kpt  Band  Eigenvalues  Occupancy
  0    31     -3.20968    1.98687
  0    32     -3.10829    1.90441
  0    33     -2.80724    0.09224
  0    34     -2.74718    0.02868

  1    31     -3.01916    1.54027
  1    32     -2.97698    1.18074
  1    33     -2.89469    0.43499
  1    34     -2.85372    0.21825


Fermi level: -2.95870

Gap: 0.024 eV
Transition (v -> c):
  (s=0, k=1, n=32, [0.12, -0.12, 0.00]) -> (s=0, k=7, n=33, [0.38, 0.38, 0.00])
Writing to output.gpw (mode='')


Forces in eV/Ang:
  0 Li    0.01407    0.00561   -0.28086
  1 Li   -0.00671   -0.00531   -0.26304
  2 Li   -0.00486    0.01311   -0.27813
  3 Li   -0.00501   -0.00291   -0.26362
  4 Li   -0.00032   -0.00104   -0.28210
  5 Li    0.00181    0.00112   -0.26391
  6 Li    0.01344   -0.00353   -0.27793
  7 Li   -0.00409    0.00502   -0.26253
  8 Li   -0.00846   -0.01292   -0.27716
  9 Li   -0.00464   -0.00408    0.35191
 10 Li    0.00353    0.00021    0.25021
 11 Li   -0.00475    0.00223    0.27275
 12 Li    0.00012    0.01874    0.25219
 13 Li    0.00118   -0.00269    0.26153
 14 Li    0.00109    0.00507    0.26215
 15 Li   -0.00036   -0.01755    0.26583
 16 Li    0.01332    0.00409    0.25448
 17 Li   -0.00866   -0.00772    0.26269
 18 Li    0.00300    0.02207   -0.03722
 19 Li    0.01292   -0.02103    0.08372
 20 Li   -0.01376    0.04334   -0.07638
 21 Li    0.00265    0.00781    0.05566
 22 Li   -0.01262   -0.00180   -0.00178
 23 Li    0.00900   -0.00107    0.07268
 24 Li    0.01957   -0.02624   -0.05211
 25 Li    0.01061    0.02326    0.07761
 26 Li   -0.02621   -0.04540   -0.07927
 27 Li    0.89878    0.04790   -6.34972
 28 Li    0.03728    0.00356   -0.02638
 29 Li    0.15397    0.00403   -0.02723
 30 Li    0.03925    0.14991   -0.09055
 31 Li    0.01474    0.00575   -0.01766
 32 Li   -0.04864    0.07098   -0.06217
 33 Li    0.00387   -0.09335   -0.05504
 34 Li    0.02029   -0.01150   -0.02940
 35 Li   -0.03809   -0.05614   -0.04487
 36 O     1.90396    2.76076    7.98081
 37 C    -1.82852    1.72961    3.00306
 38 C    -1.33549   -0.06306    1.67400
 39 H     0.13660    0.05296    0.98903
 40 H    -0.56495    1.53149    1.77538
 41 H    -0.21321    0.22618    0.21696
 42 H    -0.96050   -0.19950    1.29953
 43 H    -0.16392   -0.07435    0.48044
 44 H     0.27807   -1.37941    1.64285
 45 N     3.24451   -2.79070   -1.70617
 46 N    -1.50761   -1.92883  -10.66502

System changes: positions 

Initializing position-dependent things.

Density initialized from wave functions
       .-----------------------.  
      /|                       |  
     / |                       |  
    /  |                       |  
   /   |                       |  
  /    |                       |  
 *     |                       |  
 |     |                       |  
 |     |                       |  
 |     |                H      H  
 |     |                 C     |  
 |     N                H      |  
 |     |                    N  |  
 |     |                       |  
 |     |               H       |  
 O   Li|     Li  H   LiC       |  
 |     |               H       |  
 | Li  |  LLi     LLi     Li   |  
 |     |                       |  
 Li    |LLi     LLi     Li     |  
 |   Li|     Li      Li        |  
 |    Li  Li  Li  Li  Li  Li   |  
 | Li  |   Li      Li          |  
 |     |Li      Li      Li     |  
 Li    | Li      Li            |  
 |    Li      Li      Li       |  
 |     |                       |  
 |     |                       |  
 |     |                       |  
 |     |                       |  
 |     |                       |  
 |     |                       |  
 |     .-----------------------.  
 |    /                       /   
 |   /                       /    
 |  /                       /     
 | /                       /      
 |/                       /       
 *-----------------------*        

Positions:
   0 Li     1.617037    1.617037   10.000000    ( 0.0000,  0.0000,  0.0000)
   1 Li     4.851111    1.617037   10.000000    ( 0.0000,  0.0000,  0.0000)
   2 Li     8.085185    1.617037   10.000000    ( 0.0000,  0.0000,  0.0000)
   3 Li     1.617037    4.851111   10.000000    ( 0.0000,  0.0000,  0.0000)
   4 Li     4.851111    4.851111   10.000000    ( 0.0000,  0.0000,  0.0000)
   5 Li     8.085185    4.851111   10.000000    ( 0.0000,  0.0000,  0.0000)
   6 Li     1.617037    8.085185   10.000000    ( 0.0000,  0.0000,  0.0000)
   7 Li     4.851111    8.085185   10.000000    ( 0.0000,  0.0000,  0.0000)
   8 Li     8.085185    8.085185   10.000000    ( 0.0000,  0.0000,  0.0000)
   9 Li     0.000000    0.000000   11.617037    ( 0.0000,  0.0000,  0.0000)
  10 Li     3.234074    0.000000   11.617037    ( 0.0000,  0.0000,  0.0000)
  11 Li     6.468148    0.000000   11.617037    ( 0.0000,  0.0000,  0.0000)
  12 Li     0.000000    3.234074   11.617037    ( 0.0000,  0.0000,  0.0000)
  13 Li     3.234074    3.234074   11.617037    ( 0.0000,  0.0000,  0.0000)
  14 Li     6.468148    3.234074   11.617037    ( 0.0000,  0.0000,  0.0000)
  15 Li     0.000000    6.468148   11.617037    ( 0.0000,  0.0000,  0.0000)
  16 Li     3.234074    6.468148   11.617037    ( 0.0000,  0.0000,  0.0000)
  17 Li     6.468148    6.468148   11.617037    ( 0.0000,  0.0000,  0.0000)
  18 Li     1.617107    1.617313   13.469247    ( 0.0000,  0.0000,  0.0000)
  19 Li     4.851264    1.616789   13.470707    ( 0.0000,  0.0000,  0.0000)
  20 Li     8.084993    1.617567   13.468791    ( 0.0000,  0.0000,  0.0000)
  21 Li     1.617055    4.851201   13.470394    ( 0.0000,  0.0000,  0.0000)
  22 Li     4.850963    4.851094   13.469698    ( 0.0000,  0.0000,  0.0000)
  23 Li     8.085298    4.851093   13.470590    ( 0.0000,  0.0000,  0.0000)
  24 Li     1.617297    8.084861   13.469063    ( 0.0000,  0.0000,  0.0000)
  25 Li     4.851235    8.085453   13.470633    ( 0.0000,  0.0000,  0.0000)
  26 Li     8.084855    8.084637   13.468761    ( 0.0000,  0.0000,  0.0000)
  27 Li     0.010607    0.000721   15.374903    ( 0.0000,  0.0000,  0.0000)
  28 Li     3.234493    0.000045   15.445651    ( 0.0000,  0.0000,  0.0000)
  29 Li     6.470086    0.000041   15.445717    ( 0.0000,  0.0000,  0.0000)
  30 Li     0.000453    3.235802   15.444889    ( 0.0000,  0.0000,  0.0000)
  31 Li     3.234250    3.234150   15.445732    ( 0.0000,  0.0000,  0.0000)
  32 Li     6.467569    3.234897   15.445207    ( 0.0000,  0.0000,  0.0000)
  33 Li     0.000031    6.467087   15.445333    ( 0.0000,  0.0000,  0.0000)
  34 Li     3.234322    6.467999   15.445595    ( 0.0000,  0.0000,  0.0000)
  35 Li     6.467697    6.467490   15.445421    ( 0.0000,  0.0000,  0.0000)
  36 O      9.718431    9.737121   18.527148    ( 0.0000,  0.0000,  0.0000)
  37 C      8.501969   10.536677   18.482239    ( 0.0000,  0.0000,  0.0000)
  38 C      7.223008    9.698758   18.452454    ( 0.0000,  0.0000,  0.0000)
  39 H      8.529362   11.204226   19.322741    ( 0.0000,  0.0000,  0.0000)
  40 H      8.588998   11.144174   17.568461    ( 0.0000,  0.0000,  0.0000)
  41 H      6.355703   10.356151   18.422801    ( 0.0000,  0.0000,  0.0000)
  42 H      7.190394    9.048474   17.574014    ( 0.0000,  0.0000,  0.0000)
  43 H      7.163283    9.069526   19.334544    ( 0.0000,  0.0000,  0.0000)
  44 H      9.664932    9.101929   19.234234    ( 0.0000,  0.0000,  0.0000)
  45 N      9.725081    9.670476   16.927002    ( 0.0000,  0.0000,  0.0000)
  46 N      8.603484    9.680220   16.832510    ( 0.0000,  0.0000,  0.0000)

Unit cell:
           periodic     x           y           z      points  spacing
  1. axis:    yes    9.702222    0.000000    0.000000    60     0.1617
  2. axis:    yes    0.000000    9.702222    0.000000    60     0.1617
  3. axis:    no     0.000000    0.000000   26.351111   164     0.1607

  Lengths:   9.702222   9.702222  26.351111
  Angles:   90.000000  90.000000  90.000000

Effective grid spacing dv^(1/3) = 0.1614

     iter     time        total  log10-change:
                         energy  eigst   dens
iter:   1 22:46:26  -300.389750  -0.73
iter:   2 22:46:33  -300.370712  -1.14  -1.81
iter:   3 22:46:40  -300.362094c -1.71  -1.92
iter:   4 22:46:47  -300.354856c -1.59  -2.24
Writing to output.gpw (mode='')

iter:   5 22:46:55  -300.358525c -2.13  -2.38
iter:   6 22:47:02  -300.357848c -2.17  -2.31
iter:   7 22:47:09  -300.353696c -2.02  -2.35
iter:   8 22:47:16  -300.354026c -2.38  -2.74
iter:   9 22:47:23  -300.353650c -2.82  -2.71
Writing to output.gpw (mode='')

iter:  10 22:47:31  -300.353848c -2.74  -2.97
iter:  11 22:47:38  -300.353854c -3.39  -3.11
iter:  12 22:47:45  -300.354094c -3.07  -3.01
iter:  13 22:47:52  -300.353882c -3.46  -2.97
iter:  14 22:47:59  -300.353699c -3.44  -3.06
Writing to output.gpw (mode='')

iter:  15 22:48:06  -300.353707c -3.50  -3.22
iter:  16 22:48:14  -300.353742c -4.19  -3.30
iter:  17 22:48:21  -300.353723c -4.09  -3.56
iter:  18 22:48:28  -300.353738c -4.39  -3.69
iter:  19 22:48:35  -300.353735c -4.51  -3.65
Writing to output.gpw (mode='')

iter:  20 22:48:42  -300.353747c -4.87  -3.67
iter:  21 22:48:50  -300.353743c -4.66  -3.84
iter:  22 22:48:57  -300.353738c -4.80  -3.86
iter:  23 22:49:04  -300.353742c -5.31  -4.00c
iter:  24 22:49:11  -300.353746c -5.22  -4.22c
Writing to output.gpw (mode='')

iter:  25 22:49:19  -300.353743c -5.50  -4.22c
iter:  26 22:49:26  -300.353744c -5.53  -4.33c
iter:  27 22:49:33  -300.353748c -5.48  -4.34c
iter:  28 22:49:47  -300.353748c -6.01  -4.34c
iter:  29 22:49:54  -300.353749c -5.85  -4.47c
Writing to output.gpw (mode='')

iter:  30 22:50:01  -300.353750c -6.18  -4.52c
iter:  31 22:50:09  -300.353749c -6.21  -4.69c
iter:  32 22:50:16  -300.353749c -6.44  -4.79c
iter:  33 22:50:23  -300.353749c -6.24  -4.93c
iter:  34 22:50:30  -300.353750c -6.55  -4.86c
Writing to output.gpw (mode='')

iter:  35 22:50:38  -300.353750c -6.60  -5.00c
iter:  36 22:50:45  -300.353750c -6.64  -5.19c
iter:  37 22:50:53  -300.353750c -6.82  -5.14c
iter:  38 22:51:03  -300.353750c -6.86  -5.16c
iter:  39 22:51:18  -300.353751c -6.86  -5.32c
Writing to output.gpw (mode='')

iter:  40 22:51:25  -300.353751c -7.13  -5.42c
iter:  41 22:51:33  -300.353751c -7.31  -5.46c
iter:  42 22:51:40  -300.353751c -7.37  -5.67c
iter:  43 22:51:47  -300.353751c -7.31  -5.69c
iter:  44 22:51:54  -300.353751c -7.43c -5.97c

Converged after 44 iterations.

Dipole moment: (-11.692740, -14.432093, 0.441834) |e|*Ang

Energy contributions relative to reference atoms: (reference = -14434.854043)

Kinetic:       +193.288779
Potential:     -171.769603
External:        +0.000000
XC:            -322.568530
Entropy (-ST):   -0.150407
Local:           +0.770806
--------------------------
Free energy:   -300.428954
Extrapolated:  -300.353751

Dipole-layer corrected work functions: 3.376174, 2.526817 eV

Showing only first 2 kpts
 Kpt  Band  Eigenvalues  Occupancy
  0    31     -3.20280    1.98696
  0    32     -3.10060    1.90352
  0    33     -2.80414    0.09976
  0    34     -2.73118    0.02410

  1    31     -3.01338    1.55030
  1    32     -2.97122    1.19477
  1    33     -2.88606    0.42540
  1    34     -2.84799    0.22409


Fermi level: -2.95150

Gap: 0.023 eV
Transition (v -> c):
  (s=0, k=1, n=32, [0.12, -0.12, 0.00]) -> (s=0, k=7, n=33, [0.38, 0.38, 0.00])
Writing to output.gpw (mode='')


Forces in eV/Ang:
  0 Li    0.01411    0.00581   -0.28179
  1 Li   -0.00647   -0.00573   -0.26186
  2 Li   -0.00519    0.01360   -0.27886
  3 Li   -0.00562   -0.00281   -0.26269
  4 Li    0.00006   -0.00090   -0.28336
  5 Li    0.00209    0.00059   -0.26274
  6 Li    0.01405   -0.00345   -0.27933
  7 Li   -0.00416    0.00535   -0.26174
  8 Li   -0.00872   -0.01300   -0.27851
  9 Li   -0.00515   -0.00376    0.35827
 10 Li    0.00449    0.00018    0.24925
 11 Li   -0.00548    0.00189    0.27283
 12 Li    0.00049    0.01843    0.25275
 13 Li    0.00254   -0.00246    0.26041
 14 Li   -0.00035    0.00755    0.26055
 15 Li   -0.00009   -0.01745    0.26581
 16 Li    0.01250    0.00365    0.25511
 17 Li   -0.00827   -0.00929    0.26240
 18 Li    0.00981    0.02626   -0.04432
 19 Li    0.01330   -0.02100    0.08359
 20 Li   -0.01920    0.04797   -0.08023
 21 Li    0.00135    0.00778    0.05777
 22 Li   -0.01245   -0.00196   -0.00332
 23 Li    0.00978   -0.00040    0.07379
 24 Li    0.02528   -0.03080   -0.06160
 25 Li    0.01085    0.02309    0.07854
 26 Li   -0.03020   -0.04927   -0.08707
 27 Li    0.93988    0.09539   -5.92321
 28 Li    0.03802    0.00435   -0.02584
 29 Li    0.16262    0.00650   -0.02460
 30 Li    0.03618    0.14796   -0.09208
 31 Li    0.01377    0.00582   -0.01807
 32 Li   -0.04663    0.06763   -0.06281
 33 Li    0.00388   -0.09639   -0.05563
 34 Li    0.02141   -0.01287   -0.02929
 35 Li   -0.04019   -0.05814   -0.04574
 36 O     1.44524    2.42073    7.22729
 37 C    -1.52691    1.49537    2.70742
 38 C    -1.12292    0.00732    1.54117
 39 H     0.01272    0.17621    1.00989
 40 H    -0.50969    1.27034    1.71702
 41 H    -0.16665    0.17440    0.20689
 42 H    -0.84148   -0.19041    1.17246
 43 H    -0.17061   -0.06003    0.44686
 44 H     0.13319   -1.03858    1.22407
 45 N     2.65819   -2.67625   -1.63688
 46 N    -1.03179   -1.73114   -9.32090

System changes: positions 

Initializing position-dependent things.

Density initialized from wave functions
       .-----------------------.  
      /|                       |  
     / |                       |  
    /  |                       |  
   /   |                       |  
  /    |                       |  
 *     |                       |  
 |     |                       |  
 |     |                       |  
 |     |                H      H  
 |     |                 C     |  
 |     N                H      |  
 |     |                    N  |  
 |     |                       |  
 |     |               H       |  
 O   Li|     Li  H   LiC       |  
 |     |               H       |  
 | Li  |  LLi     LLi     Li   |  
 |     |                       |  
 Li    |LLi     LLi     Li     |  
 |   Li|     Li      Li        |  
 |    Li  Li  Li  Li  Li  Li   |  
 | Li  |   Li      Li          |  
 |     |Li      Li      Li     |  
 Li    | Li      Li            |  
 |    Li      Li      Li       |  
 |     |                       |  
 |     |                       |  
 |     |                       |  
 |     |                       |  
 |     |                       |  
 |     |                       |  
 |     .-----------------------.  
 |    /                       /   
 |   /                       /    
 |  /                       /     
 | /                       /      
 |/                       /       
 *-----------------------*        

Positions:
   0 Li     1.617037    1.617037   10.000000    ( 0.0000,  0.0000,  0.0000)
   1 Li     4.851111    1.617037   10.000000    ( 0.0000,  0.0000,  0.0000)
   2 Li     8.085185    1.617037   10.000000    ( 0.0000,  0.0000,  0.0000)
   3 Li     1.617037    4.851111   10.000000    ( 0.0000,  0.0000,  0.0000)
   4 Li     4.851111    4.851111   10.000000    ( 0.0000,  0.0000,  0.0000)
   5 Li     8.085185    4.851111   10.000000    ( 0.0000,  0.0000,  0.0000)
   6 Li     1.617037    8.085185   10.000000    ( 0.0000,  0.0000,  0.0000)
   7 Li     4.851111    8.085185   10.000000    ( 0.0000,  0.0000,  0.0000)
   8 Li     8.085185    8.085185   10.000000    ( 0.0000,  0.0000,  0.0000)
   9 Li     0.000000    0.000000   11.617037    ( 0.0000,  0.0000,  0.0000)
  10 Li     3.234074    0.000000   11.617037    ( 0.0000,  0.0000,  0.0000)
  11 Li     6.468148    0.000000   11.617037    ( 0.0000,  0.0000,  0.0000)
  12 Li     0.000000    3.234074   11.617037    ( 0.0000,  0.0000,  0.0000)
  13 Li     3.234074    3.234074   11.617037    ( 0.0000,  0.0000,  0.0000)
  14 Li     6.468148    3.234074   11.617037    ( 0.0000,  0.0000,  0.0000)
  15 Li     0.000000    6.468148   11.617037    ( 0.0000,  0.0000,  0.0000)
  16 Li     3.234074    6.468148   11.617037    ( 0.0000,  0.0000,  0.0000)
  17 Li     6.468148    6.468148   11.617037    ( 0.0000,  0.0000,  0.0000)
  18 Li     1.617294    1.617572   13.468793    ( 0.0000,  0.0000,  0.0000)
  19 Li     4.851371    1.616632   13.471323    ( 0.0000,  0.0000,  0.0000)
  20 Li     8.084753    1.618005   13.468120    ( 0.0000,  0.0000,  0.0000)
  21 Li     1.617036    4.851253   13.470862    ( 0.0000,  0.0000,  0.0000)
  22 Li     4.850874    4.851084   13.469638    ( 0.0000,  0.0000,  0.0000)
  23 Li     8.085388    4.851093   13.471155    ( 0.0000,  0.0000,  0.0000)
  24 Li     1.617581    8.084565   13.468449    ( 0.0000,  0.0000,  0.0000)
  25 Li     4.851320    8.085617   13.471221    ( 0.0000,  0.0000,  0.0000)
  26 Li     8.084558    8.084208   13.467991    ( 0.0000,  0.0000,  0.0000)
  27 Li     0.018491    0.002157   15.340262    ( 0.0000,  0.0000,  0.0000)
  28 Li     3.234778    0.000087   15.445475    ( 0.0000,  0.0000,  0.0000)
  29 Li     6.471458    0.000113   15.445598    ( 0.0000,  0.0000,  0.0000)
  30 Li     0.000668    3.236876   15.444167    ( 0.0000,  0.0000,  0.0000)
  31 Li     3.234342    3.234199   15.445593    ( 0.0000,  0.0000,  0.0000)
  32 Li     6.467249    3.235337   15.444728    ( 0.0000,  0.0000,  0.0000)
  33 Li     0.000045    6.466342   15.444933    ( 0.0000,  0.0000,  0.0000)
  34 Li     3.234498    6.467880   15.445385    ( 0.0000,  0.0000,  0.0000)
  35 Li     6.467378    6.467045   15.445078    ( 0.0000,  0.0000,  0.0000)
  36 O      9.715795    9.755510   18.556960    ( 0.0000,  0.0000,  0.0000)
  37 C      8.499164   10.541671   18.495026    ( 0.0000,  0.0000,  0.0000)
  38 C      7.222272    9.699674   18.457342    ( 0.0000,  0.0000,  0.0000)
  39 H      8.527079   11.208544   19.331568    ( 0.0000,  0.0000,  0.0000)
  40 H      8.586207   11.147186   17.581267    ( 0.0000,  0.0000,  0.0000)
  41 H      6.354086   10.357260   18.424188    ( 0.0000,  0.0000,  0.0000)
  42 H      7.186598    9.048043   17.581272    ( 0.0000,  0.0000,  0.0000)
  43 H      7.161597    9.068384   19.338658    ( 0.0000,  0.0000,  0.0000)
  44 H      9.662299    9.096340   19.240027    ( 0.0000,  0.0000,  0.0000)
  45 N      9.728367    9.653024   16.915059    ( 0.0000,  0.0000,  0.0000)
  46 N      8.611858    9.670285   16.794679    ( 0.0000,  0.0000,  0.0000)

Unit cell:
           periodic     x           y           z      points  spacing
  1. axis:    yes    9.702222    0.000000    0.000000    60     0.1617
  2. axis:    yes    0.000000    9.702222    0.000000    60     0.1617
  3. axis:    no     0.000000    0.000000   26.351111   164     0.1607

  Lengths:   9.702222   9.702222  26.351111
  Angles:   90.000000  90.000000  90.000000

Effective grid spacing dv^(1/3) = 0.1614

     iter     time        total  log10-change:
                         energy  eigst   dens
iter:   1 22:52:03  -301.402419  -0.66
iter:   2 22:52:10  -301.355100  -1.00  -1.68
iter:   3 22:52:17  -301.337354  -1.66  -1.81
iter:   4 22:52:24  -301.327150c -1.41  -2.18
Writing to output.gpw (mode='')

iter:   5 22:52:31  -301.335320c -1.95  -2.27
iter:   6 22:52:39  -301.337639c -1.97  -2.22
iter:   7 22:52:46  -301.325353c -1.89  -2.18
iter:   8 22:52:53  -301.325584c -2.24  -2.69
iter:   9 22:53:00  -301.326735c -2.68  -2.50
Writing to output.gpw (mode='')

iter:  10 22:53:07  -301.325377c -2.74  -2.66
iter:  11 22:53:14  -301.325240c -3.15  -2.94
iter:  12 22:53:21  -301.325282c -3.54  -3.05
iter:  13 22:53:29  -301.325491c -3.47  -3.06
iter:  14 22:53:36  -301.325371c -3.25  -3.17
Writing to output.gpw (mode='')

iter:  15 22:53:43  -301.325382c -3.87  -3.14
iter:  16 22:53:50  -301.325335c -3.84  -3.29
iter:  17 22:53:57  -301.325351c -4.26  -3.51
iter:  18 22:54:04  -301.325346c -4.08  -3.54
iter:  19 22:54:11  -301.325390c -4.15  -3.66
Writing to output.gpw (mode='')

iter:  20 22:54:18  -301.325395c -4.77  -3.65
iter:  21 22:54:26  -301.325406c -4.75  -3.70
iter:  22 22:54:33  -301.325405c -4.85  -3.85
iter:  23 22:54:47  -301.325408c -4.90  -3.89
iter:  24 22:54:54  -301.325409c -5.11  -3.95
Writing to output.gpw (mode='')

iter:  25 22:55:01  -301.325415c -5.25  -4.07c
iter:  26 22:55:08  -301.325418c -5.33  -4.10c
iter:  27 22:55:15  -301.325419c -5.40  -4.27c
iter:  28 22:55:23  -301.325418c -5.54  -4.48c
iter:  29 22:55:30  -301.325418c -5.64  -4.61c
Writing to output.gpw (mode='')

iter:  30 22:55:37  -301.325418c -5.89  -4.81c
iter:  31 22:55:44  -301.325420c -5.89  -4.81c
iter:  32 22:55:51  -301.325421c -5.98  -4.80c
iter:  33 22:55:58  -301.325421c -6.07  -4.89c
iter:  34 22:56:06  -301.325420c -6.13  -4.96c
Writing to output.gpw (mode='')

iter:  35 22:56:13  -301.325421c -6.20  -5.11c
iter:  36 22:56:20  -301.325421c -6.33  -5.23c
iter:  37 22:56:27  -301.325422c -6.19  -5.27c
iter:  38 22:56:34  -301.325422c -6.41  -5.32c
iter:  39 22:56:41  -301.325422c -6.58  -5.37c
Writing to output.gpw (mode='')

iter:  40 22:56:48  -301.325423c -6.69  -5.37c
iter:  41 22:56:56  -301.325423c -6.57  -5.47c
iter:  42 22:57:03  -301.325424c -6.83  -5.53c
iter:  43 22:57:10  -301.325424c -6.87  -5.61c
iter:  44 22:57:17  -301.325423c -6.98  -5.88c
Writing to output.gpw (mode='')

iter:  45 22:57:24  -301.325424c -7.18  -5.89c
iter:  46 22:57:31  -301.325424c -7.06  -5.93c
iter:  47 22:57:38  -301.325424c -7.20  -5.94c
iter:  48 22:57:46  -301.325424c -7.24  -5.89c
iter:  49 22:57:53  -301.325424c -7.25  -5.72c
Writing to output.gpw (mode='')

iter:  50 22:58:00  -301.325424c -7.31  -5.75c
iter:  51 22:58:07  -301.325424c -7.43c -5.72c

Converged after 51 iterations.

Dipole moment: (-11.772923, -12.899325, 0.446077) |e|*Ang

Energy contributions relative to reference atoms: (reference = -14434.854043)

Kinetic:       +190.147252
Potential:     -170.033430
External:        +0.000000
XC:            -322.133701
Entropy (-ST):   -0.149694
Local:           +0.769301
--------------------------
Free energy:   -301.400271
Extrapolated:  -301.325424

Dipole-layer corrected work functions: 3.376487, 2.518974 eV

Showing only first 2 kpts
 Kpt  Band  Eigenvalues  Occupancy
  0    31     -3.19938    1.98705
  0    32     -3.09707    1.90395
  0    33     -2.80137    0.10164
  0    34     -2.71868    0.02028

  1    31     -3.01092    1.55938
  1    32     -2.96875    1.20719
  1    33     -2.88101    0.41683
  1    34     -2.84664    0.23387


Fermi level: -2.94773

Gap: 0.021 eV
Transition (v -> c):
  (s=0, k=7, n=32, [0.38, 0.38, 0.00]) -> (s=0, k=7, n=33, [0.38, 0.38, 0.00])
Writing to output.gpw (mode='')


Forces in eV/Ang:
  0 Li    0.01381    0.00592   -0.28268
  1 Li   -0.00605   -0.00621   -0.26058
  2 Li   -0.00537    0.01413   -0.27969
  3 Li   -0.00627   -0.00264   -0.26195
  4 Li    0.00037   -0.00072   -0.28477
  5 Li    0.00232   -0.00035   -0.26172
  6 Li    0.01479   -0.00328   -0.28081
  7 Li   -0.00446    0.00564   -0.26115
  8 Li   -0.00893   -0.01284   -0.27983
  9 Li   -0.00567   -0.00353    0.36445
 10 Li    0.00538    0.00012    0.24849
 11 Li   -0.00635    0.00161    0.27299
 12 Li    0.00076    0.01819    0.25345
 13 Li    0.00401   -0.00195    0.25909
 14 Li   -0.00187    0.01010    0.25889
 15 Li    0.00021   -0.01737    0.26588
 16 Li    0.01195    0.00302    0.25562
 17 Li   -0.00807   -0.01069    0.26205
 18 Li    0.01798    0.03166   -0.05211
 19 Li    0.01353   -0.02041    0.08274
 20 Li   -0.02507    0.05262   -0.08310
 21 Li    0.00056    0.00789    0.05924
 22 Li   -0.01221   -0.00257   -0.00450
 23 Li    0.01029    0.00099    0.07415
 24 Li    0.03199   -0.03660   -0.07169
 25 Li    0.01133    0.02271    0.07942
 26 Li   -0.03459   -0.05335   -0.09577
 27 Li    0.96170    0.15215   -5.44674
 28 Li    0.03923    0.00529   -0.02532
 29 Li    0.16527    0.01049   -0.02547
 30 Li    0.03226    0.14438   -0.09250
 31 Li    0.01229    0.00525   -0.01854
 32 Li   -0.04316    0.06357   -0.06269
 33 Li    0.00515   -0.10082   -0.05787
 34 Li    0.02217   -0.01388   -0.02908
 35 Li   -0.04316   -0.06083   -0.04723
 36 O     1.19629    2.32525    6.27724
 37 C    -1.31050    1.24407    2.46010
 38 C    -0.94767    0.03954    1.39158
 39 H    -0.11366    0.28748    0.99511
 40 H    -0.43490    1.06233    1.58536
 41 H    -0.13533    0.13642    0.20040
 42 H    -0.71836   -0.15950    1.06714
 43 H    -0.17459   -0.04548    0.41916
 44 H    -0.00856   -0.93833    1.08416
 45 N     2.46665   -2.57247   -1.58281
 46 N    -1.00589   -1.53630   -8.04096

System changes: positions 

Initializing position-dependent things.

Density initialized from wave functions
       .-----------------------.  
      /|                       |  
     / |                       |  
    /  |                       |  
   /   |                       |  
  /    |                       |  
 *     |                       |  
 |     |                       |  
 |     |                       |  
 |     |                H      H  
 |     |                 C     |  
 |     |                H      |  
 |     N                    N  |  
 |     |                       |  
 |     |               H       |  
 O   Li|     Li  H   LiC       |  
 |     |               H       |  
 | Li  |  LLi     LLi     Li   |  
 |     |                       |  
 Li    |LLi     LLi     Li     |  
 |   Li|     Li      Li        |  
 |    Li  Li  Li  Li  Li  Li   |  
 | Li  |   Li      Li          |  
 |     |Li      Li      Li     |  
 Li    | Li      Li            |  
 |    Li      Li      Li       |  
 |     |                       |  
 |     |                       |  
 |     |                       |  
 |     |                       |  
 |     |                       |  
 |     |                       |  
 |     .-----------------------.  
 |    /                       /   
 |   /                       /    
 |  /                       /     
 | /                       /      
 |/                       /       
 *-----------------------*        

Positions:
   0 Li     1.617037    1.617037   10.000000    ( 0.0000,  0.0000,  0.0000)
   1 Li     4.851111    1.617037   10.000000    ( 0.0000,  0.0000,  0.0000)
   2 Li     8.085185    1.617037   10.000000    ( 0.0000,  0.0000,  0.0000)
   3 Li     1.617037    4.851111   10.000000    ( 0.0000,  0.0000,  0.0000)
   4 Li     4.851111    4.851111   10.000000    ( 0.0000,  0.0000,  0.0000)
   5 Li     8.085185    4.851111   10.000000    ( 0.0000,  0.0000,  0.0000)
   6 Li     1.617037    8.085185   10.000000    ( 0.0000,  0.0000,  0.0000)
   7 Li     4.851111    8.085185   10.000000    ( 0.0000,  0.0000,  0.0000)
   8 Li     8.085185    8.085185   10.000000    ( 0.0000,  0.0000,  0.0000)
   9 Li     0.000000    0.000000   11.617037    ( 0.0000,  0.0000,  0.0000)
  10 Li     3.234074    0.000000   11.617037    ( 0.0000,  0.0000,  0.0000)
  11 Li     6.468148    0.000000   11.617037    ( 0.0000,  0.0000,  0.0000)
  12 Li     0.000000    3.234074   11.617037    ( 0.0000,  0.0000,  0.0000)
  13 Li     3.234074    3.234074   11.617037    ( 0.0000,  0.0000,  0.0000)
  14 Li     6.468148    3.234074   11.617037    ( 0.0000,  0.0000,  0.0000)
  15 Li     0.000000    6.468148   11.617037    ( 0.0000,  0.0000,  0.0000)
  16 Li     3.234074    6.468148   11.617037    ( 0.0000,  0.0000,  0.0000)
  17 Li     6.468148    6.468148   11.617037    ( 0.0000,  0.0000,  0.0000)
  18 Li     1.617627    1.617967   13.468134    ( 0.0000,  0.0000,  0.0000)
  19 Li     4.851506    1.616443   13.472086    ( 0.0000,  0.0000,  0.0000)
  20 Li     8.084385    1.618606   13.467250    ( 0.0000,  0.0000,  0.0000)
  21 Li     1.617008    4.851322   13.471463    ( 0.0000,  0.0000,  0.0000)
  22 Li     4.850764    4.851060   13.469553    ( 0.0000,  0.0000,  0.0000)
  23 Li     8.085505    4.851113   13.471868    ( 0.0000,  0.0000,  0.0000)
  24 Li     1.618017    8.084120   13.467559    ( 0.0000,  0.0000,  0.0000)
  25 Li     4.851434    8.085819   13.471972    ( 0.0000,  0.0000,  0.0000)
  26 Li     8.084137    8.083621   13.466919    ( 0.0000,  0.0000,  0.0000)
  27 Li     0.028458    0.004657   15.301604    ( 0.0000,  0.0000,  0.0000)
  28 Li     3.235153    0.000152   15.445261    ( 0.0000,  0.0000,  0.0000)
  29 Li     6.473189    0.000259   15.445426    ( 0.0000,  0.0000,  0.0000)
  30 Li     0.000892    3.238173   15.443267    ( 0.0000,  0.0000,  0.0000)
  31 Li     3.234436    3.234250   15.445413    ( 0.0000,  0.0000,  0.0000)
  32 Li     6.466892    3.235844   15.444131    ( 0.0000,  0.0000,  0.0000)
  33 Li     0.000087    6.465348   15.444394    ( 0.0000,  0.0000,  0.0000)
  34 Li     3.234727    6.467720   15.445121    ( 0.0000,  0.0000,  0.0000)
  35 Li     6.466934    6.466446   15.444625    ( 0.0000,  0.0000,  0.0000)
  36 O      9.712320    9.776984   18.585983    ( 0.0000,  0.0000,  0.0000)
  37 C      8.496618   10.545698   18.509230    ( 0.0000,  0.0000,  0.0000)
  38 C      7.221870    9.701096   18.463078    ( 0.0000,  0.0000,  0.0000)
  39 H      8.522890   11.214867   19.342052    ( 0.0000,  0.0000,  0.0000)
  40 H      8.583618   11.149515   17.595228    ( 0.0000,  0.0000,  0.0000)
  41 H      6.352675   10.358097   18.425875    ( 0.0000,  0.0000,  0.0000)
  42 H      7.183070    9.047694   17.589138    ( 0.0000,  0.0000,  0.0000)
  43 H      7.159538    9.067391   19.343146    ( 0.0000,  0.0000,  0.0000)
  44 H      9.657782    9.090266   19.246051    ( 0.0000,  0.0000,  0.0000)
  45 N      9.733084    9.632081   16.901033    ( 0.0000,  0.0000,  0.0000)
  46 N      8.619336    9.660085   16.758418    ( 0.0000,  0.0000,  0.0000)

Unit cell:
           periodic     x           y           z      points  spacing
  1. axis:    yes    9.702222    0.000000    0.000000    60     0.1617
  2. axis:    yes    0.000000    9.702222    0.000000    60     0.1617
  3. axis:    no     0.000000    0.000000   26.351111   164     0.1607

  Lengths:   9.702222   9.702222  26.351111
  Angles:   90.000000  90.000000  90.000000

Effective grid spacing dv^(1/3) = 0.1614

     iter     time        total  log10-change:
                         energy  eigst   dens
iter:   1 22:58:18  -302.264767  -0.66
iter:   2 22:58:25  -302.244696  -1.17  -1.80
iter:   3 22:58:33  -302.236125c -1.73  -1.92
iter:   4 22:58:40  -302.228204c -1.62  -2.23
Writing to output.gpw (mode='')

iter:   5 22:58:47  -302.230786c -2.20  -2.36
iter:   6 22:58:54  -302.230007c -2.19  -2.34
iter:   7 22:59:01  -302.226624c -2.03  -2.38
iter:   8 22:59:09  -302.227099c -2.41  -2.73
iter:   9 22:59:16  -302.226726c -2.85  -2.74
Writing to output.gpw (mode='')

iter:  10 22:59:23  -302.226937c -2.74  -2.96
iter:  11 22:59:30  -302.226802c -3.53  -3.06
iter:  12 22:59:44  -302.226816c -3.62  -3.10
iter:  13 22:59:53  -302.226817c -3.65  -3.13
iter:  14 23:00:00  -302.226884c -3.57  -3.17
Writing to output.gpw (mode='')

iter:  15 23:00:07  -302.226802c -3.70  -3.17
iter:  16 23:00:14  -302.226771c -4.30  -3.43
iter:  17 23:00:21  -302.226772c -4.30  -3.56
iter:  18 23:00:29  -302.226821c -4.49  -3.67
iter:  19 23:00:36  -302.226813c -4.35  -3.84
Writing to output.gpw (mode='')

iter:  20 23:00:43  -302.226816c -4.92  -3.78
iter:  21 23:00:50  -302.226818c -4.85  -3.83
iter:  22 23:00:57  -302.226829c -4.93  -3.90
iter:  23 23:01:04  -302.226831c -4.90  -4.07c
iter:  24 23:01:12  -302.226826c -5.04  -4.03c
Writing to output.gpw (mode='')

iter:  25 23:01:19  -302.226826c -5.54  -4.13c
iter:  26 23:01:26  -302.226829c -5.60  -4.22c
iter:  27 23:01:33  -302.226829c -5.82  -4.28c
iter:  28 23:01:40  -302.226833c -5.69  -4.44c
iter:  29 23:01:48  -302.226832c -5.81  -4.56c
Writing to output.gpw (mode='')

iter:  30 23:01:55  -302.226832c -5.61  -4.68c
iter:  31 23:02:02  -302.226833c -5.95  -4.87c
iter:  32 23:02:09  -302.226832c -6.19  -4.81c
iter:  33 23:02:17  -302.226833c -6.22  -4.97c
iter:  34 23:02:24  -302.226832c -6.39  -4.98c
Writing to output.gpw (mode='')

iter:  35 23:02:31  -302.226833c -6.17  -4.96c
iter:  36 23:02:39  -302.226834c -6.44  -4.96c
iter:  37 23:02:46  -302.226834c -6.62  -5.15c
iter:  38 23:02:53  -302.226834c -6.73  -5.23c
iter:  39 23:03:00  -302.226834c -6.72  -5.36c
Writing to output.gpw (mode='')

iter:  40 23:03:08  -302.226834c -6.88  -5.43c
iter:  41 23:03:15  -302.226834c -6.95  -5.64c
iter:  42 23:03:22  -302.226834c -6.99  -5.67c
iter:  43 23:03:30  -302.226835c -7.03  -5.80c
iter:  44 23:03:37  -302.226835c -7.26  -5.85c
Writing to output.gpw (mode='')

iter:  45 23:03:44  -302.226835c -7.46c -5.89c

Converged after 45 iterations.

Dipole moment: (-11.875881, -11.055062, 0.442108) |e|*Ang

Energy contributions relative to reference atoms: (reference = -14434.854043)

Kinetic:       +186.702542
Potential:     -167.998369
External:        +0.000000
XC:            -321.624567
Entropy (-ST):   -0.149028
Local:           +0.768074
--------------------------
Free energy:   -302.301349
Extrapolated:  -302.226835

Dipole-layer corrected work functions: 3.376957, 2.527074 eV

Showing only first 2 kpts
 Kpt  Band  Eigenvalues  Occupancy
  0    31     -3.20286    1.98684
  0    32     -3.10126    1.90377
  0    33     -2.80672    0.10372
  0    34     -2.71637    0.01780

  1    31     -3.01755    1.57526
  1    32     -2.97341    1.21070
  1    33     -2.88327    0.40365
  1    34     -2.85234    0.23977


Fermi level: -2.95202

No gap

Forces in eV/Ang:
  0 Li    0.01346    0.00591   -0.28379
  1 Li   -0.00569   -0.00680   -0.25919
  2 Li   -0.00542    0.01453   -0.28080
  3 Li   -0.00697   -0.00251   -0.26124
  4 Li    0.00056   -0.00052   -0.28619
  5 Li    0.00251   -0.00139   -0.26076
  6 Li    0.01558   -0.00293   -0.28249
  7 Li   -0.00489    0.00599   -0.26069
  8 Li   -0.00913   -0.01249   -0.28132
  9 Li   -0.00614   -0.00344    0.37045
 10 Li    0.00609    0.00006    0.24799
 11 Li   -0.00736    0.00137    0.27345
 12 Li    0.00096    0.01785    0.25461
 13 Li    0.00552   -0.00102    0.25756
 14 Li   -0.00339    0.01268    0.25744
 15 Li    0.00046   -0.01711    0.26643
 16 Li    0.01185    0.00204    0.25594
 17 Li   -0.00805   -0.01198    0.26179
 18 Li    0.02783    0.03849   -0.06155
 19 Li    0.01357   -0.01954    0.08133
 20 Li   -0.03139    0.05718   -0.08662
 21 Li   -0.00003    0.00827    0.06019
 22 Li   -0.01184   -0.00356   -0.00519
 23 Li    0.01074    0.00270    0.07406
 24 Li    0.04020   -0.04376   -0.08349
 25 Li    0.01179    0.02227    0.07994
 26 Li   -0.03934   -0.05724   -0.10500
 27 Li    0.94888    0.21213   -4.93043
 28 Li    0.03966    0.00652   -0.02407
 29 Li    0.17127    0.01461   -0.02372
 30 Li    0.02853    0.13837   -0.09050
 31 Li    0.01070    0.00431   -0.01898
 32 Li   -0.03965    0.05988   -0.06210
 33 Li    0.00680   -0.10378   -0.05916
 34 Li    0.02299   -0.01502   -0.02907
 35 Li   -0.04666   -0.06394   -0.04853
 36 O     1.06190    2.00923    5.53749
 37 C    -1.16655    1.07245    2.16677
 38 C    -0.81711    0.04385    1.26251
 39 H    -0.23462    0.37045    0.95620
 40 H    -0.37234    0.88860    1.42779
 41 H    -0.11441    0.11116    0.20031
 42 H    -0.60141   -0.12465    0.96940
 43 H    -0.18036   -0.03452    0.39885
 44 H    -0.09815   -0.70103    0.79524
 45 N     2.14676   -2.50743   -1.45092
 46 N    -0.77420   -1.39530   -6.89652

System changes: positions 

Initializing position-dependent things.

Density initialized from wave functions
       .-----------------------.  
      /|                       |  
     / |                       |  
    /  |                       |  
   /   |                       |  
  /    |                       |  
 *     |                       |  
 |     |                       |  
 |     |                       |  
 |     |                H     H|  
 |     |                       |  
 |     |                H      |  
 |     N                    N  |  
 |     |                       |  
 |     |               H       |  
 O   Li|     Li  H   LiC       |  
 |     |           C   H       |  
 | Li  |  LLi     LLi     Li   |  
 |     |                       |  
 Li    |LLi     LLi     Li     |  
 |   Li|     Li      Li        |  
 |    Li  Li  Li  Li  Li  Li   |  
 | Li  |   Li      Li          |  
 |     |Li      Li      Li     |  
 Li    | Li      Li            |  
 |    Li      Li      Li       |  
 |     |                       |  
 |     |                       |  
 |     |                       |  
 |     |                       |  
 |     |                       |  
 |     |                       |  
 |     .-----------------------.  
 |    /                       /   
 |   /                       /    
 |  /                       /     
 | /                       /      
 |/                       /       
 *-----------------------*        

Positions:
   0 Li     1.617037    1.617037   10.000000    ( 0.0000,  0.0000,  0.0000)
   1 Li     4.851111    1.617037   10.000000    ( 0.0000,  0.0000,  0.0000)
   2 Li     8.085185    1.617037   10.000000    ( 0.0000,  0.0000,  0.0000)
   3 Li     1.617037    4.851111   10.000000    ( 0.0000,  0.0000,  0.0000)
   4 Li     4.851111    4.851111   10.000000    ( 0.0000,  0.0000,  0.0000)
   5 Li     8.085185    4.851111   10.000000    ( 0.0000,  0.0000,  0.0000)
   6 Li     1.617037    8.085185   10.000000    ( 0.0000,  0.0000,  0.0000)
   7 Li     4.851111    8.085185   10.000000    ( 0.0000,  0.0000,  0.0000)
   8 Li     8.085185    8.085185   10.000000    ( 0.0000,  0.0000,  0.0000)
   9 Li     0.000000    0.000000   11.617037    ( 0.0000,  0.0000,  0.0000)
  10 Li     3.234074    0.000000   11.617037    ( 0.0000,  0.0000,  0.0000)
  11 Li     6.468148    0.000000   11.617037    ( 0.0000,  0.0000,  0.0000)
  12 Li     0.000000    3.234074   11.617037    ( 0.0000,  0.0000,  0.0000)
  13 Li     3.234074    3.234074   11.617037    ( 0.0000,  0.0000,  0.0000)
  14 Li     6.468148    3.234074   11.617037    ( 0.0000,  0.0000,  0.0000)
  15 Li     0.000000    6.468148   11.617037    ( 0.0000,  0.0000,  0.0000)
  16 Li     3.234074    6.468148   11.617037    ( 0.0000,  0.0000,  0.0000)
  17 Li     6.468148    6.468148   11.617037    ( 0.0000,  0.0000,  0.0000)
[...]
iter:  27 08:37:46  -309.950948c -7.10  -4.69c
iter:  28 08:37:53  -309.950947c -7.08  -4.77c
iter:  29 08:38:00  -309.950946c -7.34  -4.92c
Writing to output.gpw (mode='')

iter:  30 08:38:08  -309.950947c -7.70c -4.94c

Converged after 30 iterations.

Dipole moment: (13.064842, -19.045249, -0.120912) |e|*Ang

Energy contributions relative to reference atoms: (reference = -14434.854043)

Kinetic:       +147.182765
Potential:     -139.747857
External:        +0.000000
XC:            -318.085726
Entropy (-ST):   -0.161868
Local:           +0.780805
--------------------------
Free energy:   -310.031881
Extrapolated:  -309.950947

Dipole-layer corrected work functions: 3.404421, 3.636855 eV

Showing only first 2 kpts
 Kpt  Band  Eigenvalues  Occupancy
  0    31     -3.71540    1.96013
  0    32     -3.53718    1.16392
  0    33     -3.50867    0.88087
  0    34     -3.41750    0.22555

  1    31     -3.83660    1.99640
  1    32     -3.46835    0.52006
  1    33     -3.41137    0.20213
  1    34     -3.40234    0.17160


Fermi level: -3.52064

No gap

Forces in eV/Ang:
  0 Li    0.01484    0.01372   -0.28723
  1 Li   -0.00845    0.00568   -0.29238
  2 Li   -0.01171   -0.00688   -0.29371
  3 Li    0.00594   -0.01040   -0.29015
  4 Li   -0.01606   -0.01596   -0.28425
  5 Li    0.00892    0.00559   -0.29366
  6 Li   -0.00752   -0.01092   -0.29529
  7 Li    0.00490    0.00947   -0.29197
  8 Li   -0.00076   -0.00077   -0.25593
  9 Li   -0.03169   -0.02682    0.29518
 10 Li   -0.01306   -0.00430    0.29279
 11 Li    0.03628   -0.02841    0.33356
 12 Li   -0.01142   -0.00619    0.28631
 13 Li    0.01151    0.00709    0.27387
 14 Li    0.01280    0.02326    0.27807
 15 Li   -0.02017    0.03347    0.33502
 16 Li    0.01367    0.01913    0.26942
 17 Li    0.04728    0.04205    0.27397
 18 Li   -0.00043   -0.01929   -0.00376
 19 Li   -0.00743   -0.00456   -0.00176
 20 Li    0.02441   -0.00954   -0.01385
 21 Li   -0.01934    0.00897    0.00464
 22 Li    0.00474   -0.01232    0.00314
 23 Li    0.00092    0.00679    0.00890
 24 Li    0.00414    0.00297   -0.01286
 25 Li    0.01294   -0.00070    0.01276
 26 Li   -0.00647    0.00505   -0.02514
 27 Li   -0.00882   -0.02157    0.00211
 28 Li   -0.00673   -0.00206   -0.00184
 29 Li    0.02247   -0.01413   -0.00705
 30 Li   -0.00144    0.00721   -0.01849
 31 Li    0.00025    0.00618    0.00767
 32 Li    0.00113   -0.01573   -0.00284
 33 Li   -0.00852    0.00447    0.01977
 34 Li   -0.01998    0.00065   -0.00951
 35 Li   -0.01321   -0.00663    0.00370
 36 O     0.00951    0.01780   -0.02329
 37 C     0.00365   -0.01674   -0.00537
 38 C     0.01328   -0.00083    0.00303
 39 H    -0.00995   -0.01017   -0.00624
 40 H     0.02988   -0.01064    0.00293
 41 H     0.00433   -0.01641    0.03562
 42 H    -0.01322    0.01216    0.00963
 43 H    -0.03597    0.00969    0.00580
 44 H     0.00283   -0.02212   -0.00719
 45 N     0.04017    0.06316    0.03172
 46 N    -0.00397    0.01097   -0.01193

System changes: positions 

Initializing position-dependent things.

Density initialized from wave functions
       .-----------------------.  
      /|                       |  
     / |                       |  
    /  |                       |  
   /   |                       |  
  /    |                       |  
 *     |                       |  
 |     |                       |  
 |     |                H      |  
 |     |                      H|  
 |     |                H      |  
 |     |                       |  
 |     |                       |  
 |     |              H       Li  
 |     |              C  O N   |  
 |   Li|     Li  HC   LH       |  
 |     |                  Li   |  
 | Li  |  LLi     LLi          |  
 |     |                       |  
 |     |LLi     LLi     Li     |  
 |   Li|     Li      Li        |  
 |    Li  Li  Li  Li  Li  Li   |  
 | Li  |   Li      Li          |  
 |     |Li      Li      Li     |  
 Li    | Li      Li            |  
 |    Li      Li      Li       |  
 |     |                       |  
 |     |                       |  
 |     |                       |  
 |     |                       |  
 |     |                       |  
 |     |                       |  
 |     .-----------------------.  
 |    /                       /   
 |   /                       /    
 |  /                       /     
 | /                       /      
 |/                       /       
 *-----------------------*        

Positions:
   0 Li     1.617037    1.617037   10.000000    ( 0.0000,  0.0000,  0.0000)
   1 Li     4.851111    1.617037   10.000000    ( 0.0000,  0.0000,  0.0000)
   2 Li     8.085185    1.617037   10.000000    ( 0.0000,  0.0000,  0.0000)
   3 Li     1.617037    4.851111   10.000000    ( 0.0000,  0.0000,  0.0000)
   4 Li     4.851111    4.851111   10.000000    ( 0.0000,  0.0000,  0.0000)
   5 Li     8.085185    4.851111   10.000000    ( 0.0000,  0.0000,  0.0000)
   6 Li     1.617037    8.085185   10.000000    ( 0.0000,  0.0000,  0.0000)
   7 Li     4.851111    8.085185   10.000000    ( 0.0000,  0.0000,  0.0000)
   8 Li     8.085185    8.085185   10.000000    ( 0.0000,  0.0000,  0.0000)
   9 Li     0.000000    0.000000   11.617037    ( 0.0000,  0.0000,  0.0000)
  10 Li     3.234074    0.000000   11.617037    ( 0.0000,  0.0000,  0.0000)
  11 Li     6.468148    0.000000   11.617037    ( 0.0000,  0.0000,  0.0000)
  12 Li     0.000000    3.234074   11.617037    ( 0.0000,  0.0000,  0.0000)
  13 Li     3.234074    3.234074   11.617037    ( 0.0000,  0.0000,  0.0000)
  14 Li     6.468148    3.234074   11.617037    ( 0.0000,  0.0000,  0.0000)
  15 Li     0.000000    6.468148   11.617037    ( 0.0000,  0.0000,  0.0000)
  16 Li     3.234074    6.468148   11.617037    ( 0.0000,  0.0000,  0.0000)
  17 Li     6.468148    6.468148   11.617037    ( 0.0000,  0.0000,  0.0000)
  18 Li     1.551865    1.575414   13.499072    ( 0.0000,  0.0000,  0.0000)
  19 Li     4.818041    1.673038   13.488862    ( 0.0000,  0.0000,  0.0000)
  20 Li     8.024379    1.631715   13.516039    ( 0.0000,  0.0000,  0.0000)
  21 Li     1.686323    4.817177   13.494484    ( 0.0000,  0.0000,  0.0000)
  22 Li     4.919905    4.935374   13.488758    ( 0.0000,  0.0000,  0.0000)
  23 Li     8.141611    4.861398   13.498888    ( 0.0000,  0.0000,  0.0000)
  24 Li     1.628762    8.039231   13.513531    ( 0.0000,  0.0000,  0.0000)
  25 Li     4.860786    8.129835   13.495235    ( 0.0000,  0.0000,  0.0000)
  26 Li     8.102435    8.087825   13.589610    ( 0.0000,  0.0000,  0.0000)
  27 Li    -0.210115   -0.204338   15.521228    ( 0.0000,  0.0000,  0.0000)
  28 Li     3.100284    0.058185   15.442701    ( 0.0000,  0.0000,  0.0000)
  29 Li     6.345682    0.129125   15.474287    ( 0.0000,  0.0000,  0.0000)
  30 Li     0.058505    3.114289   15.463941    ( 0.0000,  0.0000,  0.0000)
  31 Li     3.243326    3.228278   15.447990    ( 0.0000,  0.0000,  0.0000)
  32 Li     6.407298    3.439657   15.439130    ( 0.0000,  0.0000,  0.0000)
  33 Li     0.155875    6.369839   15.482844    ( 0.0000,  0.0000,  0.0000)
  34 Li     3.443922    6.415780   15.472478    ( 0.0000,  0.0000,  0.0000)
  35 Li     6.764405    6.741399   15.592991    ( 0.0000,  0.0000,  0.0000)
  36 O      9.439563    9.984449   19.472945    ( 0.0000,  0.0000,  0.0000)
  37 C      8.250664   10.694000   19.092495    ( 0.0000,  0.0000,  0.0000)
  38 C      6.997189    9.836137   19.172094    ( 0.0000,  0.0000,  0.0000)
  39 H      8.191477   11.537711   19.783243    ( 0.0000,  0.0000,  0.0000)
  40 H      8.358138   11.107858   18.078381    ( 0.0000,  0.0000,  0.0000)
  41 H      6.117867   10.420299   18.883761    ( 0.0000,  0.0000,  0.0000)
  42 H      7.068911    8.985128   18.487381    ( 0.0000,  0.0000,  0.0000)
  43 H      6.851723    9.456584   20.184205    ( 0.0000,  0.0000,  0.0000)
  44 H      9.475312    9.165592   18.961595    ( 0.0000,  0.0000,  0.0000)
  45 N      8.570615    7.680883   15.622669    ( 0.0000,  0.0000,  0.0000)
  46 N      7.674812    8.566066   15.610037    ( 0.0000,  0.0000,  0.0000)

Unit cell:
           periodic     x           y           z      points  spacing
  1. axis:    yes    9.702222    0.000000    0.000000    60     0.1617
  2. axis:    yes    0.000000    9.702222    0.000000    60     0.1617
  3. axis:    no     0.000000    0.000000   26.351111   164     0.1607

  Lengths:   9.702222   9.702222  26.351111
  Angles:   90.000000  90.000000  90.000000

Effective grid spacing dv^(1/3) = 0.1614

     iter     time        total  log10-change:
                         energy  eigst   dens
iter:   1 08:38:17  -309.952830  -2.15
iter:   2 08:38:24  -309.952465  -2.87  -2.53
iter:   3 08:38:31  -309.952100c -3.47  -2.69
iter:   4 08:38:38  -309.951817c -3.58  -2.86
Writing to output.gpw (mode='')

iter:   5 08:38:46  -309.951717c -3.66  -3.11
iter:   6 08:38:53  -309.951692c -3.61  -3.28
iter:   7 08:39:00  -309.951721c -4.27  -3.36
iter:   8 08:39:07  -309.951725c -4.10  -3.53
iter:   9 08:39:15  -309.951725c -4.89  -3.51
Writing to output.gpw (mode='')

iter:  10 08:39:22  -309.951753c -4.70  -3.74
iter:  11 08:39:29  -309.951741c -5.49  -3.85
iter:  12 08:39:43  -309.951729c -5.35  -3.95
iter:  13 08:39:52  -309.951730c -5.40  -3.99
iter:  14 08:39:59  -309.951729c -6.01  -4.19c
Writing to output.gpw (mode='')

iter:  15 08:40:06  -309.951730c -6.08  -4.27c
iter:  16 08:40:14  -309.951734c -6.17  -4.42c
iter:  17 08:40:21  -309.951733c -6.33  -4.50c
iter:  18 08:40:28  -309.951731c -6.50  -4.56c
iter:  19 08:40:35  -309.951733c -6.78  -4.62c
Writing to output.gpw (mode='')

iter:  20 08:40:42  -309.951732c -6.97  -4.87c
iter:  21 08:40:50  -309.951732c -6.97  -4.98c
iter:  22 08:40:57  -309.951732c -7.20  -5.05c
iter:  23 08:41:04  -309.951733c -7.15  -5.12c
iter:  24 08:41:11  -309.951733c -7.50c -5.24c

Converged after 24 iterations.

Dipole moment: (13.004404, -19.000856, -0.121865) |e|*Ang

Energy contributions relative to reference atoms: (reference = -14434.854043)

Kinetic:       +147.287691
Potential:     -139.832087
External:        +0.000000
XC:            -318.107288
Entropy (-ST):   -0.161790
Local:           +0.780846
--------------------------
Free energy:   -310.032628
Extrapolated:  -309.951733

Dipole-layer corrected work functions: 3.404500, 3.638766 eV

Showing only first 2 kpts
 Kpt  Band  Eigenvalues  Occupancy
  0    31     -3.71629    1.96005
  0    32     -3.53839    1.16602
  0    33     -3.50947    0.87897
  0    34     -3.41838    0.22506

  1    31     -3.83758    1.99640
  1    32     -3.46940    0.52053
  1    33     -3.41226    0.20175
  1    34     -3.40284    0.17006


Fermi level: -3.52163

No gap
Writing to output.gpw (mode='')


Forces in eV/Ang:
  0 Li    0.01462    0.01356   -0.28742
  1 Li   -0.00860    0.00576   -0.29241
  2 Li   -0.01170   -0.00680   -0.29405
  3 Li    0.00574   -0.01026   -0.29058
  4 Li   -0.01612   -0.01599   -0.28409
  5 Li    0.00903    0.00538   -0.29372
  6 Li   -0.00760   -0.01093   -0.29556
  7 Li    0.00455    0.00957   -0.29227
  8 Li   -0.00084   -0.00076   -0.25607
  9 Li   -0.03071   -0.02772    0.29385
 10 Li   -0.01233   -0.00484    0.29314
 11 Li    0.03780   -0.02879    0.33412
 12 Li   -0.01005   -0.00590    0.28696
 13 Li    0.00993    0.00691    0.27573
 14 Li    0.01396    0.02298    0.27836
 15 Li   -0.01974    0.03506    0.33495
 16 Li    0.01386    0.01941    0.27025
 17 Li    0.04834    0.04252    0.27512
 18 Li    0.00191   -0.01480   -0.00748
 19 Li   -0.00761   -0.00444   -0.00102
 20 Li    0.02049   -0.00901   -0.01286
 21 Li   -0.01707    0.00644    0.00402
 22 Li    0.00542   -0.01071    0.00288
 23 Li    0.00081    0.00572    0.00935
 24 Li    0.00484    0.00009   -0.01461
 25 Li    0.01220   -0.00067    0.01356
 26 Li   -0.00721    0.00326   -0.02518
 27 Li   -0.01169   -0.01951    0.00480
 28 Li   -0.00612   -0.00218   -0.00058
 29 Li    0.01353   -0.00698   -0.00878
 30 Li   -0.00152    0.00688   -0.01618
 31 Li   -0.00035    0.00536    0.00633
 32 Li    0.00150   -0.01363   -0.00353
 33 Li   -0.02612    0.02268    0.02133
 34 Li   -0.01849    0.00151   -0.00912
 35 Li   -0.01327   -0.00784    0.00390
 36 O     0.01655   -0.00253   -0.01645
 37 C     0.01461   -0.00152   -0.00625
 38 C     0.00672   -0.00428    0.00756
 39 H    -0.00738   -0.00393    0.00762
 40 H     0.01612   -0.00785   -0.01808
 41 H    -0.00694   -0.00684    0.02153
 42 H    -0.01718    0.00503    0.00907
 43 H    -0.02093    0.00162    0.00893
 44 H     0.00087   -0.01606   -0.00065
 45 N     0.03789   -0.00837    0.01183
 46 N     0.00523    0.03158   -0.00182

Timing:                                      incl.     excl.
-------------------------------------------------------------------
Density initialized from wave functions:     5.613     5.610   0.0% |
 Symmetrize density:                         0.003     0.003   0.0% |
Forces:                                     52.995    52.995   0.1% |
Hamiltonian:                               795.342     0.019   0.0% |
 Atomic:                                     0.032     0.032   0.0% |
  XC Correction:                             0.000     0.000   0.0% |
 Calculate atomic Hamiltonians:              0.062     0.062   0.0% |
 Communicate:                               10.963    10.963   0.0% |
 Hartree integrate/restrict:                 2.672     2.672   0.0% |
 Initialize Hamiltonian:                     0.001     0.001   0.0% |
 Poisson:                                   38.215    14.352   0.0% |
  Communicate from 1D:                       3.851     3.851   0.0% |
  Communicate from 2D:                       3.903     3.903   0.0% |
  Communicate to 1D:                         2.243     2.243   0.0% |
  Communicate to 2D:                         4.317     4.317   0.0% |
  FFT 1D:                                    4.826     4.826   0.0% |
  FFT 2D:                                    4.724     4.724   0.0% |
 XC 3D grid:                               742.745   114.315   0.3% |
  VdW-DF integral:                         628.430     5.262   0.0% |
   Convolution:                             56.910    56.910   0.2% |
   FFT:                                     24.839    24.839   0.1% |
   gather:                                 216.955   216.955   0.6% |
   hmm1:                                    20.064    20.064   0.1% |
   hmm2:                                    26.579    26.579   0.1% |
   iFFT:                                    25.371    25.371   0.1% |
   potential:                              248.725     6.779   0.0% |
    collect:                                37.171    37.171   0.1% |
    p1:                                    109.893   109.893   0.3% |
    p2:                                     40.641    40.641   0.1% |
    sum:                                    54.241    54.241   0.1% |
   splines:                                  3.724     3.724   0.0% |
 vbar:                                       0.633     0.633   0.0% |
LCAO initialization:                         1.151     0.460   0.0% |
 LCAO eigensolver:                           0.205     0.000   0.0% |
  Calculate projections:                     0.000     0.000   0.0% |
  DenseAtomicCorrection:                     0.000     0.000   0.0% |
  Distribute overlap matrix:                 0.188     0.188   0.0% |
  Orbital Layouts:                           0.016     0.016   0.0% |
  Potential matrix:                          0.001     0.001   0.0% |
  Sum over cells:                            0.001     0.001   0.0% |
 LCAO to grid:                               0.444     0.444   0.0% |
 Set positions (LCAO WFS):                   0.042     0.001   0.0% |
  Basic WFS set positions:                   0.001     0.001   0.0% |
  Basis functions set positions:             0.000     0.000   0.0% |
  P tci:                                     0.000     0.000   0.0% |
  ST tci:                                    0.011     0.011   0.0% |
  mktci:                                     0.029     0.029   0.0% |
Redistribute:                                0.089     0.089   0.0% |
SCF-cycle:                               36393.952   547.438   1.5% ||
 Davidson:                                9136.841  2711.102   7.3% |--|
  Apply hamiltonian:                       572.494   572.494   1.5% ||
  Subspace diag:                          1738.200     0.591   0.0% |
   calc_h_matrix:                          851.115   256.510   0.7% |
    Apply hamiltonian:                     594.605   594.605   1.6% ||
   diagonalize:                            106.807   106.807   0.3% |
   rotate_psi:                             779.687   779.687   2.1% ||
  calc. matrices:                         2869.708  1492.653   4.0% |-|
   Apply hamiltonian:                     1377.055  1377.055   3.7% ||
  diagonalize:                              25.389    25.389   0.1% |
  rotate_psi:                             1219.949  1219.949   3.3% ||
 Density:                                  179.107     0.121   0.0% |
  Atomic density matrices:                  20.573    20.573   0.1% |
  Mix:                                      79.318    79.318   0.2% |
  Multipole moments:                         8.063     8.063   0.0% |
  Pseudo density:                           71.033    70.931   0.2% |
   Symmetrize density:                       0.102     0.102   0.0% |
 Hamiltonian:                            26505.207     0.640   0.0% |
  Atomic:                                    1.188     1.175   0.0% |
   XC Correction:                            0.013     0.013   0.0% |
  Calculate atomic Hamiltonians:             1.945     1.945   0.0% |
  Communicate:                             367.679   367.679   1.0% |
  Hartree integrate/restrict:               91.286    91.286   0.2% |
  Poisson:                                1273.207   469.948   1.3% ||
   Communicate from 1D:                    127.360   127.360   0.3% |
   Communicate from 2D:                    128.056   128.056   0.3% |
   Communicate to 1D:                       71.157    71.157   0.2% |
   Communicate to 2D:                      149.974   149.974   0.4% |
   FFT 1D:                                 167.736   167.736   0.4% |
   FFT 2D:                                 158.976   158.976   0.4% |
  XC 3D grid:                            24747.076  3853.968  10.3% |---|
   VdW-DF integral:                      20893.108   177.888   0.5% |
    Convolution:                          1923.517  1923.517   5.1% |-|
    FFT:                                   831.959   831.959   2.2% ||
    gather:                               7348.925  7348.925  19.7% |-------|
    hmm1:                                  682.847   682.847   1.8% ||
    hmm2:                                  896.829   896.829   2.4% ||
    iFFT:                                  864.100   864.100   2.3% ||
    potential:                            8167.004   230.431   0.6% |
     collect:                             1280.048  1280.048   3.4% ||
     p1:                                  3702.794  3702.794   9.9% |---|
     p2:                                  1369.802  1369.802   3.7% ||
     sum:                                 1583.930  1583.930   4.2% |-|
    splines:                                 0.041     0.041   0.0% |
  vbar:                                     22.186    22.186   0.1% |
 Orthonormalize:                            25.358     0.020   0.0% |
  calc_s_matrix:                             3.533     3.533   0.0% |
  inverse-cholesky:                          8.054     8.054   0.0% |
  projections:                               0.003     0.003   0.0% |
  rotate_psi_s:                             13.748    13.748   0.0% |
Set symmetry:                                0.033     0.033   0.0% |
Other:                                     142.993   142.993   0.4% |
-------------------------------------------------------------------
Total:                                             37392.168 100.0%

Memory usage: 1.12 GiB
Date: Thu Mar  9 08:41:12 2023
