
  ___ ___ ___ _ _ _  
 |   |   |_  | | | | 
 | | | | | . | | | | 
 |__ |  _|___|_____|  22.8.0
 |___|_|             

User:   vazumah@c12.hercules
Date:   Sat Feb 25 22:53:01 2023
Arch:   x86_64
Pid:    20922
CWD:    /home/vazumah/Python_projects/LiNRR/Li_adsorb_studies/proton_donors/N2_with_proton_donor/Li_BCC_100/adsorbates/CH3CH2OH_z/bridge/0.0_1.617/N2_y
Python: 3.10.8
gpaw:   /home/vazumah/.conda/envs/GPAW/lib/python3.10/site-packages/gpaw
_gpaw:  /home/vazumah/.conda/envs/GPAW/lib/python3.10/site-packages/
        _gpaw.cpython-310-x86_64-linux-gnu.so
ase:    /home/vazumah/.conda/envs/GPAW/lib/python3.10/site-packages/ase (version 3.22.1)
numpy:  /home/vazumah/.conda/envs/GPAW/lib/python3.10/site-packages/numpy (version 1.24.1)
scipy:  /home/vazumah/.conda/envs/GPAW/lib/python3.10/site-packages/scipy (version 1.10.0)
libxc:  5.2.3
units:  Angstrom and eV
cores: 24
OpenMP: True
OMP_NUM_THREADS: 1

Input parameters:
  h: 0.16

System changes: positions, numbers, cell, pbc, initial_charges, initial_magmoms 

Initialize ...

species:
  Li:
    name: Lithium
    id: b73562207f97a71b6967473b66fe8b65
    Z: 3.0
    valence: 1
    core: 2
    charge: 0.0
    file: /home/vazumah/.conda/envs/GPAW/share/gpaw/Li.LDA.gz
    compensation charges: {type: gauss,
                           rc: 0.33,
                           lmax: 2}
    cutoffs: {filter: 1.91,
              core: 2.55}
    valence states:
      #              energy  rcut
      - 2s(1.00)    -2.874   1.058
      - 2p(0.00)    -1.126   1.058
      -  s          24.338   1.058
  
    # Using partial waves for Li as LCAO basis

  O:
    name: Oxygen
    id: 9b9d51c344dea68c822856295a461509
    Z: 8.0
    valence: 6
    core: 2
    charge: 0.0
    file: /home/vazumah/.conda/envs/GPAW/share/gpaw/O.LDA.gz
    compensation charges: {type: gauss,
                           rc: 0.21,
                           lmax: 2}
    cutoffs: {filter: 1.17,
              core: 0.83}
    valence states:
      #              energy  rcut
      - 2s(2.00)   -23.752   0.688
      - 2p(4.00)    -9.195   0.598
      -  s           3.459   0.688
      -  p          18.016   0.598
      -  d           0.000   0.619
  
    # Using partial waves for O as LCAO basis

  C:
    name: Carbon
    id: d60576a1f549371a163e72552ca58787
    Z: 6.0
    valence: 4
    core: 2
    charge: 0.0
    file: /home/vazumah/.conda/envs/GPAW/share/gpaw/C.LDA.gz
    compensation charges: {type: gauss,
                           rc: 0.20,
                           lmax: 2}
    cutoffs: {filter: 1.14,
              core: 1.14}
    valence states:
      #              energy  rcut
      - 2s(2.00)   -13.639   0.635
      - 2p(2.00)    -5.414   0.635
      -  s          13.573   0.635
      -  p          21.797   0.635
      -  d           0.000   0.635
  
    # Using partial waves for C as LCAO basis

  H:
    name: Hydrogen
    id: 4766778ce56282eaa64abeb28b7c1de3
    Z: 1.0
    valence: 1
    core: 0
    charge: 0.0
    file: /home/vazumah/.conda/envs/GPAW/share/gpaw/H.LDA.gz
    compensation charges: {type: gauss,
                           rc: 0.15,
                           lmax: 2}
    cutoffs: {filter: 0.85,
              core: 0.53}
    valence states:
      #              energy  rcut
      - 1s(1.00)    -6.353   0.476
      -  s          20.858   0.476
      -  p           0.000   0.476
  
    # Using partial waves for H as LCAO basis

  N:
    name: Nitrogen
    id: c467cdfa1b75f62c8f7a0469921b1cfb
    Z: 7.0
    valence: 5
    core: 2
    charge: 0.0
    file: /home/vazumah/.conda/envs/GPAW/share/gpaw/N.LDA.gz
    compensation charges: {type: gauss,
                           rc: 0.18,
                           lmax: 2}
    cutoffs: {filter: 1.11,
              core: 0.96}
    valence states:
      #              energy  rcut
      - 2s(2.00)   -18.420   0.603
      - 2p(3.00)    -7.237   0.529
      -  s           8.791   0.603
      -  p          19.974   0.529
      -  d           0.000   0.577
  
    # Using partial waves for N as LCAO basis

Reference energy: -14265.952424  # eV

Spin-paired calculation

Convergence criteria:
 Maximum [total energy] change in last 3 cyles: 0.0005 eV / electron
 Maximum integral of absolute [dens]ity change: 0.0001 electrons / valence electron
 Maximum integral of absolute [eigenst]ate change: 4e-08 eV^2 / valence electron
 Maximum number of scf [iter]ations: 333
 (Square brackets indicate name in SCF output, whereas a 'c' in
 the SCF output indicates the quantity has converged.)

Symmetries present (total): 1

  ( 1  0  0)
  ( 0  1  0)
  ( 0  0  1)

1 k-point (Gamma)
1 k-point in the irreducible part of the Brillouin zone
       k-points in crystal coordinates                weights
   0:     0.00000000    0.00000000    0.00000000          1/1

Wave functions: Uniform real-space grid
  Kinetic energy operator: 6*3+1=19 point O(h^6) finite-difference Laplacian
  ScaLapack parameters: grid=1x1, blocksize=None
  Wavefunction extrapolation:
    Improved wavefunction reuse through dual PAW basis 

Occupation numbers: Fermi-Dirac:
  width: 0.1000  # eV
 

Eigensolver
   Davidson(niter=2) 

Densities:
  Coarse grid: 60*60*156 grid
  Fine grid: 120*120*312 grid
  Total Charge: 0.000000 

Density mixing:
  Method: separate
  Backend: pulay
  Linear mixing parameter: 0.05
  old densities: 5
  Damping of long wavelength oscillations: 50 

Hamiltonian:
  XC and Coulomb potentials evaluated on a 120*120*312 grid
  Using the LDA Exchange-Correlation functional
  Interpolation: tri-quintic (5. degree polynomial)
  Poisson solver: FastPoissonSolver using
    Stencil: 6*3+1=19 point O(h^6) finite-difference Laplacian
    FFT axes: [0, 1]
    FST axes: [2]
 

Memory estimate:
  Process memory now: 233.55 MiB
  Calculator: 34.86 MiB
    Density: 14.67 MiB
      Arrays: 4.55 MiB
      Localized functions: 8.41 MiB
      Mixer: 1.72 MiB
    Hamiltonian: 3.64 MiB
      Arrays: 2.97 MiB
      XC: 0.00 MiB
      Poisson: 0.00 MiB
      vbar: 0.66 MiB
    Wavefunctions: 16.55 MiB
      Arrays psit_nG: 7.55 MiB
      Eigensolver: 8.56 MiB
      Projections: 0.00 MiB
      Projectors: 0.43 MiB

Total number of cores used: 24
Domain decomposition: 2 x 2 x 6

Number of atoms: 47
Number of atomic orbitals: 170
Number of bands in calculation: 44
Number of valence electrons: 66
Bands to converge: occupied

... initialized

Initializing position-dependent things.

Density initialized from atomic densities
Creating initial wave functions:
  44 bands from LCAO basis set

       .-----------------------.  
      /|                       |  
     / |                       |  
    /  |                       |  
   /   |                       |  
  /    |                       |  
 *     |                       |  
 |     |                       |  
 |   H |                H      |  
 |H    |                       |  
 |     |                H      |  
 |  H  |               H  C    |  
 |     Li      Li      Li      |  
 |     |                       |  
 |   Li|     Li      Li        |  
 NN    |  Li      Li      Li   |  
 |     |   Li      Li      Li  |  
 |     |Li      Li      Li     |  
 |     |                       |  
 |   LLi     LLi     LLi       |  
 |     |  Li      Li      Li   |  
 | Li  |   Li      Li          |  
 |     |Li      Li      Li     |  
 Li    | Li      Li            |  
 |    Li      Li      Li       |  
 |     |                       |  
 |     |                       |  
 |     |                       |  
 |     |                       |  
 |     |                       |  
 |     |                       |  
 |     .-----------------------.  
 |    /                       /   
 |   /                       /    
 |  /                       /     
 | /                       /      
 |/                       /       
 *-----------------------*        

Positions:
   0 Li     1.617037    1.617037   10.000000    ( 0.0000,  0.0000,  0.0000)
   1 Li     4.851111    1.617037   10.000000    ( 0.0000,  0.0000,  0.0000)
   2 Li     8.085185    1.617037   10.000000    ( 0.0000,  0.0000,  0.0000)
   3 Li     1.617037    4.851111   10.000000    ( 0.0000,  0.0000,  0.0000)
   4 Li     4.851111    4.851111   10.000000    ( 0.0000,  0.0000,  0.0000)
   5 Li     8.085185    4.851111   10.000000    ( 0.0000,  0.0000,  0.0000)
   6 Li     1.617037    8.085185   10.000000    ( 0.0000,  0.0000,  0.0000)
   7 Li     4.851111    8.085185   10.000000    ( 0.0000,  0.0000,  0.0000)
   8 Li     8.085185    8.085185   10.000000    ( 0.0000,  0.0000,  0.0000)
   9 Li     0.000000    0.000000   11.617037    ( 0.0000,  0.0000,  0.0000)
  10 Li     3.234074    0.000000   11.617037    ( 0.0000,  0.0000,  0.0000)
  11 Li     6.468148    0.000000   11.617037    ( 0.0000,  0.0000,  0.0000)
  12 Li     0.000000    3.234074   11.617037    ( 0.0000,  0.0000,  0.0000)
  13 Li     3.234074    3.234074   11.617037    ( 0.0000,  0.0000,  0.0000)
  14 Li     6.468148    3.234074   11.617037    ( 0.0000,  0.0000,  0.0000)
  15 Li     0.000000    6.468148   11.617037    ( 0.0000,  0.0000,  0.0000)
  16 Li     3.234074    6.468148   11.617037    ( 0.0000,  0.0000,  0.0000)
  17 Li     6.468148    6.468148   11.617037    ( 0.0000,  0.0000,  0.0000)
  18 Li     1.628504    1.625102   13.411452    ( 0.0000,  0.0000,  0.0000)
  19 Li     4.847826    1.619565   13.468170    ( 0.0000,  0.0000,  0.0000)
  20 Li     8.076813    1.624000   13.419883    ( 0.0000,  0.0000,  0.0000)
  21 Li     1.582024    4.791125   13.517311    ( 0.0000,  0.0000,  0.0000)
  22 Li     4.847718    4.872445   13.453814    ( 0.0000,  0.0000,  0.0000)
  23 Li     8.120434    4.793076   13.520402    ( 0.0000,  0.0000,  0.0000)
  24 Li     1.636933    8.031822   13.427939    ( 0.0000,  0.0000,  0.0000)
  25 Li     4.849591    8.047692   13.460339    ( 0.0000,  0.0000,  0.0000)
  26 Li     8.069696    8.033440   13.427211    ( 0.0000,  0.0000,  0.0000)
  27 Li     0.001710   -0.178888   15.255996    ( 0.0000,  0.0000,  0.0000)
  28 Li     3.297573   -0.026445   15.347314    ( 0.0000,  0.0000,  0.0000)
  29 Li     6.405355   -0.023672   15.341703    ( 0.0000,  0.0000,  0.0000)
  30 Li    -0.018675    3.054019   15.578100    ( 0.0000,  0.0000,  0.0000)
  31 Li     3.269709    3.267730   15.388862    ( 0.0000,  0.0000,  0.0000)
  32 Li     6.421953    3.264113   15.382946    ( 0.0000,  0.0000,  0.0000)
  33 Li     0.000112    6.363289   15.435037    ( 0.0000,  0.0000,  0.0000)
  34 Li     3.226547    6.480979   15.425605    ( 0.0000,  0.0000,  0.0000)
  35 Li     6.470359    6.480879   15.419608    ( 0.0000,  0.0000,  0.0000)
  36 O     -0.139369    2.599147   19.805333    ( 0.0000,  0.0000,  0.0000)
  37 C     -0.044983    1.310281   20.437405    ( 0.0000,  0.0000,  0.0000)
  38 C      0.066764    1.402096   21.949697    ( 0.0000,  0.0000,  0.0000)
  39 H     -0.890795    0.673117   20.146944    ( 0.0000,  0.0000,  0.0000)
  40 H      0.856981    0.857526   20.023044    ( 0.0000,  0.0000,  0.0000)
  41 H      0.192606    0.405658   22.380131    ( 0.0000,  0.0000,  0.0000)
  42 H      0.927287    2.011339   22.228088    ( 0.0000,  0.0000,  0.0000)
  43 H     -0.829277    1.846554   22.388145    ( 0.0000,  0.0000,  0.0000)
  44 H     -1.007103    2.971490   20.006482    ( 0.0000,  0.0000,  0.0000)
  45 N      0.006452    1.456110   16.779376    ( 0.0000,  0.0000,  0.0000)
  46 N      0.021379    0.468886   17.339579    ( 0.0000,  0.0000,  0.0000)

Unit cell:
           periodic     x           y           z      points  spacing
  1. axis:    yes    9.702222    0.000000    0.000000    60     0.1617
  2. axis:    yes    0.000000    9.702222    0.000000    60     0.1617
  3. axis:    no     0.000000    0.000000   24.851111   156     0.1593

  Lengths:   9.702222   9.702222  24.851111
  Angles:   90.000000  90.000000  90.000000

Effective grid spacing dv^(1/3) = 0.1609

     iter     time        total  log10-change:
                         energy  eigst   dens
iter:   1 22:53:35  -245.533953
iter:   2 22:53:59   -56.506076  +2.10  -0.12
iter:   3 22:54:26     0.400150  +2.85  -0.33
iter:   4 22:54:51   -33.350431  +2.55  -0.55
iter:   5 22:55:17   -99.496828  +2.97  -0.63
iter:   6 22:55:42  -138.564297  +2.55  -0.75
iter:   7 22:56:07  -151.410424  +2.10  -0.81
iter:   8 22:56:32  -167.694385  +1.78  -0.80
iter:   9 22:56:59  -152.120217  +1.16  -0.71
iter:  10 22:57:25  -145.492433  +0.96  -0.82
iter:  11 22:57:52  -158.182505  +0.98  -0.83
iter:  12 22:58:20  -161.402126  +1.03  -0.79
iter:  13 22:58:45  -140.285789  +0.61  -0.69
iter:  14 22:59:11  -139.388935  +0.46  -0.85
iter:  15 22:59:37  -138.433873  +0.75  -0.86
iter:  16 23:00:06  -136.841933  +0.43  -0.94
iter:  17 23:00:32  -136.766608  -0.02  -1.12
iter:  18 23:00:57  -136.501713  -0.10  -1.18
iter:  19 23:01:22  -137.277219  +0.56  -1.31
iter:  20 23:01:49  -136.762291  -0.40  -1.19
iter:  21 23:02:19  -136.286408  -0.26  -1.28
iter:  22 23:02:45  -136.371712  -0.25  -1.50
iter:  23 23:03:12  -136.261259  -0.32  -1.62
iter:  24 23:03:39  -136.259854  -1.36  -1.72
iter:  25 23:04:07  -136.241745c -1.30  -1.82
iter:  26 23:04:33  -136.206410  -1.23  -1.98
iter:  27 23:04:59  -136.212030  -1.65  -2.16
iter:  28 23:05:26  -136.213587c -1.82  -2.18
iter:  29 23:05:52  -136.207975c -1.67  -2.20
iter:  30 23:06:16  -136.210628c -1.73  -2.32
iter:  31 23:06:42  -136.209165c -2.11  -2.34
iter:  32 23:07:09  -136.209450c -2.32  -2.41
iter:  33 23:07:35  -136.209824c -2.14  -2.44
iter:  34 23:08:00  -136.211133c -2.10  -2.59
iter:  35 23:08:25  -136.211429c -2.60  -2.65
iter:  36 23:08:51  -136.211734c -2.79  -2.66
iter:  37 23:09:17  -136.213022c -2.46  -2.68
iter:  38 23:09:43  -136.212879c -2.70  -2.60
iter:  39 23:10:09  -136.213164c -2.92  -2.63
iter:  40 23:10:37  -136.214068c -2.56  -2.65
iter:  41 23:11:04  -136.214430c -2.49  -2.59
iter:  42 23:11:30  -136.214386c -2.75  -2.61
iter:  43 23:11:57  -136.214711c -3.13  -2.62
iter:  44 23:12:22  -136.214841c -2.98  -2.62
iter:  45 23:12:49  -136.215415c -3.00  -2.61
iter:  46 23:13:16  -136.215880c -2.68  -2.53
iter:  47 23:13:43  -136.214896c -3.04  -2.49
iter:  48 23:14:11  -136.215689c -3.09  -2.59
iter:  49 23:14:37  -136.213669c -3.19  -2.57
iter:  50 23:15:03  -136.214262c -2.86  -2.60
iter:  51 23:15:30  -136.213061c -3.57  -2.54
iter:  52 23:15:57  -136.212165c -3.08  -2.58
iter:  53 23:16:25  -136.213188c -3.20  -2.69
iter:  54 23:16:53  -136.212530c -3.22  -2.81
iter:  55 23:17:19  -136.211988c -2.91  -2.98
iter:  56 23:17:46  -136.212306c -3.76  -2.96
iter:  57 23:18:14  -136.211992c -3.69  -3.10
iter:  58 23:18:39  -136.212235c -3.86  -3.42
iter:  59 23:19:05  -136.212258c -4.33  -3.43
iter:  60 23:19:33  -136.212011c -4.15  -3.46
iter:  61 23:19:56  -136.212028c -4.79  -3.81
iter:  62 23:20:19  -136.212056c -4.72  -3.89
iter:  63 23:20:44  -136.212026c -5.31  -3.95
iter:  64 23:21:10  -136.212033c -5.31  -4.04c
iter:  65 23:21:35  -136.212043c -5.30  -4.10c
iter:  66 23:22:01  -136.212045c -5.50  -4.10c
iter:  67 23:22:27  -136.212035c -5.14  -4.18c
iter:  68 23:22:53  -136.212035c -5.37  -4.27c
iter:  69 23:23:17  -136.212042c -5.64  -4.32c
iter:  70 23:23:43  -136.212035c -5.53  -4.40c
iter:  71 23:24:08  -136.212035c -5.51  -4.52c
iter:  72 23:24:34  -136.212036c -5.96  -4.79c
iter:  73 23:25:01  -136.212036c -5.94  -4.93c
iter:  74 23:25:28  -136.212035c -5.94  -5.02c
iter:  75 23:25:52  -136.212036c -5.75  -5.05c
iter:  76 23:26:19  -136.212036c -5.95  -5.16c
iter:  77 23:26:43  -136.212034c -5.89  -5.21c
iter:  78 23:27:08  -136.212032c -5.81  -5.37c
iter:  79 23:27:33  -136.212032c -6.30  -5.47c
iter:  80 23:27:58  -136.212031c -6.37  -5.54c
iter:  81 23:28:26  -136.212030c -6.12  -5.57c
iter:  82 23:28:55  -136.212030c -6.31  -5.59c
iter:  83 23:29:21  -136.212031c -6.28  -5.67c
iter:  84 23:29:50  -136.212030c -6.43  -5.84c
iter:  85 23:30:19  -136.212030c -6.79  -5.87c
iter:  86 23:30:46  -136.212030c -6.73  -5.89c
iter:  87 23:31:13  -136.212030c -6.43  -5.87c
iter:  88 23:31:39  -136.212030c -6.60  -5.87c
iter:  89 23:32:03  -136.212030c -6.84  -5.80c
iter:  90 23:32:28  -136.212029c -6.63  -5.81c
iter:  91 23:32:53  -136.212029c -6.72  -5.74c
iter:  92 23:33:20  -136.212029c -6.72  -5.78c
iter:  93 23:33:45  -136.212029c -6.79  -5.79c
iter:  94 23:34:13  -136.212029c -7.03  -5.71c
iter:  95 23:34:42  -136.212028c -6.74  -5.77c
iter:  96 23:35:09  -136.212029c -7.12  -5.69c
iter:  97 23:35:34  -136.212029c -6.97  -5.69c
iter:  98 23:36:02  -136.212028c -7.24  -5.78c
iter:  99 23:36:28  -136.212028c -7.14  -5.77c
iter: 100 23:36:55  -136.212028c -7.26  -5.79c
iter: 101 23:37:22  -136.212028c -7.51c -6.05c

Converged after 101 iterations.

Dipole moment: (-13.735071, -8.925259, 0.240822) |e|*Ang

Energy contributions relative to reference atoms: (reference = -14265.952424)

Kinetic:       +145.595596
Potential:     -140.927647
External:        +0.000000
XC:            -141.192743
Entropy (-ST):   -0.889659
Local:           +0.757596
--------------------------
Free energy:   -136.656857
Extrapolated:  -136.212028

 Band  Eigenvalues  Occupancy
    0    -26.84701    2.00000
    1    -25.10204    2.00000
    2    -18.33215    2.00000
    3    -15.19311    2.00000
    4    -13.30568    2.00000
    5    -12.36366    2.00000
    6    -11.19452    2.00000
    7    -11.01177    2.00000
    8    -10.86646    2.00000
    9    -10.36411    2.00000
   10     -9.86995    2.00000
   11     -9.18468    2.00000
   12     -8.83740    2.00000
   13     -7.63316    2.00000
   14     -6.31097    2.00000
   15     -6.28569    2.00000
   16     -5.25623    2.00000
   17     -5.16138    2.00000
   18     -5.15081    2.00000
   19     -5.14859    2.00000
   20     -5.09843    2.00000
   21     -4.18505    1.99999
   22     -4.15177    1.99999
   23     -4.13856    1.99998
   24     -4.09214    1.99998
   25     -4.01254    1.99995
   26     -4.00749    1.99994
   27     -4.00680    1.99994
   28     -3.99854    1.99994
   29     -3.74795    1.99924
   30     -3.04606    1.40193
   31     -3.03454    1.35253
   32     -2.94826    0.93701
   33     -2.93523    0.87249
   34     -2.87480    0.59435
   35     -2.80587    0.35015
   36     -2.78868    0.30323
   37     -2.73156    0.18338
   38     -2.34364    0.00416
   39     -2.19952    0.00099
   40     -2.16764    0.00072
   41     -1.91302    0.00006
   42     -1.87429    0.00004
   43     -1.84350    0.00003

Fermi level: -2.96088

Gap: 0.086 eV
Transition (v -> c):
  (s=0, k=0, n=31, [0.00, 0.00, 0.00]) -> (s=0, k=0, n=32, [0.00, 0.00, 0.00])
