
  ___ ___ ___ _ _ _  
 |   |   |_  | | | | 
 | | | | | . | | | | 
 |__ |  _|___|_____|  22.8.0
 |___|_|             

User:   vazumah@c13.hercules
Date:   Fri Feb 17 09:45:05 2023
Arch:   x86_64
Pid:    18366
CWD:    /home/vazumah/Python_projects/LiNRR/Li_adsorb_studies/proton_donors/ethanol_N2/Li_BCC_100/adsorbates/CH3CH2OH_z/bridge/0.0_1.617/N2_y
Python: 3.10.8
gpaw:   /home/vazumah/.conda/envs/GPAW/lib/python3.10/site-packages/gpaw
_gpaw:  /home/vazumah/.conda/envs/GPAW/lib/python3.10/site-packages/
        _gpaw.cpython-310-x86_64-linux-gnu.so
ase:    /home/vazumah/.conda/envs/GPAW/lib/python3.10/site-packages/ase (version 3.22.1)
numpy:  /home/vazumah/.conda/envs/GPAW/lib/python3.10/site-packages/numpy (version 1.24.1)
scipy:  /home/vazumah/.conda/envs/GPAW/lib/python3.10/site-packages/scipy (version 1.10.0)
libxc:  5.2.3
units:  Angstrom and eV
cores: 24
OpenMP: True
OMP_NUM_THREADS: 1

Reading from output.gpw
Read dipole, energy, free_energy, magmom, magmoms
Reading input parameters:
  h: 0.16
  kpts: {size: [4, 4, 1]}
  occupations: {name: fermi-dirac,
                width: 0.05}
  poissonsolver: {dipolelayer: xy}
  xc: BEEF-vdW

Initialize ...

species:
  Li:
    name: Lithium
    id: 830b4218f175192f93f959cfc0aad614
    Z: 3.0
    valence: 1
    core: 2
    charge: 0.0
    file: /home/vazumah/.conda/envs/GPAW/share/gpaw/Li.PBE.gz
    compensation charges: {type: gauss,
                           rc: 0.33,
                           lmax: 2}
    cutoffs: {filter: 1.91,
              core: 2.55}
    valence states:
      #              energy  rcut
      - 2s(1.00)    -2.874   1.058
      - 2p(0.00)    -1.090   1.058
      -  s          24.337   1.058
  
    # Using partial waves for Li as LCAO basis

  O:
    name: Oxygen
    id: 32ecd46bf208036f09c70b0ec9a88b78
    Z: 8.0
    valence: 6
    core: 2
    charge: 0.0
    file: /home/vazumah/.conda/envs/GPAW/share/gpaw/O.PBE.gz
    compensation charges: {type: gauss,
                           rc: 0.21,
                           lmax: 2}
    cutoffs: {filter: 1.17,
              core: 0.83}
    valence states:
      #              energy  rcut
      - 2s(2.00)   -23.961   0.688
      - 2p(4.00)    -9.029   0.598
      -  s           3.251   0.688
      -  p          18.182   0.598
      -  d           0.000   0.619
  
    # Using partial waves for O as LCAO basis

  C:
    name: Carbon
    id: 4aa54d4b901d75f77cc0ea3eec22967b
    Z: 6.0
    valence: 4
    core: 2
    charge: 0.0
    file: /home/vazumah/.conda/envs/GPAW/share/gpaw/C.PBE.gz
    compensation charges: {type: gauss,
                           rc: 0.20,
                           lmax: 2}
    cutoffs: {filter: 1.14,
              core: 1.14}
    valence states:
      #              energy  rcut
      - 2s(2.00)   -13.751   0.635
      - 2p(2.00)    -5.284   0.635
      -  s          13.461   0.635
      -  p          21.927   0.635
      -  d           0.000   0.635
  
    # Using partial waves for C as LCAO basis

  H:
    name: Hydrogen
    id: d65de229564ff8ea4db303e23b6d1ecf
    Z: 1.0
    valence: 1
    core: 0
    charge: 0.0
    file: /home/vazumah/.conda/envs/GPAW/share/gpaw/H.PBE.gz
    compensation charges: {type: gauss,
                           rc: 0.15,
                           lmax: 2}
    cutoffs: {filter: 0.85,
              core: 0.53}
    valence states:
      #              energy  rcut
      - 1s(1.00)    -6.494   0.476
      -  s          20.717   0.476
      -  p           0.000   0.476
  
    # Using partial waves for H as LCAO basis

  N:
    name: Nitrogen
    id: f7500608b86eaa90eef8b1d9a670dc53
    Z: 7.0
    valence: 5
    core: 2
    charge: 0.0
    file: /home/vazumah/.conda/envs/GPAW/share/gpaw/N.PBE.gz
    compensation charges: {type: gauss,
                           rc: 0.18,
                           lmax: 2}
    cutoffs: {filter: 1.11,
              core: 0.96}
    valence states:
      #              energy  rcut
      - 2s(2.00)   -18.583   0.603
      - 2p(3.00)    -7.089   0.529
      -  s           8.629   0.603
      -  p          20.123   0.529
      -  d           0.000   0.577
  
    # Using partial waves for N as LCAO basis

Reference energy: -14434.854043  # eV

Spin-paired calculation

Convergence criteria:
 Maximum [total energy] change in last 3 cyles: 0.0005 eV / electron
 Maximum integral of absolute [dens]ity change: 0.0001 electrons / valence electron
 Maximum integral of absolute [eigenst]ate change: 4e-08 eV^2 / valence electron
 Maximum number of scf [iter]ations: 333
 (Square brackets indicate name in SCF output, whereas a 'c' in
 the SCF output indicates the quantity has converged.)

Symmetries present (total): 1

  ( 1  0  0)
  ( 0  1  0)
  ( 0  0  1)

16 k-points: 4 x 4 x 1 Monkhorst-Pack grid
8 k-points in the irreducible part of the Brillouin zone
       k-points in crystal coordinates                weights
   0:     0.12500000   -0.37500000    0.00000000          2/16
   1:     0.12500000   -0.12500000    0.00000000          2/16
   2:     0.12500000    0.12500000    0.00000000          2/16
   3:     0.12500000    0.37500000    0.00000000          2/16
   4:     0.37500000   -0.37500000    0.00000000          2/16
   5:     0.37500000   -0.12500000    0.00000000          2/16
   6:     0.37500000    0.12500000    0.00000000          2/16
   7:     0.37500000    0.37500000    0.00000000          2/16

Wave functions: Uniform real-space grid
  Kinetic energy operator: 6*3+1=19 point O(h^6) finite-difference Laplacian
  ScaLapack parameters: grid=1x1, blocksize=None
  Wavefunction extrapolation:
    Improved wavefunction reuse through dual PAW basis 

Occupation numbers: Fermi-Dirac:
  width: 0.0500  # eV
 

Eigensolver
   Davidson(niter=2) 

Densities:
  Coarse grid: 60*60*156 grid
  Fine grid: 120*120*312 grid
  Total Charge: 0.000000 

Density mixing:
  Method: separate
  Backend: pulay
  Linear mixing parameter: 0.05
  old densities: 5
  Damping of long wavelength oscillations: 50 

Hamiltonian:
  XC and Coulomb potentials evaluated on a 120*120*312 grid
  Using the BEEF-vdW Exchange-Correlation functional
  Interpolation: tri-quintic (5. degree polynomial)
  Poisson solver: FastPoissonSolver using
    Stencil: 6*3+1=19 point O(h^6) finite-difference Laplacian
    FFT axes: [0, 1]
    FST axes: [2]

Dipole correction along z-axis 

XC parameters: BEEF-vdW with 2 nearest neighbor stencil

Memory estimate:
  Process memory now: 217.07 MiB
  Calculator: 411.72 MiB
    Density: 118.00 MiB
      Arrays: 36.75 MiB
      Localized functions: 67.24 MiB
      Mixer: 14.01 MiB
    Hamiltonian: 29.35 MiB
      Arrays: 24.03 MiB
      XC: 0.00 MiB
      Poisson: 0.00 MiB
      vbar: 5.32 MiB
    Wavefunctions: 264.37 MiB
      Arrays psit_nG: 123.27 MiB
      Eigensolver: 137.57 MiB
      Projections: 0.06 MiB
      Projectors: 3.47 MiB

Total number of cores used: 24
Parallelization over k-points: 8
Domain decomposition: 1 x 1 x 3

Number of atoms: 47
Number of atomic orbitals: 170
Number of bands in calculation: 44
Number of valence electrons: 66
Bands to converge: occupied

... initialized

Initializing position-dependent things.

Creating initial wave functions:
  44 bands from LCAO basis set

       .-----------------------.  
      /|                       |  
     / |                       |  
    /  |                       |  
   /   |                       |  
  /    |                       |  
 *     |                       |  
 |     |                       |  
 |   H |                H      |  
 |H    |                       |  
 |     |                H      |  
 |  H  |               H  C    |  
 |     Li      Li      Li      |  
 |     |                       |  
 |   Li|     Li      Li        |  
 NN    |  Li      Li      Li   |  
 |     |   Li      Li      Li  |  
 |     |Li      Li      Li     |  
 |     |                       |  
 |   LLi     LLi     LLi       |  
 |     |  Li      Li      Li   |  
 | Li  |   Li      Li          |  
 |     |Li      Li      Li     |  
 Li    | Li      Li            |  
 |    Li      Li      Li       |  
 |     |                       |  
 |     |                       |  
 |     |                       |  
 |     |                       |  
 |     |                       |  
 |     |                       |  
 |     .-----------------------.  
 |    /                       /   
 |   /                       /    
 |  /                       /     
 | /                       /      
 |/                       /       
 *-----------------------*        

Positions:
   0 Li     1.617037    1.617037   10.000000    ( 0.0000,  0.0000,  0.0000)
   1 Li     4.851111    1.617037   10.000000    ( 0.0000,  0.0000,  0.0000)
   2 Li     8.085185    1.617037   10.000000    ( 0.0000,  0.0000,  0.0000)
   3 Li     1.617037    4.851111   10.000000    ( 0.0000,  0.0000,  0.0000)
   4 Li     4.851111    4.851111   10.000000    ( 0.0000,  0.0000,  0.0000)
   5 Li     8.085185    4.851111   10.000000    ( 0.0000,  0.0000,  0.0000)
   6 Li     1.617037    8.085185   10.000000    ( 0.0000,  0.0000,  0.0000)
   7 Li     4.851111    8.085185   10.000000    ( 0.0000,  0.0000,  0.0000)
   8 Li     8.085185    8.085185   10.000000    ( 0.0000,  0.0000,  0.0000)
   9 Li     0.000000    0.000000   11.617037    ( 0.0000,  0.0000,  0.0000)
  10 Li     3.234074    0.000000   11.617037    ( 0.0000,  0.0000,  0.0000)
  11 Li     6.468148    0.000000   11.617037    ( 0.0000,  0.0000,  0.0000)
  12 Li     0.000000    3.234074   11.617037    ( 0.0000,  0.0000,  0.0000)
  13 Li     3.234074    3.234074   11.617037    ( 0.0000,  0.0000,  0.0000)
  14 Li     6.468148    3.234074   11.617037    ( 0.0000,  0.0000,  0.0000)
  15 Li     0.000000    6.468148   11.617037    ( 0.0000,  0.0000,  0.0000)
  16 Li     3.234074    6.468148   11.617037    ( 0.0000,  0.0000,  0.0000)
  17 Li     6.468148    6.468148   11.617037    ( 0.0000,  0.0000,  0.0000)
  18 Li     1.628504    1.625102   13.411452    ( 0.0000,  0.0000,  0.0000)
  19 Li     4.847826    1.619565   13.468170    ( 0.0000,  0.0000,  0.0000)
  20 Li     8.076813    1.624000   13.419883    ( 0.0000,  0.0000,  0.0000)
  21 Li     1.582024    4.791125   13.517311    ( 0.0000,  0.0000,  0.0000)
  22 Li     4.847718    4.872445   13.453814    ( 0.0000,  0.0000,  0.0000)
  23 Li     8.120434    4.793076   13.520402    ( 0.0000,  0.0000,  0.0000)
  24 Li     1.636933    8.031822   13.427939    ( 0.0000,  0.0000,  0.0000)
  25 Li     4.849591    8.047692   13.460339    ( 0.0000,  0.0000,  0.0000)
  26 Li     8.069696    8.033440   13.427211    ( 0.0000,  0.0000,  0.0000)
  27 Li     0.001710   -0.178888   15.255996    ( 0.0000,  0.0000,  0.0000)
  28 Li     3.297573   -0.026445   15.347314    ( 0.0000,  0.0000,  0.0000)
  29 Li     6.405355   -0.023672   15.341703    ( 0.0000,  0.0000,  0.0000)
  30 Li    -0.018675    3.054019   15.578100    ( 0.0000,  0.0000,  0.0000)
  31 Li     3.269709    3.267730   15.388862    ( 0.0000,  0.0000,  0.0000)
  32 Li     6.421953    3.264113   15.382946    ( 0.0000,  0.0000,  0.0000)
  33 Li     0.000112    6.363289   15.435037    ( 0.0000,  0.0000,  0.0000)
  34 Li     3.226547    6.480979   15.425605    ( 0.0000,  0.0000,  0.0000)
  35 Li     6.470359    6.480879   15.419608    ( 0.0000,  0.0000,  0.0000)
  36 O     -0.139369    2.599147   19.805333    ( 0.0000,  0.0000,  0.0000)
  37 C     -0.044983    1.310281   20.437405    ( 0.0000,  0.0000,  0.0000)
  38 C      0.066764    1.402096   21.949697    ( 0.0000,  0.0000,  0.0000)
  39 H     -0.890795    0.673117   20.146944    ( 0.0000,  0.0000,  0.0000)
  40 H      0.856981    0.857526   20.023044    ( 0.0000,  0.0000,  0.0000)
  41 H      0.192606    0.405658   22.380131    ( 0.0000,  0.0000,  0.0000)
  42 H      0.927287    2.011339   22.228088    ( 0.0000,  0.0000,  0.0000)
  43 H     -0.829277    1.846554   22.388145    ( 0.0000,  0.0000,  0.0000)
  44 H     -1.007103    2.971490   20.006482    ( 0.0000,  0.0000,  0.0000)
  45 N      0.006452    1.456110   16.779376    ( 0.0000,  0.0000,  0.0000)
  46 N      0.021379    0.468886   17.339579    ( 0.0000,  0.0000,  0.0000)

Unit cell:
           periodic     x           y           z      points  spacing
  1. axis:    yes    9.702222    0.000000    0.000000    60     0.1617
  2. axis:    yes    0.000000    9.702222    0.000000    60     0.1617
  3. axis:    no     0.000000    0.000000   24.851111   156     0.1593

  Lengths:   9.702222   9.702222  24.851111
  Angles:   90.000000  90.000000  90.000000

Effective grid spacing dv^(1/3) = 0.1609

     iter     time        total  log10-change:
                         energy  eigst   dens
iter:   1 09:49:12  -307.730563  +1.11
iter:   2 09:51:37  -308.420813  +0.41  -1.73
iter:   3 09:54:19  -308.580386  -0.09  -2.04
iter:   4 09:56:50  -308.641072  -0.48  -2.30
Writing to output.gpw (mode='')

iter:   5 09:59:25  -308.667560  -0.84  -2.54
iter:   6 10:01:59  -308.679717  -1.18  -2.66
iter:   7 10:04:22  -308.684866c -1.49  -2.73
iter:   8 10:07:01  -308.688435c -1.73  -2.82
iter:   9 10:09:37  -308.690585c -1.89  -2.93
Writing to output.gpw (mode='')

iter:  10 10:12:13  -308.692008c -2.12  -3.17
iter:  11 10:14:48  -308.693005c -2.29  -3.28
iter:  12 10:17:30  -308.693745c -2.45  -3.35
iter:  13 10:20:05  -308.694253c -2.60  -3.31
iter:  14 10:22:32  -308.694650c -2.74  -3.45
Writing to output.gpw (mode='')

iter:  15 10:25:11  -308.694829c -2.89  -3.37
iter:  16 10:27:45  -308.695020c -3.00  -3.61
iter:  17 10:30:30  -308.695167c -3.19  -3.65
iter:  18 10:33:07  -308.695269c -3.31  -3.70
iter:  19 10:35:41  -308.695352c -3.42  -3.66
Writing to output.gpw (mode='')

iter:  20 10:38:20  -308.695418c -3.49  -3.71
iter:  21 10:40:55  -308.695463c -3.65  -3.67
iter:  22 10:43:24  -308.695500c -3.76  -3.61
iter:  23 10:45:54  -308.695529c -3.90  -3.57
iter:  24 10:48:25  -308.695553c -4.00  -3.59
Writing to output.gpw (mode='')

iter:  25 10:51:04  -308.695569c -4.10  -3.66
iter:  26 10:53:37  -308.695585c -4.14  -3.64
iter:  27 10:56:14  -308.695598c -4.35  -3.65
iter:  28 10:58:43  -308.695611c -4.37  -3.69
iter:  29 11:01:21  -308.695613c -4.51  -3.70
Writing to output.gpw (mode='')

iter:  30 11:04:05  -308.695627c -4.59  -3.52
iter:  31 11:06:41  -308.695631c -4.81  -3.93
iter:  32 11:09:15  -308.695633c -4.88  -3.89
iter:  33 11:11:45  -308.695641c -4.86  -3.86
iter:  34 11:14:18  -308.695639c -4.86  -3.95
Writing to output.gpw (mode='')

iter:  35 11:16:53  -308.695638c -5.04  -3.90
iter:  36 11:19:29  -308.695650c -5.02  -3.81
iter:  37 11:22:06  -308.695649c -5.17  -3.96
iter:  38 11:24:38  -308.695653c -5.23  -3.91
iter:  39 11:27:14  -308.695653c -5.19  -3.96
Writing to output.gpw (mode='')

iter:  40 11:29:45  -308.695656c -5.37  -3.89
iter:  41 11:32:15  -308.695659c -5.50  -3.92
iter:  42 11:34:52  -308.695661c -5.42  -3.98
iter:  43 11:37:24  -308.695659c -5.64  -4.02c
iter:  44 11:40:10  -308.695662c -5.49  -4.14c
Writing to output.gpw (mode='')

iter:  45 11:42:50  -308.695661c -5.80  -4.20c
iter:  46 11:45:24  -308.695662c -5.65  -4.30c
iter:  47 11:47:55  -308.695663c -5.89  -4.45c
iter:  48 11:50:31  -308.695664c -5.97  -4.53c
iter:  49 11:53:02  -308.695664c -6.09  -4.61c
Writing to output.gpw (mode='')

iter:  50 11:55:44  -308.695664c -6.16  -4.68c
iter:  51 11:58:22  -308.695664c -6.30  -4.70c
iter:  52 12:01:06  -308.695664c -6.28  -4.82c
iter:  53 12:03:33  -308.695664c -6.26  -4.98c
iter:  54 12:06:12  -308.695664c -6.43  -5.12c
Writing to output.gpw (mode='')

iter:  55 12:09:00  -308.695664c -6.58  -5.15c
iter:  56 12:11:46  -308.695664c -6.45  -5.17c
iter:  57 12:14:27  -308.695664c -6.38  -5.19c
iter:  58 12:16:57  -308.695664c -6.50  -5.20c
iter:  59 12:19:34  -308.695664c -6.86  -5.15c
Writing to output.gpw (mode='')

iter:  60 12:22:15  -308.695664c -7.14  -5.25c
iter:  61 12:24:54  -308.695664c -7.10  -5.17c
iter:  62 12:27:26  -308.695664c -7.24  -5.17c
iter:  63 12:29:53  -308.695664c -7.22  -5.16c
iter:  64 12:32:31  -308.695664c -7.08  -5.21c
Writing to output.gpw (mode='')

iter:  65 12:35:07  -308.695664c -7.36  -5.25c
iter:  66 12:37:51  -308.695664c -7.43c -5.12c

Converged after 66 iterations.

Dipole moment: (-13.693165, -8.895192, 0.185347) |e|*Ang

Energy contributions relative to reference atoms: (reference = -14434.854043)

Kinetic:       +152.156117
Potential:     -146.295862
External:        +0.000000
XC:            -315.233914
Entropy (-ST):   -0.145770
Local:           +0.750879
--------------------------
Free energy:   -308.768549
Extrapolated:  -308.695664

Dipole-layer corrected work functions: 3.398323, 3.042021 eV

Showing only first 2 kpts
 Kpt  Band  Eigenvalues  Occupancy
  0    31     -3.47739    1.98840
  0    32     -3.41360    1.95907
  0    33     -3.08033    0.11499
  0    34     -3.00111    0.02471

  1    31     -3.26938    1.45589
  1    32     -3.21541    0.95238
  1    33     -3.17039    0.53959
  1    34     -3.09618    0.15456


Fermi level: -3.22017

No gap
Writing to output.gpw (mode='')


Forces in eV/Ang:
  0 Li    0.02009    0.00887   -0.27534
  1 Li    0.00027    0.00699   -0.27011
  2 Li   -0.02025    0.00925   -0.27580
  3 Li   -0.00538    0.01652   -0.26431
  4 Li    0.00054    0.00209   -0.29898
  5 Li    0.00498    0.01586   -0.26571
  6 Li   -0.00065   -0.01773   -0.28507
  7 Li   -0.00018    0.00718   -0.26740
  8 Li    0.00130   -0.01801   -0.28531
  9 Li    0.00045   -0.01407    0.35188
 10 Li    0.03021   -0.01924    0.26304
 11 Li   -0.03026   -0.01652    0.26670
 12 Li   -0.00192    0.02102    0.24625
 13 Li    0.03556    0.02103    0.24751
 14 Li   -0.03355    0.01973    0.25228
 15 Li    0.00068   -0.05181    0.22288
 16 Li   -0.01989   -0.05146    0.23864
 17 Li    0.01903   -0.05106    0.24391
 18 Li   -0.01224   -0.00572    0.01210
 19 Li    0.00020    0.01112   -0.00646
 20 Li    0.00528   -0.00625   -0.00339
 21 Li    0.01189    0.00916   -0.00892
 22 Li   -0.00113    0.00491   -0.00087
 23 Li   -0.01555    0.00736   -0.01122
 24 Li   -0.00836   -0.00973    0.00547
 25 Li    0.00045    0.00969   -0.00561
 26 Li    0.00358   -0.01022    0.00549
 27 Li   -0.00053    0.01782    0.01597
 28 Li   -0.00540    0.00566   -0.00579
 29 Li    0.00804    0.00603   -0.00385
 30 Li    0.01112   -0.01027    0.01254
 31 Li    0.01248   -0.00485    0.01152
 32 Li   -0.01493   -0.00073    0.00578
 33 Li   -0.00176    0.01795    0.01346
 34 Li    0.00184   -0.00710   -0.00624
 35 Li    0.00334   -0.01038   -0.00308
 36 O    -0.01760    0.00030    0.01210
 37 C     0.00918    0.01154   -0.00051
 38 C     0.00020   -0.00352    0.00546
 39 H     0.01075    0.03567   -0.00608
 40 H     0.00343   -0.00454   -0.02296
 41 H    -0.00949   -0.00298   -0.00158
 42 H     0.00059    0.02004    0.02629
 43 H    -0.01099    0.01772    0.00214
 44 H     0.03785   -0.00658    0.02374
 45 N    -0.02773   -0.00547   -0.01084
 46 N     0.00258    0.03936    0.01324

Timing:                              incl.     excl.
-----------------------------------------------------------
Forces:                              8.899     8.899   0.1% |
Hamiltonian:                       117.500     0.000   0.0% |
 Atomic:                             0.204     0.002   0.0% |
  XC Correction:                     0.202     0.202   0.0% |
 Calculate atomic Hamiltonians:      0.495     0.495   0.0% |
 Communicate:                        0.875     0.875   0.0% |
 Hartree integrate/restrict:         0.223     0.223   0.0% |
 Poisson:                            3.824     1.644   0.0% |
  Communicate from 1D:               0.237     0.237   0.0% |
  Communicate from 2D:               0.438     0.438   0.0% |
  Communicate to 1D:                 0.114     0.114   0.0% |
  Communicate to 2D:                 0.439     0.439   0.0% |
  FFT 1D:                            0.523     0.523   0.0% |
  FFT 2D:                            0.428     0.428   0.0% |
 XC 3D grid:                       111.843     9.771   0.1% |
  VdW-DF integral:                 102.072     0.233   0.0% |
   Convolution:                      5.791     5.791   0.1% |
   FFT:                              1.001     1.001   0.0% |
   gather:                          70.445    70.445   0.7% |
   hmm1:                             0.823     0.823   0.0% |
   hmm2:                             1.262     1.262   0.0% |
   iFFT:                             1.051     1.051   0.0% |
   potential:                        7.409     0.053   0.0% |
    collect:                         0.679     0.679   0.0% |
    p1:                              2.320     2.320   0.0% |
    p2:                              1.579     1.579   0.0% |
    sum:                             2.777     2.777   0.0% |
   splines:                         14.058    14.058   0.1% |
 vbar:                               0.037     0.037   0.0% |
LCAO initialization:                12.705     0.670   0.0% |
 LCAO eigensolver:                   3.712     0.001   0.0% |
  Calculate projections:             0.000     0.000   0.0% |
  DenseAtomicCorrection:             0.000     0.000   0.0% |
  Distribute overlap matrix:         3.513     3.513   0.0% |
  Orbital Layouts:                   0.089     0.089   0.0% |
  Potential matrix:                  0.092     0.092   0.0% |
  Sum over cells:                    0.016     0.016   0.0% |
 LCAO to grid:                       5.998     5.998   0.1% |
 Set positions (LCAO WFS):           2.326     1.958   0.0% |
  Basic WFS set positions:           0.004     0.004   0.0% |
  Basis functions set positions:     0.001     0.001   0.0% |
  P tci:                             0.001     0.001   0.0% |
  ST tci:                            0.265     0.265   0.0% |
  mktci:                             0.098     0.098   0.0% |
Redistribute:                        0.002     0.002   0.0% |
SCF-cycle:                       10172.589   120.510   1.2% |
 Davidson:                        3091.023  1243.787  12.0% |----|
  Apply hamiltonian:               193.925   193.925   1.9% ||
  Subspace diag:                   434.453     0.016   0.0% |
   calc_h_matrix:                  264.913    76.496   0.7% |
    Apply hamiltonian:             188.417   188.417   1.8% ||
   diagonalize:                     17.412    17.412   0.2% |
   rotate_psi:                     152.113   152.113   1.5% ||
  calc. matrices:                  925.546   581.734   5.6% |-|
   Apply hamiltonian:              343.811   343.811   3.3% ||
  diagonalize:                       1.226     1.226   0.0% |
  rotate_psi:                      292.087   292.087   2.8% ||
 Density:                           67.999     0.003   0.0% |
  Atomic density matrices:          19.191    19.191   0.2% |
  Mix:                              19.714    19.714   0.2% |
  Multipole moments:                 0.270     0.270   0.0% |
  Pseudo density:                   28.822    28.820   0.3% |
   Symmetrize density:               0.002     0.002   0.0% |
 Hamiltonian:                     6888.606     0.027   0.0% |
  Atomic:                           10.701     0.144   0.0% |
   XC Correction:                   10.557    10.557   0.1% |
  Calculate atomic Hamiltonians:    33.697    33.697   0.3% |
  Communicate:                      33.772    33.772   0.3% |
  Hartree integrate/restrict:       11.740    11.740   0.1% |
  Poisson:                         258.869   117.352   1.1% |
   Communicate from 1D:             19.284    19.284   0.2% |
   Communicate from 2D:             33.447    33.447   0.3% |
   Communicate to 1D:                7.857     7.857   0.1% |
   Communicate to 2D:               29.638    29.638   0.3% |
   FFT 1D:                          25.731    25.731   0.2% |
   FFT 2D:                          25.559    25.559   0.2% |
  XC 3D grid:                     6536.999   628.685   6.1% |-|
   VdW-DF integral:               5908.313    14.234   0.1% |
    Convolution:                   369.477   369.477   3.6% ||
    FFT:                            62.124    62.124   0.6% |
    gather:                       4783.085  4783.085  46.1% |-----------------|
    hmm1:                           64.286    64.286   0.6% |
    hmm2:                           82.403    82.403   0.8% |
    iFFT:                           67.249    67.249   0.6% |
    potential:                     465.454     5.345   0.1% |
     collect:                       43.190    43.190   0.4% |
     p1:                           185.094   185.094   1.8% ||
     p2:                           119.810   119.810   1.2% |
     sum:                          112.015   112.015   1.1% |
    splines:                         0.001     0.001   0.0% |
  vbar:                              2.801     2.801   0.0% |
 Orthonormalize:                     4.450     0.000   0.0% |
  calc_s_matrix:                     0.639     0.639   0.0% |
  inverse-cholesky:                  0.008     0.008   0.0% |
  projections:                       2.878     2.878   0.0% |
  rotate_psi_s:                      0.924     0.924   0.0% |
Set symmetry:                        0.003     0.003   0.0% |
Other:                              65.637    65.637   0.6% |
-----------------------------------------------------------
Total:                                     10377.335 100.0%

Memory usage: 1.54 GiB
Date: Fri Feb 17 12:38:02 2023
