
  ___ ___ ___ _ _ _  
 |   |   |_  | | | | 
 | | | | | . | | | | 
 |__ |  _|___|_____|  22.8.0
 |___|_|             

User:   vazumah@f011
Date:   Sun Feb  5 08:52:24 2023
Arch:   x86_64
Pid:    43884
CWD:    /home/vazumah/Python_Projects/Li_NRR/Li_adsorb_studies/autocat/ethanol_rots/adsorbates/CH3CH2OH_z/bridge/0.0_1.617
Python: 3.10.6
gpaw:   /home/vazumah/anaconda3/envs/NAME/lib/python3.10/site-packages/gpaw
_gpaw:  /home/vazumah/anaconda3/envs/NAME/lib/python3.10/site-packages/
        _gpaw.cpython-310-x86_64-linux-gnu.so
ase:    /home/vazumah/anaconda3/envs/NAME/lib/python3.10/site-packages/ase (version 3.22.1)
numpy:  /home/vazumah/anaconda3/envs/NAME/lib/python3.10/site-packages/numpy (version 1.23.3)
scipy:  /home/vazumah/anaconda3/envs/NAME/lib/python3.10/site-packages/scipy (version 1.9.1)
libxc:  5.2.3
units:  Angstrom and eV
cores: 32
OpenMP: True
OMP_NUM_THREADS: 1

Reading from output.gpw
Reading input parameters:
  h: 0.16
  kpts: {size: [4, 4, 1]}
  occupations: {name: fermi-dirac,
                width: 0.05}
  poissonsolver: {dipolelayer: xy}
  xc: BEEF-vdW

Initialize ...

species:
  Li:
    name: Lithium
    id: 830b4218f175192f93f959cfc0aad614
    Z: 3.0
    valence: 1
    core: 2
    charge: 0.0
    file: /home/vazumah/anaconda3/envs/NAME/share/gpaw/Li.PBE.gz
    compensation charges: {type: gauss,
                           rc: 0.33,
                           lmax: 2}
    cutoffs: {filter: 1.91,
              core: 2.55}
    valence states:
      #              energy  rcut
      - 2s(1.00)    -2.874   1.058
      - 2p(0.00)    -1.090   1.058
      -  s          24.337   1.058
  
    # Using partial waves for Li as LCAO basis

  O:
    name: Oxygen
    id: 32ecd46bf208036f09c70b0ec9a88b78
    Z: 8.0
    valence: 6
    core: 2
    charge: 0.0
    file: /home/vazumah/anaconda3/envs/NAME/share/gpaw/O.PBE.gz
    compensation charges: {type: gauss,
                           rc: 0.21,
                           lmax: 2}
    cutoffs: {filter: 1.17,
              core: 0.83}
    valence states:
      #              energy  rcut
      - 2s(2.00)   -23.961   0.688
      - 2p(4.00)    -9.029   0.598
      -  s           3.251   0.688
      -  p          18.182   0.598
      -  d           0.000   0.619
  
    # Using partial waves for O as LCAO basis

  C:
    name: Carbon
    id: 4aa54d4b901d75f77cc0ea3eec22967b
    Z: 6.0
    valence: 4
    core: 2
    charge: 0.0
    file: /home/vazumah/anaconda3/envs/NAME/share/gpaw/C.PBE.gz
    compensation charges: {type: gauss,
                           rc: 0.20,
                           lmax: 2}
    cutoffs: {filter: 1.14,
              core: 1.14}
    valence states:
      #              energy  rcut
      - 2s(2.00)   -13.751   0.635
      - 2p(2.00)    -5.284   0.635
      -  s          13.461   0.635
      -  p          21.927   0.635
      -  d           0.000   0.635
  
    # Using partial waves for C as LCAO basis

  H:
    name: Hydrogen
    id: d65de229564ff8ea4db303e23b6d1ecf
    Z: 1.0
    valence: 1
    core: 0
    charge: 0.0
    file: /home/vazumah/anaconda3/envs/NAME/share/gpaw/H.PBE.gz
    compensation charges: {type: gauss,
                           rc: 0.15,
                           lmax: 2}
    cutoffs: {filter: 0.85,
              core: 0.53}
    valence states:
      #              energy  rcut
      - 1s(1.00)    -6.494   0.476
      -  s          20.717   0.476
      -  p           0.000   0.476
  
    # Using partial waves for H as LCAO basis

Reference energy: -11471.411034  # eV

Spin-paired calculation

Convergence criteria:
 Maximum [total energy] change in last 3 cyles: 0.0005 eV / electron
 Maximum integral of absolute [dens]ity change: 0.0001 electrons / valence electron
 Maximum integral of absolute [eigenst]ate change: 4e-08 eV^2 / valence electron
 Maximum number of scf [iter]ations: 333
 (Square brackets indicate name in SCF output, whereas a 'c' in
 the SCF output indicates the quantity has converged.)

Symmetries present (total): 1

  ( 1  0  0)
  ( 0  1  0)
  ( 0  0  1)

16 k-points: 4 x 4 x 1 Monkhorst-Pack grid
8 k-points in the irreducible part of the Brillouin zone
       k-points in crystal coordinates                weights
   0:     0.12500000   -0.37500000    0.00000000          2/16
   1:     0.12500000   -0.12500000    0.00000000          2/16
   2:     0.12500000    0.12500000    0.00000000          2/16
   3:     0.12500000    0.37500000    0.00000000          2/16
   4:     0.37500000   -0.37500000    0.00000000          2/16
   5:     0.37500000   -0.12500000    0.00000000          2/16
   6:     0.37500000    0.12500000    0.00000000          2/16
   7:     0.37500000    0.37500000    0.00000000          2/16

Wave functions: Uniform real-space grid
  Kinetic energy operator: 6*3+1=19 point O(h^6) finite-difference Laplacian
  ScaLapack parameters: grid=1x1, blocksize=None
  Wavefunction extrapolation:
    Improved wavefunction reuse through dual PAW basis 

Occupation numbers: Fermi-Dirac:
  width: 0.0500  # eV
 

Eigensolver
   Davidson(niter=2) 

Densities:
  Coarse grid: 60*60*156 grid
  Fine grid: 120*120*312 grid
  Total Charge: 0.000000 

Density mixing:
  Method: separate
  Backend: pulay
  Linear mixing parameter: 0.05
  old densities: 5
  Damping of long wavelength oscillations: 50 

Hamiltonian:
  XC and Coulomb potentials evaluated on a 120*120*312 grid
  Using the BEEF-vdW Exchange-Correlation functional
  Interpolation: tri-quintic (5. degree polynomial)
  Poisson solver: FastPoissonSolver using
    Stencil: 6*3+1=19 point O(h^6) finite-difference Laplacian
    FFT axes: [0, 1]
    FST axes: [2]

Dipole correction along z-axis 

XC parameters: BEEF-vdW with 2 nearest neighbor stencil

Memory estimate:
  Process memory now: 212.76 MiB
  Calculator: 281.63 MiB
    Density: 87.85 MiB
      Arrays: 27.47 MiB
      Localized functions: 49.94 MiB
      Mixer: 10.44 MiB
    Hamiltonian: 21.91 MiB
      Arrays: 17.96 MiB
      XC: 0.00 MiB
      Poisson: 0.00 MiB
      vbar: 3.94 MiB
    Wavefunctions: 171.87 MiB
      Arrays psit_nG: 79.32 MiB
      Eigensolver: 89.98 MiB
      Projections: 0.04 MiB
      Projectors: 2.54 MiB

Total number of cores used: 32
Parallelization over k-points: 8
Domain decomposition: 1 x 1 x 4

Number of atoms: 45
Number of atomic orbitals: 162
Number of bands in calculation: 38
Number of valence electrons: 56
Bands to converge: occupied

... initialized

Initializing position-dependent things.

Creating initial wave functions:
  38 bands from LCAO basis set

       .-----------------------.  
      /|                       |  
     / |                       |  
    /  |                       |  
   /   |                       |  
  /    |                       |  
 *     |                       |  
 |     |                       |  
 |     |                       |  
 |     |                       |  
 |     |                       |  
 | H H |                H      |  
 |C    |       Li              |  
 |     |                       |  
 | H Li|     Li      LiH C     |  
 |     |  Li      Li   H OLi   |  
 | Li  |   Li      Li          |  
 |     |Li      Li      Li     |  
 |     |         Li      Li    |  
 |   LLi     LLi     LLi       |  
 |     |  Li      Li      Li   |  
 | Li  |   Li      Li          |  
 |     |Li      Li      Li     |  
 Li    | Li      Li            |  
 |    Li      Li      Li       |  
 |     |                       |  
 |     |                       |  
 |     |                       |  
 |     |                       |  
 |     |                       |  
 |     |                       |  
 |     .-----------------------.  
 |    /                       /   
 |   /                       /    
 |  /                       /     
 | /                       /      
 |/                       /       
 *-----------------------*        

Positions:
   0 Li     1.617037    1.617037   10.000000    ( 0.0000,  0.0000,  0.0000)
   1 Li     4.851111    1.617037   10.000000    ( 0.0000,  0.0000,  0.0000)
   2 Li     8.085185    1.617037   10.000000    ( 0.0000,  0.0000,  0.0000)
   3 Li     1.617037    4.851111   10.000000    ( 0.0000,  0.0000,  0.0000)
   4 Li     4.851111    4.851111   10.000000    ( 0.0000,  0.0000,  0.0000)
   5 Li     8.085185    4.851111   10.000000    ( 0.0000,  0.0000,  0.0000)
   6 Li     1.617037    8.085185   10.000000    ( 0.0000,  0.0000,  0.0000)
   7 Li     4.851111    8.085185   10.000000    ( 0.0000,  0.0000,  0.0000)
   8 Li     8.085185    8.085185   10.000000    ( 0.0000,  0.0000,  0.0000)
   9 Li     0.000000    0.000000   11.617037    ( 0.0000,  0.0000,  0.0000)
  10 Li     3.234074    0.000000   11.617037    ( 0.0000,  0.0000,  0.0000)
  11 Li     6.468148    0.000000   11.617037    ( 0.0000,  0.0000,  0.0000)
  12 Li     0.000000    3.234074   11.617037    ( 0.0000,  0.0000,  0.0000)
  13 Li     3.234074    3.234074   11.617037    ( 0.0000,  0.0000,  0.0000)
  14 Li     6.468148    3.234074   11.617037    ( 0.0000,  0.0000,  0.0000)
  15 Li     0.000000    6.468148   11.617037    ( 0.0000,  0.0000,  0.0000)
  16 Li     3.234074    6.468148   11.617037    ( 0.0000,  0.0000,  0.0000)
  17 Li     6.468148    6.468148   11.617037    ( 0.0000,  0.0000,  0.0000)
  18 Li     1.663471    1.637865   13.394916    ( 0.0000,  0.0000,  0.0000)
  19 Li     4.851388    1.622228   13.438471    ( 0.0000,  0.0000,  0.0000)
  20 Li     8.035311    1.674724   13.414620    ( 0.0000,  0.0000,  0.0000)
  21 Li     1.634084    4.890986   13.476159    ( 0.0000,  0.0000,  0.0000)
  22 Li     4.867103    4.878130   13.438323    ( 0.0000,  0.0000,  0.0000)
  23 Li     8.124165    4.867872   13.508842    ( 0.0000,  0.0000,  0.0000)
  24 Li     1.573143    8.129007   13.524171    ( 0.0000,  0.0000,  0.0000)
  25 Li     4.833926    8.051833   13.450672    ( 0.0000,  0.0000,  0.0000)
  26 Li     8.095818    8.120390   13.514212    ( 0.0000,  0.0000,  0.0000)
  27 Li    -0.042010    0.241913   15.465011    ( 0.0000,  0.0000,  0.0000)
  28 Li     3.255187   -0.010311   15.387998    ( 0.0000,  0.0000,  0.0000)
  29 Li     6.346520    0.019005   15.381711    ( 0.0000,  0.0000,  0.0000)
  30 Li     0.149000    3.247094   15.592211    ( 0.0000,  0.0000,  0.0000)
  31 Li     3.341469    3.249727   15.371839    ( 0.0000,  0.0000,  0.0000)
  32 Li     6.445300    3.261571   15.369414    ( 0.0000,  0.0000,  0.0000)
  33 Li     0.009336    6.524295   15.486754    ( 0.0000,  0.0000,  0.0000)
  34 Li     3.237984    6.446601   15.445841    ( 0.0000,  0.0000,  0.0000)
  35 Li     6.446142    6.481559   15.449559    ( 0.0000,  0.0000,  0.0000)
  36 O     -0.335415    1.501189   17.069462    ( 0.0000,  0.0000,  0.0000)
  37 C     -0.025770    0.773697   18.311918    ( 0.0000,  0.0000,  0.0000)
  38 C      0.129550    1.682579   19.502098    ( 0.0000,  0.0000,  0.0000)
  39 H     -0.815681    0.039913   18.479104    ( 0.0000,  0.0000,  0.0000)
  40 H      0.904756    0.243265   18.107516    ( 0.0000,  0.0000,  0.0000)
  41 H      0.370975    1.083422   20.383667    ( 0.0000,  0.0000,  0.0000)
  42 H      0.924478    2.413083   19.349150    ( 0.0000,  0.0000,  0.0000)
  43 H     -0.796392    2.209156   19.706886    ( 0.0000,  0.0000,  0.0000)
  44 H     -1.304091    1.647050   17.021916    ( 0.0000,  0.0000,  0.0000)

Unit cell:
           periodic     x           y           z      points  spacing
  1. axis:    yes    9.702222    0.000000    0.000000    60     0.1617
  2. axis:    yes    0.000000    9.702222    0.000000    60     0.1617
  3. axis:    no     0.000000    0.000000   24.851111   156     0.1593

  Lengths:   9.702222   9.702222  24.851111
  Angles:   90.000000  90.000000  90.000000

Effective grid spacing dv^(1/3) = 0.1609

     iter     time        total  log10-change:
                         energy  eigst   dens
iter:   1 08:53:13  -272.154746  +1.07
iter:   2 08:53:40  -272.716975  +0.42  -1.71
iter:   3 08:54:07  -272.860559  -0.06  -1.96
iter:   4 08:54:33  -272.917836  -0.42  -2.19
Writing to output.gpw (mode='')

iter:   5 08:54:59  -272.945586  -0.73  -2.39
iter:   6 08:55:25  -272.959919  -1.02  -2.53
iter:   7 08:55:51  -272.967413c -1.28  -2.66
iter:   8 08:56:16  -272.972337c -1.49  -3.01
iter:   9 08:56:42  -272.975539c -1.71  -3.11
Writing to output.gpw (mode='')

iter:  10 08:57:08  -272.977527c -1.88  -3.03
iter:  11 08:57:43  -272.979124c -2.05  -3.10
iter:  12 08:58:17  -272.979858c -2.27  -3.01
iter:  13 08:58:51  -272.980702c -2.25  -3.26
iter:  14 08:59:26  -272.981057c -2.53  -3.09
Writing to output.gpw (mode='')

iter:  15 08:59:59  -272.981488c -2.64  -3.30
iter:  16 09:00:27  -272.981719c -2.96  -3.28
iter:  17 09:00:57  -272.981882c -3.09  -3.25
iter:  18 09:01:42  -272.982000c -2.94  -3.20
iter:  19 09:02:30  -272.982075c -3.42  -3.46
Writing to output.gpw (mode='')

iter:  20 09:03:08  -272.982133c -3.49  -3.60
iter:  21 09:03:44  -272.982184c -3.53  -3.59
iter:  22 09:04:19  -272.982213c -3.79  -3.49
iter:  23 09:04:56  -272.982238c -3.91  -3.63
iter:  24 09:05:33  -272.982255c -4.05  -3.65
Writing to output.gpw (mode='')

iter:  25 09:06:10  -272.982278c -3.99  -3.62
iter:  26 09:06:57  -272.982291c -4.11  -3.53
iter:  27 09:07:31  -272.982301c -4.27  -3.50
iter:  28 09:08:06  -272.982300c -4.38  -3.48
iter:  29 09:09:10  -272.982299c -4.43  -3.57
Writing to output.gpw (mode='')

iter:  30 09:09:54  -272.982301c -4.46  -3.64
iter:  31 09:10:33  -272.982305c -4.83  -3.67
iter:  32 09:11:18  -272.982309c -4.62  -3.66
iter:  33 09:11:58  -272.982307c -5.05  -3.79
iter:  34 09:12:35  -272.982311c -4.94  -3.81
Writing to output.gpw (mode='')

iter:  35 09:13:12  -272.982311c -5.10  -3.81
iter:  36 09:13:46  -272.982311c -5.20  -3.84
iter:  37 09:14:22  -272.982311c -5.28  -3.94
iter:  38 09:14:56  -272.982311c -5.37  -4.28c
iter:  39 09:15:31  -272.982311c -5.43  -4.41c
Writing to output.gpw (mode='')

iter:  40 09:16:09  -272.982312c -5.44  -4.48c
iter:  41 09:16:45  -272.982313c -5.53  -4.52c
iter:  42 09:17:19  -272.982314c -5.69  -4.65c
iter:  43 09:17:55  -272.982314c -5.81  -4.70c
iter:  44 09:18:30  -272.982314c -5.84  -4.75c
Writing to output.gpw (mode='')

iter:  45 09:19:05  -272.982314c -5.94  -4.85c
iter:  46 09:19:42  -272.982314c -6.03  -5.03c
iter:  47 09:20:18  -272.982314c -5.93  -5.09c
iter:  48 09:20:52  -272.982314c -6.11  -5.14c
iter:  49 09:21:32  -272.982314c -6.23  -5.15c
Writing to output.gpw (mode='')

iter:  50 09:22:20  -272.982314c -6.24  -5.17c
iter:  51 09:23:07  -272.982314c -6.35  -5.38c
iter:  52 09:23:51  -272.982314c -6.49  -5.63c
iter:  53 09:24:38  -272.982314c -6.55  -5.65c
iter:  54 09:25:25  -272.982314c -6.60  -5.62c
Writing to output.gpw (mode='')

iter:  55 09:26:14  -272.982315c -6.52  -5.59c
iter:  56 09:27:35  -272.982315c -6.66  -5.37c
iter:  57 09:28:17  -272.982315c -6.60  -5.39c
iter:  58 09:28:57  -272.982315c -6.70  -5.41c
iter:  59 09:29:37  -272.982315c -6.82  -5.35c
Writing to output.gpw (mode='')

iter:  60 09:30:13  -272.982315c -6.77  -5.39c
iter:  61 09:30:56  -272.982315c -6.88  -5.44c
iter:  62 09:31:35  -272.982315c -7.03  -5.74c
iter:  63 09:32:15  -272.982315c -7.05  -5.86c
iter:  64 09:32:54  -272.982315c -7.06  -5.86c
Writing to output.gpw (mode='')

iter:  65 09:33:27  -272.982315c -7.22  -5.98c
iter:  66 09:34:24  -272.982314c -7.29  -5.99c
iter:  67 09:35:11  -272.982315c -7.40  -6.10c
iter:  68 09:36:00  -272.982315c -7.45c -6.20c

Converged after 68 iterations.

Dipole moment: (-5.337108, -11.468144, 0.327467) |e|*Ang

Energy contributions relative to reference atoms: (reference = -11471.411034)

Kinetic:       +128.529065
Potential:     -120.595714
External:        +0.000000
XC:            -281.082496
Entropy (-ST):   -0.145948
Local:           +0.239805
--------------------------
Free energy:   -273.055288
Extrapolated:  -272.982315

Dipole-layer corrected work functions: 3.367727, 2.738222 eV

Showing only first 2 kpts
 Kpt  Band  Eigenvalues  Occupancy
  0    26     -3.30752    1.98777
  0    27     -3.21198    1.92016
  0    28     -2.88834    0.07165
  0    29     -2.80589    0.01419

  1    26     -3.09292    1.37945
  1    27     -3.05919    1.06207
  1    28     -3.01208    0.61241
  1    29     -2.96507    0.29404


Fermi level: -3.05297

No gap
Writing to output.gpw (mode='')


Forces in eV/Ang:
  0 Li    0.00759   -0.00160   -0.27171
  1 Li    0.00582   -0.00194   -0.26379
  2 Li   -0.01339    0.00010   -0.27426
  3 Li    0.00146    0.00440   -0.27043
  4 Li   -0.00425    0.00585   -0.27786
  5 Li    0.00167   -0.00317   -0.26898
  6 Li    0.00110   -0.01071   -0.27039
  7 Li   -0.00057   -0.00659   -0.27795
  8 Li   -0.00047   -0.00230   -0.27672
  9 Li   -0.01627    0.02414    0.29745
 10 Li    0.02315   -0.03691    0.25007
 11 Li   -0.01669   -0.02644    0.26011
 12 Li    0.00744    0.01875    0.27372
 13 Li    0.03320    0.04529    0.23701
 14 Li   -0.02493    0.05444    0.22977
 15 Li    0.00377    0.02235    0.25305
 16 Li   -0.05656    0.02736    0.25275
 17 Li    0.06167    0.00710    0.27953
 18 Li   -0.02400    0.01374    0.04934
 19 Li   -0.00117   -0.00734    0.01135
 20 Li    0.03330   -0.02296    0.05013
 21 Li   -0.03790   -0.05297    0.06699
 22 Li   -0.00070    0.00186    0.01046
 23 Li    0.02142   -0.01891    0.03860
 24 Li    0.00804   -0.00626    0.00040
 25 Li   -0.00251    0.00593    0.01480
 26 Li    0.00066    0.00343    0.01128
 27 Li    0.00360   -0.00395    0.05193
 28 Li   -0.00097    0.00031   -0.02576
 29 Li    0.00913   -0.00182   -0.02952
 30 Li   -0.02647   -0.08807    0.09457
 31 Li   -0.01185   -0.00311   -0.00966
 32 Li   -0.00652    0.00733   -0.00874
 33 Li    0.00128   -0.00104   -0.02968
 34 Li   -0.00165    0.01203   -0.01029
 35 Li    0.00281    0.00406   -0.01464
 36 O     0.07102   -0.11984   -0.05656
 37 C     0.08374   -0.02863   -0.12120
 38 C     0.04969    0.11695    0.13225
 39 H    -0.02206   -0.10402   -0.04366
 40 H     0.02128   -0.05950   -0.07240
 41 H     0.05267   -0.01502    0.00643
 42 H     0.01780    0.01951   -0.01651
 43 H    -0.18187    0.17291    0.05753
 44 H    -0.08997    0.03263   -0.02012

System changes: positions 

Initializing position-dependent things.

Density initialized from wave functions
       .-----------------------.  
      /|                       |  
     / |                       |  
    /  |                       |  
   /   |                       |  
  /    |                       |  
 *     |                       |  
 |     |                       |  
 |     |                       |  
 |     |                       |  
 |     |                       |  
 | H H |                H      |  
 |C    |       Li              |  
 |     |                       |  
 | H Li|     Li      LiH C     |  
 |     |  Li      Li   H OLi   |  
 | Li  |   Li      Li          |  
 |     |Li      Li      Li     |  
 |     |         Li      Li    |  
 |   LLi     LLi     LLi       |  
 |     |  Li      Li      Li   |  
 | Li  |   Li      Li          |  
 |     |Li      Li      Li     |  
 Li    | Li      Li            |  
 |    Li      Li      Li       |  
 |     |                       |  
 |     |                       |  
 |     |                       |  
 |     |                       |  
 |     |                       |  
 |     |                       |  
 |     .-----------------------.  
 |    /                       /   
 |   /                       /    
 |  /                       /     
 | /                       /      
 |/                       /       
 *-----------------------*        

Positions:
   0 Li     1.617037    1.617037   10.000000    ( 0.0000,  0.0000,  0.0000)
   1 Li     4.851111    1.617037   10.000000    ( 0.0000,  0.0000,  0.0000)
   2 Li     8.085185    1.617037   10.000000    ( 0.0000,  0.0000,  0.0000)
   3 Li     1.617037    4.851111   10.000000    ( 0.0000,  0.0000,  0.0000)
   4 Li     4.851111    4.851111   10.000000    ( 0.0000,  0.0000,  0.0000)
   5 Li     8.085185    4.851111   10.000000    ( 0.0000,  0.0000,  0.0000)
   6 Li     1.617037    8.085185   10.000000    ( 0.0000,  0.0000,  0.0000)
   7 Li     4.851111    8.085185   10.000000    ( 0.0000,  0.0000,  0.0000)
   8 Li     8.085185    8.085185   10.000000    ( 0.0000,  0.0000,  0.0000)
   9 Li     0.000000    0.000000   11.617037    ( 0.0000,  0.0000,  0.0000)
  10 Li     3.234074    0.000000   11.617037    ( 0.0000,  0.0000,  0.0000)
  11 Li     6.468148    0.000000   11.617037    ( 0.0000,  0.0000,  0.0000)
  12 Li     0.000000    3.234074   11.617037    ( 0.0000,  0.0000,  0.0000)
  13 Li     3.234074    3.234074   11.617037    ( 0.0000,  0.0000,  0.0000)
  14 Li     6.468148    3.234074   11.617037    ( 0.0000,  0.0000,  0.0000)
  15 Li     0.000000    6.468148   11.617037    ( 0.0000,  0.0000,  0.0000)
  16 Li     3.234074    6.468148   11.617037    ( 0.0000,  0.0000,  0.0000)
  17 Li     6.468148    6.468148   11.617037    ( 0.0000,  0.0000,  0.0000)
  18 Li     1.665444    1.645100   13.391274    ( 0.0000,  0.0000,  0.0000)
  19 Li     4.852299    1.622435   13.433384    ( 0.0000,  0.0000,  0.0000)
  20 Li     8.032933    1.679826   13.408270    ( 0.0000,  0.0000,  0.0000)
  21 Li     1.633536    4.890975   13.476232    ( 0.0000,  0.0000,  0.0000)
  22 Li     4.870447    4.878119   13.434932    ( 0.0000,  0.0000,  0.0000)
  23 Li     8.126936    4.870797   13.507083    ( 0.0000,  0.0000,  0.0000)
  24 Li     1.577850    8.125546   13.513840    ( 0.0000,  0.0000,  0.0000)
  25 Li     4.831269    8.050894   13.446160    ( 0.0000,  0.0000,  0.0000)
  26 Li     8.090102    8.117337   13.505289    ( 0.0000,  0.0000,  0.0000)
  27 Li    -0.029030    0.230718   15.462688    ( 0.0000,  0.0000,  0.0000)
  28 Li     3.250217   -0.008931   15.385715    ( 0.0000,  0.0000,  0.0000)
  29 Li     6.346036    0.021784   15.378426    ( 0.0000,  0.0000,  0.0000)
  30 Li     0.142443    3.230269   15.627903    ( 0.0000,  0.0000,  0.0000)
  31 Li     3.345735    3.249647   15.368394    ( 0.0000,  0.0000,  0.0000)
  32 Li     6.444631    3.261299   15.366279    ( 0.0000,  0.0000,  0.0000)
  33 Li     0.011068    6.529516   15.484068    ( 0.0000,  0.0000,  0.0000)
  34 Li     3.237736    6.445848   15.446609    ( 0.0000,  0.0000,  0.0000)
  35 Li     6.443595    6.484061   15.448429    ( 0.0000,  0.0000,  0.0000)
  36 O     -0.342385    1.496109   17.060201    ( 0.0000,  0.0000,  0.0000)
  37 C     -0.023091    0.774216   18.302528    ( 0.0000,  0.0000,  0.0000)
  38 C      0.131777    1.690073   19.487427    ( 0.0000,  0.0000,  0.0000)
  39 H     -0.810528    0.038181   18.477887    ( 0.0000,  0.0000,  0.0000)
  40 H      0.908559    0.247472   18.096848    ( 0.0000,  0.0000,  0.0000)
  41 H      0.371289    1.092557   20.370627    ( 0.0000,  0.0000,  0.0000)
  42 H      0.926375    2.420295   19.331511    ( 0.0000,  0.0000,  0.0000)
  43 H     -0.798429    2.214136   19.685436    ( 0.0000,  0.0000,  0.0000)
  44 H     -1.316295    1.615009   17.007093    ( 0.0000,  0.0000,  0.0000)

Unit cell:
           periodic     x           y           z      points  spacing
  1. axis:    yes    9.702222    0.000000    0.000000    60     0.1617
  2. axis:    yes    0.000000    9.702222    0.000000    60     0.1617
  3. axis:    no     0.000000    0.000000   24.851111   156     0.1593

  Lengths:   9.702222   9.702222  24.851111
  Angles:   90.000000  90.000000  90.000000

Effective grid spacing dv^(1/3) = 0.1609

     iter     time        total  log10-change:
                         energy  eigst   dens
iter:   1 09:37:02  -273.062226  -0.84
iter:   2 09:37:49  -273.000869  -1.55  -1.57
iter:   3 09:38:51  -272.992642  -2.41  -1.96
iter:   4 09:39:38  -272.989929c -2.60  -2.25
Writing to output.gpw (mode='')

iter:   5 09:40:22  -272.989080c -2.28  -2.45
iter:   6 09:41:02  -272.988549c -2.32  -2.56
iter:   7 09:41:39  -272.988581c -2.93  -2.71
iter:   8 09:42:20  -272.988308c -2.95  -2.74
iter:   9 09:43:08  -272.988284c -3.55  -2.95
Writing to output.gpw (mode='')

iter:  10 09:44:20  -272.988296c -3.57  -3.16
iter:  11 09:45:29  -272.988236c -3.80  -3.17
iter:  12 09:46:29  -272.988252c -4.24  -3.42
iter:  13 09:47:10  -272.988234c -4.28  -3.46
iter:  14 09:47:51  -272.988238c -4.43  -3.68
Writing to output.gpw (mode='')

iter:  15 09:48:34  -272.988238c -5.02  -3.80
iter:  16 09:49:13  -272.988240c -5.14  -3.83
iter:  17 09:49:48  -272.988237c -5.24  -3.88
iter:  18 09:51:26  -272.988239c -5.25  -3.98
iter:  19 09:52:12  -272.988241c -5.33  -4.14c
Writing to output.gpw (mode='')

iter:  20 09:52:54  -272.988242c -5.68  -4.17c
iter:  21 09:53:43  -272.988242c -5.89  -4.23c
iter:  22 09:55:06  -272.988242c -5.84  -4.33c
iter:  23 09:56:30  -272.988243c -6.25  -4.47c
iter:  24 09:57:13  -272.988243c -6.25  -4.60c
Writing to output.gpw (mode='')

iter:  25 09:57:55  -272.988243c -6.27  -4.63c
iter:  26 09:58:35  -272.988243c -6.10  -4.78c
iter:  27 09:59:17  -272.988243c -6.51  -4.88c
iter:  28 09:59:54  -272.988242c -6.72  -4.91c
iter:  29 10:00:35  -272.988242c -6.84  -5.06c
Writing to output.gpw (mode='')

iter:  30 10:01:17  -272.988242c -6.94  -5.18c
iter:  31 10:01:56  -272.988242c -6.96  -5.27c
iter:  32 10:02:40  -272.988242c -7.19  -5.28c
iter:  33 10:03:24  -272.988242c -7.17  -5.27c
iter:  34 10:04:12  -272.988242c -7.49c -5.20c

Converged after 34 iterations.

Dipole moment: (-5.927299, -11.418649, 0.328246) |e|*Ang

Energy contributions relative to reference atoms: (reference = -11471.411034)

Kinetic:       +128.471823
Potential:     -120.554723
External:        +0.000000
XC:            -281.072056
Entropy (-ST):   -0.145833
Local:           +0.239631
--------------------------
Free energy:   -273.061159
Extrapolated:  -272.988242

Dipole-layer corrected work functions: 3.367514, 2.736512 eV

Showing only first 2 kpts
 Kpt  Band  Eigenvalues  Occupancy
  0    26     -3.30772    1.98805
  0    27     -3.21067    1.91961
  0    28     -2.88851    0.07323
  0    29     -2.80626    0.01457

  1    26     -3.09362    1.39365
  1    27     -3.05787    1.05849
  1    28     -3.01127    0.61371
  1    29     -2.96115    0.27955


Fermi level: -3.05201

No gap
Writing to output.gpw (mode='')


Forces in eV/Ang:
  0 Li    0.00750   -0.00170   -0.27085
  1 Li    0.00595   -0.00146   -0.26376
  2 Li   -0.01351   -0.00019   -0.27364
  3 Li    0.00158    0.00432   -0.26938
  4 Li   -0.00428    0.00625   -0.27893
  5 Li    0.00106   -0.00322   -0.26803
  6 Li    0.00162   -0.01095   -0.27051
  7 Li   -0.00067   -0.00694   -0.27673
  8 Li   -0.00032   -0.00245   -0.27664
  9 Li   -0.01555    0.02609    0.29755
 10 Li    0.02256   -0.03359    0.24681
 11 Li   -0.01840   -0.02655    0.25578
 12 Li    0.00734    0.02135    0.26639
 13 Li    0.03594    0.04903    0.23224
 14 Li   -0.02488    0.05767    0.22500
 15 Li    0.00481    0.02205    0.24808
 16 Li   -0.05650    0.02188    0.24855
 17 Li    0.06115    0.00585    0.27421
 18 Li   -0.02948    0.00839    0.05918
 19 Li   -0.00273   -0.00855    0.01554
 20 Li    0.04108   -0.03169    0.06475
 21 Li   -0.04218   -0.06011    0.07620
 22 Li   -0.00432    0.00312    0.01406
 23 Li    0.02220   -0.02482    0.04662
 24 Li    0.00354   -0.00328    0.01104
 25 Li   -0.00056    0.00690    0.02018
 26 Li    0.00728    0.00792    0.02245
 27 Li   -0.00681   -0.00396    0.03249
 28 Li    0.00521   -0.00155   -0.02966
 29 Li    0.00834   -0.00449   -0.03319
 30 Li   -0.02206   -0.09058    0.08227
 31 Li   -0.01681   -0.00322   -0.00844
 32 Li   -0.00645    0.00818   -0.00677
 33 Li    0.00015   -0.00552   -0.03147
 34 Li   -0.00120    0.01464   -0.01248
 35 Li    0.00484    0.00297   -0.01557
 36 O    -0.01380   -0.09846   -0.08922
 37 C     0.06671   -0.02429   -0.08819
 38 C    -0.00288    0.10408    0.12355
 39 H     0.00572   -0.08521   -0.05808
 40 H     0.03808   -0.07350   -0.07384
 41 H     0.05294    0.01049    0.01223
 42 H     0.01373    0.01646   -0.00257
 43 H    -0.14173    0.16921    0.06360
 44 H    -0.03347    0.04588   -0.03754

System changes: positions 

Initializing position-dependent things.

Density initialized from wave functions
       .-----------------------.  
      /|                       |  
     / |                       |  
    /  |                       |  
   /   |                       |  
  /    |                       |  
 *     |                       |  
 |     |                       |  
 |     |                       |  
 |     |                       |  
 |     |                       |  
 | H H |                H      |  
 |C    |       Li              |  
 |     |                       |  
 | H Li|     Li      LiH C     |  
 | Li  |  Li      Li   H OLi   |  
 |     |   Li      Li          |  
 |     |Li      Li      Li     |  
 |     |         Li      Li    |  
 |   LLi     LLi     LLi       |  
 |     |  Li      Li      Li   |  
 | Li  |   Li      Li          |  
 |     |Li      Li      Li     |  
 Li    | Li      Li            |  
 |    Li      Li      Li       |  
 |     |                       |  
 |     |                       |  
 |     |                       |  
 |     |                       |  
 |     |                       |  
 |     |                       |  
 |     .-----------------------.  
 |    /                       /   
 |   /                       /    
 |  /                       /     
 | /                       /      
 |/                       /       
 *-----------------------*        

Positions:
   0 Li     1.617037    1.617037   10.000000    ( 0.0000,  0.0000,  0.0000)
   1 Li     4.851111    1.617037   10.000000    ( 0.0000,  0.0000,  0.0000)
   2 Li     8.085185    1.617037   10.000000    ( 0.0000,  0.0000,  0.0000)
   3 Li     1.617037    4.851111   10.000000    ( 0.0000,  0.0000,  0.0000)
   4 Li     4.851111    4.851111   10.000000    ( 0.0000,  0.0000,  0.0000)
   5 Li     8.085185    4.851111   10.000000    ( 0.0000,  0.0000,  0.0000)
   6 Li     1.617037    8.085185   10.000000    ( 0.0000,  0.0000,  0.0000)
   7 Li     4.851111    8.085185   10.000000    ( 0.0000,  0.0000,  0.0000)
   8 Li     8.085185    8.085185   10.000000    ( 0.0000,  0.0000,  0.0000)
   9 Li     0.000000    0.000000   11.617037    ( 0.0000,  0.0000,  0.0000)
  10 Li     3.234074    0.000000   11.617037    ( 0.0000,  0.0000,  0.0000)
  11 Li     6.468148    0.000000   11.617037    ( 0.0000,  0.0000,  0.0000)
  12 Li     0.000000    3.234074   11.617037    ( 0.0000,  0.0000,  0.0000)
  13 Li     3.234074    3.234074   11.617037    ( 0.0000,  0.0000,  0.0000)
  14 Li     6.468148    3.234074   11.617037    ( 0.0000,  0.0000,  0.0000)
  15 Li     0.000000    6.468148   11.617037    ( 0.0000,  0.0000,  0.0000)
  16 Li     3.234074    6.468148   11.617037    ( 0.0000,  0.0000,  0.0000)
  17 Li     6.468148    6.468148   11.617037    ( 0.0000,  0.0000,  0.0000)
  18 Li     1.666944    1.652112   13.388496    ( 0.0000,  0.0000,  0.0000)
  19 Li     4.853187    1.622535   13.428711    ( 0.0000,  0.0000,  0.0000)
  20 Li     8.031114    1.684336   13.402721    ( 0.0000,  0.0000,  0.0000)
  21 Li     1.632510    4.890259   13.477125    ( 0.0000,  0.0000,  0.0000)
  22 Li     4.873617    4.878131   13.431829    ( 0.0000,  0.0000,  0.0000)
  23 Li     8.129835    4.873305   13.505888    ( 0.0000,  0.0000,  0.0000)
  24 Li     1.582394    8.122206   13.504066    ( 0.0000,  0.0000,  0.0000)
  25 Li     4.828731    8.050080   13.442013    ( 0.0000,  0.0000,  0.0000)
  26 Li     8.084712    8.114503   13.496976    ( 0.0000,  0.0000,  0.0000)
  27 Li    -0.016592    0.220317   15.462758    ( 0.0000,  0.0000,  0.0000)
  28 Li     3.245511   -0.007615   15.383291    ( 0.0000,  0.0000,  0.0000)
  29 Li     6.345680    0.024330   15.375029    ( 0.0000,  0.0000,  0.0000)
  30 Li     0.135606    3.212838   15.663250    ( 0.0000,  0.0000,  0.0000)
  31 Li     3.349600    3.249501   15.365068    ( 0.0000,  0.0000,  0.0000)
  32 Li     6.443806    3.261184   15.363212    ( 0.0000,  0.0000,  0.0000)
  33 Li     0.012706    6.534409   15.481297    ( 0.0000,  0.0000,  0.0000)
  34 Li     3.237424    6.445330   15.447307    ( 0.0000,  0.0000,  0.0000)
  35 Li     6.441295    6.486486   15.447263    ( 0.0000,  0.0000,  0.0000)
  36 O     -0.348540    1.490324   17.049074    ( 0.0000,  0.0000,  0.0000)
  37 C     -0.019974    0.774038   18.291361    ( 0.0000,  0.0000,  0.0000)
  38 C      0.133401    1.697430   19.471836    ( 0.0000,  0.0000,  0.0000)
  39 H     -0.805680    0.036105   18.473615    ( 0.0000,  0.0000,  0.0000)
  40 H      0.912508    0.249969   18.083603    ( 0.0000,  0.0000,  0.0000)
  41 H      0.372173    1.101187   20.356072    ( 0.0000,  0.0000,  0.0000)
  42 H      0.927992    2.427280   19.312565    ( 0.0000,  0.0000,  0.0000)
  43 H     -0.801132    2.219725   19.662835    ( 0.0000,  0.0000,  0.0000)
  44 H     -1.326871    1.584204   16.990418    ( 0.0000,  0.0000,  0.0000)

Unit cell:
           periodic     x           y           z      points  spacing
  1. axis:    yes    9.702222    0.000000    0.000000    60     0.1617
  2. axis:    yes    0.000000    9.702222    0.000000    60     0.1617
  3. axis:    no     0.000000    0.000000   24.851111   156     0.1593

  Lengths:   9.702222   9.702222  24.851111
  Angles:   90.000000  90.000000  90.000000

Effective grid spacing dv^(1/3) = 0.1609

     iter     time        total  log10-change:
                         energy  eigst   dens
iter:   1 10:05:03  -273.056120  -0.86
iter:   2 10:05:56  -273.005513  -1.60  -1.61
iter:   3 10:06:36  -272.998433  -2.43  -1.98
iter:   4 10:07:12  -272.995818c -2.72  -2.25
Writing to output.gpw (mode='')

iter:   5 10:07:59  -272.994493c -2.23  -2.43
iter:   6 10:08:55  -272.993979c -2.31  -2.56
iter:   7 10:09:45  -272.994196c -2.79  -2.72
iter:   8 10:10:31  -272.993721c -3.05  -2.69
iter:   9 10:11:22  -272.993690c -3.97  -3.01
Writing to output.gpw (mode='')

iter:  10 10:12:12  -272.993685c -3.55  -3.12
iter:  11 10:12:52  -272.993654c -3.89  -3.22
iter:  12 10:13:38  -272.993661c -4.52  -3.43
iter:  13 10:14:32  -272.993668c -4.51  -3.46
iter:  14 10:15:31  -272.993666c -4.36  -3.52
Writing to output.gpw (mode='')

iter:  15 10:16:33  -272.993661c -4.75  -3.67
iter:  16 10:17:35  -272.993665c -4.81  -3.79
iter:  17 10:18:21  -272.993660c -5.21  -3.88
iter:  18 10:19:06  -272.993660c -5.27  -3.95
iter:  19 10:22:51  -272.993665c -5.36  -3.98
Writing to output.gpw (mode='')

iter:  20 10:23:59  -272.993665c -5.68  -4.15c
iter:  21 10:25:16  -272.993665c -5.68  -4.23c
iter:  22 10:26:36  -272.993667c -5.81  -4.29c
iter:  23 10:28:43  -272.993667c -6.06  -4.49c
iter:  24 10:30:34  -272.993666c -6.22  -4.55c
Writing to output.gpw (mode='')

iter:  25 10:32:16  -272.993665c -6.29  -4.68c
iter:  26 10:33:29  -272.993666c -6.51  -4.78c
iter:  27 10:34:59  -272.993666c -6.85  -4.86c
iter:  28 10:36:42  -272.993666c -6.76  -4.93c
iter:  29 10:37:47  -272.993666c -6.88  -5.09c
Writing to output.gpw (mode='')

iter:  30 10:39:32  -272.993666c -6.87  -5.15c
iter:  31 10:41:19  -272.993666c -7.17  -5.18c
iter:  32 10:43:35  -272.993666c -7.16  -5.34c
iter:  33 10:45:37  -272.993666c -7.24  -5.57c
iter:  34 10:47:16  -272.993666c -7.45c -5.53c

Converged after 34 iterations.

Dipole moment: (-6.504944, -11.373194, 0.329365) |e|*Ang

Energy contributions relative to reference atoms: (reference = -11471.411034)

Kinetic:       +128.351652
Potential:     -120.465269
External:        +0.000000
XC:            -281.046634
Entropy (-ST):   -0.145741
Local:           +0.239455
--------------------------
Free energy:   -273.066536
Extrapolated:  -272.993666

Dipole-layer corrected work functions: 3.367336, 2.734184 eV

Showing only first 2 kpts
 Kpt  Band  Eigenvalues  Occupancy
  0    26     -3.30738    1.98826
  0    27     -3.20888    1.91879
  0    28     -2.88844    0.07492
  0    29     -2.80610    0.01488

  1    26     -3.09408    1.40800
  1    27     -3.05643    1.05664
  1    28     -3.01015    0.61488
  1    29     -2.95700    0.26588


Fermi level: -3.05076

No gap
Writing to output.gpw (mode='')


Forces in eV/Ang:
  0 Li    0.00736   -0.00179   -0.27003
  1 Li    0.00608   -0.00097   -0.26387
  2 Li   -0.01360   -0.00046   -0.27306
  3 Li    0.00170    0.00425   -0.26845
  4 Li   -0.00426    0.00661   -0.27999
  5 Li    0.00046   -0.00326   -0.26722
  6 Li    0.00213   -0.01114   -0.27074
  7 Li   -0.00079   -0.00729   -0.27553
  8 Li   -0.00014   -0.00257   -0.27659
  9 Li   -0.01471    0.02795    0.29757
 10 Li    0.02182   -0.03017    0.24401
 11 Li   -0.01996   -0.02654    0.25181
 12 Li    0.00717    0.02370    0.25923
 13 Li    0.03828    0.05249    0.22822
 14 Li   -0.02452    0.06053    0.22095
 15 Li    0.00585    0.02145    0.24386
 16 Li   -0.05672    0.01624    0.24499
 17 Li    0.06076    0.00454    0.26944
 18 Li   -0.03440    0.00266    0.06774
 19 Li   -0.00429   -0.00946    0.01907
 20 Li    0.04775   -0.03965    0.07779
 21 Li   -0.04526   -0.06560    0.08320
 22 Li   -0.00793    0.00436    0.01727
 23 Li    0.02233   -0.03019    0.05336
 24 Li   -0.00120   -0.00027    0.02160
 25 Li    0.00141    0.00770    0.02482
 26 Li    0.01388    0.01230    0.03316
 27 Li   -0.01530   -0.00817    0.00614
 28 Li    0.01150   -0.00343   -0.03316
 29 Li    0.00720   -0.00705   -0.03628
 30 Li   -0.01661   -0.09073    0.06789
 31 Li   -0.02153   -0.00328   -0.00683
 32 Li   -0.00623    0.00853   -0.00465
 33 Li   -0.00094   -0.00995   -0.03257
 34 Li   -0.00065    0.01703   -0.01450
 35 Li    0.00665    0.00191   -0.01632
 36 O    -0.08875   -0.08068   -0.13016
 37 C     0.04580   -0.02597   -0.04998
 38 C    -0.05212    0.07520    0.10345
 39 H     0.03670   -0.06432   -0.06597
 40 H     0.04598   -0.08104   -0.05842
 41 H     0.04404    0.02394    0.03196
 42 H     0.00222    0.01826   -0.01053
 43 H    -0.08204    0.15156    0.07816
 44 H     0.00378    0.05732   -0.04606

System changes: positions 

Initializing position-dependent things.

Density initialized from wave functions
       .-----------------------.  
      /|                       |  
     / |                       |  
    /  |                       |  
   /   |                       |  
  /    |                       |  
 *     |                       |  
 |     |                       |  
 |     |                       |  
 |     |                       |  
 |     |                       |  
 | H H |                H      |  
 |C    |       Li              |  
 |     |                       |  
 | H Li|     Li      LiH C     |  
 | Li  |  Li      Li   H OLi   |  
 |     |   Li      Li          |  
 |     |Li      Li      Li     |  
 |     |         Li      Li    |  
 |   LLi     LLi     LLi       |  
 |     |  Li      Li      Li   |  
 | Li  |   Li      Li          |  
 |     |Li      Li      Li     |  
 Li    | Li      Li            |  
 |    Li      Li      Li       |  
 |     |                       |  
 |     |                       |  
 |     |                       |  
 |     |                       |  
 |     |                       |  
 |     |                       |  
 |     .-----------------------.  
 |    /                       /   
 |   /                       /    
 |  /                       /     
 | /                       /      
 |/                       /       
 *-----------------------*        

Positions:
   0 Li     1.617037    1.617037   10.000000    ( 0.0000,  0.0000,  0.0000)
   1 Li     4.851111    1.617037   10.000000    ( 0.0000,  0.0000,  0.0000)
   2 Li     8.085185    1.617037   10.000000    ( 0.0000,  0.0000,  0.0000)
   3 Li     1.617037    4.851111   10.000000    ( 0.0000,  0.0000,  0.0000)
   4 Li     4.851111    4.851111   10.000000    ( 0.0000,  0.0000,  0.0000)
   5 Li     8.085185    4.851111   10.000000    ( 0.0000,  0.0000,  0.0000)
   6 Li     1.617037    8.085185   10.000000    ( 0.0000,  0.0000,  0.0000)
   7 Li     4.851111    8.085185   10.000000    ( 0.0000,  0.0000,  0.0000)
   8 Li     8.085185    8.085185   10.000000    ( 0.0000,  0.0000,  0.0000)
   9 Li     0.000000    0.000000   11.617037    ( 0.0000,  0.0000,  0.0000)
  10 Li     3.234074    0.000000   11.617037    ( 0.0000,  0.0000,  0.0000)
  11 Li     6.468148    0.000000   11.617037    ( 0.0000,  0.0000,  0.0000)
  12 Li     0.000000    3.234074   11.617037    ( 0.0000,  0.0000,  0.0000)
  13 Li     3.234074    3.234074   11.617037    ( 0.0000,  0.0000,  0.0000)
  14 Li     6.468148    3.234074   11.617037    ( 0.0000,  0.0000,  0.0000)
  15 Li     0.000000    6.468148   11.617037    ( 0.0000,  0.0000,  0.0000)
  16 Li     3.234074    6.468148   11.617037    ( 0.0000,  0.0000,  0.0000)
  17 Li     6.468148    6.468148   11.617037    ( 0.0000,  0.0000,  0.0000)
  18 Li     1.667872    1.658887   13.386944    ( 0.0000,  0.0000,  0.0000)
  19 Li     4.854034    1.622493   13.424738    ( 0.0000,  0.0000,  0.0000)
  20 Li     8.029988    1.688088   13.398371    ( 0.0000,  0.0000,  0.0000)
  21 Li     1.630837    4.888592   13.479330    ( 0.0000,  0.0000,  0.0000)
  22 Li     4.876570    4.878187   13.429279    ( 0.0000,  0.0000,  0.0000)
  23 Li     8.132928    4.875280   13.505639    ( 0.0000,  0.0000,  0.0000)
  24 Li     1.586762    8.118990   13.495150    ( 0.0000,  0.0000,  0.0000)
  25 Li     4.826325    8.049417   13.438522    ( 0.0000,  0.0000,  0.0000)
  26 Li     8.079713    8.111933   13.489597    ( 0.0000,  0.0000,  0.0000)
  27 Li    -0.004835    0.210950   15.465085    ( 0.0000,  0.0000,  0.0000)
  28 Li     3.241161   -0.006401   15.380488    ( 0.0000,  0.0000,  0.0000)
  29 Li     6.345443    0.026577   15.371249    ( 0.0000,  0.0000,  0.0000)
  30 Li     0.128488    3.194503   15.698080    ( 0.0000,  0.0000,  0.0000)
  31 Li     3.352990    3.249292   15.361740    ( 0.0000,  0.0000,  0.0000)
  32 Li     6.442764    3.261280   15.360082    ( 0.0000,  0.0000,  0.0000)
  33 Li     0.014231    6.538916   15.478222    ( 0.0000,  0.0000,  0.0000)
  34 Li     3.237052    6.445116   15.447781    ( 0.0000,  0.0000,  0.0000)
  35 Li     6.439279    6.488829   15.445918    ( 0.0000,  0.0000,  0.0000)
  36 O     -0.354171    1.483565   17.036402    ( 0.0000,  0.0000,  0.0000)
  37 C     -0.016270    0.772996   18.279408    ( 0.0000,  0.0000,  0.0000)
  38 C      0.134383    1.704177   19.456432    ( 0.0000,  0.0000,  0.0000)
  39 H     -0.800849    0.033596   18.467254    ( 0.0000,  0.0000,  0.0000)
  40 H      0.916834    0.250672   18.069261    ( 0.0000,  0.0000,  0.0000)
  41 H      0.373524    1.109416   20.341919    ( 0.0000,  0.0000,  0.0000)
  42 H      0.929339    2.433622   19.293164    ( 0.0000,  0.0000,  0.0000)
  43 H     -0.804322    2.225718   19.640223    ( 0.0000,  0.0000,  0.0000)
  44 H     -1.336253    1.555265   16.971899    ( 0.0000,  0.0000,  0.0000)

Unit cell:
           periodic     x           y           z      points  spacing
  1. axis:    yes    9.702222    0.000000    0.000000    60     0.1617
  2. axis:    yes    0.000000    9.702222    0.000000    60     0.1617
  3. axis:    no     0.000000    0.000000   24.851111   156     0.1593

  Lengths:   9.702222   9.702222  24.851111
  Angles:   90.000000  90.000000  90.000000

Effective grid spacing dv^(1/3) = 0.1609

     iter     time        total  log10-change:
                         energy  eigst   dens
iter:   1 10:49:53  -273.042301  -0.92
iter:   2 10:52:29  -273.008073  -1.70  -1.68
iter:   3 10:54:38  -273.002979  -2.46  -2.03
iter:   4 10:56:44  -273.000464c -2.79  -2.27
Writing to output.gpw (mode='')

iter:   5 10:58:51  -272.998906c -2.25  -2.44
iter:   6 11:00:42  -272.998421c -2.33  -2.58
iter:   7 11:03:33  -272.998830c -2.63  -2.75
iter:   8 11:05:32  -272.998191c -3.17  -2.70
iter:   9 11:07:22  -272.998165c -3.76  -3.06
Writing to output.gpw (mode='')

iter:  10 11:10:38  -272.998138c -3.70  -3.13
iter:  11 11:12:41  -272.998135c -3.96  -3.26
iter:  12 11:14:34  -272.998142c -4.66  -3.53
iter:  13 11:16:04  -272.998148c -4.66  -3.58
iter:  14 11:19:22  -272.998142c -4.83  -3.57
Writing to output.gpw (mode='')

iter:  15 11:21:13  -272.998140c -4.59  -3.68
iter:  16 11:24:02  -272.998142c -5.09  -3.88
iter:  17 11:26:50  -272.998145c -5.32  -3.93
iter:  18 11:29:07  -272.998143c -5.45  -3.96
iter:  19 11:31:10  -272.998142c -5.55  -4.04c
Writing to output.gpw (mode='')

iter:  20 11:33:25  -272.998142c -5.51  -4.23c
iter:  21 11:35:39  -272.998143c -6.04  -4.36c
iter:  22 11:37:49  -272.998143c -6.13  -4.39c
iter:  23 11:39:37  -272.998144c -6.16  -4.53c
iter:  24 11:41:35  -272.998144c -6.16  -4.71c
Writing to output.gpw (mode='')

iter:  25 11:43:43  -272.998144c -6.69  -4.61c
iter:  26 11:45:26  -272.998144c -6.45  -4.64c
iter:  27 11:47:18  -272.998144c -6.88  -4.77c
iter:  28 11:49:37  -272.998144c -6.86  -4.84c
iter:  29 11:51:20  -272.998143c -7.10  -5.00c
Writing to output.gpw (mode='')

iter:  30 11:53:07  -272.998144c -7.04  -5.14c
iter:  31 11:55:03  -272.998144c -7.07  -5.22c
iter:  32 11:58:01  -272.998144c -7.23  -5.31c
iter:  33 12:00:56  -272.998144c -7.20  -5.31c
iter:  34 12:04:24  -272.998144c -7.57c -5.56c

Converged after 34 iterations.

Dipole moment: (-7.084485, -11.331961, 0.331018) |e|*Ang

Energy contributions relative to reference atoms: (reference = -11471.411034)

Kinetic:       +128.141011
Potential:     -120.306765
External:        +0.000000
XC:            -280.998935
Entropy (-ST):   -0.145674
Local:           +0.239382
--------------------------
Free energy:   -273.070981
Extrapolated:  -272.998144

Dipole-layer corrected work functions: 3.367155, 2.730825 eV

Showing only first 2 kpts
 Kpt  Band  Eigenvalues  Occupancy
  0    26     -3.30619    1.98840
  0    27     -3.20647    1.91778
  0    28     -2.88785    0.07663
  0    29     -2.80508    0.01511

  1    26     -3.09395    1.42156
  1    27     -3.05463    1.05636
  1    28     -3.00858    0.61657
  1    29     -2.95249    0.25349


Fermi level: -3.04899

No gap
Writing to output.gpw (mode='')


Forces in eV/Ang:
  0 Li    0.00717   -0.00182   -0.26927
  1 Li    0.00620   -0.00049   -0.26416
  2 Li   -0.01363   -0.00069   -0.27254
  3 Li    0.00180    0.00415   -0.26767
  4 Li   -0.00422    0.00690   -0.28104
  5 Li   -0.00008   -0.00332   -0.26659
  6 Li    0.00260   -0.01125   -0.27110
  7 Li   -0.00095   -0.00761   -0.27434
  8 Li    0.00007   -0.00261   -0.27658
  9 Li   -0.01374    0.02967    0.29769
 10 Li    0.02089   -0.02661    0.24197
 11 Li   -0.02133   -0.02639    0.24851
 12 Li    0.00687    0.02572    0.25244
 13 Li    0.04013    0.05559    0.22526
 14 Li   -0.02378    0.06291    0.21801
 15 Li    0.00691    0.02045    0.24075
 16 Li   -0.05732    0.01039    0.24250
 17 Li    0.06056    0.00315    0.26562
 18 Li   -0.03857   -0.00337    0.07434
 19 Li   -0.00582   -0.00996    0.02137
 20 Li    0.05310   -0.04646    0.08870
 21 Li   -0.04706   -0.06922    0.08732
 22 Li   -0.01156    0.00556    0.01962
 23 Li    0.02176   -0.03498    0.05825
 24 Li   -0.00621    0.00274    0.03149
 25 Li    0.00343    0.00824    0.02812
 26 Li    0.02050    0.01644    0.04275
 27 Li   -0.02124   -0.01754   -0.02610
 28 Li    0.01772   -0.00525   -0.03577
 29 Li    0.00587   -0.00934   -0.03821
 30 Li   -0.01105   -0.08755    0.05128
 31 Li   -0.02595   -0.00332   -0.00446
 32 Li   -0.00573    0.00823   -0.00198
 33 Li   -0.00197   -0.01424   -0.03250
 34 Li    0.00002    0.01912   -0.01603
 35 Li    0.00816    0.00093   -0.01659
 36 O    -0.11564   -0.04362   -0.13958
 37 C     0.00192   -0.02848   -0.00179
 38 C    -0.07010    0.04903    0.06690
 39 H     0.06846   -0.04515   -0.06727
 40 H     0.04639   -0.07232   -0.03947
 41 H     0.03818    0.05223    0.03925
 42 H    -0.01210    0.00854   -0.00109
 43 H    -0.00831    0.12683    0.08686
 44 H     0.05276    0.05848   -0.05454

System changes: positions 

Initializing position-dependent things.

Density initialized from wave functions
       .-----------------------.  
      /|                       |  
     / |                       |  
    /  |                       |  
   /   |                       |  
  /    |                       |  
 *     |                       |  
 |     |                       |  
 |     |                       |  
 |     |                       |  
 |     |                       |  
 | H H |                H      |  
 |C    |       Li              |  
 |     |                       |  
 | H Li|     Li      LiH C     |  
 | Li  |  Li      Li   H OLi   |  
 |     |   Li      Li          |  
 |     |Li      Li      Li     |  
 Li    |         Li            |  
 |   LLi     LLi     LLi       |  
 |     |  Li      Li      Li   |  
 | Li  |   Li      Li          |  
 |     |Li      Li      Li     |  
 Li    | Li      Li            |  
 |    Li      Li      Li       |  
 |     |                       |  
 |     |                       |  
 |     |                       |  
 |     |                       |  
 |     |                       |  
 |     |                       |  
 |     .-----------------------.  
 |    /                       /   
 |   /                       /    
 |  /                       /     
 | /                       /      
 |/                       /       
 *-----------------------*        

Positions:
   0 Li     1.617037    1.617037   10.000000    ( 0.0000,  0.0000,  0.0000)
   1 Li     4.851111    1.617037   10.000000    ( 0.0000,  0.0000,  0.0000)
   2 Li     8.085185    1.617037   10.000000    ( 0.0000,  0.0000,  0.0000)
   3 Li     1.617037    4.851111   10.000000    ( 0.0000,  0.0000,  0.0000)
   4 Li     4.851111    4.851111   10.000000    ( 0.0000,  0.0000,  0.0000)
   5 Li     8.085185    4.851111   10.000000    ( 0.0000,  0.0000,  0.0000)
   6 Li     1.617037    8.085185   10.000000    ( 0.0000,  0.0000,  0.0000)
   7 Li     4.851111    8.085185   10.000000    ( 0.0000,  0.0000,  0.0000)
   8 Li     8.085185    8.085185   10.000000    ( 0.0000,  0.0000,  0.0000)
   9 Li     0.000000    0.000000   11.617037    ( 0.0000,  0.0000,  0.0000)
  10 Li     3.234074    0.000000   11.617037    ( 0.0000,  0.0000,  0.0000)
  11 Li     6.468148    0.000000   11.617037    ( 0.0000,  0.0000,  0.0000)
  12 Li     0.000000    3.234074   11.617037    ( 0.0000,  0.0000,  0.0000)
  13 Li     3.234074    3.234074   11.617037    ( 0.0000,  0.0000,  0.0000)
  14 Li     6.468148    3.234074   11.617037    ( 0.0000,  0.0000,  0.0000)
  15 Li     0.000000    6.468148   11.617037    ( 0.0000,  0.0000,  0.0000)
  16 Li     3.234074    6.468148   11.617037    ( 0.0000,  0.0000,  0.0000)
  17 Li     6.468148    6.468148   11.617037    ( 0.0000,  0.0000,  0.0000)
  18 Li     1.667104    1.664989   13.389039    ( 0.0000,  0.0000,  0.0000)
  19 Li     4.854782    1.622062   13.422852    ( 0.0000,  0.0000,  0.0000)
  20 Li     8.030870    1.689686   13.397481    ( 0.0000,  0.0000,  0.0000)
  21 Li     1.627416    4.884316   13.485036    ( 0.0000,  0.0000,  0.0000)
  22 Li     4.878929    4.878224   13.428390    ( 0.0000,  0.0000,  0.0000)
  23 Li     8.136418    4.875841   13.507792    ( 0.0000,  0.0000,  0.0000)
  24 Li     1.590809    8.115999   13.488425    ( 0.0000,  0.0000,  0.0000)
  25 Li     4.824311    8.049293   13.436916    ( 0.0000,  0.0000,  0.0000)
  26 Li     8.075693    8.109969   13.484642    ( 0.0000,  0.0000,  0.0000)
  27 Li     0.005563    0.202870   15.473225    ( 0.0000,  0.0000,  0.0000)
  28 Li     3.237645   -0.005417   15.376876    ( 0.0000,  0.0000,  0.0000)
  29 Li     6.345939    0.028026   15.366700    ( 0.0000,  0.0000,  0.0000)
  30 Li     0.120018    3.173931   15.731322    ( 0.0000,  0.0000,  0.0000)
  31 Li     3.354840    3.248877   15.358581    ( 0.0000,  0.0000,  0.0000)
  32 Li     6.441246    3.261808   15.356893    ( 0.0000,  0.0000,  0.0000)
  33 Li     0.015432    6.542238   15.474122    ( 0.0000,  0.0000,  0.0000)
  34 Li     3.236489    6.445743   15.447525    ( 0.0000,  0.0000,  0.0000)
  35 Li     6.438087    6.490902   15.443928    ( 0.0000,  0.0000,  0.0000)
  36 O     -0.357015    1.474115   17.023305    ( 0.0000,  0.0000,  0.0000)
  37 C     -0.012386    0.770370   18.268578    ( 0.0000,  0.0000,  0.0000)
  38 C      0.134285    1.709954   19.443463    ( 0.0000,  0.0000,  0.0000)
  39 H     -0.796321    0.029642   18.459794    ( 0.0000,  0.0000,  0.0000)
  40 H      0.921046    0.248519   18.056158    ( 0.0000,  0.0000,  0.0000)
  41 H      0.375997    1.115515   20.329226    ( 0.0000,  0.0000,  0.0000)
  42 H      0.930861    2.438099   19.276584    ( 0.0000,  0.0000,  0.0000)
  43 H     -0.809116    2.231445   19.620843    ( 0.0000,  0.0000,  0.0000)
  44 H     -1.339975    1.534249   16.953995    ( 0.0000,  0.0000,  0.0000)

Unit cell:
           periodic     x           y           z      points  spacing
  1. axis:    yes    9.702222    0.000000    0.000000    60     0.1617
  2. axis:    yes    0.000000    9.702222    0.000000    60     0.1617
  3. axis:    no     0.000000    0.000000   24.851111   156     0.1593

  Lengths:   9.702222   9.702222  24.851111
  Angles:   90.000000  90.000000  90.000000

Effective grid spacing dv^(1/3) = 0.1609

     iter     time        total  log10-change:
                         energy  eigst   dens
iter:   1 12:07:55  -273.010490  -1.10
iter:   2 12:10:15  -273.008236  -1.96  -2.07
iter:   3 12:13:11  -273.007570c -2.54  -2.28
iter:   4 12:15:45  -273.005686c -2.94  -2.35
Writing to output.gpw (mode='')

iter:   5 12:17:57  -273.003745c -2.39  -2.48
iter:   6 12:20:13  -273.003383c -2.57  -2.67
iter:   7 12:22:38  -273.004133c -2.51  -2.87
iter:   8 12:25:03  -273.003429c -3.25  -2.72
iter:   9 12:28:05  -273.003286c -2.96  -2.96
Writing to output.gpw (mode='')

iter:  10 12:31:52  -273.003297c -3.98  -3.14
iter:  11 12:35:26  -273.003262c -4.26  -3.22
iter:  12 12:38:55  -273.003276c -3.85  -3.39
iter:  13 12:41:32  -273.003267c -4.70  -3.39
iter:  14 12:44:24  -273.003268c -4.41  -3.48
Writing to output.gpw (mode='')

iter:  15 12:47:05  -273.003265c -5.10  -3.58
iter:  16 12:50:22  -273.003258c -5.09  -3.63
iter:  17 12:53:46  -273.003257c -5.47  -3.81
iter:  18 12:57:23  -273.003259c -5.39  -3.93
iter:  19 13:00:02  -273.003256c -5.38  -4.05c
Writing to output.gpw (mode='')

iter:  20 13:02:38  -273.003258c -5.87  -4.13c
iter:  21 13:05:08  -273.003259c -5.80  -4.26c
iter:  22 13:07:13  -273.003258c -5.97  -4.35c
iter:  23 13:11:09  -273.003258c -6.33  -4.52c
iter:  24 13:15:16  -273.003259c -6.58  -4.56c
Writing to output.gpw (mode='')

iter:  25 13:18:44  -273.003259c -6.59  -4.67c
iter:  26 13:21:37  -273.003259c -6.66  -4.76c
iter:  27 13:24:26  -273.003259c -6.96  -4.97c
iter:  28 13:27:22  -273.003259c -6.94  -5.01c
iter:  29 13:30:11  -273.003259c -7.06  -5.05c
Writing to output.gpw (mode='')

iter:  30 13:33:00  -273.003259c -7.26  -5.33c
iter:  31 13:36:03  -273.003259c -7.26  -5.34c
iter:  32 13:38:32  -273.003259c -7.27  -5.48c
iter:  33 13:41:04  -273.003259c -7.49c -5.55c

Converged after 33 iterations.

Dipole moment: (-7.530999, -11.280981, 0.334458) |e|*Ang

Energy contributions relative to reference atoms: (reference = -11471.411034)

Kinetic:       +127.906798
Potential:     -120.129601
External:        +0.000000
XC:            -280.947170
Entropy (-ST):   -0.145692
Local:           +0.239561
--------------------------
Free energy:   -273.076105
Extrapolated:  -273.003259

Dipole-layer corrected work functions: 3.366981, 2.724038 eV

Showing only first 2 kpts
 Kpt  Band  Eigenvalues  Occupancy
  0    26     -3.30239    1.98833
  0    27     -3.20214    1.91643
  0    28     -2.88558    0.07844
  0    29     -2.80140    0.01505

  1    26     -3.09170    1.43163
  1    27     -3.05138    1.05862
  1    28     -3.00561    0.62093
  1    29     -2.94714    0.24534


Fermi level: -3.04551

No gap
Writing to output.gpw (mode='')


Forces in eV/Ang:
  0 Li    0.00691   -0.00179   -0.26851
  1 Li    0.00629   -0.00003   -0.26485
  2 Li   -0.01356   -0.00083   -0.27201
  3 Li    0.00185    0.00401   -0.26716
  4 Li   -0.00405    0.00707   -0.28210
  5 Li   -0.00054   -0.00336   -0.26633
  6 Li    0.00306   -0.01119   -0.27172
  7 Li   -0.00117   -0.00786   -0.27321
  8 Li    0.00029   -0.00252   -0.27662
  9 Li   -0.01239    0.03104    0.29817
 10 Li    0.01940   -0.02269    0.24190
 11 Li   -0.02209   -0.02579    0.24708
 12 Li    0.00629    0.02672    0.24680
 13 Li    0.04067    0.05737    0.22528
 14 Li   -0.02204    0.06376    0.21815
 15 Li    0.00803    0.01847    0.24043
 16 Li   -0.05894    0.00423    0.24314
 17 Li    0.06088    0.00147    0.26443
 18 Li   -0.04092   -0.00986    0.07528
 19 Li   -0.00730   -0.00950    0.02023
 20 Li    0.05555   -0.05006    0.09449
 21 Li   -0.04660   -0.06920    0.08521
 22 Li   -0.01538    0.00693    0.01914
 23 Li    0.02030   -0.03917    0.05918
 24 Li   -0.01214    0.00605    0.03913
 25 Li    0.00561    0.00810    0.02788
 26 Li    0.02709    0.01999    0.04906
 27 Li   -0.02194   -0.03872   -0.07080
 28 Li    0.02348   -0.00683   -0.03600
 29 Li    0.00443   -0.01059   -0.03733
 30 Li   -0.00099   -0.07588    0.03065
 31 Li   -0.02923   -0.00327   -0.00029
 32 Li   -0.00493    0.00701    0.00160
 33 Li   -0.00284   -0.01815   -0.02948
 34 Li    0.00104    0.02038   -0.01606
 35 Li    0.00897    0.00005   -0.01533
 36 O    -0.08418   -0.03049   -0.14159
 37 C    -0.04726   -0.00680    0.05669
 38 C    -0.09648    0.01125   -0.00645
 39 H     0.09758   -0.02392   -0.06100
 40 H     0.04410   -0.04961   -0.00751
 41 H     0.01746    0.09169    0.03449
 42 H    -0.04312    0.00017    0.01534
 43 H     0.08257    0.07998    0.06665
 44 H     0.02854    0.06443   -0.04297

System changes: positions 

Initializing position-dependent things.

Density initialized from wave functions
       .-----------------------.  
      /|                       |  
     / |                       |  
    /  |                       |  
   /   |                       |  
  /    |                       |  
 *     |                       |  
 |     |                       |  
 |     |                       |  
 |     |                       |  
 |     |                       |  
 | H H |                H      |  
 |C    |       Li              |  
 |     |                       |  
 | H Li|     Li      LiH C     |  
 | Li  |  Li      Li   H OLi   |  
 |     |   Li      Li          |  
 |     |Li      Li      Li     |  
 Li    |         Li            |  
 |   LLi     LLi     LLi       |  
 |     |  Li      Li      Li   |  
 | Li  |   Li      Li          |  
 |     |Li      Li      Li     |  
 Li    | Li      Li            |  
 |    Li      Li      Li       |  
 |     |                       |  
 |     |                       |  
 |     |                       |  
 |     |                       |  
 |     |                       |  
 |     |                       |  
 |     .-----------------------.  
 |    /                       /   
 |   /                       /    
 |  /                       /     
 | /                       /      
 |/                       /       
 *-----------------------*        

Positions:
   0 Li     1.617037    1.617037   10.000000    ( 0.0000,  0.0000,  0.0000)
   1 Li     4.851111    1.617037   10.000000    ( 0.0000,  0.0000,  0.0000)
   2 Li     8.085185    1.617037   10.000000    ( 0.0000,  0.0000,  0.0000)
   3 Li     1.617037    4.851111   10.000000    ( 0.0000,  0.0000,  0.0000)
   4 Li     4.851111    4.851111   10.000000    ( 0.0000,  0.0000,  0.0000)
   5 Li     8.085185    4.851111   10.000000    ( 0.0000,  0.0000,  0.0000)
   6 Li     1.617037    8.085185   10.000000    ( 0.0000,  0.0000,  0.0000)
   7 Li     4.851111    8.085185   10.000000    ( 0.0000,  0.0000,  0.0000)
   8 Li     8.085185    8.085185   10.000000    ( 0.0000,  0.0000,  0.0000)
   9 Li     0.000000    0.000000   11.617037    ( 0.0000,  0.0000,  0.0000)
  10 Li     3.234074    0.000000   11.617037    ( 0.0000,  0.0000,  0.0000)
  11 Li     6.468148    0.000000   11.617037    ( 0.0000,  0.0000,  0.0000)
  12 Li     0.000000    3.234074   11.617037    ( 0.0000,  0.0000,  0.0000)
  13 Li     3.234074    3.234074   11.617037    ( 0.0000,  0.0000,  0.0000)
  14 Li     6.468148    3.234074   11.617037    ( 0.0000,  0.0000,  0.0000)
  15 Li     0.000000    6.468148   11.617037    ( 0.0000,  0.0000,  0.0000)
  16 Li     3.234074    6.468148   11.617037    ( 0.0000,  0.0000,  0.0000)
  17 Li     6.468148    6.468148   11.617037    ( 0.0000,  0.0000,  0.0000)
  18 Li     1.665590    1.670880   13.393609    ( 0.0000,  0.0000,  0.0000)
  19 Li     4.855368    1.621369   13.422853    ( 0.0000,  0.0000,  0.0000)
  20 Li     8.032814    1.690064   13.399602    ( 0.0000,  0.0000,  0.0000)
  21 Li     1.622729    4.878242   13.494248    ( 0.0000,  0.0000,  0.0000)
  22 Li     4.880911    4.878498   13.429225    ( 0.0000,  0.0000,  0.0000)
  23 Li     8.140462    4.875461   13.512745    ( 0.0000,  0.0000,  0.0000)
  24 Li     1.594555    8.113179   13.484009    ( 0.0000,  0.0000,  0.0000)
  25 Li     4.822417    8.049310   13.437303    ( 0.0000,  0.0000,  0.0000)
  26 Li     8.072329    8.108474   13.482142    ( 0.0000,  0.0000,  0.0000)
  27 Li     0.014733    0.196199   15.479952    ( 0.0000,  0.0000,  0.0000)
  28 Li     3.234897   -0.004736   15.371552    ( 0.0000,  0.0000,  0.0000)
  29 Li     6.346240    0.029052   15.360244    ( 0.0000,  0.0000,  0.0000)
  30 Li     0.111947    3.151504   15.763446    ( 0.0000,  0.0000,  0.0000)
  31 Li     3.356211    3.248505   15.354579    ( 0.0000,  0.0000,  0.0000)
  32 Li     6.439342    3.262769   15.352827    ( 0.0000,  0.0000,  0.0000)
  33 Li     0.016489    6.545153   15.468673    ( 0.0000,  0.0000,  0.0000)
  34 Li     3.235986    6.446853   15.446260    ( 0.0000,  0.0000,  0.0000)
  35 Li     6.437167    6.492930   15.441038    ( 0.0000,  0.0000,  0.0000)
  36 O     -0.359484    1.461579   17.009367    ( 0.0000,  0.0000,  0.0000)
  37 C     -0.008871    0.767761   18.259870    ( 0.0000,  0.0000,  0.0000)
  38 C      0.133196    1.715700   19.431999    ( 0.0000,  0.0000,  0.0000)
  39 H     -0.790362    0.024797   18.454325    ( 0.0000,  0.0000,  0.0000)
  40 H      0.925948    0.246665   18.046373    ( 0.0000,  0.0000,  0.0000)
  41 H      0.378831    1.121847   20.318010    ( 0.0000,  0.0000,  0.0000)
  42 H      0.933113    2.441250   19.263765    ( 0.0000,  0.0000,  0.0000)
  43 H     -0.813378    2.237539   19.604028    ( 0.0000,  0.0000,  0.0000)
  44 H     -1.344598    1.513762   16.933331    ( 0.0000,  0.0000,  0.0000)

Unit cell:
           periodic     x           y           z      points  spacing
  1. axis:    yes    9.702222    0.000000    0.000000    60     0.1617
  2. axis:    yes    0.000000    9.702222    0.000000    60     0.1617
  3. axis:    no     0.000000    0.000000   24.851111   156     0.1593

  Lengths:   9.702222   9.702222  24.851111
  Angles:   90.000000  90.000000  90.000000

Effective grid spacing dv^(1/3) = 0.1609

     iter     time        total  log10-change:
                         energy  eigst   dens
iter:   1 13:44:09  -273.013719  -1.13
iter:   2 13:47:09  -273.012374  -1.95  -2.15
iter:   3 13:49:34  -273.011968c -2.53  -2.30
iter:   4 13:51:44  -273.009251c -2.51  -2.37
Writing to output.gpw (mode='')

iter:   5 13:54:46  -273.008643c -2.57  -2.58
iter:   6 13:58:33  -273.008292c -2.71  -2.67
iter:   7 14:01:36  -273.008524c -2.82  -2.89
iter:   8 14:03:57  -273.008207c -3.52  -2.87
iter:   9 14:06:18  -273.008200c -3.69  -3.17
Writing to output.gpw (mode='')

iter:  10 14:09:02  -273.008205c -4.18  -3.22
iter:  11 14:11:32  -273.008195c -3.96  -3.34
iter:  12 14:13:22  -273.008188c -4.91  -3.51
iter:  13 14:15:08  -273.008190c -5.11  -3.66
iter:  14 14:17:54  -273.008190c -4.63  -3.68
Writing to output.gpw (mode='')

iter:  15 14:20:19  -273.008183c -4.90  -3.68
iter:  16 14:22:46  -273.008184c -5.39  -4.08c
iter:  17 14:25:39  -273.008185c -5.63  -4.14c
iter:  18 14:27:26  -273.008185c -5.56  -4.21c
iter:  19 14:29:13  -273.008186c -5.72  -4.30c
Writing to output.gpw (mode='')

iter:  20 14:31:11  -273.008186c -6.02  -4.38c
iter:  21 14:33:04  -273.008186c -6.11  -4.43c
iter:  22 14:34:57  -273.008186c -6.30  -4.51c
iter:  23 14:38:11  -273.008187c -6.24  -4.55c
iter:  24 14:40:04  -273.008187c -6.40  -4.67c
Writing to output.gpw (mode='')

iter:  25 14:42:03  -273.008187c -6.54  -4.85c
iter:  26 14:48:29  -273.008187c -6.63  -4.88c
iter:  27 14:52:33  -273.008187c -6.87  -4.90c
iter:  28 14:56:20  -273.008187c -6.84  -5.04c
iter:  29 14:59:41  -273.008187c -7.00  -5.25c
Writing to output.gpw (mode='')

iter:  30 15:02:43  -273.008187c -6.96  -5.35c
iter:  31 15:05:52  -273.008187c -7.29  -5.37c
iter:  32 15:09:06  -273.008187c -7.36  -5.46c
iter:  33 15:12:14  -273.008187c -7.47c -5.50c

Converged after 33 iterations.

Dipole moment: (-7.889938, -11.201343, 0.338342) |e|*Ang

Energy contributions relative to reference atoms: (reference = -11471.411034)

Kinetic:       +127.666642
Potential:     -119.946380
External:        +0.000000
XC:            -280.895010
Entropy (-ST):   -0.145738
Local:           +0.239431
--------------------------
Free energy:   -273.081056
Extrapolated:  -273.008187

Dipole-layer corrected work functions: 3.366830, 2.716421 eV

Showing only first 2 kpts
 Kpt  Band  Eigenvalues  Occupancy
  0    26     -3.29759    1.98811
  0    27     -3.19758    1.91535
  0    28     -2.88252    0.07968
  0    29     -2.79671    0.01481

  1    26     -3.08858    1.43782
  1    27     -3.04770    1.06068
  1    28     -3.00276    0.62980
  1    29     -2.94186    0.23938


Fermi level: -3.04163

No gap
Writing to output.gpw (mode='')


Forces in eV/Ang:
  0 Li    0.00655   -0.00166   -0.26794
  1 Li    0.00643    0.00038   -0.26578
  2 Li   -0.01344   -0.00093   -0.27167
  3 Li    0.00190    0.00385   -0.26695
  4 Li   -0.00385    0.00725   -0.28325
  5 Li   -0.00089   -0.00346   -0.26644
  6 Li    0.00350   -0.01105   -0.27266
  7 Li   -0.00144   -0.00813   -0.27212
  8 Li    0.00051   -0.00225   -0.27688
  9 Li   -0.01083    0.03215    0.30007
 10 Li    0.01765   -0.01874    0.24388
 11 Li   -0.02245   -0.02502    0.24767
 12 Li    0.00534    0.02712    0.24276
 13 Li    0.04052    0.05873    0.22775
 14 Li   -0.01964    0.06377    0.22113
 15 Li    0.00923    0.01578    0.24286
 16 Li   -0.06132   -0.00231    0.24637
 17 Li    0.06157   -0.00033    0.26571
 18 Li   -0.04201   -0.01621    0.07108
 19 Li   -0.00862   -0.00812    0.01487
 20 Li    0.05585   -0.05110    0.09477
 21 Li   -0.04456   -0.06657    0.07696
 22 Li   -0.01910    0.00827    0.01518
 23 Li    0.01813   -0.04270    0.05535
 24 Li   -0.01806    0.00888    0.04243
 25 Li    0.00781    0.00750    0.02323
 26 Li    0.03309    0.02254    0.05060
 27 Li   -0.01911   -0.06725   -0.11445
 28 Li    0.02805   -0.00788   -0.03299
 29 Li    0.00382   -0.01099   -0.03278
 30 Li    0.01008   -0.05784    0.00833
 31 Li   -0.03203   -0.00337    0.00632
 32 Li   -0.00311    0.00425    0.00768
 33 Li   -0.00351   -0.02165   -0.02325
 34 Li    0.00224    0.02106   -0.01421
 35 Li    0.00927   -0.00074   -0.01233
 36 O    -0.09894    0.01210   -0.09810
 37 C    -0.07423   -0.00163    0.06317
 38 C    -0.08448   -0.02844   -0.07316
 39 H     0.10954   -0.01110   -0.05663
 40 H     0.02815   -0.01767    0.01501
 41 H    -0.01675    0.11593    0.03243
 42 H    -0.08226   -0.00157    0.01726
 43 H     0.15433    0.03948    0.07756
 44 H     0.06702    0.04600   -0.02609

System changes: positions 

Initializing position-dependent things.

Density initialized from wave functions
       .-----------------------.  
      /|                       |  
     / |                       |  
    /  |                       |  
   /   |                       |  
  /    |                       |  
 *     |                       |  
 |     |                       |  
 |     |                       |  
 |     |                       |  
 |     |                       |  
 | H H |                H      |  
 |C    |       Li              |  
 |     |                       |  
 | H Li|     Li      LiH C     |  
 | Li  |  Li      Li   H OLi   |  
 |     |   Li      Li          |  
 |     |Li      Li      Li     |  
 Li    |         Li            |  
 |   LLi     LLi     LLi       |  
 |     |  Li      Li      Li   |  
 | Li  |   Li      Li          |  
 |     |Li      Li      Li     |  
 Li    | Li      Li            |  
 |    Li      Li      Li       |  
 |     |                       |  
 |     |                       |  
 |     |                       |  
 |     |                       |  
 |     |                       |  
 |     |                       |  
 |     .-----------------------.  
 |    /                       /   
 |   /                       /    
 |  /                       /     
 | /                       /      
 |/                       /       
 *-----------------------*        

Positions:
   0 Li     1.617037    1.617037   10.000000    ( 0.0000,  0.0000,  0.0000)
   1 Li     4.851111    1.617037   10.000000    ( 0.0000,  0.0000,  0.0000)
   2 Li     8.085185    1.617037   10.000000    ( 0.0000,  0.0000,  0.0000)
   3 Li     1.617037    4.851111   10.000000    ( 0.0000,  0.0000,  0.0000)
   4 Li     4.851111    4.851111   10.000000    ( 0.0000,  0.0000,  0.0000)
   5 Li     8.085185    4.851111   10.000000    ( 0.0000,  0.0000,  0.0000)
   6 Li     1.617037    8.085185   10.000000    ( 0.0000,  0.0000,  0.0000)
   7 Li     4.851111    8.085185   10.000000    ( 0.0000,  0.0000,  0.0000)
   8 Li     8.085185    8.085185   10.000000    ( 0.0000,  0.0000,  0.0000)
   9 Li     0.000000    0.000000   11.617037    ( 0.0000,  0.0000,  0.0000)
  10 Li     3.234074    0.000000   11.617037    ( 0.0000,  0.0000,  0.0000)
  11 Li     6.468148    0.000000   11.617037    ( 0.0000,  0.0000,  0.0000)
  12 Li     0.000000    3.234074   11.617037    ( 0.0000,  0.0000,  0.0000)
  13 Li     3.234074    3.234074   11.617037    ( 0.0000,  0.0000,  0.0000)
  14 Li     6.468148    3.234074   11.617037    ( 0.0000,  0.0000,  0.0000)
  15 Li     0.000000    6.468148   11.617037    ( 0.0000,  0.0000,  0.0000)
  16 Li     3.234074    6.468148   11.617037    ( 0.0000,  0.0000,  0.0000)
  17 Li     6.468148    6.468148   11.617037    ( 0.0000,  0.0000,  0.0000)
  18 Li     1.662290    1.673013   13.402131    ( 0.0000,  0.0000,  0.0000)
  19 Li     4.855301    1.620346   13.426605    ( 0.0000,  0.0000,  0.0000)
  20 Li     8.037106    1.686777   13.407689    ( 0.0000,  0.0000,  0.0000)
  21 Li     1.617085    4.870411   13.506416    ( 0.0000,  0.0000,  0.0000)
  22 Li     4.880843    4.879035   13.432927    ( 0.0000,  0.0000,  0.0000)
  23 Li     8.143720    4.872649   13.520912    ( 0.0000,  0.0000,  0.0000)
  24 Li     1.595653    8.112212   13.486442    ( 0.0000,  0.0000,  0.0000)
  25 Li     4.821950    8.049918   13.441357    ( 0.0000,  0.0000,  0.0000)
  26 Li     8.072460    8.108956   13.485978    ( 0.0000,  0.0000,  0.0000)
  27 Li     0.016718    0.194744   15.485026    ( 0.0000,  0.0000,  0.0000)
  28 Li     3.235289   -0.004987   15.365857    ( 0.0000,  0.0000,  0.0000)
  29 Li     6.346690    0.028419   15.353771    ( 0.0000,  0.0000,  0.0000)
  30 Li     0.107566    3.135605   15.777740    ( 0.0000,  0.0000,  0.0000)
  31 Li     3.354943    3.248177   15.351723    ( 0.0000,  0.0000,  0.0000)
  32 Li     6.437546    3.264145   15.349750    ( 0.0000,  0.0000,  0.0000)
  33 Li     0.016599    6.545117   15.463375    ( 0.0000,  0.0000,  0.0000)
  34 Li     3.235704    6.448818   15.443798    ( 0.0000,  0.0000,  0.0000)
  35 Li     6.437682    6.493726   15.437956    ( 0.0000,  0.0000,  0.0000)
  36 O     -0.358213    1.448772   17.000140    ( 0.0000,  0.0000,  0.0000)
  37 C     -0.007144    0.764867   18.257008    ( 0.0000,  0.0000,  0.0000)
  38 C      0.130183    1.718152   19.428580    ( 0.0000,  0.0000,  0.0000)
  39 H     -0.785507    0.019281   18.450686    ( 0.0000,  0.0000,  0.0000)
  40 H      0.928993    0.243416   18.043820    ( 0.0000,  0.0000,  0.0000)
  41 H      0.381206    1.124249   20.314079    ( 0.0000,  0.0000,  0.0000)
  42 H      0.934066    2.440811   19.262887    ( 0.0000,  0.0000,  0.0000)
  43 H     -0.815814    2.243074   19.601461    ( 0.0000,  0.0000,  0.0000)
  44 H     -1.342934    1.508146   16.919459    ( 0.0000,  0.0000,  0.0000)

Unit cell:
           periodic     x           y           z      points  spacing
  1. axis:    yes    9.702222    0.000000    0.000000    60     0.1617
  2. axis:    yes    0.000000    9.702222    0.000000    60     0.1617
  3. axis:    no     0.000000    0.000000   24.851111   156     0.1593

  Lengths:   9.702222   9.702222  24.851111
  Angles:   90.000000  90.000000  90.000000

Effective grid spacing dv^(1/3) = 0.1609

     iter     time        total  log10-change:
                         energy  eigst   dens
iter:   1 15:15:58  -273.101663  -1.05
iter:   2 15:19:14  -273.025557  -1.69  -1.56
iter:   3 15:22:16  -273.016134  -2.76  -2.00
iter:   4 15:24:54  -273.013992c -2.62  -2.40
Writing to output.gpw (mode='')

iter:   5 15:28:31  -273.013807c -2.81  -2.67
iter:   6 15:31:20  -273.013631c -2.77  -2.81
iter:   7 15:35:43  -273.013691c -2.90  -3.04
iter:   8 15:39:03  -273.013674c -3.52  -3.02
iter:   9 15:42:39  -273.013679c -4.07  -3.28
Writing to output.gpw (mode='')

iter:  10 15:45:27  -273.013679c -4.07  -3.36
iter:  11 15:50:02  -273.013686c -4.08  -3.59
iter:  12 15:53:42  -273.013691c -4.42  -3.64
iter:  13 15:57:23  -273.013694c -4.65  -3.68
iter:  14 15:58:46  -273.013700c -4.41  -3.66
Writing to output.gpw (mode='')

iter:  15 16:00:10  -273.013705c -4.50  -3.57
iter:  16 16:02:13  -273.013712c -4.55  -3.52
iter:  17 16:06:12  -273.013711c -5.01  -3.41
iter:  18 16:08:19  -273.013701c -5.14  -3.43
iter:  19 16:12:38  -273.013704c -5.64  -3.52
Writing to output.gpw (mode='')

iter:  20 16:15:06  -273.013702c -5.27  -3.53
iter:  21 16:17:16  -273.013699c -5.63  -3.61
iter:  22 16:19:00  -273.013703c -5.23  -3.67
iter:  23 16:21:12  -273.013694c -5.18  -3.73
iter:  24 16:23:19  -273.013695c -5.30  -3.84
Writing to output.gpw (mode='')

iter:  25 16:24:41  -273.013695c -5.62  -3.98
iter:  26 16:25:56  -273.013697c -5.51  -4.08c
iter:  27 16:27:09  -273.013696c -6.05  -4.18c
iter:  28 16:28:20  -273.013695c -6.15  -4.23c
iter:  29 16:29:39  -273.013696c -6.52  -4.29c
Writing to output.gpw (mode='')

iter:  30 16:31:13  -273.013697c -6.59  -4.36c
iter:  31 16:32:55  -273.013695c -6.43  -4.47c
iter:  32 16:34:08  -273.013696c -6.97  -4.55c
iter:  33 16:35:21  -273.013696c -6.95  -4.76c
iter:  34 16:36:57  -273.013696c -7.33  -4.84c
Writing to output.gpw (mode='')

iter:  35 16:38:23  -273.013696c -7.21  -4.89c
iter:  36 16:40:59  -273.013696c -7.26  -5.00c
iter:  37 16:42:15  -273.013696c -7.64c -5.14c

Converged after 37 iterations.

Dipole moment: (-7.883453, -11.105810, 0.342060) |e|*Ang

Energy contributions relative to reference atoms: (reference = -11471.411034)

Kinetic:       +127.546883
Potential:     -119.852097
External:        +0.000000
XC:            -280.874971
Entropy (-ST):   -0.145877
Local:           +0.239427
--------------------------
Free energy:   -273.086635
Extrapolated:  -273.013696

Dipole-layer corrected work functions: 3.366868, 2.709311 eV

Showing only first 2 kpts
 Kpt  Band  Eigenvalues  Occupancy
  0    26     -3.29210    1.98764
  0    27     -3.19377    1.91491
  0    28     -2.87892    0.07958
  0    29     -2.79123    0.01425

  1    26     -3.08448    1.43326
  1    27     -3.04431    1.06216
  1    28     -3.00085    0.64395
  1    29     -2.93894    0.24199


Fermi level: -3.03809

No gap
Writing to output.gpw (mode='')


Forces in eV/Ang:
  0 Li    0.00621   -0.00143   -0.26792
  1 Li    0.00650    0.00049   -0.26691
  2 Li   -0.01325   -0.00089   -0.27172
  3 Li    0.00187    0.00369   -0.26745
  4 Li   -0.00361    0.00729   -0.28404
  5 Li   -0.00088   -0.00352   -0.26728
  6 Li    0.00368   -0.01072   -0.27385
  7 Li   -0.00168   -0.00819   -0.27174
  8 Li    0.00063   -0.00180   -0.27740
  9 Li   -0.00949    0.03225    0.30314
 10 Li    0.01584   -0.01643    0.24903
 11 Li   -0.02144   -0.02408    0.25208
 12 Li    0.00409    0.02553    0.24373
 13 Li    0.03843    0.05781    0.23430
 14 Li   -0.01663    0.06138    0.22882
 15 Li    0.00999    0.01278    0.24977
 16 Li   -0.06470   -0.00629    0.25397
 17 Li    0.06321   -0.00159    0.27174
 18 Li   -0.03915   -0.01909    0.05768
 19 Li   -0.00886   -0.00527    0.00455
 20 Li    0.05064   -0.04556    0.08322
 21 Li   -0.04056   -0.06000    0.06130
 22 Li   -0.02084    0.00885    0.00692
 23 Li    0.01599   -0.04351    0.04486
 24 Li   -0.02142    0.00983    0.03639
 25 Li    0.00904    0.00596    0.01253
 26 Li    0.03501    0.02173    0.04251
 27 Li   -0.00936   -0.10097   -0.14721
 28 Li    0.02792   -0.00731   -0.02548
 29 Li    0.00443   -0.00939   -0.02388
 30 Li    0.01869   -0.04050   -0.00256
 31 Li   -0.03143   -0.00354    0.01371
 32 Li   -0.00123    0.00036    0.01426
 33 Li   -0.00343   -0.02299   -0.01367
 34 Li    0.00322    0.01987   -0.00978
 35 Li    0.00836   -0.00086   -0.00756
 36 O    -0.06520    0.06155   -0.05099
 37 C    -0.07650    0.00936    0.05676
 38 C    -0.02809   -0.06209   -0.09757
 39 H     0.08785   -0.00924   -0.03622
 40 H     0.00975    0.01594    0.04232
 41 H    -0.05770    0.12461    0.02236
 42 H    -0.10867    0.00301   -0.00184
 43 H     0.18714    0.00109    0.06395
 44 H     0.05356    0.02485    0.00157

System changes: positions 

Initializing position-dependent things.

Density initialized from wave functions
       .-----------------------.  
      /|                       |  
     / |                       |  
    /  |                       |  
   /   |                       |  
  /    |                       |  
 *     |                       |  
 |     |                       |  
 |     |                       |  
 |     |                       |  
 |     |                       |  
 | H H |                H      |  
 |C    |       Li              |  
 |     |                       |  
 | H Li|     Li      LiH C     |  
 | Li  |  Li      Li   H OLi   |  
 |     |   Li      Li          |  
 |     |Li      Li      Li     |  
 Li    |         Li            |  
 |   LLi     LLi     LLi       |  
 |     |  Li      Li      Li   |  
 | Li  |   Li      Li          |  
 |     |Li      Li      Li     |  
 Li    | Li      Li            |  
 |    Li      Li      Li       |  
 |     |                       |  
 |     |                       |  
 |     |                       |  
 |     |                       |  
 |     |                       |  
 |     |                       |  
 |     .-----------------------.  
 |    /                       /   
 |   /                       /    
 |  /                       /     
 | /                       /      
 |/                       /       
 *-----------------------*        

Positions:
   0 Li     1.617037    1.617037   10.000000    ( 0.0000,  0.0000,  0.0000)
   1 Li     4.851111    1.617037   10.000000    ( 0.0000,  0.0000,  0.0000)
   2 Li     8.085185    1.617037   10.000000    ( 0.0000,  0.0000,  0.0000)
   3 Li     1.617037    4.851111   10.000000    ( 0.0000,  0.0000,  0.0000)
   4 Li     4.851111    4.851111   10.000000    ( 0.0000,  0.0000,  0.0000)
   5 Li     8.085185    4.851111   10.000000    ( 0.0000,  0.0000,  0.0000)
   6 Li     1.617037    8.085185   10.000000    ( 0.0000,  0.0000,  0.0000)
   7 Li     4.851111    8.085185   10.000000    ( 0.0000,  0.0000,  0.0000)
   8 Li     8.085185    8.085185   10.000000    ( 0.0000,  0.0000,  0.0000)
   9 Li     0.000000    0.000000   11.617037    ( 0.0000,  0.0000,  0.0000)
  10 Li     3.234074    0.000000   11.617037    ( 0.0000,  0.0000,  0.0000)
  11 Li     6.468148    0.000000   11.617037    ( 0.0000,  0.0000,  0.0000)
  12 Li     0.000000    3.234074   11.617037    ( 0.0000,  0.0000,  0.0000)
  13 Li     3.234074    3.234074   11.617037    ( 0.0000,  0.0000,  0.0000)
  14 Li     6.468148    3.234074   11.617037    ( 0.0000,  0.0000,  0.0000)
  15 Li     0.000000    6.468148   11.617037    ( 0.0000,  0.0000,  0.0000)
[...]
iter:  17 02:28:38  -273.070602c -5.93  -4.21c
iter:  18 02:35:03  -273.070601c -5.91  -4.31c
iter:  19 02:40:52  -273.070601c -6.14  -4.43c
Writing to output.gpw (mode='')

iter:  20 02:46:50  -273.070602c -6.28  -4.43c
iter:  21 02:52:20  -273.070605c -6.21  -4.56c
iter:  22 02:59:26  -273.070602c -6.47  -4.67c
iter:  23 03:06:37  -273.070603c -6.81  -4.64c
iter:  24 03:12:53  -273.070604c -6.68  -4.86c
Writing to output.gpw (mode='')

iter:  25 03:18:58  -273.070604c -7.08  -5.03c
iter:  26 03:23:52  -273.070604c -7.21  -5.03c
iter:  27 03:28:56  -273.070604c -7.15  -5.00c
iter:  28 03:33:16  -273.070604c -7.30  -4.98c
iter:  29 03:36:47  -273.070604c -7.31  -4.97c
Writing to output.gpw (mode='')

iter:  30 03:40:44  -273.070604c -7.43c -4.93c

Converged after 30 iterations.

Dipole moment: (-9.259382, -5.875600, 0.348619) |e|*Ang

Energy contributions relative to reference atoms: (reference = -11471.411034)

Kinetic:       +127.773351
Potential:     -120.077375
External:        +0.000000
XC:            -280.931901
Entropy (-ST):   -0.147229
Local:           +0.238936
--------------------------
Free energy:   -273.144218
Extrapolated:  -273.070604

Dipole-layer corrected work functions: 3.366276, 2.696110 eV

Showing only first 2 kpts
 Kpt  Band  Eigenvalues  Occupancy
  0    26     -3.27384    1.98451
  0    27     -3.18357    1.90936
  0    28     -2.87205    0.07963
  0    29     -2.77233    0.01122

  1    26     -3.08021    1.45433
  1    27     -3.03986    1.08649
  1    28     -2.99841    0.68346
  1    29     -2.93467    0.25341


Fermi level: -3.03119

No gap

Forces in eV/Ang:
  0 Li    0.00519    0.00573   -0.27110
  1 Li    0.00532    0.00130   -0.26751
  2 Li   -0.01130    0.00254   -0.27456
  3 Li    0.00122    0.00633   -0.27270
  4 Li   -0.00244    0.00822   -0.27815
  5 Li    0.00215    0.00115   -0.27136
  6 Li    0.00168   -0.00435   -0.27393
  7 Li   -0.00147   -0.00451   -0.27613
  8 Li    0.00200    0.00346   -0.27930
  9 Li   -0.00408    0.00410    0.31759
 10 Li   -0.00138   -0.02327    0.28048
 11 Li   -0.00333   -0.03376    0.29071
 12 Li   -0.00509   -0.01834    0.25711
 13 Li    0.01492    0.03154    0.24650
 14 Li    0.00116    0.02366    0.25286
 15 Li    0.01191   -0.05407    0.27748
 16 Li   -0.08881   -0.04553    0.28159
 17 Li    0.07229   -0.02857    0.29829
 18 Li   -0.00518   -0.00640   -0.00879
 19 Li   -0.00105    0.00507    0.00167
 20 Li   -0.00182    0.00737   -0.01043
 21 Li   -0.00966    0.00074    0.00366
 22 Li   -0.01319   -0.00153    0.01024
 23 Li    0.00436   -0.00686   -0.00160
 24 Li    0.00632    0.00209   -0.01027
 25 Li    0.00857    0.00107    0.00354
 26 Li   -0.00818    0.00040   -0.00709
 27 Li    0.01265   -0.02424   -0.00458
 28 Li    0.00233   -0.00025    0.00154
 29 Li   -0.00455    0.00471    0.00958
 30 Li    0.00265    0.02912    0.01083
 31 Li    0.00474   -0.00162   -0.00948
 32 Li   -0.00815   -0.00198   -0.02076
 33 Li   -0.00034    0.02021   -0.00054
 34 Li   -0.00670    0.00313   -0.00426
 35 Li    0.00982    0.00204    0.00019
 36 O     0.04173    0.00814   -0.02829
 37 C     0.01785    0.04294    0.02977
 38 C     0.02569   -0.05547   -0.04008
 39 H    -0.02629   -0.00631   -0.01060
 40 H     0.01547    0.01943   -0.00032
 41 H     0.01007    0.04727   -0.01143
 42 H    -0.02377   -0.01285    0.01222
 43 H    -0.02358    0.03648    0.00436
 44 H    -0.00874    0.02076    0.02233

System changes: positions 

Initializing position-dependent things.

Density initialized from wave functions
       .-----------------------.  
      /|                       |  
     / |                       |  
    /  |                       |  
   /   |                       |  
  /    |                       |  
 *     |                       |  
 |     |                       |  
 |     |                     H |  
 |     |                       |  
 |     |                       |  
 | H   |                H      |  
 |C  H |       Li      Li      Li 
 |     |                       |  
 |C HLi|     Li      Li        |  
 |     |  Li      Li  H  OLi   |  
 | Li  |   Li      Li          |  
 |     |Li      Li      Li     |  
 |     |                       |  
 |   LLi     LLi     LLi       |  
 |     |  Li      Li      Li   |  
 | Li  |   Li      Li          |  
 |     |Li      Li      Li     |  
 Li    | Li      Li            |  
 |    Li      Li      Li       |  
 |     |                       |  
 |     |                       |  
 |     |                       |  
 |     |                       |  
 |     |                       |  
 |     |                       |  
 |     .-----------------------.  
 |    /                       /   
 |   /                       /    
 |  /                       /     
 | /                       /      
 |/                       /       
 *-----------------------*        

Positions:
   0 Li     1.617037    1.617037   10.000000    ( 0.0000,  0.0000,  0.0000)
   1 Li     4.851111    1.617037   10.000000    ( 0.0000,  0.0000,  0.0000)
   2 Li     8.085185    1.617037   10.000000    ( 0.0000,  0.0000,  0.0000)
   3 Li     1.617037    4.851111   10.000000    ( 0.0000,  0.0000,  0.0000)
   4 Li     4.851111    4.851111   10.000000    ( 0.0000,  0.0000,  0.0000)
   5 Li     8.085185    4.851111   10.000000    ( 0.0000,  0.0000,  0.0000)
   6 Li     1.617037    8.085185   10.000000    ( 0.0000,  0.0000,  0.0000)
   7 Li     4.851111    8.085185   10.000000    ( 0.0000,  0.0000,  0.0000)
   8 Li     8.085185    8.085185   10.000000    ( 0.0000,  0.0000,  0.0000)
   9 Li     0.000000    0.000000   11.617037    ( 0.0000,  0.0000,  0.0000)
  10 Li     3.234074    0.000000   11.617037    ( 0.0000,  0.0000,  0.0000)
  11 Li     6.468148    0.000000   11.617037    ( 0.0000,  0.0000,  0.0000)
  12 Li     0.000000    3.234074   11.617037    ( 0.0000,  0.0000,  0.0000)
  13 Li     3.234074    3.234074   11.617037    ( 0.0000,  0.0000,  0.0000)
  14 Li     6.468148    3.234074   11.617037    ( 0.0000,  0.0000,  0.0000)
  15 Li     0.000000    6.468148   11.617037    ( 0.0000,  0.0000,  0.0000)
  16 Li     3.234074    6.468148   11.617037    ( 0.0000,  0.0000,  0.0000)
  17 Li     6.468148    6.468148   11.617037    ( 0.0000,  0.0000,  0.0000)
  18 Li     1.636774    1.618741   13.446364    ( 0.0000,  0.0000,  0.0000)
  19 Li     4.846894    1.641799   13.443957    ( 0.0000,  0.0000,  0.0000)
  20 Li     8.065436    1.611170   13.467516    ( 0.0000,  0.0000,  0.0000)
  21 Li     1.593869    4.768487   13.552370    ( 0.0000,  0.0000,  0.0000)
  22 Li     4.866229    4.862675   13.458402    ( 0.0000,  0.0000,  0.0000)
  23 Li     8.129911    4.769117   13.557797    ( 0.0000,  0.0000,  0.0000)
  24 Li     1.573152    8.054681   13.521180    ( 0.0000,  0.0000,  0.0000)
  25 Li     4.820380    8.042011   13.420530    ( 0.0000,  0.0000,  0.0000)
  26 Li     8.117355    8.042535   13.509143    ( 0.0000,  0.0000,  0.0000)
  27 Li    -0.018082   -0.045844   15.473720    ( 0.0000,  0.0000,  0.0000)
  28 Li     3.264058   -0.009991   15.342779    ( 0.0000,  0.0000,  0.0000)
  29 Li     6.343828   -0.042235   15.300278    ( 0.0000,  0.0000,  0.0000)
  30 Li     0.102714    2.895419   15.750510    ( 0.0000,  0.0000,  0.0000)
  31 Li     3.303847    3.247801   15.421807    ( 0.0000,  0.0000,  0.0000)
  32 Li     6.418912    3.215020   15.433211    ( 0.0000,  0.0000,  0.0000)
  33 Li     0.015068    6.318742   15.495973    ( 0.0000,  0.0000,  0.0000)
  34 Li     3.248669    6.470099   15.438275    ( 0.0000,  0.0000,  0.0000)
  35 Li     6.441225    6.465034   15.424416    ( 0.0000,  0.0000,  0.0000)
  36 O     -0.373536    1.288691   16.964042    ( 0.0000,  0.0000,  0.0000)
  37 C      0.042281    0.789848   18.286116    ( 0.0000,  0.0000,  0.0000)
  38 C      0.078170    1.886499   19.332207    ( 0.0000,  0.0000,  0.0000)
  39 H     -0.637169   -0.017419   18.569146    ( 0.0000,  0.0000,  0.0000)
  40 H      1.031836    0.359375   18.121390    ( 0.0000,  0.0000,  0.0000)
  41 H      0.400819    1.456163   20.285027    ( 0.0000,  0.0000,  0.0000)
  42 H      0.780419    2.674441   19.050315    ( 0.0000,  0.0000,  0.0000)
  43 H     -0.909344    2.327707   19.474425    ( 0.0000,  0.0000,  0.0000)
  44 H     -1.359286    1.330515   16.908968    ( 0.0000,  0.0000,  0.0000)

Unit cell:
           periodic     x           y           z      points  spacing
  1. axis:    yes    9.702222    0.000000    0.000000    60     0.1617
  2. axis:    yes    0.000000    9.702222    0.000000    60     0.1617
  3. axis:    no     0.000000    0.000000   24.851111   156     0.1593

  Lengths:   9.702222   9.702222  24.851111
  Angles:   90.000000  90.000000  90.000000

Effective grid spacing dv^(1/3) = 0.1609

     iter     time        total  log10-change:
                         energy  eigst   dens
iter:   1 03:45:16  -273.071017  -3.03
iter:   2 03:51:25  -273.070984  -3.79  -3.15
iter:   3 04:00:14  -273.070979c -4.31  -3.16
iter:   4 04:06:00  -273.070881c -4.18  -3.21
Writing to output.gpw (mode='')

iter:   5 04:11:19  -273.070883c -4.53  -3.56
iter:   6 04:18:29  -273.070898c -4.85  -3.61
iter:   7 04:23:21  -273.070892c -4.16  -3.83
iter:   8 04:30:33  -273.070887c -5.29  -3.62
iter:   9 04:35:07  -273.070887c -5.24  -3.95
Writing to output.gpw (mode='')

iter:  10 04:38:47  -273.070889c -5.87  -4.12c
iter:  11 04:41:54  -273.070891c -6.01  -4.16c
iter:  12 04:45:48  -273.070891c -5.90  -4.31c
iter:  13 04:50:13  -273.070890c -6.36  -4.32c
iter:  14 04:54:59  -273.070890c -6.41  -4.50c
Writing to output.gpw (mode='')

iter:  15 04:59:48  -273.070891c -6.33  -4.58c
iter:  16 05:04:31  -273.070892c -6.72  -4.61c
iter:  17 05:08:57  -273.070892c -6.95  -4.67c
iter:  18 05:14:27  -273.070891c -7.27  -4.79c
iter:  19 05:20:43  -273.070891c -7.08  -4.88c
Writing to output.gpw (mode='')

iter:  20 05:26:25  -273.070891c -7.37  -5.01c
iter:  21 05:30:33  -273.070891c -7.51c -5.07c

Converged after 21 iterations.

Dipole moment: (-9.250764, -5.836219, 0.348964) |e|*Ang

Energy contributions relative to reference atoms: (reference = -11471.411034)

Kinetic:       +127.772837
Potential:     -120.081037
External:        +0.000000
XC:            -280.927972
Entropy (-ST):   -0.147264
Local:           +0.238913
--------------------------
Free energy:   -273.144523
Extrapolated:  -273.070891

Dipole-layer corrected work functions: 3.366186, 2.695358 eV

Showing only first 2 kpts
 Kpt  Band  Eigenvalues  Occupancy
  0    26     -3.27331    1.98448
  0    27     -3.18302    1.90913
  0    28     -2.87183    0.07994
  0    29     -2.77182    0.01120

  1    26     -3.08000    1.45602
  1    27     -3.03944    1.08646
  1    28     -2.99776    0.68139
  1    29     -2.93444    0.25423


Fermi level: -3.03077

No gap
Writing to output.gpw (mode='')


Forces in eV/Ang:
  0 Li    0.00520    0.00580   -0.27098
  1 Li    0.00530    0.00133   -0.26752
  2 Li   -0.01129    0.00266   -0.27443
  3 Li    0.00122    0.00640   -0.27265
  4 Li   -0.00244    0.00813   -0.27812
  5 Li    0.00226    0.00121   -0.27132
  6 Li    0.00157   -0.00429   -0.27378
  7 Li   -0.00145   -0.00450   -0.27614
  8 Li    0.00198    0.00344   -0.27916
  9 Li   -0.00421    0.00372    0.31690
 10 Li   -0.00117   -0.02315    0.28036
 11 Li   -0.00306   -0.03330    0.29063
 12 Li   -0.00491   -0.01863    0.25638
 13 Li    0.01427    0.03132    0.24658
 14 Li    0.00082    0.02394    0.25267
 15 Li    0.01190   -0.05511    0.27719
 16 Li   -0.08876   -0.04597    0.28184
 17 Li    0.07210   -0.02963    0.29846
 18 Li   -0.00498   -0.00559   -0.00770
 19 Li   -0.00120    0.00376    0.00185
 20 Li   -0.00129    0.00640   -0.00864
 21 Li   -0.00896    0.00114    0.00370
 22 Li   -0.01215   -0.00086    0.00928
 23 Li    0.00439   -0.00568   -0.00104
 24 Li    0.00601    0.00251   -0.00894
 25 Li    0.00786    0.00096    0.00456
 26 Li   -0.00795    0.00112   -0.00578
 27 Li    0.01125   -0.02005   -0.00524
 28 Li    0.00223   -0.00058    0.00096
 29 Li   -0.00415    0.00499    0.00900
 30 Li    0.00302    0.02872    0.00888
 31 Li    0.00433   -0.00129   -0.01006
 32 Li   -0.00730   -0.00123   -0.02076
 33 Li   -0.00031    0.01995   -0.00178
 34 Li   -0.00649    0.00284   -0.00394
 35 Li    0.00923    0.00147    0.00035
 36 O     0.02797    0.00591   -0.02451
 37 C     0.02436    0.03267    0.01532
 38 C     0.01290   -0.03232   -0.02864
 39 H    -0.01974   -0.00839   -0.01708
 40 H     0.00958    0.01773    0.00901
 41 H     0.00848    0.04750   -0.00961
 42 H    -0.01356   -0.01104    0.01051
 43 H    -0.01455    0.02450    0.00525
 44 H    -0.00233    0.02042    0.01474

Timing:                                      incl.     excl.
-------------------------------------------------------------------
Density initialized from wave functions:   309.544   309.542   0.2% |
 Symmetrize density:                         0.002     0.002   0.0% |
Forces:                                    221.805   221.805   0.1% |
Hamiltonian:                              4176.501     0.011   0.0% |
 Atomic:                                     3.722     0.040   0.0% |
  XC Correction:                             3.682     3.682   0.0% |
 Calculate atomic Hamiltonians:              3.888     3.888   0.0% |
 Communicate:                              110.493   110.493   0.1% |
 Hartree integrate/restrict:                 2.493     2.493   0.0% |
 Poisson:                                   69.917    35.360   0.0% |
  Communicate from 1D:                       5.652     5.652   0.0% |
  Communicate from 2D:                       8.619     8.619   0.0% |
  Communicate to 1D:                         1.095     1.095   0.0% |
  Communicate to 2D:                         7.056     7.056   0.0% |
  FFT 1D:                                    6.039     6.039   0.0% |
  FFT 2D:                                    6.096     6.096   0.0% |
 XC 3D grid:                              3985.539   262.947   0.2% |
  VdW-DF integral:                        3722.593     4.742   0.0% |
   Convolution:                             63.286    63.286   0.0% |
   FFT:                                     21.005    21.005   0.0% |
   gather:                                3063.452  3063.452   1.9% ||
   hmm1:                                    14.658    14.658   0.0% |
   hmm2:                                    18.193    18.193   0.0% |
   iFFT:                                    24.652    24.652   0.0% |
   potential:                              505.040     2.542   0.0% |
    collect:                                18.820    18.820   0.0% |
    p1:                                     65.176    65.176   0.0% |
    p2:                                     27.719    27.719   0.0% |
    sum:                                   390.783   390.783   0.2% |
   splines:                                  7.566     7.566   0.0% |
 vbar:                                       0.439     0.439   0.0% |
LCAO initialization:                         4.288     0.237   0.0% |
 LCAO eigensolver:                           1.386     0.001   0.0% |
  Calculate projections:                     0.000     0.000   0.0% |
  DenseAtomicCorrection:                     0.000     0.000   0.0% |
  Distribute overlap matrix:                 1.368     1.368   0.0% |
  Orbital Layouts:                           0.015     0.015   0.0% |
  Potential matrix:                          0.001     0.001   0.0% |
  Sum over cells:                            0.001     0.001   0.0% |
 LCAO to grid:                               2.056     2.056   0.0% |
 Set positions (LCAO WFS):                   0.610     0.449   0.0% |
  Basic WFS set positions:                   0.002     0.002   0.0% |
  Basis functions set positions:             0.000     0.000   0.0% |
  P tci:                                     0.001     0.001   0.0% |
  ST tci:                                    0.096     0.096   0.0% |
  mktci:                                     0.062     0.062   0.0% |
Redistribute:                                0.040     0.040   0.0% |
SCF-cycle:                               155626.735 21747.831  13.5% |----|
 Davidson:                               14567.288  6151.345   3.8% |-|
  Apply hamiltonian:                      1121.832  1121.832   0.7% |
  Subspace diag:                          1913.313     0.408   0.0% |
   calc_h_matrix:                         1247.047   172.388   0.1% |
    Apply hamiltonian:                    1074.659  1074.659   0.7% |
   diagonalize:                            136.607   136.607   0.1% |
   rotate_psi:                             529.251   529.251   0.3% |
  calc. matrices:                         4457.070  1750.267   1.1% |
   Apply hamiltonian:                     2706.802  2706.802   1.7% ||
  diagonalize:                               7.458     7.458   0.0% |
  rotate_psi:                              916.271   916.271   0.6% |
 Density:                                  871.489     0.056   0.0% |
  Atomic density matrices:                 609.441   609.441   0.4% |
  Mix:                                     125.506   125.506   0.1% |
  Multipole moments:                         1.974     1.974   0.0% |
  Pseudo density:                          134.513   134.448   0.1% |
   Symmetrize density:                       0.065     0.065   0.0% |
 Hamiltonian:                            118416.099     0.301   0.0% |
  Atomic:                                  115.190     1.294   0.0% |
   XC Correction:                          113.896   113.896   0.1% |
  Calculate atomic Hamiltonians:           116.493   116.493   0.1% |
  Communicate:                            3166.771  3166.771   2.0% ||
  Hartree integrate/restrict:               73.027    73.027   0.0% |
  Poisson:                                2191.944  1093.867   0.7% |
   Communicate from 1D:                    168.390   168.390   0.1% |
   Communicate from 2D:                    299.060   299.060   0.2% |
   Communicate to 1D:                       32.874    32.874   0.0% |
   Communicate to 2D:                      227.466   227.466   0.1% |
   FFT 1D:                                 188.262   188.262   0.1% |
   FFT 2D:                                 182.025   182.025   0.1% |
  XC 3D grid:                            112741.118  7061.784   4.4% |-|
   VdW-DF integral:                      105679.334   143.515   0.1% |
    Convolution:                          1906.193  1906.193   1.2% |
    FFT:                                   636.983   636.983   0.4% |
    gather:                              87134.723 87134.723  54.2% |---------------------|
    hmm1:                                  455.592   455.592   0.3% |
    hmm2:                                  561.110   561.110   0.3% |
    iFFT:                                  734.167   734.167   0.5% |
    potential:                           14107.036    77.469   0.0% |
     collect:                              958.184   958.184   0.6% |
     p1:                                  2012.307  2012.307   1.3% ||
     p2:                                   844.266   844.266   0.5% |
     sum:                                10214.810 10214.810   6.4% |--|
    splines:                                 0.014     0.014   0.0% |
  vbar:                                     11.257    11.257   0.0% |
 Orthonormalize:                            24.027     0.010   0.0% |
  calc_s_matrix:                             3.277     3.277   0.0% |
  inverse-cholesky:                         12.660    12.660   0.0% |
  projections:                               0.004     0.004   0.0% |
  rotate_psi_s:                              8.076     8.076   0.0% |
Set symmetry:                                0.002     0.002   0.0% |
Other:                                     358.405   358.405   0.2% |
-------------------------------------------------------------------
Total:                                             160697.321 100.0%

Memory usage: 1.39 GiB
Date: Tue Feb  7 05:30:41 2023
