
  ___ ___ ___ _ _ _  
 |   |   |_  | | | | 
 | | | | | . | | | | 
 |__ |  _|___|_____|  22.8.0
 |___|_|             

User:   vazumah@c22.hercules
Date:   Fri Mar 10 11:06:00 2023
Arch:   x86_64
Pid:    25829
CWD:    /home/vazumah/Python_projects/LiNRR/Li_adsorb_studies/proton_donors/on_pure_surface/Li_BCC100/adsorbates/formic_acid_x/ontop/9.702_9.702
Python: 3.10.8
gpaw:   /home/vazumah/.conda/envs/GPAW/lib/python3.10/site-packages/gpaw
_gpaw:  /home/vazumah/.conda/envs/GPAW/lib/python3.10/site-packages/
        _gpaw.cpython-310-x86_64-linux-gnu.so
ase:    /home/vazumah/.conda/envs/GPAW/lib/python3.10/site-packages/ase (version 3.22.1)
numpy:  /home/vazumah/.conda/envs/GPAW/lib/python3.10/site-packages/numpy (version 1.24.1)
scipy:  /home/vazumah/.conda/envs/GPAW/lib/python3.10/site-packages/scipy (version 1.10.0)
libxc:  5.2.3
units:  Angstrom and eV
cores: 24
OpenMP: True
OMP_NUM_THREADS: 1

Input parameters:
  h: 0.16
  kpts: {size: [4, 4, 1]}
  occupations: {name: fermi-dirac,
                width: 0.05}
  poissonsolver: {dipolelayer: xy}
  xc: BEEF-vdW

System changes: positions, numbers, cell, pbc, initial_charges, initial_magmoms 

Initialize ...

species:
  Li:
    name: Lithium
    id: 830b4218f175192f93f959cfc0aad614
    Z: 3.0
    valence: 1
    core: 2
    charge: 0.0
    file: /home/vazumah/.conda/envs/GPAW/share/gpaw/Li.PBE.gz
    compensation charges: {type: gauss,
                           rc: 0.33,
                           lmax: 2}
    cutoffs: {filter: 1.91,
              core: 2.55}
    valence states:
      #              energy  rcut
      - 2s(1.00)    -2.874   1.058
      - 2p(0.00)    -1.090   1.058
      -  s          24.337   1.058
  
    # Using partial waves for Li as LCAO basis

  O:
    name: Oxygen
    id: 32ecd46bf208036f09c70b0ec9a88b78
    Z: 8.0
    valence: 6
    core: 2
    charge: 0.0
    file: /home/vazumah/.conda/envs/GPAW/share/gpaw/O.PBE.gz
    compensation charges: {type: gauss,
                           rc: 0.21,
                           lmax: 2}
    cutoffs: {filter: 1.17,
              core: 0.83}
    valence states:
      #              energy  rcut
      - 2s(2.00)   -23.961   0.688
      - 2p(4.00)    -9.029   0.598
      -  s           3.251   0.688
      -  p          18.182   0.598
      -  d           0.000   0.619
  
    # Using partial waves for O as LCAO basis

  C:
    name: Carbon
    id: 4aa54d4b901d75f77cc0ea3eec22967b
    Z: 6.0
    valence: 4
    core: 2
    charge: 0.0
    file: /home/vazumah/.conda/envs/GPAW/share/gpaw/C.PBE.gz
    compensation charges: {type: gauss,
                           rc: 0.20,
                           lmax: 2}
    cutoffs: {filter: 1.14,
              core: 1.14}
    valence states:
      #              energy  rcut
      - 2s(2.00)   -13.751   0.635
      - 2p(2.00)    -5.284   0.635
      -  s          13.461   0.635
      -  p          21.927   0.635
      -  d           0.000   0.635
  
    # Using partial waves for C as LCAO basis

  H:
    name: Hydrogen
    id: d65de229564ff8ea4db303e23b6d1ecf
    Z: 1.0
    valence: 1
    core: 0
    charge: 0.0
    file: /home/vazumah/.conda/envs/GPAW/share/gpaw/H.PBE.gz
    compensation charges: {type: gauss,
                           rc: 0.15,
                           lmax: 2}
    cutoffs: {filter: 0.85,
              core: 0.53}
    valence states:
      #              energy  rcut
      - 1s(1.00)    -6.494   0.476
      -  s          20.717   0.476
      -  p           0.000   0.476
  
    # Using partial waves for H as LCAO basis

Reference energy: -12434.674571  # eV

Spin-paired calculation

Convergence criteria:
 Maximum [total energy] change in last 3 cyles: 0.0005 eV / electron
 Maximum integral of absolute [dens]ity change: 0.0001 electrons / valence electron
 Maximum integral of absolute [eigenst]ate change: 4e-08 eV^2 / valence electron
 Maximum number of scf [iter]ations: 333
 (Square brackets indicate name in SCF output, whereas a 'c' in
 the SCF output indicates the quantity has converged.)

Symmetries present (total): 1

  ( 1  0  0)
  ( 0  1  0)
  ( 0  0  1)

16 k-points: 4 x 4 x 1 Monkhorst-Pack grid
8 k-points in the irreducible part of the Brillouin zone
       k-points in crystal coordinates                weights
   0:     0.12500000   -0.37500000    0.00000000          2/16
   1:     0.12500000   -0.12500000    0.00000000          2/16
   2:     0.12500000    0.12500000    0.00000000          2/16
   3:     0.12500000    0.37500000    0.00000000          2/16
   4:     0.37500000   -0.37500000    0.00000000          2/16
   5:     0.37500000   -0.12500000    0.00000000          2/16
   6:     0.37500000    0.12500000    0.00000000          2/16
   7:     0.37500000    0.37500000    0.00000000          2/16

Wave functions: Uniform real-space grid
  Kinetic energy operator: 6*3+1=19 point O(h^6) finite-difference Laplacian
  ScaLapack parameters: grid=1x1, blocksize=None
  Wavefunction extrapolation:
    Improved wavefunction reuse through dual PAW basis 

Occupation numbers: Fermi-Dirac:
  width: 0.0500  # eV
 

Eigensolver
   Davidson(niter=2) 

Densities:
  Coarse grid: 60*60*156 grid
  Fine grid: 120*120*312 grid
  Total Charge: 0.000000 

Density mixing:
  Method: separate
  Backend: pulay
  Linear mixing parameter: 0.05
  old densities: 5
  Damping of long wavelength oscillations: 50 

Hamiltonian:
  XC and Coulomb potentials evaluated on a 120*120*312 grid
  Using the BEEF-vdW Exchange-Correlation functional
  Interpolation: tri-quintic (5. degree polynomial)
  Poisson solver: FastPoissonSolver using
    Stencil: 6*3+1=19 point O(h^6) finite-difference Laplacian
    FFT axes: [0, 1]
    FST axes: [2]

Dipole correction along z-axis 

XC parameters: BEEF-vdW with 2 nearest neighbor stencil

Memory estimate:
  Process memory now: 216.16 MiB
  Calculator: 370.98 MiB
    Density: 116.81 MiB
      Arrays: 36.75 MiB
      Localized functions: 66.05 MiB
      Mixer: 14.01 MiB
    Hamiltonian: 29.25 MiB
      Arrays: 24.03 MiB
      XC: 0.00 MiB
      Poisson: 0.00 MiB
      vbar: 5.21 MiB
    Wavefunctions: 224.93 MiB
      Arrays psit_nG: 103.66 MiB
      Eigensolver: 117.87 MiB
      Projections: 0.04 MiB
      Projectors: 3.35 MiB

Total number of cores used: 24
Parallelization over k-points: 8
Domain decomposition: 1 x 1 x 3

Number of atoms: 41
Number of atomic orbitals: 158
Number of bands in calculation: 37
Number of valence electrons: 54
Bands to converge: occupied

... initialized

Initializing position-dependent things.

Density initialized from atomic densities
Creating initial wave functions:
  37 bands from LCAO basis set

       .-----------------------.  
      /|                       |  
     / |                       |  
    /  |                       |  
   /   |                       |  
  /    |                       |  
 *     |                       |  
 |     |                       |  
 |     |                       |  
 |     |  C                    |  
 |     |  H                  H |  
 |     |                       |  
 |     |                       |  
 |     |                       |  
 |   Li|     Li      Li        |  
 O     O  Li      Li      Li   |  
 | Li  |   Li      Li          |  
 |     |Li      Li      Li     |  
 Li    | Li      Li            |  
 |   LLi     LLi     LLi       |  
 |     |  Li      Li      Li   |  
 | Li  |   Li      Li          |  
 |     |Li      Li      Li     |  
 Li    | Li      Li            |  
 |    Li      Li      Li       |  
 |     |                       |  
 |     |                       |  
 |     |                       |  
 |     |                       |  
 |     |                       |  
 |     |                       |  
 |     .-----------------------.  
 |    /                       /   
 |   /                       /    
 |  /                       /     
 | /                       /      
 |/                       /       
 *-----------------------*        

Positions:
   0 Li     1.617037    1.617037   10.000000    ( 0.0000,  0.0000,  0.0000)
   1 Li     4.851111    1.617037   10.000000    ( 0.0000,  0.0000,  0.0000)
   2 Li     8.085185    1.617037   10.000000    ( 0.0000,  0.0000,  0.0000)
   3 Li     1.617037    4.851111   10.000000    ( 0.0000,  0.0000,  0.0000)
   4 Li     4.851111    4.851111   10.000000    ( 0.0000,  0.0000,  0.0000)
   5 Li     8.085185    4.851111   10.000000    ( 0.0000,  0.0000,  0.0000)
   6 Li     1.617037    8.085185   10.000000    ( 0.0000,  0.0000,  0.0000)
   7 Li     4.851111    8.085185   10.000000    ( 0.0000,  0.0000,  0.0000)
   8 Li     8.085185    8.085185   10.000000    ( 0.0000,  0.0000,  0.0000)
   9 Li     0.000000    0.000000   11.617037    ( 0.0000,  0.0000,  0.0000)
  10 Li     3.234074    0.000000   11.617037    ( 0.0000,  0.0000,  0.0000)
  11 Li     6.468148    0.000000   11.617037    ( 0.0000,  0.0000,  0.0000)
  12 Li     0.000000    3.234074   11.617037    ( 0.0000,  0.0000,  0.0000)
  13 Li     3.234074    3.234074   11.617037    ( 0.0000,  0.0000,  0.0000)
  14 Li     6.468148    3.234074   11.617037    ( 0.0000,  0.0000,  0.0000)
  15 Li     0.000000    6.468148   11.617037    ( 0.0000,  0.0000,  0.0000)
  16 Li     3.234074    6.468148   11.617037    ( 0.0000,  0.0000,  0.0000)
  17 Li     6.468148    6.468148   11.617037    ( 0.0000,  0.0000,  0.0000)
  18 Li     1.617038    1.617038   13.469728    ( 0.0000,  0.0000,  0.0000)
  19 Li     4.851111    1.617038   13.469729    ( 0.0000,  0.0000,  0.0000)
  20 Li     8.085184    1.617038   13.469728    ( 0.0000,  0.0000,  0.0000)
  21 Li     1.617038    4.851111   13.469729    ( 0.0000,  0.0000,  0.0000)
  22 Li     4.851111    4.851111   13.469730    ( 0.0000,  0.0000,  0.0000)
  23 Li     8.085184    4.851111   13.469729    ( 0.0000,  0.0000,  0.0000)
  24 Li     1.617038    8.085184   13.469728    ( 0.0000,  0.0000,  0.0000)
  25 Li     4.851111    8.085184   13.469729    ( 0.0000,  0.0000,  0.0000)
  26 Li     8.085184    8.085184   13.469728    ( 0.0000,  0.0000,  0.0000)
  27 Li    -0.000000   -0.000000   15.445939    ( 0.0000,  0.0000,  0.0000)
  28 Li     3.234074    0.000000   15.445939    ( 0.0000,  0.0000,  0.0000)
  29 Li     6.468148    0.000000   15.445939    ( 0.0000,  0.0000,  0.0000)
  30 Li     0.000000    3.234074   15.445939    ( 0.0000,  0.0000,  0.0000)
  31 Li     3.234076    3.234076   15.445938    ( 0.0000,  0.0000,  0.0000)
  32 Li     6.468146    3.234076   15.445938    ( 0.0000,  0.0000,  0.0000)
  33 Li     0.000000    6.468148   15.445939    ( 0.0000,  0.0000,  0.0000)
  34 Li     3.234076    6.468146   15.445938    ( 0.0000,  0.0000,  0.0000)
  35 Li     6.468146    6.468146   15.445938    ( 0.0000,  0.0000,  0.0000)
  36 O      9.702222    9.702222   17.445939    ( 0.0000,  0.0000,  0.0000)
  37 O     11.863996   10.302549   17.445939    ( 0.0000,  0.0000,  0.0000)
  38 C     11.037268    9.435178   17.445939    ( 0.0000,  0.0000,  0.0000)
  39 H     11.270227    8.356725   17.445939    ( 0.0000,  0.0000,  0.0000)
  40 H      9.208050    8.869195   17.445939    ( 0.0000,  0.0000,  0.0000)

Unit cell:
           periodic     x           y           z      points  spacing
  1. axis:    yes    9.702222    0.000000    0.000000    60     0.1617
  2. axis:    yes    0.000000    9.702222    0.000000    60     0.1617
  3. axis:    no     0.000000    0.000000   24.851111   156     0.1593

  Lengths:   9.702222   9.702222  24.851111
  Angles:   90.000000  90.000000  90.000000

Effective grid spacing dv^(1/3) = 0.1609

     iter     time        total  log10-change:
                         energy  eigst   dens
iter:   1 11:07:04  -356.510172
iter:   2 11:07:43  -195.455812  +2.22  -0.15
iter:   3 11:08:21  -192.580424  +3.18  -0.28
iter:   4 11:09:00  -181.908891  +2.39  -0.21
Writing to output.gpw (mode='')

iter:   5 11:09:40  -223.968860  +2.66  -0.55
iter:   6 11:10:19  -241.694239  +2.67  -0.54
iter:   7 11:10:57  -275.089874  +2.50  -0.69
iter:   8 11:11:36  -271.977299  +1.91  -0.60
iter:   9 11:12:15  -271.154814  +1.42  -0.69
Writing to output.gpw (mode='')

iter:  10 11:12:54  -276.441311  +1.32  -0.66
iter:  11 11:13:33  -285.455017  +1.55  -0.63
iter:  12 11:14:12  -281.615427  +1.33  -0.65
iter:  13 11:14:51  -263.236900  +1.01  -0.64
iter:  14 11:15:29  -260.742568  +1.07  -0.77
Writing to output.gpw (mode='')

iter:  15 11:16:09  -261.978487  +0.97  -0.84
iter:  16 11:16:48  -258.966040  +0.02  -0.79
iter:  17 11:17:26  -258.098885  +0.24  -0.89
iter:  18 11:18:05  -258.779665  +0.11  -0.96
iter:  19 11:18:43  -257.436816  +0.72  -1.02
Writing to output.gpw (mode='')

iter:  20 11:19:23  -257.472993  +0.35  -1.16
iter:  21 11:20:02  -257.348004  -0.58  -1.20
iter:  22 11:20:40  -257.362370  -0.19  -1.39
iter:  23 11:21:19  -257.356473c -0.23  -1.48
iter:  24 11:21:57  -257.361632c -0.47  -1.55
Writing to output.gpw (mode='')

iter:  25 11:22:37  -257.344267c -0.90  -1.63
iter:  26 11:23:15  -257.347238c -0.85  -1.73
iter:  27 11:23:54  -257.348006c -1.05  -1.84
iter:  28 11:24:33  -257.340289c -1.37  -1.94
iter:  29 11:25:11  -257.340668c -1.38  -2.06
Writing to output.gpw (mode='')

iter:  30 11:25:51  -257.342058c -1.72  -2.14
iter:  31 11:26:30  -257.341604c -1.54  -2.23
iter:  32 11:27:08  -257.342336c -1.75  -2.38
iter:  33 11:27:47  -257.342266c -2.20  -2.47
iter:  34 11:28:26  -257.342798c -2.24  -2.64
Writing to output.gpw (mode='')

iter:  35 11:29:05  -257.343222c -2.60  -2.82
iter:  36 11:29:44  -257.343587c -2.54  -2.90
iter:  37 11:30:23  -257.343979c -2.43  -2.95
iter:  38 11:31:02  -257.344241c -2.67  -3.01
iter:  39 11:31:40  -257.344452c -2.87  -3.04
Writing to output.gpw (mode='')

iter:  40 11:32:20  -257.344698c -2.74  -3.26
iter:  41 11:32:59  -257.344891c -2.88  -3.36
iter:  42 11:33:38  -257.345038c -3.01  -3.37
iter:  43 11:34:16  -257.345171c -3.12  -3.37
iter:  44 11:34:55  -257.345279c -3.20  -3.31
Writing to output.gpw (mode='')

iter:  45 11:35:35  -257.345363c -3.16  -3.30
iter:  46 11:36:14  -257.345436c -3.31  -3.28
iter:  47 11:36:52  -257.345513c -3.22  -3.26
iter:  48 11:37:31  -257.345604c -3.24  -3.28
iter:  49 11:38:10  -257.345660c -3.59  -3.29
Writing to output.gpw (mode='')

iter:  50 11:38:54  -257.345693c -3.63  -3.32
iter:  51 11:39:33  -257.345716c -3.66  -3.35
iter:  52 11:40:11  -257.345731c -3.71  -3.47
iter:  53 11:40:50  -257.345756c -3.68  -3.60
iter:  54 11:41:28  -257.345774c -4.07  -3.79
Writing to output.gpw (mode='')

iter:  55 11:42:09  -257.345794c -3.94  -3.82
iter:  56 11:42:48  -257.345809c -3.94  -3.96
iter:  57 11:43:26  -257.345815c -4.01  -3.97
iter:  58 11:44:05  -257.345822c -4.27  -3.97
iter:  59 11:44:43  -257.345829c -4.23  -4.15c
Writing to output.gpw (mode='')

iter:  60 11:45:26  -257.345837c -4.20  -4.32c
iter:  61 11:46:05  -257.345842c -4.43  -4.46c
iter:  62 11:46:43  -257.345846c -4.34  -4.45c
iter:  63 11:47:22  -257.345852c -4.30  -4.32c
iter:  64 11:48:00  -257.345856c -4.44  -4.42c
Writing to output.gpw (mode='')

iter:  65 11:48:40  -257.345859c -4.48  -4.42c
iter:  66 11:49:19  -257.345862c -4.63  -4.38c
iter:  67 11:49:58  -257.345863c -4.71  -4.46c
iter:  68 11:50:36  -257.345864c -4.76  -4.56c
iter:  69 11:51:15  -257.345866c -4.88  -4.63c
Writing to output.gpw (mode='')

iter:  70 11:51:54  -257.345868c -5.00  -4.64c
iter:  71 11:52:33  -257.345868c -5.12  -4.77c
iter:  72 11:53:12  -257.345868c -5.14  -4.76c
iter:  73 11:53:50  -257.345869c -5.07  -4.75c
iter:  74 11:54:29  -257.345869c -5.09  -4.89c
Writing to output.gpw (mode='')

iter:  75 11:55:08  -257.345870c -5.12  -4.96c
iter:  76 11:55:47  -257.345870c -5.37  -5.12c
iter:  77 11:56:25  -257.345870c -5.26  -5.13c
iter:  78 11:57:04  -257.345871c -5.44  -5.07c
iter:  79 11:57:43  -257.345871c -5.38  -5.31c
Writing to output.gpw (mode='')

iter:  80 11:58:22  -257.345870c -5.44  -5.42c
iter:  81 11:59:01  -257.345871c -5.38  -5.32c
iter:  82 11:59:39  -257.345871c -5.56  -5.32c
iter:  83 12:00:18  -257.345871c -5.65  -5.40c
iter:  84 12:00:56  -257.345871c -5.68  -5.11c
Writing to output.gpw (mode='')

iter:  85 12:01:36  -257.345871c -5.80  -5.15c
iter:  86 12:02:14  -257.345871c -5.73  -5.07c
iter:  87 12:02:53  -257.345871c -5.81  -5.09c
iter:  88 12:03:31  -257.345871c -5.89  -5.18c
iter:  89 12:04:10  -257.345871c -5.96  -5.08c
Writing to output.gpw (mode='')

iter:  90 12:04:50  -257.345871c -5.94  -5.03c
iter:  91 12:05:28  -257.345871c -5.95  -5.06c
iter:  92 12:06:07  -257.345871c -5.94  -4.98c
iter:  93 12:06:45  -257.345871c -6.09  -5.06c
iter:  94 12:07:24  -257.345871c -6.05  -4.98c
Writing to output.gpw (mode='')

iter:  95 12:08:09  -257.345871c -6.19  -5.10c
iter:  96 12:08:48  -257.345871c -6.14  -5.13c
iter:  97 12:09:26  -257.345870c -6.23  -5.16c
iter:  98 12:10:05  -257.345870c -6.25  -5.44c
iter:  99 12:10:43  -257.345870c -6.16  -5.53c
Writing to output.gpw (mode='')

iter: 100 12:11:23  -257.345870c -6.17  -5.64c
iter: 101 12:12:01  -257.345870c -6.26  -5.72c
iter: 102 12:12:40  -257.345870c -6.41  -5.76c
iter: 103 12:13:19  -257.345870c -6.46  -5.82c
iter: 104 12:13:57  -257.345870c -6.43  -5.88c
Writing to output.gpw (mode='')

iter: 105 12:14:37  -257.345870c -6.60  -6.02c
iter: 106 12:15:15  -257.345870c -6.63  -6.10c
iter: 107 12:15:54  -257.345870c -6.63  -6.12c
iter: 108 12:16:32  -257.345870c -6.69  -6.11c
iter: 109 12:17:11  -257.345870c -6.73  -6.00c
Writing to output.gpw (mode='')

iter: 110 12:17:50  -257.345870c -6.82  -6.15c
iter: 111 12:18:29  -257.345870c -6.85  -6.10c
iter: 112 12:19:07  -257.345870c -6.79  -6.07c
iter: 113 12:19:46  -257.345870c -6.84  -6.10c
iter: 114 12:20:24  -257.345870c -6.95  -6.06c
Writing to output.gpw (mode='')

iter: 115 12:21:04  -257.345870c -6.94  -5.97c
iter: 116 12:21:42  -257.345870c -7.02  -5.96c
iter: 117 12:22:21  -257.345870c -7.07  -5.89c
iter: 118 12:22:59  -257.345870c -7.09  -5.86c
iter: 119 12:23:38  -257.345870c -7.15  -6.24c
Writing to output.gpw (mode='')

iter: 120 12:24:17  -257.345870c -7.15  -6.38c
iter: 121 12:24:55  -257.345870c -7.14  -6.40c
iter: 122 12:25:34  -257.345870c -7.19  -6.40c
iter: 123 12:26:13  -257.345870c -7.27  -6.40c
iter: 124 12:26:51  -257.345870c -7.27  -6.33c
Writing to output.gpw (mode='')

iter: 125 12:27:31  -257.345870c -7.33  -6.33c
iter: 126 12:28:10  -257.345870c -7.40c -6.53c

Converged after 126 iterations.

Dipole moment: (-5.914870, 3.606923, 0.086125) |e|*Ang

Energy contributions relative to reference atoms: (reference = -12434.674571)

Kinetic:       +119.965629
Potential:     -108.866943
External:        +0.000000
XC:            -268.926510
Entropy (-ST):   -0.142338
Local:           +0.553125
--------------------------
Free energy:   -257.417039
Extrapolated:  -257.345870

Dipole-layer corrected work functions: 3.393630, 3.228068 eV

Showing only first 2 kpts
 Kpt  Band  Eigenvalues  Occupancy
  0    25     -3.56466    1.98759
  0    26     -3.49045    1.94639
  0    27     -3.13529    0.05799
  0    28     -3.07698    0.01844

  1    25     -3.35534    1.41768
  1    26     -3.30289    0.92054
  1    27     -3.27200    0.62991
  1    28     -3.22062    0.28257


Fermi level: -3.31085

No gap
Writing to output.gpw (mode='')


Forces in eV/Ang:
  0 Li    0.00386    0.00911   -0.26940
  1 Li    0.01211    0.00371   -0.27481
  2 Li   -0.01717   -0.00284   -0.27079
  3 Li    0.00403    0.00978   -0.26706
  4 Li   -0.00180   -0.00404   -0.28280
  5 Li    0.00117    0.00200   -0.28052
  6 Li   -0.00295   -0.01592   -0.26791
  7 Li    0.00672   -0.00163   -0.26901
  8 Li   -0.00298   -0.00332   -0.27072
  9 Li    0.00054   -0.00003    0.30115
 10 Li    0.00100    0.00416    0.29438
 11 Li    0.00370   -0.00019    0.23971
 12 Li   -0.00500    0.01277    0.26413
 13 Li    0.00345    0.00410    0.25905
 14 Li    0.00142   -0.00922    0.25302
 15 Li    0.00320   -0.01565    0.24333
 16 Li   -0.00242   -0.01604    0.24355
 17 Li   -0.00272    0.01419    0.26483
 18 Li   -0.00445    0.02029   -0.10271
 19 Li    0.00135   -0.00780    0.03018
 20 Li    0.00649    0.00009    0.01965
 21 Li    0.00135   -0.02070    0.05331
 22 Li   -0.00173   -0.00126    0.03643
 23 Li   -0.00285   -0.00731    0.02979
 24 Li   -0.00140   -0.00477    0.04110
 25 Li   -0.01643    0.01375    0.04266
 26 Li    0.01245    0.00991    0.07458
 27 Li   -0.24240    0.13691   -0.43139
 28 Li   -0.05441    0.10543    0.27655
 29 Li   -0.02362   -0.02376   -0.05977
 30 Li   -0.03137    0.07870   -0.03994
 31 Li    0.02090    0.03547   -0.00271
 32 Li   -0.01026    0.00498   -0.03520
 33 Li   -0.01517   -0.06765   -0.11817
 34 Li   -0.00029   -0.03837   -0.08278
 35 Li    0.03278    0.02751    0.00265
 36 O    -0.28037    0.91177   -0.00168
 37 O     1.30762    1.57526   -0.29795
 38 C    -0.20400   -2.27540    0.38079
 39 H    -0.09108    0.14136    0.15773
 40 H    -0.45021   -0.62870    0.12111

System changes: positions 

Initializing position-dependent things.

Density initialized from wave functions
       .-----------------------.  
      /|                       |  
     / |                       |  
    /  |                       |  
   /   |                       |  
  /    |                       |  
 *     |                       |  
 |     |                       |  
 |     |                       |  
 |     |  C                    |  
 |     |  H                  H |  
 |     |                       |  
 |     |               Li      |  
 |     |                       |  
 |     |     Li      Li      Li|  
 |     O  Li      Li     OLi   |  
 |     |   Li      Li      Li  |  
 |     |Li      Li      Li     |  
 |     | Li              Li    |  
 |   LLi     LLi     LLi       |  
 |     |  Li      Li      Li   |  
 | Li  |   Li      Li          |  
 |     |Li      Li      Li     |  
 Li    | Li      Li            |  
 |    Li      Li      Li       |  
 |     |                       |  
 |     |                       |  
 |     |                       |  
 |     |                       |  
 |     |                       |  
 |     |                       |  
 |     .-----------------------.  
 |    /                       /   
 |   /                       /    
 |  /                       /     
 | /                       /      
 |/                       /       
 *-----------------------*        

Positions:
   0 Li     1.617037    1.617037   10.000000    ( 0.0000,  0.0000,  0.0000)
   1 Li     4.851111    1.617037   10.000000    ( 0.0000,  0.0000,  0.0000)
   2 Li     8.085185    1.617037   10.000000    ( 0.0000,  0.0000,  0.0000)
   3 Li     1.617037    4.851111   10.000000    ( 0.0000,  0.0000,  0.0000)
   4 Li     4.851111    4.851111   10.000000    ( 0.0000,  0.0000,  0.0000)
   5 Li     8.085185    4.851111   10.000000    ( 0.0000,  0.0000,  0.0000)
   6 Li     1.617037    8.085185   10.000000    ( 0.0000,  0.0000,  0.0000)
   7 Li     4.851111    8.085185   10.000000    ( 0.0000,  0.0000,  0.0000)
   8 Li     8.085185    8.085185   10.000000    ( 0.0000,  0.0000,  0.0000)
   9 Li     0.000000    0.000000   11.617037    ( 0.0000,  0.0000,  0.0000)
  10 Li     3.234074    0.000000   11.617037    ( 0.0000,  0.0000,  0.0000)
  11 Li     6.468148    0.000000   11.617037    ( 0.0000,  0.0000,  0.0000)
  12 Li     0.000000    3.234074   11.617037    ( 0.0000,  0.0000,  0.0000)
  13 Li     3.234074    3.234074   11.617037    ( 0.0000,  0.0000,  0.0000)
  14 Li     6.468148    3.234074   11.617037    ( 0.0000,  0.0000,  0.0000)
  15 Li     0.000000    6.468148   11.617037    ( 0.0000,  0.0000,  0.0000)
  16 Li     3.234074    6.468148   11.617037    ( 0.0000,  0.0000,  0.0000)
  17 Li     6.468148    6.468148   11.617037    ( 0.0000,  0.0000,  0.0000)
  18 Li     1.616975    1.617328   13.468261    ( 0.0000,  0.0000,  0.0000)
  19 Li     4.851130    1.616927   13.470161    ( 0.0000,  0.0000,  0.0000)
  20 Li     8.085277    1.617039   13.470009    ( 0.0000,  0.0000,  0.0000)
  21 Li     1.617058    4.850815   13.470491    ( 0.0000,  0.0000,  0.0000)
  22 Li     4.851086    4.851093   13.470251    ( 0.0000,  0.0000,  0.0000)
  23 Li     8.085143    4.851007   13.470155    ( 0.0000,  0.0000,  0.0000)
  24 Li     1.617018    8.085116   13.470315    ( 0.0000,  0.0000,  0.0000)
  25 Li     4.850876    8.085380   13.470339    ( 0.0000,  0.0000,  0.0000)
  26 Li     8.085362    8.085325   13.470793    ( 0.0000,  0.0000,  0.0000)
  27 Li    -0.003463    0.001956   15.439777    ( 0.0000,  0.0000,  0.0000)
  28 Li     3.233296    0.001506   15.449890    ( 0.0000,  0.0000,  0.0000)
  29 Li     6.467811   -0.000339   15.445085    ( 0.0000,  0.0000,  0.0000)
  30 Li    -0.000448    3.235198   15.445368    ( 0.0000,  0.0000,  0.0000)
  31 Li     3.234375    3.234583   15.445899    ( 0.0000,  0.0000,  0.0000)
  32 Li     6.467999    3.234148   15.445435    ( 0.0000,  0.0000,  0.0000)
  33 Li    -0.000217    6.467182   15.444251    ( 0.0000,  0.0000,  0.0000)
  34 Li     3.234072    6.467597   15.444755    ( 0.0000,  0.0000,  0.0000)
  35 Li     6.468614    6.468539   15.445976    ( 0.0000,  0.0000,  0.0000)
  36 O      9.698217    9.715247   17.445915    ( 0.0000,  0.0000,  0.0000)
  37 O     11.882676   10.325053   17.441683    ( 0.0000,  0.0000,  0.0000)
  38 C     11.034354    9.402672   17.451379    ( 0.0000,  0.0000,  0.0000)
  39 H     11.268926    8.358744   17.448193    ( 0.0000,  0.0000,  0.0000)
  40 H      9.201619    8.860214   17.447669    ( 0.0000,  0.0000,  0.0000)

Unit cell:
           periodic     x           y           z      points  spacing
  1. axis:    yes    9.702222    0.000000    0.000000    60     0.1617
  2. axis:    yes    0.000000    9.702222    0.000000    60     0.1617
  3. axis:    no     0.000000    0.000000   24.851111   156     0.1593

  Lengths:   9.702222   9.702222  24.851111
  Angles:   90.000000  90.000000  90.000000

Effective grid spacing dv^(1/3) = 0.1609

     iter     time        total  log10-change:
                         energy  eigst   dens
iter:   1 12:29:02  -258.380908  +0.06
iter:   2 12:29:40  -257.656679  -0.06  -1.18
iter:   3 12:30:19  -257.472965  -1.07  -1.29
iter:   4 12:30:58  -257.391420  -0.82  -1.71
Writing to output.gpw (mode='')

iter:   5 12:31:37  -257.388979  -1.35  -2.06
iter:   6 12:32:16  -257.380031c -1.36  -2.12
iter:   7 12:32:54  -257.377927c -1.86  -2.21
iter:   8 12:33:33  -257.378409c -1.80  -2.41
iter:   9 12:34:11  -257.377578c -2.34  -2.40
Writing to output.gpw (mode='')

iter:  10 12:34:53  -257.377703c -2.46  -2.60
iter:  11 12:35:32  -257.377941c -2.53  -2.72
iter:  12 12:36:11  -257.378118c -2.84  -2.84
iter:  13 12:36:49  -257.378307c -2.95  -2.88
iter:  14 12:37:28  -257.378374c -3.32  -2.96
Writing to output.gpw (mode='')

iter:  15 12:38:11  -257.378466c -3.13  -3.08
iter:  16 12:38:50  -257.378512c -3.61  -3.20
iter:  17 12:39:28  -257.378544c -3.63  -3.18
iter:  18 12:40:07  -257.378570c -3.91  -3.19
iter:  19 12:40:46  -257.378619c -3.58  -3.16
Writing to output.gpw (mode='')

iter:  20 12:41:25  -257.378632c -3.97  -3.17
iter:  21 12:42:04  -257.378636c -4.14  -3.21
iter:  22 12:42:42  -257.378633c -4.29  -3.25
iter:  23 12:43:21  -257.378648c -4.32  -3.34
iter:  24 12:43:59  -257.378640c -4.53  -3.45
Writing to output.gpw (mode='')

iter:  25 12:44:39  -257.378644c -4.87  -3.65
iter:  26 12:45:18  -257.378641c -4.68  -3.69
iter:  27 12:45:56  -257.378642c -4.83  -3.81
iter:  28 12:46:35  -257.378646c -5.09  -3.95
iter:  29 12:47:13  -257.378647c -5.31  -3.99
Writing to output.gpw (mode='')

iter:  30 12:47:54  -257.378649c -5.28  -4.11c
iter:  31 12:48:32  -257.378651c -5.39  -4.33c
iter:  32 12:49:11  -257.378651c -5.62  -4.48c
iter:  33 12:49:50  -257.378651c -5.58  -4.54c
iter:  34 12:50:28  -257.378651c -5.62  -4.61c
Writing to output.gpw (mode='')

iter:  35 12:51:08  -257.378652c -5.72  -4.78c
iter:  36 12:51:47  -257.378652c -5.86  -4.87c
iter:  37 12:52:25  -257.378653c -5.90  -4.97c
iter:  38 12:53:04  -257.378653c -5.88  -5.03c
iter:  39 12:53:42  -257.378653c -6.19  -5.05c
Writing to output.gpw (mode='')

iter:  40 12:54:26  -257.378653c -6.11  -5.05c
iter:  41 12:55:04  -257.378653c -6.41  -4.96c
iter:  42 12:55:43  -257.378654c -6.34  -5.09c
iter:  43 12:56:22  -257.378654c -6.65  -5.26c
iter:  44 12:57:01  -257.378654c -6.58  -5.23c
Writing to output.gpw (mode='')

iter:  45 12:57:40  -257.378654c -6.48  -5.20c
iter:  46 12:58:18  -257.378654c -6.77  -5.15c
iter:  47 12:58:57  -257.378654c -6.69  -5.05c
iter:  48 12:59:35  -257.378654c -6.65  -5.05c
iter:  49 13:00:14  -257.378654c -7.04  -5.04c
Writing to output.gpw (mode='')

iter:  50 13:00:53  -257.378654c -7.00  -4.95c
iter:  51 13:01:32  -257.378654c -7.11  -5.00c
iter:  52 13:02:11  -257.378654c -7.13  -5.17c
iter:  53 13:02:49  -257.378654c -7.14  -5.29c
iter:  54 13:03:27  -257.378654c -7.27  -5.29c
Writing to output.gpw (mode='')

iter:  55 13:04:07  -257.378654c -7.40c -5.34c

Converged after 55 iterations.

Dipole moment: (-5.468809, 2.660238, 0.040016) |e|*Ang

Energy contributions relative to reference atoms: (reference = -12434.674571)

Kinetic:       +114.642483
Potential:     -104.630863
External:        +0.000000
XC:            -267.874220
Entropy (-ST):   -0.141282
Local:           +0.554586
--------------------------
Free energy:   -257.449295
Extrapolated:  -257.378654

Dipole-layer corrected work functions: 3.395472, 3.318547 eV

Showing only first 2 kpts
 Kpt  Band  Eigenvalues  Occupancy
  0    25     -3.61022    1.98744
  0    26     -3.53708    1.94688
  0    27     -3.19067    0.06932
  0    28     -3.12730    0.02002

  1    25     -3.40405    1.43852
  1    26     -3.35066    0.93662
  1    27     -3.31667    0.61715
  1    28     -3.25742    0.24014


Fermi level: -3.35701

No gap

Forces in eV/Ang:
  0 Li    0.00364    0.00791   -0.27013
  1 Li    0.01365    0.00437   -0.27566
  2 Li   -0.01819   -0.00229   -0.27187
  3 Li    0.00420    0.01161   -0.26681
  4 Li   -0.00060   -0.00384   -0.28358
  5 Li   -0.00003    0.00176   -0.28147
  6 Li   -0.00295   -0.01651   -0.26827
  7 Li    0.00627   -0.00274   -0.27010
  8 Li   -0.00242   -0.00395   -0.27158
  9 Li    0.00021   -0.00027    0.30423
 10 Li    0.00077    0.00371    0.29802
 11 Li    0.00435    0.00010    0.24003
 12 Li   -0.00536    0.01201    0.26668
 13 Li    0.00371    0.00393    0.26096
 14 Li    0.00102   -0.00895    0.25284
 15 Li    0.00347   -0.01490    0.24390
 16 Li   -0.00319   -0.01598    0.24379
 17 Li   -0.00221    0.01423    0.26452
 18 Li   -0.00296    0.02382   -0.11385
 19 Li    0.00229   -0.00812    0.02386
 20 Li    0.00332    0.00122    0.01492
 21 Li    0.00165   -0.02159    0.04932
 22 Li   -0.00351   -0.00107    0.03715
 23 Li   -0.00143   -0.00708    0.02928
 24 Li   -0.00146   -0.00660    0.04179
 25 Li   -0.01504    0.01457    0.03805
 26 Li    0.00932    0.00925    0.06781
 27 Li   -0.17158    0.12214   -0.31187
 28 Li   -0.12141    0.12144    0.38437
 29 Li   -0.01882   -0.02308   -0.05732
 30 Li   -0.02939    0.07153   -0.02691
 31 Li    0.01606    0.02313    0.01542
 32 Li   -0.00861    0.00763   -0.03501
 33 Li   -0.01135   -0.05860   -0.11344
 34 Li   -0.00306   -0.03557   -0.08138
 35 Li    0.03235    0.02371    0.00106
 36 O    -0.29274   -0.26215    0.01840
 37 O    -0.71862   -1.02345   -0.34272
 38 C     1.39744    1.68393    0.08906
 39 H     0.09346   -0.74246    0.22598
 40 H    -0.17731    0.17865    0.11020

System changes: positions 

Initializing position-dependent things.

Density initialized from wave functions
       .-----------------------.  
      /|                       |  
     / |                       |  
    /  |                       |  
   /   |                       |  
  /    |                       |  
 *     |                       |  
 |     |                       |  
 |     |                       |  
 |     |  C                    |  
 |     |  H                  H |  
 |     |                       |  
 |     |               Li      |  
 |     |                       |  
 |     |     Li      Li      Li|  
 |     O  Li      Li     OLi   |  
 |     |   Li      Li      Li  |  
 |     |Li      Li      Li     |  
 |     | Li              Li    |  
 |   LLi     LLi     LLi       |  
 |     |  Li      Li      Li   |  
 | Li  |   Li      Li          |  
 |     |Li      Li      Li     |  
 Li    | Li      Li            |  
 |    Li      Li      Li       |  
 |     |                       |  
 |     |                       |  
 |     |                       |  
 |     |                       |  
 |     |                       |  
 |     |                       |  
 |     .-----------------------.  
 |    /                       /   
 |   /                       /    
 |  /                       /     
 | /                       /      
 |/                       /       
 *-----------------------*        

Positions:
   0 Li     1.617037    1.617037   10.000000    ( 0.0000,  0.0000,  0.0000)
   1 Li     4.851111    1.617037   10.000000    ( 0.0000,  0.0000,  0.0000)
   2 Li     8.085185    1.617037   10.000000    ( 0.0000,  0.0000,  0.0000)
   3 Li     1.617037    4.851111   10.000000    ( 0.0000,  0.0000,  0.0000)
   4 Li     4.851111    4.851111   10.000000    ( 0.0000,  0.0000,  0.0000)
   5 Li     8.085185    4.851111   10.000000    ( 0.0000,  0.0000,  0.0000)
   6 Li     1.617037    8.085185   10.000000    ( 0.0000,  0.0000,  0.0000)
   7 Li     4.851111    8.085185   10.000000    ( 0.0000,  0.0000,  0.0000)
   8 Li     8.085185    8.085185   10.000000    ( 0.0000,  0.0000,  0.0000)
   9 Li     0.000000    0.000000   11.617037    ( 0.0000,  0.0000,  0.0000)
  10 Li     3.234074    0.000000   11.617037    ( 0.0000,  0.0000,  0.0000)
  11 Li     6.468148    0.000000   11.617037    ( 0.0000,  0.0000,  0.0000)
  12 Li     0.000000    3.234074   11.617037    ( 0.0000,  0.0000,  0.0000)
  13 Li     3.234074    3.234074   11.617037    ( 0.0000,  0.0000,  0.0000)
  14 Li     6.468148    3.234074   11.617037    ( 0.0000,  0.0000,  0.0000)
  15 Li     0.000000    6.468148   11.617037    ( 0.0000,  0.0000,  0.0000)
  16 Li     3.234074    6.468148   11.617037    ( 0.0000,  0.0000,  0.0000)
  17 Li     6.468148    6.468148   11.617037    ( 0.0000,  0.0000,  0.0000)
  18 Li     1.616938    1.617591   13.466991    ( 0.0000,  0.0000,  0.0000)
  19 Li     4.851154    1.616835   13.470445    ( 0.0000,  0.0000,  0.0000)
  20 Li     8.085321    1.617051   13.470188    ( 0.0000,  0.0000,  0.0000)
  21 Li     1.617076    4.850572   13.471060    ( 0.0000,  0.0000,  0.0000)
  22 Li     4.851050    4.851080   13.470671    ( 0.0000,  0.0000,  0.0000)
  23 Li     8.085124    4.850926   13.470489    ( 0.0000,  0.0000,  0.0000)
  24 Li     1.617002    8.085045   13.470788    ( 0.0000,  0.0000,  0.0000)
  25 Li     4.850702    8.085544   13.470781    ( 0.0000,  0.0000,  0.0000)
  26 Li     8.085474    8.085432   13.471578    ( 0.0000,  0.0000,  0.0000)
  27 Li    -0.005564    0.003375   15.435977    ( 0.0000,  0.0000,  0.0000)
  28 Li     3.232060    0.002852   15.454026    ( 0.0000,  0.0000,  0.0000)
  29 Li     6.467587   -0.000603   15.444428    ( 0.0000,  0.0000,  0.0000)
  30 Li    -0.000786    3.236026   15.445035    ( 0.0000,  0.0000,  0.0000)
  31 Li     3.234568    3.234872   15.446036    ( 0.0000,  0.0000,  0.0000)
  32 Li     6.467898    3.234229   15.445037    ( 0.0000,  0.0000,  0.0000)
  33 Li    -0.000354    6.466497   15.442952    ( 0.0000,  0.0000,  0.0000)
  34 Li     3.234044    6.467187   15.443828    ( 0.0000,  0.0000,  0.0000)
  35 Li     6.468982    6.468816   15.445991    ( 0.0000,  0.0000,  0.0000)
  36 O      9.694917    9.714782   17.446081    ( 0.0000,  0.0000,  0.0000)
  37 O     11.878850   10.318989   17.437885    ( 0.0000,  0.0000,  0.0000)
  38 C     11.046802    9.413327   17.453016    ( 0.0000,  0.0000,  0.0000)
  39 H     11.269593    8.352201   17.450614    ( 0.0000,  0.0000,  0.0000)
  40 H      9.199020    8.860515   17.448945    ( 0.0000,  0.0000,  0.0000)

Unit cell:
           periodic     x           y           z      points  spacing
  1. axis:    yes    9.702222    0.000000    0.000000    60     0.1617
  2. axis:    yes    0.000000    9.702222    0.000000    60     0.1617
  3. axis:    no     0.000000    0.000000   24.851111   156     0.1593

  Lengths:   9.702222   9.702222  24.851111
  Angles:   90.000000  90.000000  90.000000

Effective grid spacing dv^(1/3) = 0.1609

     iter     time        total  log10-change:
                         energy  eigst   dens
iter:   1 13:04:58  -257.450713  -1.35
iter:   2 13:05:37  -257.436571  -1.74  -2.01
iter:   3 13:06:15  -257.427896c -2.17  -2.07
iter:   4 13:06:54  -257.418990c -1.70  -2.25
Writing to output.gpw (mode='')

iter:   5 13:07:38  -257.419691c -2.26  -2.39
iter:   6 13:08:17  -257.417401c -2.82  -2.57
iter:   7 13:08:56  -257.417183c -2.25  -2.65
iter:   8 13:09:34  -257.415898c -2.63  -2.74
iter:   9 13:10:13  -257.415726c -3.20  -2.77
Writing to output.gpw (mode='')

iter:  10 13:10:53  -257.415719c -3.08  -2.96
iter:  11 13:11:32  -257.415742c -3.80  -3.11
iter:  12 13:12:10  -257.415696c -4.04  -3.21
iter:  13 13:12:49  -257.415705c -4.01  -3.33
iter:  14 13:13:27  -257.415698c -4.55  -3.36
Writing to output.gpw (mode='')

iter:  15 13:14:07  -257.415704c -4.60  -3.53
iter:  16 13:14:45  -257.415701c -5.06  -3.62
iter:  17 13:15:24  -257.415702c -5.34  -3.70
iter:  18 13:16:02  -257.415701c -5.27  -3.72
iter:  19 13:16:41  -257.415707c -5.68  -3.78
Writing to output.gpw (mode='')

iter:  20 13:17:20  -257.415707c -5.65  -4.04c
iter:  21 13:17:59  -257.415707c -5.64  -4.13c
iter:  22 13:18:37  -257.415706c -5.94  -4.18c
iter:  23 13:19:16  -257.415705c -5.97  -4.22c
iter:  24 13:19:55  -257.415705c -6.39  -4.30c
Writing to output.gpw (mode='')

iter:  25 13:20:38  -257.415705c -6.30  -4.52c
iter:  26 13:21:16  -257.415704c -6.68  -4.73c
iter:  27 13:21:55  -257.415704c -6.76  -4.75c
iter:  28 13:22:33  -257.415704c -6.72  -4.84c
iter:  29 13:23:12  -257.415704c -7.16  -4.89c
Writing to output.gpw (mode='')

iter:  30 13:23:51  -257.415704c -7.11  -4.90c
iter:  31 13:24:30  -257.415705c -7.22  -5.02c
iter:  32 13:25:08  -257.415705c -7.42c -5.08c

Converged after 32 iterations.

Dipole moment: (-5.171931, 2.651220, 0.054823) |e|*Ang

Energy contributions relative to reference atoms: (reference = -12434.674571)

Kinetic:       +115.506853
Potential:     -105.408193
External:        +0.000000
XC:            -267.997894
Entropy (-ST):   -0.141509
Local:           +0.554283
--------------------------
Free energy:   -257.486459
Extrapolated:  -257.415705

Dipole-layer corrected work functions: 3.395032, 3.289643 eV

Showing only first 2 kpts
 Kpt  Band  Eigenvalues  Occupancy
  0    25     -3.59578    1.98750
  0    26     -3.52263    1.94710
  0    27     -3.17323    0.06572
  0    28     -3.11148    0.01957

  1    25     -3.38845    1.43100
  1    26     -3.33591    0.93581
  1    27     -3.30240    0.62060
  1    28     -3.24541    0.25163


Fermi level: -3.34234

No gap
Writing to output.gpw (mode='')


Forces in eV/Ang:
  0 Li    0.00370    0.00824   -0.26983
  1 Li    0.01318    0.00409   -0.27511
  2 Li   -0.01790   -0.00228   -0.27190
  3 Li    0.00400    0.01111   -0.26676
  4 Li   -0.00070   -0.00380   -0.28362
  5 Li    0.00033    0.00189   -0.28118
  6 Li   -0.00285   -0.01635   -0.26828
  7 Li    0.00636   -0.00239   -0.26966
  8 Li   -0.00262   -0.00399   -0.27175
  9 Li    0.00002   -0.00071    0.30450
 10 Li    0.00108    0.00355    0.29637
 11 Li    0.00437   -0.00011    0.24043
 12 Li   -0.00568    0.01281    0.26586
 13 Li    0.00410    0.00461    0.26023
 14 Li    0.00108   -0.00919    0.25339
 15 Li    0.00339   -0.01513    0.24463
 16 Li   -0.00287   -0.01638    0.24425
 17 Li   -0.00259    0.01449    0.26536
 18 Li   -0.00191    0.02317   -0.10789
 19 Li    0.00083   -0.00862    0.02689
 20 Li    0.00263    0.00245    0.01226
 21 Li    0.00159   -0.02126    0.04852
 22 Li   -0.00268   -0.00117    0.03510
 23 Li   -0.00223   -0.00687    0.02839
 24 Li    0.00015   -0.00554    0.04070
 25 Li   -0.01620    0.01528    0.04037
 26 Li    0.00835    0.00798    0.06419
 27 Li   -0.18603    0.11879   -0.29758
 28 Li   -0.09630    0.11411    0.33880
 29 Li   -0.02173   -0.02220   -0.05678
 30 Li   -0.02925    0.07231   -0.03027
 31 Li    0.01761    0.02769    0.00761
 32 Li   -0.00955    0.00709   -0.03433
 33 Li   -0.01089   -0.05942   -0.11212
 34 Li   -0.00260   -0.03495   -0.08000
 35 Li    0.03111    0.02333    0.00130
 36 O    -0.04264   -0.17421   -0.01170
 37 O     0.05256   -0.13147   -0.31407
 38 C     0.32977    0.27767    0.14435
 39 H     0.04683   -0.29861    0.21102
 40 H    -0.10832    0.14173    0.11228

System changes: positions 

Initializing position-dependent things.

Density initialized from wave functions
       .-----------------------.  
      /|                       |  
     / |                       |  
    /  |                       |  
   /   |                       |  
  /    |                       |  
 *     |                       |  
 |     |                       |  
 |     |                       |  
 |     |  C                    |  
 |     |  H                  H |  
 |     |                       |  
 |     |               Li      |  
 |     |                       |  
 |     |     Li      Li      Li|  
 |     O  Li      Li     OLi   |  
 |     |   Li      Li      Li  |  
 |     |Li      Li      Li     |  
 |     | Li              Li    |  
 |   LLi     LLi     LLi       |  
 |     |  Li      Li      Li   |  
 | Li  |   Li      Li          |  
 |     |Li      Li      Li     |  
 Li    | Li      Li            |  
 |    Li      Li      Li       |  
 |     |                       |  
 |     |                       |  
 |     |                       |  
 |     |                       |  
 |     |                       |  
 |     |                       |  
 |     .-----------------------.  
 |    /                       /   
 |   /                       /    
 |  /                       /     
 | /                       /      
 |/                       /       
 *-----------------------*        

Positions:
   0 Li     1.617037    1.617037   10.000000    ( 0.0000,  0.0000,  0.0000)
   1 Li     4.851111    1.617037   10.000000    ( 0.0000,  0.0000,  0.0000)
   2 Li     8.085185    1.617037   10.000000    ( 0.0000,  0.0000,  0.0000)
   3 Li     1.617037    4.851111   10.000000    ( 0.0000,  0.0000,  0.0000)
   4 Li     4.851111    4.851111   10.000000    ( 0.0000,  0.0000,  0.0000)
   5 Li     8.085185    4.851111   10.000000    ( 0.0000,  0.0000,  0.0000)
   6 Li     1.617037    8.085185   10.000000    ( 0.0000,  0.0000,  0.0000)
   7 Li     4.851111    8.085185   10.000000    ( 0.0000,  0.0000,  0.0000)
   8 Li     8.085185    8.085185   10.000000    ( 0.0000,  0.0000,  0.0000)
   9 Li     0.000000    0.000000   11.617037    ( 0.0000,  0.0000,  0.0000)
  10 Li     3.234074    0.000000   11.617037    ( 0.0000,  0.0000,  0.0000)
  11 Li     6.468148    0.000000   11.617037    ( 0.0000,  0.0000,  0.0000)
  12 Li     0.000000    3.234074   11.617037    ( 0.0000,  0.0000,  0.0000)
  13 Li     3.234074    3.234074   11.617037    ( 0.0000,  0.0000,  0.0000)
  14 Li     6.468148    3.234074   11.617037    ( 0.0000,  0.0000,  0.0000)
  15 Li     0.000000    6.468148   11.617037    ( 0.0000,  0.0000,  0.0000)
  16 Li     3.234074    6.468148   11.617037    ( 0.0000,  0.0000,  0.0000)
  17 Li     6.468148    6.468148   11.617037    ( 0.0000,  0.0000,  0.0000)
  18 Li     1.616886    1.618133   13.464444    ( 0.0000,  0.0000,  0.0000)
  19 Li     4.851177    1.616634   13.471083    ( 0.0000,  0.0000,  0.0000)
  20 Li     8.085393    1.617102   13.470498    ( 0.0000,  0.0000,  0.0000)
  21 Li     1.617113    4.850070   13.472218    ( 0.0000,  0.0000,  0.0000)
  22 Li     4.850988    4.851053   13.471506    ( 0.0000,  0.0000,  0.0000)
  23 Li     8.085071    4.850762   13.471164    ( 0.0000,  0.0000,  0.0000)
  24 Li     1.616999    8.084914   13.471752    ( 0.0000,  0.0000,  0.0000)
  25 Li     4.850321    8.085901   13.471736    ( 0.0000,  0.0000,  0.0000)
  26 Li     8.085682    8.085627   13.473122    ( 0.0000,  0.0000,  0.0000)
  27 Li    -0.010058    0.006225   15.428640    ( 0.0000,  0.0000,  0.0000)
  28 Li     3.229838    0.005540   15.461965    ( 0.0000,  0.0000,  0.0000)
  29 Li     6.467074   -0.001132   15.443080    ( 0.0000,  0.0000,  0.0000)
  30 Li    -0.001482    3.237747   15.444304    ( 0.0000,  0.0000,  0.0000)
  31 Li     3.234989    3.235536   15.446205    ( 0.0000,  0.0000,  0.0000)
  32 Li     6.467672    3.234393   15.444223    ( 0.0000,  0.0000,  0.0000)
  33 Li    -0.000621    6.465076   15.440288    ( 0.0000,  0.0000,  0.0000)
  34 Li     3.233986    6.466353   15.441930    ( 0.0000,  0.0000,  0.0000)
  35 Li     6.469723    6.469377   15.446025    ( 0.0000,  0.0000,  0.0000)
  36 O      9.693030    9.712857   17.445871    ( 0.0000,  0.0000,  0.0000)
  37 O     11.881630   10.318207   17.430457    ( 0.0000,  0.0000,  0.0000)
  38 C     11.055037    9.416517   17.456849    ( 0.0000,  0.0000,  0.0000)
  39 H     11.270474    8.345427   17.455508    ( 0.0000,  0.0000,  0.0000)
  40 H      9.195627    8.862271   17.451613    ( 0.0000,  0.0000,  0.0000)

Unit cell:
           periodic     x           y           z      points  spacing
  1. axis:    yes    9.702222    0.000000    0.000000    60     0.1617
  2. axis:    yes    0.000000    9.702222    0.000000    60     0.1617
  3. axis:    no     0.000000    0.000000   24.851111   156     0.1593

  Lengths:   9.702222   9.702222  24.851111
  Angles:   90.000000  90.000000  90.000000

Effective grid spacing dv^(1/3) = 0.1609

     iter     time        total  log10-change:
                         energy  eigst   dens
iter:   1 13:26:02  -257.433535  -1.82
iter:   2 13:26:41  -257.433174  -2.53  -2.55
iter:   3 13:27:19  -257.431210c -2.17  -2.61
iter:   4 13:27:58  -257.431061c -3.28  -2.67
Writing to output.gpw (mode='')

iter:   5 13:28:37  -257.430931c -3.55  -2.97
iter:   6 13:29:16  -257.430931c -2.93  -3.04
iter:   7 13:29:55  -257.430814c -3.74  -3.06
iter:   8 13:30:33  -257.430834c -3.21  -3.20
iter:   9 13:31:12  -257.430712c -3.94  -3.23
Writing to output.gpw (mode='')

iter:  10 13:31:51  -257.430711c -3.93  -3.48
iter:  11 13:32:30  -257.430717c -4.84  -3.51
iter:  12 13:33:09  -257.430731c -4.57  -3.64
iter:  13 13:33:48  -257.430725c -4.99  -3.66
iter:  14 13:34:26  -257.430724c -5.19  -3.75
Writing to output.gpw (mode='')

iter:  15 13:35:06  -257.430720c -5.34  -3.95
iter:  16 13:35:44  -257.430722c -5.54  -4.03c
iter:  17 13:36:23  -257.430720c -5.70  -4.13c
iter:  18 13:37:02  -257.430720c -5.80  -4.37c
iter:  19 13:37:40  -257.430720c -6.09  -4.47c
Writing to output.gpw (mode='')

iter:  20 13:38:20  -257.430721c -6.20  -4.53c
iter:  21 13:38:59  -257.430722c -6.39  -4.64c
iter:  22 13:39:37  -257.430721c -6.59  -4.68c
iter:  23 13:40:16  -257.430722c -6.57  -4.85c
iter:  24 13:40:55  -257.430722c -6.60  -4.98c
Writing to output.gpw (mode='')

iter:  25 13:41:34  -257.430722c -7.02  -5.05c
iter:  26 13:42:13  -257.430721c -7.01  -5.11c
iter:  27 13:42:51  -257.430722c -7.16  -5.20c
iter:  28 13:43:30  -257.430722c -7.32  -5.24c
iter:  29 13:44:08  -257.430722c -7.41c -5.44c

Converged after 29 iterations.

Dipole moment: (-4.945965, 2.750490, 0.060154) |e|*Ang

Energy contributions relative to reference atoms: (reference = -12434.674571)

Kinetic:       +115.402829
Potential:     -105.365324
External:        +0.000000
XC:            -267.951736
Entropy (-ST):   -0.141506
Local:           +0.554262
--------------------------
Free energy:   -257.501475
Extrapolated:  -257.430722

Dipole-layer corrected work functions: 3.394907, 3.279269 eV

Showing only first 2 kpts
 Kpt  Band  Eigenvalues  Occupancy
  0    25     -3.59054    1.98750
  0    26     -3.51774    1.94748
  0    27     -3.16778    0.06546
  0    28     -3.10578    0.01939

  1    25     -3.38320    1.43097
  1    26     -3.33038    0.93301
  1    27     -3.29739    0.62266
  1    28     -3.24062    0.25364


Fermi level: -3.33709

No gap
Writing to output.gpw (mode='')


Forces in eV/Ang:
  0 Li    0.00366    0.00837   -0.26971
  1 Li    0.01306    0.00397   -0.27473
  2 Li   -0.01780   -0.00218   -0.27213
  3 Li    0.00390    0.01097   -0.26669
  4 Li   -0.00052   -0.00360   -0.28395
  5 Li    0.00041    0.00201   -0.28113
  6 Li   -0.00275   -0.01636   -0.26847
  7 Li    0.00643   -0.00233   -0.26961
  8 Li   -0.00276   -0.00412   -0.27221
  9 Li   -0.00032   -0.00147    0.30573
 10 Li    0.00141    0.00311    0.29575
 11 Li    0.00464   -0.00027    0.24093
 12 Li   -0.00627    0.01371    0.26563
 13 Li    0.00468    0.00563    0.25997
 14 Li    0.00106   -0.00956    0.25410
 15 Li    0.00337   -0.01512    0.24608
 16 Li   -0.00272   -0.01690    0.24496
 17 Li   -0.00292    0.01485    0.26660
 18 Li   -0.00030    0.02313   -0.10286
 19 Li   -0.00086   -0.00927    0.02769
 20 Li    0.00082    0.00420    0.00852
 21 Li    0.00172   -0.02081    0.04557
 22 Li   -0.00217   -0.00137    0.03273
 23 Li   -0.00297   -0.00659    0.02634
 24 Li    0.00213   -0.00474    0.03829
 25 Li   -0.01760    0.01646    0.04118
 26 Li    0.00631    0.00645    0.05812
 27 Li   -0.17956    0.11088   -0.25757
 28 Li   -0.08978    0.11126    0.32406
 29 Li   -0.02345   -0.02076   -0.05568
 30 Li   -0.02831    0.07067   -0.03061
 31 Li    0.01711    0.02850    0.00493
 32 Li   -0.00947    0.00683   -0.03316
 33 Li   -0.00936   -0.05768   -0.10872
 34 Li   -0.00286   -0.03338   -0.07694
 35 Li    0.02981    0.02198    0.00128
 36 O     0.16878   -0.05276   -0.03109
 37 O     0.25767    0.11289   -0.29551
 38 C    -0.12088   -0.27437    0.11061
 39 H     0.03936   -0.04037    0.20967
 40 H    -0.08616    0.06159    0.11790

System changes: positions 

Initializing position-dependent things.

Density initialized from wave functions
       .-----------------------.  
      /|                       |  
     / |                       |  
    /  |                       |  
   /   |                       |  
  /    |                       |  
 *     |                       |  
 |     |                       |  
 |     |                       |  
 |     |  C                    |  
 |     |  H                  H |  
 |     |                       |  
 |     |               Li      |  
 |     |                       |  
 |     |     Li      Li      Li|  
 |     O  Li      Li     OLi   |  
 |     |   Li      Li      Li  |  
 |     |Li      Li      Li     |  
 |     | Li              Li    |  
 |   LLi     LLi     LLi       |  
 |     |  Li      Li      Li   |  
 | Li  |   Li      Li          |  
 |     |Li      Li      Li     |  
 Li    | Li      Li            |  
 |    Li      Li      Li       |  
 |     |                       |  
 |     |                       |  
 |     |                       |  
 |     |                       |  
 |     |                       |  
 |     |                       |  
 |     .-----------------------.  
 |    /                       /   
 |   /                       /    
 |  /                       /     
 | /                       /      
 |/                       /       
 *-----------------------*        

Positions:
   0 Li     1.617037    1.617037   10.000000    ( 0.0000,  0.0000,  0.0000)
   1 Li     4.851111    1.617037   10.000000    ( 0.0000,  0.0000,  0.0000)
   2 Li     8.085185    1.617037   10.000000    ( 0.0000,  0.0000,  0.0000)
   3 Li     1.617037    4.851111   10.000000    ( 0.0000,  0.0000,  0.0000)
   4 Li     4.851111    4.851111   10.000000    ( 0.0000,  0.0000,  0.0000)
   5 Li     8.085185    4.851111   10.000000    ( 0.0000,  0.0000,  0.0000)
   6 Li     1.617037    8.085185   10.000000    ( 0.0000,  0.0000,  0.0000)
   7 Li     4.851111    8.085185   10.000000    ( 0.0000,  0.0000,  0.0000)
   8 Li     8.085185    8.085185   10.000000    ( 0.0000,  0.0000,  0.0000)
   9 Li     0.000000    0.000000   11.617037    ( 0.0000,  0.0000,  0.0000)
  10 Li     3.234074    0.000000   11.617037    ( 0.0000,  0.0000,  0.0000)
  11 Li     6.468148    0.000000   11.617037    ( 0.0000,  0.0000,  0.0000)
  12 Li     0.000000    3.234074   11.617037    ( 0.0000,  0.0000,  0.0000)
  13 Li     3.234074    3.234074   11.617037    ( 0.0000,  0.0000,  0.0000)
  14 Li     6.468148    3.234074   11.617037    ( 0.0000,  0.0000,  0.0000)
  15 Li     0.000000    6.468148   11.617037    ( 0.0000,  0.0000,  0.0000)
  16 Li     3.234074    6.468148   11.617037    ( 0.0000,  0.0000,  0.0000)
  17 Li     6.468148    6.468148   11.617037    ( 0.0000,  0.0000,  0.0000)
  18 Li     1.616790    1.619663   13.457412    ( 0.0000,  0.0000,  0.0000)
  19 Li     4.851192    1.616049   13.472886    ( 0.0000,  0.0000,  0.0000)
  20 Li     8.085532    1.617300   13.471248    ( 0.0000,  0.0000,  0.0000)
  21 Li     1.617222    4.848672   13.475375    ( 0.0000,  0.0000,  0.0000)
  22 Li     4.850823    4.850969   13.473785    ( 0.0000,  0.0000,  0.0000)
  23 Li     8.084902    4.850311   13.472998    ( 0.0000,  0.0000,  0.0000)
  24 Li     1.617053    8.084566   13.474390    ( 0.0000,  0.0000,  0.0000)
  25 Li     4.849208    8.086941   13.474436    ( 0.0000,  0.0000,  0.0000)
  26 Li     8.086198    8.086127   13.477269    ( 0.0000,  0.0000,  0.0000)
  27 Li    -0.022352    0.013975   15.409419    ( 0.0000,  0.0000,  0.0000)
  28 Li     3.223635    0.013051   15.484091    ( 0.0000,  0.0000,  0.0000)
  29 Li     6.465590   -0.002575   15.439324    ( 0.0000,  0.0000,  0.0000)
  30 Li    -0.003406    3.242522   15.442265    ( 0.0000,  0.0000,  0.0000)
  31 Li     3.236145    3.237401   15.446641    ( 0.0000,  0.0000,  0.0000)
  32 Li     6.467045    3.234850   15.441970    ( 0.0000,  0.0000,  0.0000)
  33 Li    -0.001319    6.461153   15.432909    ( 0.0000,  0.0000,  0.0000)
  34 Li     3.233812    6.464061   15.436688    ( 0.0000,  0.0000,  0.0000)
  35 Li     6.471766    6.470906   15.446115    ( 0.0000,  0.0000,  0.0000)
  36 O      9.693843    9.709552   17.444764    ( 0.0000,  0.0000,  0.0000)
  37 O     11.891157   10.317873   17.410024    ( 0.0000,  0.0000,  0.0000)
  38 C     11.068810    9.416955   17.465986    ( 0.0000,  0.0000,  0.0000)
  39 H     11.273091    8.332287   17.469363    ( 0.0000,  0.0000,  0.0000)
  40 H      9.186973    8.865803   17.459280    ( 0.0000,  0.0000,  0.0000)

Unit cell:
           periodic     x           y           z      points  spacing
  1. axis:    yes    9.702222    0.000000    0.000000    60     0.1617
  2. axis:    yes    0.000000    9.702222    0.000000    60     0.1617
  3. axis:    no     0.000000    0.000000   24.851111   156     0.1593

  Lengths:   9.702222   9.702222  24.851111
  Angles:   90.000000  90.000000  90.000000

Effective grid spacing dv^(1/3) = 0.1609

     iter     time        total  log10-change:
                         energy  eigst   dens
iter:   1 13:45:04  -257.471665  -1.14
iter:   2 13:45:43  -257.465345  -1.83  -2.09
iter:   3 13:46:21  -257.461789c -2.26  -2.10
iter:   4 13:47:00  -257.458005c -2.11  -2.32
Writing to output.gpw (mode='')

iter:   5 13:47:39  -257.457311c -2.47  -2.56
iter:   6 13:48:18  -257.457138c -2.55  -2.72
iter:   7 13:48:56  -257.457104c -3.12  -2.87
iter:   8 13:49:35  -257.457116c -3.20  -2.95
iter:   9 13:50:14  -257.457072c -3.65  -3.02
Writing to output.gpw (mode='')

iter:  10 13:50:53  -257.457065c -3.55  -3.13
iter:  11 13:51:31  -257.457091c -3.96  -3.32
iter:  12 13:52:10  -257.457084c -4.21  -3.49
iter:  13 13:52:49  -257.457086c -4.36  -3.53
iter:  14 13:53:27  -257.457086c -4.34  -3.49
Writing to output.gpw (mode='')

iter:  15 13:54:06  -257.457093c -4.83  -3.43
iter:  16 13:54:45  -257.457089c -4.66  -3.61
iter:  17 13:55:24  -257.457091c -4.89  -3.74
iter:  18 13:56:02  -257.457088c -5.16  -3.80
iter:  19 13:56:41  -257.457090c -5.16  -3.88
Writing to output.gpw (mode='')

iter:  20 13:57:21  -257.457090c -5.51  -3.94
iter:  21 13:58:00  -257.457089c -5.47  -3.97
iter:  22 13:58:38  -257.457090c -5.67  -4.33c
iter:  23 13:59:17  -257.457090c -5.87  -4.35c
iter:  24 13:59:56  -257.457090c -5.85  -4.41c
Writing to output.gpw (mode='')

iter:  25 14:00:35  -257.457091c -6.03  -4.39c
iter:  26 14:01:14  -257.457091c -6.07  -4.59c
iter:  27 14:01:53  -257.457091c -6.30  -4.62c
iter:  28 14:02:31  -257.457092c -6.32  -4.70c
iter:  29 14:03:10  -257.457092c -6.55  -4.74c
Writing to output.gpw (mode='')

iter:  30 14:03:49  -257.457092c -6.69  -4.76c
iter:  31 14:04:28  -257.457092c -6.72  -4.88c
iter:  32 14:05:06  -257.457092c -6.72  -4.92c
iter:  33 14:05:45  -257.457092c -6.82  -5.05c
iter:  34 14:06:24  -257.457092c -6.99  -5.20c
Writing to output.gpw (mode='')

iter:  35 14:07:03  -257.457092c -7.21  -5.29c
iter:  36 14:07:41  -257.457092c -7.07  -5.36c
iter:  37 14:08:20  -257.457092c -7.27  -5.59c
iter:  38 14:08:59  -257.457092c -7.31  -5.67c
iter:  39 14:09:37  -257.457092c -7.41c -5.70c

Converged after 39 iterations.

Dipole moment: (-4.832990, 2.848831, 0.065769) |e|*Ang

Energy contributions relative to reference atoms: (reference = -12434.674571)

Kinetic:       +114.569945
Potential:     -104.759427
External:        +0.000000
XC:            -267.751578
Entropy (-ST):   -0.141383
Local:           +0.554660
--------------------------
Free energy:   -257.527783
Extrapolated:  -257.457092

Dipole-layer corrected work functions: 3.394611, 3.268181 eV

Showing only first 2 kpts
 Kpt  Band  Eigenvalues  Occupancy
  0    25     -3.58467    1.98746
  0    26     -3.51293    1.94837
  0    27     -3.16301    0.06664
  0    28     -3.09974    0.01926

  1    25     -3.37832    1.43762
  1    26     -3.32356    0.92175
  1    27     -3.29232    0.62795
  1    28     -3.23430    0.25089


Fermi level: -3.33140

No gap
Writing to output.gpw (mode='')


Forces in eV/Ang:
  0 Li    0.00349    0.00860   -0.26961
  1 Li    0.01303    0.00396   -0.27403
  2 Li   -0.01768   -0.00193   -0.27279
  3 Li    0.00381    0.01085   -0.26656
  4 Li    0.00006   -0.00311   -0.28485
  5 Li    0.00032    0.00235   -0.28114
  6 Li   -0.00263   -0.01651   -0.26907
  7 Li    0.00664   -0.00249   -0.26974
  8 Li   -0.00302   -0.00447   -0.27351
  9 Li   -0.00125   -0.00343    0.30915
 10 Li    0.00210    0.00187    0.29505
 11 Li    0.00546   -0.00070    0.24240
 12 Li   -0.00793    0.01588    0.26562
 13 Li    0.00647    0.00837    0.25958
 14 Li    0.00076   -0.01051    0.25567
 15 Li    0.00336   -0.01496    0.25011
 16 Li   -0.00255   -0.01826    0.24691
 17 Li   -0.00357    0.01582    0.27009
 18 Li    0.00373    0.02340   -0.09148
 19 Li   -0.00499   -0.01084    0.02779
 20 Li   -0.00437    0.00879   -0.00075
 21 Li    0.00229   -0.01976    0.03695
 22 Li   -0.00110   -0.00186    0.02713
 23 Li   -0.00481   -0.00612    0.02012
 24 Li    0.00686   -0.00303    0.03152
 25 Li   -0.02119    0.01937    0.04159
 26 Li    0.00112    0.00285    0.04296
 27 Li   -0.15187    0.08944   -0.15814
 28 Li   -0.08729    0.10796    0.31276
 29 Li   -0.02568   -0.01740   -0.05209
 30 Li   -0.02564    0.06469   -0.02920
 31 Li    0.01448    0.02795    0.00215
 32 Li   -0.00840    0.00626   -0.03003
 33 Li   -0.00595   -0.05045   -0.09767
 34 Li   -0.00380   -0.02948   -0.06858
 35 Li    0.02735    0.01857    0.00187
 36 O     0.41475    0.05332   -0.05855
 37 O     0.32080    0.17162   -0.25881
 38 C    -0.53407   -0.74263    0.01692
 39 H     0.05643    0.30284    0.20806
 40 H     0.00627    0.02839    0.12635

System changes: positions 

Initializing position-dependent things.

Density initialized from wave functions
       .-----------------------.  
      /|                       |  
     / |                       |  
    /  |                       |  
   /   |                       |  
  /    |                       |  
 *     |                       |  
 |     |                       |  
 |     |                       |  
 |     |  C                    |  
 |     |  H                  H |  
 |     |                       |  
 |     |               Li      |  
 |     |                       |  
 |     |     Li      Li      Li|  
 |     O  Li      Li     OLi   |  
 |     |   Li      Li      Li  |  
 |     |Li      Li      Li     |  
 |     | Li              Li    |  
 |   LLi     LLi     LLi       |  
 |     |  Li      Li      Li   |  
 | Li  |   Li      Li          |  
 |     |Li      Li      Li     |  
 Li    | Li      Li            |  
 |    Li      Li      Li       |  
 |     |                       |  
 |     |                       |  
 |     |                       |  
 |     |                       |  
 |     |                       |  
 |     |                       |  
 |     .-----------------------.  
 |    /                       /   
 |   /                       /    
 |  /                       /     
 | /                       /      
 |/                       /       
 *-----------------------*        

Positions:
   0 Li     1.617037    1.617037   10.000000    ( 0.0000,  0.0000,  0.0000)
   1 Li     4.851111    1.617037   10.000000    ( 0.0000,  0.0000,  0.0000)
   2 Li     8.085185    1.617037   10.000000    ( 0.0000,  0.0000,  0.0000)
   3 Li     1.617037    4.851111   10.000000    ( 0.0000,  0.0000,  0.0000)
   4 Li     4.851111    4.851111   10.000000    ( 0.0000,  0.0000,  0.0000)
   5 Li     8.085185    4.851111   10.000000    ( 0.0000,  0.0000,  0.0000)
   6 Li     1.617037    8.085185   10.000000    ( 0.0000,  0.0000,  0.0000)
   7 Li     4.851111    8.085185   10.000000    ( 0.0000,  0.0000,  0.0000)
   8 Li     8.085185    8.085185   10.000000    ( 0.0000,  0.0000,  0.0000)
   9 Li     0.000000    0.000000   11.617037    ( 0.0000,  0.0000,  0.0000)
  10 Li     3.234074    0.000000   11.617037    ( 0.0000,  0.0000,  0.0000)
  11 Li     6.468148    0.000000   11.617037    ( 0.0000,  0.0000,  0.0000)
  12 Li     0.000000    3.234074   11.617037    ( 0.0000,  0.0000,  0.0000)
  13 Li     3.234074    3.234074   11.617037    ( 0.0000,  0.0000,  0.0000)
  14 Li     6.468148    3.234074   11.617037    ( 0.0000,  0.0000,  0.0000)
  15 Li     0.000000    6.468148   11.617037    ( 0.0000,  0.0000,  0.0000)
  16 Li     3.234074    6.468148   11.617037    ( 0.0000,  0.0000,  0.0000)
  17 Li     6.468148    6.468148   11.617037    ( 0.0000,  0.0000,  0.0000)
  18 Li     1.616735    1.622214   13.446014    ( 0.0000,  0.0000,  0.0000)
  19 Li     4.851115    1.615037   13.475869    ( 0.0000,  0.0000,  0.0000)
  20 Li     8.085630    1.617745   13.472255    ( 0.0000,  0.0000,  0.0000)
  21 Li     1.617418    4.846377   13.480392    ( 0.0000,  0.0000,  0.0000)
  22 Li     4.850575    4.850818   13.477428    ( 0.0000,  0.0000,  0.0000)
  23 Li     8.084578    4.849574   13.475884    ( 0.0000,  0.0000,  0.0000)
  24 Li     1.617259    8.084030   13.478596    ( 0.0000,  0.0000,  0.0000)
  25 Li     4.847272    8.088742   13.478918    ( 0.0000,  0.0000,  0.0000)
  26 Li     8.086919    8.086867   13.483763    ( 0.0000,  0.0000,  0.0000)
  27 Li    -0.041953    0.026277   15.380167    ( 0.0000,  0.0000,  0.0000)
  28 Li     3.213303    0.025456   15.520689    ( 0.0000,  0.0000,  0.0000)
  29 Li     6.463080   -0.004886   15.433186    ( 0.0000,  0.0000,  0.0000)
  30 Li    -0.006530    3.250284   15.438936    ( 0.0000,  0.0000,  0.0000)
  31 Li     3.237990    3.240461   15.447323    ( 0.0000,  0.0000,  0.0000)
  32 Li     6.466033    3.235599   15.438310    ( 0.0000,  0.0000,  0.0000)
  33 Li    -0.002387    6.454839   15.420950    ( 0.0000,  0.0000,  0.0000)
  34 Li     3.233496    6.460358   15.428204    ( 0.0000,  0.0000,  0.0000)
  35 Li     6.475095    6.473353   15.446277    ( 0.0000,  0.0000,  0.0000)
  36 O      9.701002    9.704979   17.442291    ( 0.0000,  0.0000,  0.0000)
  37 O     11.905427   10.314818   17.376971    ( 0.0000,  0.0000,  0.0000)
  38 C     11.084200    9.412106   17.478419    ( 0.0000,  0.0000,  0.0000)
  39 H     11.278138    8.317583   17.492401    ( 0.0000,  0.0000,  0.0000)
  40 H      9.175319    8.872065   17.472191    ( 0.0000,  0.0000,  0.0000)

Unit cell:
           periodic     x           y           z      points  spacing
  1. axis:    yes    9.702222    0.000000    0.000000    60     0.1617
  2. axis:    yes    0.000000    9.702222    0.000000    60     0.1617
  3. axis:    no     0.000000    0.000000   24.851111   156     0.1593

  Lengths:   9.702222   9.702222  24.851111
  Angles:   90.000000  90.000000  90.000000

Effective grid spacing dv^(1/3) = 0.1609

     iter     time        total  log10-change:
                         energy  eigst   dens
iter:   1 14:10:29  -257.512570  -0.80
iter:   2 14:11:08  -257.501782  -1.52  -1.94
iter:   3 14:11:46  -257.495362c -1.89  -1.97
iter:   4 14:12:25  -257.490598c -1.91  -2.18
Writing to output.gpw (mode='')

iter:   5 14:13:04  -257.489723c -2.08  -2.41
iter:   6 14:13:43  -257.489348c -2.29  -2.55
iter:   7 14:14:21  -257.489221c -2.83  -2.70
iter:   8 14:14:59  -257.489353c -3.02  -2.90
iter:   9 14:15:38  -257.489272c -3.27  -2.88
Writing to output.gpw (mode='')

iter:  10 14:16:17  -257.489340c -3.57  -3.19
iter:  11 14:16:56  -257.489341c -3.95  -3.33
iter:  12 14:17:34  -257.489329c -3.85  -3.35
iter:  13 14:18:13  -257.489329c -4.10  -3.30
iter:  14 14:18:51  -257.489356c -4.20  -3.38
Writing to output.gpw (mode='')

iter:  15 14:19:31  -257.489349c -4.44  -3.41
iter:  16 14:20:09  -257.489352c -4.38  -3.48
iter:  17 14:20:48  -257.489366c -4.54  -3.57
iter:  18 14:21:26  -257.489361c -4.68  -3.59
iter:  19 14:22:05  -257.489360c -4.75  -3.96
Writing to output.gpw (mode='')

iter:  20 14:22:48  -257.489362c -5.21  -4.13c
iter:  21 14:23:27  -257.489363c -5.33  -4.15c
iter:  22 14:24:05  -257.489365c -5.38  -4.17c
iter:  23 14:24:44  -257.489366c -5.48  -4.41c
iter:  24 14:25:22  -257.489367c -5.43  -4.50c
Writing to output.gpw (mode='')

iter:  25 14:26:02  -257.489366c -5.57  -4.57c
iter:  26 14:26:41  -257.489367c -5.76  -4.58c
iter:  27 14:27:19  -257.489367c -5.85  -4.74c
iter:  28 14:27:58  -257.489368c -5.87  -4.82c
iter:  29 14:28:37  -257.489368c -5.96  -4.88c
Writing to output.gpw (mode='')

iter:  30 14:29:16  -257.489368c -6.10  -4.90c
iter:  31 14:29:54  -257.489368c -6.25  -4.95c
iter:  32 14:30:33  -257.489368c -6.38  -5.10c
iter:  33 14:31:12  -257.489368c -6.39  -5.19c
iter:  34 14:31:50  -257.489368c -6.50  -5.25c
Writing to output.gpw (mode='')

iter:  35 14:32:30  -257.489368c -6.54  -5.34c
iter:  36 14:33:08  -257.489368c -6.73  -5.44c
iter:  37 14:33:47  -257.489368c -6.72  -5.47c
iter:  38 14:34:26  -257.489369c -7.00  -5.61c
iter:  39 14:35:04  -257.489369c -6.95  -5.65c
Writing to output.gpw (mode='')

iter:  40 14:35:44  -257.489369c -7.02  -5.72c
iter:  41 14:36:23  -257.489369c -7.05  -5.70c
iter:  42 14:37:02  -257.489369c -7.19  -5.62c
iter:  43 14:37:40  -257.489369c -7.31  -5.60c
iter:  44 14:38:19  -257.489369c -7.37  -5.76c
Writing to output.gpw (mode='')

iter:  45 14:38:58  -257.489369c -7.49c -5.83c

Converged after 45 iterations.

Dipole moment: (-5.139640, 2.899748, 0.070999) |e|*Ang

Energy contributions relative to reference atoms: (reference = -12434.674571)

Kinetic:       +113.455837
Potential:     -103.908091
External:        +0.000000
XC:            -267.522341
Entropy (-ST):   -0.141292
Local:           +0.555873
--------------------------
Free energy:   -257.560015
Extrapolated:  -257.489369

Dipole-layer corrected work functions: 3.393993, 3.257509 eV

Showing only first 2 kpts
 Kpt  Band  Eigenvalues  Occupancy
  0    25     -3.57850    1.98733
  0    26     -3.50839    1.94947
  0    27     -3.15988    0.06996
  0    28     -3.09387    0.01918

  1    25     -3.37421    1.44991
  1    26     -3.31571    0.89992
  1    27     -3.28770    0.63690
  1    28     -3.22681    0.24290


Fermi level: -3.32575

No gap

Forces in eV/Ang:
  0 Li    0.00315    0.00888   -0.26960
  1 Li    0.01307    0.00412   -0.27305
  2 Li   -0.01751   -0.00160   -0.27376
  3 Li    0.00382    0.01069   -0.26641
  4 Li    0.00093   -0.00238   -0.28624
  5 Li    0.00004    0.00288   -0.28109
  6 Li   -0.00253   -0.01673   -0.27012
  7 Li    0.00697   -0.00286   -0.27019
  8 Li   -0.00335   -0.00486   -0.27555
  9 Li   -0.00278   -0.00652    0.31419
 10 Li    0.00314   -0.00012    0.29407
 11 Li    0.00671   -0.00143    0.24495
 12 Li   -0.01066    0.01914    0.26599
 13 Li    0.00957    0.01274    0.25907
 14 Li    0.00003   -0.01189    0.25785
 15 Li    0.00342   -0.01457    0.25672
 16 Li   -0.00245   -0.02024    0.25014
 17 Li   -0.00448    0.01725    0.27592
 18 Li    0.00951    0.02361   -0.07404
 19 Li   -0.01113   -0.01293    0.02658
 20 Li   -0.01314    0.01640   -0.01508
 21 Li    0.00336   -0.01817    0.02290
 22 Li    0.00052   -0.00264    0.01870
 23 Li   -0.00776   -0.00565    0.00951
 24 Li    0.01351   -0.00033    0.02053
 25 Li   -0.02655    0.02339    0.04081
 26 Li   -0.00674   -0.00267    0.02008
 27 Li   -0.10619    0.05897   -0.02678
 28 Li   -0.08554    0.10135    0.30029
 29 Li   -0.02799   -0.01239   -0.04605
 30 Li   -0.02142    0.05423   -0.02585
 31 Li    0.00970    0.02612   -0.00017
 32 Li   -0.00613    0.00524   -0.02509
 33 Li   -0.00143   -0.03777   -0.07885
 34 Li   -0.00499   -0.02389   -0.05514
 35 Li    0.02415    0.01348    0.00331
 36 O     0.56585    0.10727   -0.08747
 37 O     0.17070    0.04105   -0.19922
 38 C    -0.76510   -0.88066   -0.14754
 39 H     0.09849    0.52585    0.22963
 40 H     0.16087    0.04550    0.11311

System changes: positions 

Initializing position-dependent things.

Density initialized from wave functions
       .-----------------------.  
      /|                       |  
     / |                       |  
    /  |                       |  
   /   |                       |  
  /    |                       |  
 *     |                       |  
 |     |                       |  
 |     |                       |  
 |     O  C                    |  
 |     |  H                  H |  
 |     |                       |  
 |     |               Li      |  
 |     |                       |  
 |     |     Li      Li      Li|  
 |     O  Li      Li      Li   |  
 |     |   Li      Li      Li  |  
 |     |Li      Li      Li     |  
 |     | Li              Li    |  
 |   LLi     LLi     LLi       |  
 |     |  Li      Li      Li   |  
 | Li  |   Li      Li          |  
 |     |Li      Li      Li     |  
 Li    | Li      Li            |  
 |    Li      Li      Li       |  
 |     |                       |  
 |     |                       |  
 |     |                       |  
 |     |                       |  
 |     |                       |  
 |     |                       |  
 |     .-----------------------.  
 |    /                       /   
 |   /                       /    
 |  /                       /     
 | /                       /      
 |/                       /       
 *-----------------------*        

Positions:
   0 Li     1.617037    1.617037   10.000000    ( 0.0000,  0.0000,  0.0000)
   1 Li     4.851111    1.617037   10.000000    ( 0.0000,  0.0000,  0.0000)
   2 Li     8.085185    1.617037   10.000000    ( 0.0000,  0.0000,  0.0000)
   3 Li     1.617037    4.851111   10.000000    ( 0.0000,  0.0000,  0.0000)
   4 Li     4.851111    4.851111   10.000000    ( 0.0000,  0.0000,  0.0000)
   5 Li     8.085185    4.851111   10.000000    ( 0.0000,  0.0000,  0.0000)
   6 Li     1.617037    8.085185   10.000000    ( 0.0000,  0.0000,  0.0000)
   7 Li     4.851111    8.085185   10.000000    ( 0.0000,  0.0000,  0.0000)
   8 Li     8.085185    8.085185   10.000000    ( 0.0000,  0.0000,  0.0000)
   9 Li     0.000000    0.000000   11.617037    ( 0.0000,  0.0000,  0.0000)
  10 Li     3.234074    0.000000   11.617037    ( 0.0000,  0.0000,  0.0000)
  11 Li     6.468148    0.000000   11.617037    ( 0.0000,  0.0000,  0.0000)
  12 Li     0.000000    3.234074   11.617037    ( 0.0000,  0.0000,  0.0000)
  13 Li     3.234074    3.234074   11.617037    ( 0.0000,  0.0000,  0.0000)
  14 Li     6.468148    3.234074   11.617037    ( 0.0000,  0.0000,  0.0000)
  15 Li     0.000000    6.468148   11.617037    ( 0.0000,  0.0000,  0.0000)
  16 Li     3.234074    6.468148   11.617037    ( 0.0000,  0.0000,  0.0000)
  17 Li     6.468148    6.468148   11.617037    ( 0.0000,  0.0000,  0.0000)
  18 Li     1.616800    1.624788   13.434895    ( 0.0000,  0.0000,  0.0000)
  19 Li     4.850911    1.613975   13.478848    ( 0.0000,  0.0000,  0.0000)
  20 Li     8.085548    1.618349   13.472969    ( 0.0000,  0.0000,  0.0000)
  21 Li     1.617637    4.844100   13.485153    ( 0.0000,  0.0000,  0.0000)
  22 Li     4.850358    4.850650   13.480920    ( 0.0000,  0.0000,  0.0000)
  23 Li     8.084193    4.848843   13.478574    ( 0.0000,  0.0000,  0.0000)
  24 Li     1.617605    8.083545   13.482607    ( 0.0000,  0.0000,  0.0000)
  25 Li     4.845215    8.090638   13.483416    ( 0.0000,  0.0000,  0.0000)
  26 Li     8.087482    8.087496   13.489820    ( 0.0000,  0.0000,  0.0000)
  27 Li    -0.060712    0.038012   15.353588    ( 0.0000,  0.0000,  0.0000)
  28 Li     3.202921    0.037813   15.557288    ( 0.0000,  0.0000,  0.0000)
  29 Li     6.460505   -0.007106   15.427134    ( 0.0000,  0.0000,  0.0000)
  30 Li    -0.009585    3.257880   15.435659    ( 0.0000,  0.0000,  0.0000)
  31 Li     3.239749    3.243502   15.447964    ( 0.0000,  0.0000,  0.0000)
  32 Li     6.465061    3.236333   15.434729    ( 0.0000,  0.0000,  0.0000)
  33 Li    -0.003365    6.448745   15.409300    ( 0.0000,  0.0000,  0.0000)
  34 Li     3.233151    6.456750   15.419940    ( 0.0000,  0.0000,  0.0000)
  35 Li     6.478377    6.475708   15.446467    ( 0.0000,  0.0000,  0.0000)
  36 O      9.712253    9.700689   17.439153    ( 0.0000,  0.0000,  0.0000)
  37 O     11.916549   10.308460   17.344910    ( 0.0000,  0.0000,  0.0000)
  38 C     11.093858    9.404741   17.487432    ( 0.0000,  0.0000,  0.0000)
  39 H     11.284142    8.307872   17.516013    ( 0.0000,  0.0000,  0.0000)
  40 H      9.167080    8.879298   17.484970    ( 0.0000,  0.0000,  0.0000)

Unit cell:
           periodic     x           y           z      points  spacing
  1. axis:    yes    9.702222    0.000000    0.000000    60     0.1617
  2. axis:    yes    0.000000    9.702222    0.000000    60     0.1617
  3. axis:    no     0.000000    0.000000   24.851111   156     0.1593

  Lengths:   9.702222   9.702222  24.851111
  Angles:   90.000000  90.000000  90.000000

Effective grid spacing dv^(1/3) = 0.1609

     iter     time        total  log10-change:
                         energy  eigst   dens
iter:   1 14:39:50  -257.527537  -0.86
iter:   2 14:40:28  -257.524321  -1.61  -1.97
iter:   3 14:41:07  -257.519330c -1.81  -2.13
iter:   4 14:41:46  -257.518958c -2.26  -2.32
Writing to output.gpw (mode='')

iter:   5 14:42:30  -257.518026c -2.41  -2.44
iter:   6 14:43:09  -257.517754c -2.22  -2.55
iter:   7 14:43:47  -257.517637c -2.90  -2.71
iter:   8 14:44:26  -257.517636c -3.12  -2.86
iter:   9 14:45:05  -257.517695c -3.28  -3.00
Writing to output.gpw (mode='')

iter:  10 14:45:45  -257.517715c -3.62  -3.02
iter:  11 14:46:23  -257.517721c -3.74  -3.16
iter:  12 14:47:02  -257.517726c -3.88  -3.34
iter:  13 14:47:41  -257.517726c -4.11  -3.40
iter:  14 14:48:19  -257.517717c -4.17  -3.45
Writing to output.gpw (mode='')

iter:  15 14:48:59  -257.517722c -4.54  -3.64
iter:  16 14:49:37  -257.517731c -4.55  -3.71
iter:  17 14:50:16  -257.517732c -4.76  -3.93
iter:  18 14:50:55  -257.517734c -4.97  -4.05c
iter:  19 14:51:34  -257.517736c -5.06  -4.14c
Writing to output.gpw (mode='')

iter:  20 14:52:17  -257.517740c -5.19  -4.18c
iter:  21 14:52:56  -257.517741c -5.36  -4.32c
iter:  22 14:53:35  -257.517741c -5.40  -4.32c
iter:  23 14:54:14  -257.517740c -5.45  -4.42c
iter:  24 14:54:52  -257.517742c -5.57  -4.57c
Writing to output.gpw (mode='')

iter:  25 14:55:32  -257.517742c -5.69  -4.57c
iter:  26 14:56:11  -257.517742c -5.79  -4.71c
iter:  27 14:56:50  -257.517742c -5.91  -4.81c
iter:  28 14:57:28  -257.517743c -5.87  -5.03c
iter:  29 14:58:07  -257.517743c -6.20  -5.06c
Writing to output.gpw (mode='')

iter:  30 14:58:47  -257.517743c -6.20  -5.16c
iter:  31 14:59:26  -257.517743c -6.10  -5.21c
iter:  32 15:00:05  -257.517743c -6.48  -5.28c
iter:  33 15:00:43  -257.517743c -6.48  -5.38c
iter:  34 15:01:22  -257.517743c -6.61  -5.45c
Writing to output.gpw (mode='')

iter:  35 15:02:02  -257.517743c -6.70  -5.61c
iter:  36 15:02:41  -257.517743c -6.75  -5.64c
iter:  37 15:03:19  -257.517743c -6.92  -5.69c
iter:  38 15:03:58  -257.517743c -6.91  -5.68c
iter:  39 15:04:37  -257.517743c -7.09  -5.68c
Writing to output.gpw (mode='')

iter:  40 15:05:17  -257.517744c -7.08  -5.78c
iter:  41 15:05:55  -257.517744c -7.26  -5.89c
iter:  42 15:06:34  -257.517744c -7.36  -5.91c
iter:  43 15:07:13  -257.517744c -7.45c -5.87c

Converged after 43 iterations.

Dipole moment: (-5.772741, 2.881595, 0.076320) |e|*Ang

Energy contributions relative to reference atoms: (reference = -12434.674571)

Kinetic:       +112.873402
Potential:     -103.437678
External:        +0.000000
XC:            -267.439318
Entropy (-ST):   -0.141452
Local:           +0.556576
--------------------------
Free energy:   -257.588470
Extrapolated:  -257.517744

Dipole-layer corrected work functions: 3.393184, 3.246470 eV

Showing only first 2 kpts
 Kpt  Band  Eigenvalues  Occupancy
  0    25     -3.57189    1.98715
  0    26     -3.50302    1.95001
  0    27     -3.15690    0.07404
  0    28     -3.08772    0.01909

  1    25     -3.36946    1.45923
  1    26     -3.30747    0.87701
  1    27     -3.28280    0.64581
  1    28     -3.21917    0.23564


Fermi level: -3.31983

No gap
Writing to output.gpw (mode='')


Forces in eV/Ang:
  0 Li    0.00279    0.00915   -0.26973
  1 Li    0.01307    0.00427   -0.27218
  2 Li   -0.01731   -0.00140   -0.27461
  3 Li    0.00389    0.01044   -0.26636
  4 Li    0.00161   -0.00173   -0.28747
  5 Li   -0.00021    0.00338   -0.28090
  6 Li   -0.00249   -0.01690   -0.27115
  7 Li    0.00732   -0.00319   -0.27071
  8 Li   -0.00363   -0.00510   -0.27744
  9 Li   -0.00433   -0.00945    0.31843
 10 Li    0.00422   -0.00203    0.29270
 11 Li    0.00776   -0.00225    0.24765
 12 Li   -0.01329    0.02217    0.26642
 13 Li    0.01280    0.01692    0.25855
 14 Li   -0.00091   -0.01299    0.25965
 15 Li    0.00361   -0.01411    0.26319
 16 Li   -0.00248   -0.02192    0.25343
 17 Li   -0.00539    0.01849    0.28174
 18 Li    0.01427    0.02322   -0.05716
 19 Li   -0.01661   -0.01440    0.02461
 20 Li   -0.02199    0.02409   -0.02845
 21 Li    0.00458   -0.01663    0.00930
 22 Li    0.00211   -0.00340    0.01089
 23 Li   -0.01074   -0.00541   -0.00116
 24 Li    0.01896    0.00267    0.01026
 25 Li   -0.03123    0.02646    0.03894
 26 Li   -0.01386   -0.00792   -0.00073
 27 Li   -0.06602    0.03428    0.06939
 28 Li   -0.07548    0.09048    0.27398
 29 Li   -0.02966   -0.00771   -0.03993
 30 Li   -0.01754    0.04399   -0.02251
 31 Li    0.00510    0.02481   -0.00198
 32 Li   -0.00358    0.00395   -0.02037
 33 Li    0.00188   -0.02540   -0.06027
 34 Li   -0.00556   -0.01915   -0.04213
 35 Li    0.02161    0.00898    0.00514
 36 O     0.56320    0.11565   -0.09432
 37 O     0.01441   -0.16800   -0.11466
 38 C    -0.72179   -0.78375   -0.28865
 39 H     0.12714    0.59613    0.22209
 40 H     0.27917    0.07998    0.10707

System changes: positions 

Initializing position-dependent things.

Density initialized from wave functions
       .-----------------------.  
      /|                       |  
     / |                       |  
    /  |                       |  
   /   |                       |  
  /    |                       |  
 *     |                       |  
 |     |                       |  
 |     |                       |  
 |     O  C                    |  
 |     |  H                  H |  
 |     |                       |  
 |     |               Li      |  
 |     |                       |  
 |     |     Li      Li      Li|  
 |     O  Li      Li      Li   |  
 |     |   Li      Li      Li  |  
 |     |Li      Li      Li     |  
[...]
  Angles:   90.000000  90.000000  90.000000

Effective grid spacing dv^(1/3) = 0.1609

     iter     time        total  log10-change:
                         energy  eigst   dens
iter:   1 03:44:54  -257.694126  -2.98
iter:   2 03:45:33  -257.693834  -3.45  -2.58
iter:   3 03:46:11  -257.693534c -4.32  -2.80
iter:   4 03:46:50  -257.693496c -4.50  -3.28
Writing to output.gpw (mode='')

iter:   5 03:47:29  -257.693496c -4.44  -3.56
iter:   6 03:48:08  -257.693494c -4.63  -3.66
iter:   7 03:48:46  -257.693495c -4.40  -3.87
iter:   8 03:49:25  -257.693497c -5.33  -3.78
iter:   9 03:50:03  -257.693498c -5.66  -3.98
Writing to output.gpw (mode='')

iter:  10 03:50:43  -257.693495c -5.59  -4.05c
iter:  11 03:51:21  -257.693497c -6.00  -4.36c
iter:  12 03:52:00  -257.693495c -6.47  -4.31c
iter:  13 03:52:38  -257.693494c -6.23  -4.50c
iter:  14 03:53:17  -257.693494c -6.67  -4.52c
Writing to output.gpw (mode='')

iter:  15 03:53:56  -257.693494c -6.32  -4.64c
iter:  16 03:54:35  -257.693494c -6.90  -4.59c
iter:  17 03:55:13  -257.693494c -6.88  -4.66c
iter:  18 03:55:52  -257.693495c -7.15  -4.75c
iter:  19 03:56:31  -257.693494c -7.22  -4.84c
Writing to output.gpw (mode='')

iter:  20 03:57:10  -257.693494c -7.37  -5.06c
iter:  21 03:57:48  -257.693494c -7.77c -5.11c

Converged after 21 iterations.

Dipole moment: (-10.790467, 0.416673, 0.130727) |e|*Ang

Energy contributions relative to reference atoms: (reference = -12434.674571)

Kinetic:       +116.258468
Potential:     -105.737058
External:        +0.000000
XC:            -268.700697
Entropy (-ST):   -0.143179
Local:           +0.557383
--------------------------
Free energy:   -257.765084
Extrapolated:  -257.693494

Dipole-layer corrected work functions: 3.392811, 3.141509 eV

Showing only first 2 kpts
 Kpt  Band  Eigenvalues  Occupancy
  0    25     -3.52854    1.98932
  0    26     -3.43668    1.93480
  0    27     -3.13153    0.12448
  0    28     -3.02970    0.01717

  1    25     -3.31714    1.46192
  1    26     -3.25646    0.89340
  1    27     -3.22140    0.57186
  1    28     -3.16661    0.23612


Fermi level: -3.26716

No gap
Writing to output.gpw (mode='')


Forces in eV/Ang:
  0 Li    0.00397    0.00310   -0.26237
  1 Li    0.01766    0.00414   -0.27787
  2 Li   -0.01935    0.00095   -0.28007
  3 Li    0.00444    0.01170   -0.27341
  4 Li    0.00559   -0.00545   -0.28350
  5 Li   -0.00456   -0.00126   -0.27961
  6 Li    0.00094   -0.01691   -0.26932
  7 Li    0.00325   -0.00414   -0.27350
  8 Li   -0.00011   -0.00553   -0.27880
  9 Li   -0.00816   -0.00199    0.29831
 10 Li    0.00760    0.00892    0.24922
 11 Li   -0.02383    0.00534    0.25170
 12 Li   -0.01125    0.02651    0.26150
 13 Li    0.01756    0.01935    0.23540
 14 Li   -0.02714   -0.01538    0.25315
 15 Li    0.02041    0.00823    0.27743
 16 Li   -0.00850   -0.00087    0.24732
 17 Li   -0.02970    0.03805    0.26663
 18 Li    0.00149   -0.00783   -0.00432
 19 Li    0.00008   -0.01374    0.01019
 20 Li    0.00256   -0.00127    0.00205
 21 Li   -0.00580   -0.00703   -0.00091
 22 Li   -0.00317   -0.00285   -0.00302
 23 Li    0.00249    0.00104    0.00172
 24 Li    0.00208    0.00559    0.03020
 25 Li   -0.00475    0.00981    0.01238
 26 Li    0.00692    0.00468   -0.00338
 27 Li    0.01197   -0.00048   -0.00265
 28 Li   -0.00281    0.00069    0.00681
 29 Li   -0.00310   -0.00179    0.00413
 30 Li    0.00291    0.00081    0.00621
 31 Li   -0.00181   -0.00908    0.00110
 32 Li    0.00322    0.00395   -0.00260
 33 Li    0.00103    0.00317    0.00799
 34 Li   -0.00016    0.00304   -0.00390
 35 Li    0.00055   -0.00107    0.00111
 36 O    -0.03238   -0.00111    0.00612
 37 O    -0.02502   -0.04598    0.00081
 38 C     0.05063    0.00930    0.01054
 39 H    -0.00386   -0.00157   -0.00963
 40 H     0.02360    0.01361    0.01176

System changes: positions 

Initializing position-dependent things.

Density initialized from wave functions
       .-----------------------.  
      /|                       |  
     / |                       |  
    /  |                       |  
   /   |                       |  
  /    |                       |  
 *     |                       |  
 |     |                       |  
 |     |                       |  
 |     O  H                  H |  
 |     |                       |  
 |     |                       |  
 |     |                       |  
 |     |                       |  
 |   Li|     Li      Li        |  
 |     O  Li      Li      Li   |  
 |     |   Li      Li      Li  |  
 |     |LLi     Li      Li     |  
 |     |         Li      Li    |  
 |   LLi     LLi     LLi       |  
 |     |  Li      Li      Li   |  
 | Li  |   Li      Li          |  
 |     |Li      Li      Li     |  
 Li    | Li      Li            |  
 |    Li      Li      Li       |  
 |     |                       |  
 |     |                       |  
 |     |                       |  
 |     |                       |  
 |     |                       |  
 |     |                       |  
 |     .-----------------------.  
 |    /                       /   
 |   /                       /    
 |  /                       /     
 | /                       /      
 |/                       /       
 *-----------------------*        

Positions:
   0 Li     1.617037    1.617037   10.000000    ( 0.0000,  0.0000,  0.0000)
   1 Li     4.851111    1.617037   10.000000    ( 0.0000,  0.0000,  0.0000)
   2 Li     8.085185    1.617037   10.000000    ( 0.0000,  0.0000,  0.0000)
   3 Li     1.617037    4.851111   10.000000    ( 0.0000,  0.0000,  0.0000)
   4 Li     4.851111    4.851111   10.000000    ( 0.0000,  0.0000,  0.0000)
   5 Li     8.085185    4.851111   10.000000    ( 0.0000,  0.0000,  0.0000)
   6 Li     1.617037    8.085185   10.000000    ( 0.0000,  0.0000,  0.0000)
   7 Li     4.851111    8.085185   10.000000    ( 0.0000,  0.0000,  0.0000)
   8 Li     8.085185    8.085185   10.000000    ( 0.0000,  0.0000,  0.0000)
   9 Li     0.000000    0.000000   11.617037    ( 0.0000,  0.0000,  0.0000)
  10 Li     3.234074    0.000000   11.617037    ( 0.0000,  0.0000,  0.0000)
  11 Li     6.468148    0.000000   11.617037    ( 0.0000,  0.0000,  0.0000)
  12 Li     0.000000    3.234074   11.617037    ( 0.0000,  0.0000,  0.0000)
  13 Li     3.234074    3.234074   11.617037    ( 0.0000,  0.0000,  0.0000)
  14 Li     6.468148    3.234074   11.617037    ( 0.0000,  0.0000,  0.0000)
  15 Li     0.000000    6.468148   11.617037    ( 0.0000,  0.0000,  0.0000)
  16 Li     3.234074    6.468148   11.617037    ( 0.0000,  0.0000,  0.0000)
  17 Li     6.468148    6.468148   11.617037    ( 0.0000,  0.0000,  0.0000)
  18 Li     1.616875    1.642046   13.427373    ( 0.0000,  0.0000,  0.0000)
  19 Li     4.799460    1.617453   13.477667    ( 0.0000,  0.0000,  0.0000)
  20 Li     8.075806    1.632715   13.443347    ( 0.0000,  0.0000,  0.0000)
  21 Li     1.639099    4.846534   13.444116    ( 0.0000,  0.0000,  0.0000)
  22 Li     4.849051    4.861893   13.475057    ( 0.0000,  0.0000,  0.0000)
  23 Li     8.058616    4.869836   13.435778    ( 0.0000,  0.0000,  0.0000)
  24 Li     1.634342    8.135232   13.477544    ( 0.0000,  0.0000,  0.0000)
  25 Li     4.809806    8.099185   13.486521    ( 0.0000,  0.0000,  0.0000)
  26 Li     8.073151    8.102789   13.464399    ( 0.0000,  0.0000,  0.0000)
  27 Li    -0.106286    0.074870   15.442165    ( 0.0000,  0.0000,  0.0000)
  28 Li     3.219462    0.001728   15.689863    ( 0.0000,  0.0000,  0.0000)
  29 Li     6.422266    0.007851   15.326717    ( 0.0000,  0.0000,  0.0000)
  30 Li    -0.054749    3.363757   15.347190    ( 0.0000,  0.0000,  0.0000)
  31 Li     3.229572    3.306723   15.429994    ( 0.0000,  0.0000,  0.0000)
  32 Li     6.449909    3.232263   15.385905    ( 0.0000,  0.0000,  0.0000)
  33 Li     0.034625    6.486478   15.300843    ( 0.0000,  0.0000,  0.0000)
  34 Li     3.199802    6.461591   15.384766    ( 0.0000,  0.0000,  0.0000)
  35 Li     6.497838    6.478893   15.423716    ( 0.0000,  0.0000,  0.0000)
  36 O      9.825534    9.636831   17.426091    ( 0.0000,  0.0000,  0.0000)
  37 O     12.046265   10.074887   17.327285    ( 0.0000,  0.0000,  0.0000)
  38 C     11.161675    9.219534   17.498708    ( 0.0000,  0.0000,  0.0000)
  39 H     11.306120    8.250913   17.977995    ( 0.0000,  0.0000,  0.0000)
  40 H      9.236183    8.889364   17.646179    ( 0.0000,  0.0000,  0.0000)

Unit cell:
           periodic     x           y           z      points  spacing
  1. axis:    yes    9.702222    0.000000    0.000000    60     0.1617
  2. axis:    yes    0.000000    9.702222    0.000000    60     0.1617
  3. axis:    no     0.000000    0.000000   24.851111   156     0.1593

  Lengths:   9.702222   9.702222  24.851111
  Angles:   90.000000  90.000000  90.000000

Effective grid spacing dv^(1/3) = 0.1609

     iter     time        total  log10-change:
                         energy  eigst   dens
iter:   1 03:58:41  -257.694744  -2.84
iter:   2 03:59:20  -257.694202  -3.18  -2.49
iter:   3 03:59:59  -257.693733c -4.29  -2.68
iter:   4 04:00:37  -257.693688c -4.34  -3.22
Writing to output.gpw (mode='')

iter:   5 04:01:17  -257.693697c -4.38  -3.44
iter:   6 04:01:55  -257.693675c -4.15  -3.37
iter:   7 04:02:34  -257.693673c -4.97  -3.70
iter:   8 04:03:12  -257.693678c -4.94  -3.90
iter:   9 04:03:51  -257.693677c -5.32  -3.79
Writing to output.gpw (mode='')

iter:  10 04:04:31  -257.693672c -5.40  -3.91
iter:  11 04:05:09  -257.693672c -5.66  -4.08c
iter:  12 04:05:48  -257.693671c -5.75  -4.20c
iter:  13 04:06:26  -257.693670c -6.14  -4.28c
iter:  14 04:07:05  -257.693670c -6.37  -4.40c
Writing to output.gpw (mode='')

iter:  15 04:07:45  -257.693671c -6.54  -4.47c
iter:  16 04:08:24  -257.693671c -6.65  -4.57c
iter:  17 04:09:03  -257.693671c -6.78  -4.68c
iter:  18 04:09:41  -257.693671c -6.87  -4.78c
iter:  19 04:10:20  -257.693671c -7.23  -4.80c
Writing to output.gpw (mode='')

iter:  20 04:11:00  -257.693671c -7.31  -4.98c
iter:  21 04:11:38  -257.693671c -7.52c -5.07c

Converged after 21 iterations.

Dipole moment: (-10.820716, 0.366379, 0.131430) |e|*Ang

Energy contributions relative to reference atoms: (reference = -12434.674571)

Kinetic:       +116.308680
Potential:     -105.780913
External:        +0.000000
XC:            -268.707199
Entropy (-ST):   -0.143180
Local:           +0.557350
--------------------------
Free energy:   -257.765261
Extrapolated:  -257.693671

Dipole-layer corrected work functions: 3.392881, 3.140227 eV

Showing only first 2 kpts
 Kpt  Band  Eigenvalues  Occupancy
  0    25     -3.52787    1.98931
  0    26     -3.43620    1.93496
  0    27     -3.13086    0.12432
  0    28     -3.02891    0.01710

  1    25     -3.31650    1.46171
  1    26     -3.25580    0.89288
  1    27     -3.22095    0.57315
  1    28     -3.16616    0.23677


Fermi level: -3.26655

No gap
Writing to output.gpw (mode='')


Forces in eV/Ang:
  0 Li    0.00396    0.00314   -0.26246
  1 Li    0.01760    0.00409   -0.27785
  2 Li   -0.01932    0.00097   -0.28012
  3 Li    0.00444    0.01166   -0.27342
  4 Li    0.00562   -0.00540   -0.28359
  5 Li   -0.00455   -0.00122   -0.27957
  6 Li    0.00095   -0.01686   -0.26942
  7 Li    0.00324   -0.00410   -0.27359
  8 Li   -0.00015   -0.00556   -0.27894
  9 Li   -0.00765   -0.00239    0.29840
 10 Li    0.00742    0.00832    0.24931
 11 Li   -0.02382    0.00525    0.25194
 12 Li   -0.01141    0.02643    0.26138
 13 Li    0.01782    0.01905    0.23567
 14 Li   -0.02724   -0.01580    0.25375
 15 Li    0.02088    0.00861    0.27781
 16 Li   -0.00880   -0.00038    0.24813
 17 Li   -0.02988    0.03847    0.26731
 18 Li    0.00160   -0.00708   -0.00346
 19 Li   -0.00023   -0.01244    0.00917
 20 Li    0.00210   -0.00091    0.00161
 21 Li   -0.00541   -0.00642   -0.00099
 22 Li   -0.00291   -0.00280   -0.00305
 23 Li    0.00234    0.00101    0.00148
 24 Li    0.00222    0.00529    0.02664
 25 Li   -0.00453    0.00895    0.01107
 26 Li    0.00602    0.00427   -0.00348
 27 Li    0.01279   -0.00082    0.00392
 28 Li   -0.00342    0.00140    0.00938
 29 Li   -0.00229   -0.00159    0.00483
 30 Li    0.00299    0.00015    0.00621
 31 Li   -0.00167   -0.00868    0.00074
 32 Li    0.00306    0.00358   -0.00230
 33 Li    0.00082    0.00279    0.00837
 34 Li    0.00010    0.00218   -0.00307
 35 Li    0.00039   -0.00107    0.00087
 36 O    -0.01237   -0.00497    0.00265
 37 O     0.02175   -0.02817   -0.00630
 38 C     0.00361    0.00826    0.00937
 39 H    -0.00883    0.01118   -0.01441
 40 H     0.00521   -0.00786    0.01795

Timing:                                      incl.     excl.
-------------------------------------------------------------------
Density initialized from wave functions:    35.131    35.129   0.1% |
 Symmetrize density:                         0.001     0.001   0.0% |
Forces:                                    194.485   194.485   0.3% |
Hamiltonian:                               943.731     0.013   0.0% |
 Atomic:                                     4.420     0.058   0.0% |
  XC Correction:                             4.361     4.361   0.0% |
 Calculate atomic Hamiltonians:              4.138     4.138   0.0% |
 Communicate:                                8.002     8.002   0.0% |
 Hartree integrate/restrict:                 3.309     3.309   0.0% |
 Initialize Hamiltonian:                     0.000     0.000   0.0% |
 Poisson:                                   96.489    45.276   0.1% |
  Communicate from 1D:                       5.417     5.417   0.0% |
  Communicate from 2D:                       9.615     9.615   0.0% |
  Communicate to 1D:                         2.141     2.141   0.0% |
  Communicate to 2D:                        10.008    10.008   0.0% |
  FFT 1D:                                    9.877     9.877   0.0% |
  FFT 2D:                                   14.154    14.154   0.0% |
 XC 3D grid:                               826.443   246.815   0.4% |
  VdW-DF integral:                         579.628     7.695   0.0% |
   Convolution:                            119.299   119.299   0.2% |
   FFT:                                     35.851    35.851   0.1% |
   gather:                                 140.491   140.491   0.2% |
   hmm1:                                    23.095    23.095   0.0% |
   hmm2:                                    37.196    37.196   0.1% |
   iFFT:                                    36.995    36.995   0.1% |
   potential:                              170.417     5.786   0.0% |
    collect:                                13.071    13.071   0.0% |
    p1:                                     75.589    75.589   0.1% |
    p2:                                     53.491    53.491   0.1% |
    sum:                                    22.480    22.480   0.0% |
   splines:                                  8.589     8.589   0.0% |
 vbar:                                       0.917     0.917   0.0% |
LCAO initialization:                         6.595     0.312   0.0% |
 LCAO eigensolver:                           2.188     0.000   0.0% |
  Calculate projections:                     0.000     0.000   0.0% |
  DenseAtomicCorrection:                     0.000     0.000   0.0% |
  Distribute overlap matrix:                 2.095     2.095   0.0% |
  Orbital Layouts:                           0.044     0.044   0.0% |
  Potential matrix:                          0.047     0.047   0.0% |
  Sum over cells:                            0.002     0.002   0.0% |
 LCAO to grid:                               3.053     3.053   0.0% |
 Set positions (LCAO WFS):                   1.042     0.789   0.0% |
  Basic WFS set positions:                   0.003     0.003   0.0% |
  Basis functions set positions:             0.001     0.001   0.0% |
  P tci:                                     0.000     0.000   0.0% |
  ST tci:                                    0.154     0.154   0.0% |
  mktci:                                     0.094     0.094   0.0% |
Redistribute:                                0.037     0.037   0.0% |
SCF-cycle:                               59986.258  1113.358   1.8% ||
 Davidson:                               26788.960  9688.440  15.7% |-----|
  Apply hamiltonian:                      1603.541  1603.541   2.6% ||
  Subspace diag:                          4443.981     0.318   0.0% |
   calc_h_matrix:                         2540.013   785.243   1.3% ||
    Apply hamiltonian:                    1754.770  1754.770   2.9% ||
   diagonalize:                             52.731    52.731   0.1% |
   rotate_psi:                            1850.919  1850.919   3.0% ||
  calc. matrices:                         8002.840  5198.473   8.4% |--|
   Apply hamiltonian:                     2804.367  2804.367   4.6% |-|
  diagonalize:                              14.721    14.721   0.0% |
  rotate_psi:                             3035.437  3035.437   4.9% |-|
 Density:                                  479.182     0.111   0.0% |
  Atomic density matrices:                  12.651    12.651   0.0% |
  Mix:                                     268.147   268.147   0.4% |
  Multipole moments:                         2.571     2.571   0.0% |
  Pseudo density:                          195.702   195.615   0.3% |
   Symmetrize density:                       0.087     0.087   0.0% |
 Hamiltonian:                            31548.014     0.430   0.0% |
  Atomic:                                  148.480     2.035   0.0% |
   XC Correction:                          146.446   146.446   0.2% |
  Calculate atomic Hamiltonians:           142.147   142.147   0.2% |
  Communicate:                             266.790   266.790   0.4% |
  Hartree integrate/restrict:              112.530   112.530   0.2% |
  Poisson:                                3252.802  1531.839   2.5% ||
   Communicate from 1D:                    187.272   187.272   0.3% |
   Communicate from 2D:                    321.239   321.239   0.5% |
   Communicate to 1D:                       74.619    74.619   0.1% |
   Communicate to 2D:                      331.844   331.844   0.5% |
   FFT 1D:                                 336.735   336.735   0.5% |
   FFT 2D:                                 469.255   469.255   0.8% |
  XC 3D grid:                            27593.954  8342.308  13.6% |----|
   VdW-DF integral:                      19251.646   258.921   0.4% |
    Convolution:                          3919.668  3919.668   6.4% |--|
    FFT:                                  1204.440  1204.440   2.0% ||
    gather:                               4878.737  4878.737   7.9% |--|
    hmm1:                                  773.172   773.172   1.3% ||
    hmm2:                                 1227.269  1227.269   2.0% ||
    iFFT:                                 1202.623  1202.623   2.0% ||
    potential:                            5786.790   187.186   0.3% |
     collect:                              480.760   480.760   0.8% |
     p1:                                  2527.446  2527.446   4.1% |-|
     p2:                                  1759.266  1759.266   2.9% ||
     sum:                                  832.132   832.132   1.4% ||
    splines:                                 0.025     0.025   0.0% |
  vbar:                                     30.881    30.881   0.1% |
 Orthonormalize:                            56.744     0.021   0.0% |
  calc_s_matrix:                            11.630    11.630   0.0% |
  inverse-cholesky:                          0.710     0.710   0.0% |
  projections:                              14.053    14.053   0.0% |
  rotate_psi_s:                             30.330    30.330   0.0% |
Set symmetry:                                0.003     0.003   0.0% |
Other:                                     378.636   378.636   0.6% |
-------------------------------------------------------------------
Total:                                             61544.876 100.0%

Memory usage: 1.50 GiB
Date: Sat Mar 11 04:11:45 2023
