
  ___ ___ ___ _ _ _  
 |   |   |_  | | | | 
 | | | | | . | | | | 
 |__ |  _|___|_____|  22.8.0
 |___|_|             

User:   vazumah@c08.hercules
Date:   Mon Mar  6 11:30:38 2023
Arch:   x86_64
Pid:    23793
CWD:    /home/vazumah/Python_projects/LiNRR/Li_adsorb_studies/proton_donors/N2_with_proton_donor/Li_BCC_100/adsorbates/methanol_z/ontop/9.702_9.702/N2_x
Python: 3.10.8
gpaw:   /home/vazumah/.conda/envs/GPAW/lib/python3.10/site-packages/gpaw
_gpaw:  /home/vazumah/.conda/envs/GPAW/lib/python3.10/site-packages/
        _gpaw.cpython-310-x86_64-linux-gnu.so
ase:    /home/vazumah/.conda/envs/GPAW/lib/python3.10/site-packages/ase (version 3.22.1)
numpy:  /home/vazumah/.conda/envs/GPAW/lib/python3.10/site-packages/numpy (version 1.24.1)
scipy:  /home/vazumah/.conda/envs/GPAW/lib/python3.10/site-packages/scipy (version 1.10.0)
libxc:  5.2.3
units:  Angstrom and eV
cores: 24
OpenMP: True
OMP_NUM_THREADS: 1

Input parameters:
  h: 0.16
  kpts: {size: [4, 4, 1]}
  occupations: {name: fermi-dirac,
                width: 0.05}
  poissonsolver: {dipolelayer: xy}
  xc: BEEF-vdW

System changes: positions, numbers, cell, pbc, initial_charges, initial_magmoms 

Initialize ...

species:
  Li:
    name: Lithium
    id: 830b4218f175192f93f959cfc0aad614
    Z: 3.0
    valence: 1
    core: 2
    charge: 0.0
    file: /home/vazumah/.conda/envs/GPAW/share/gpaw/Li.PBE.gz
    compensation charges: {type: gauss,
                           rc: 0.33,
                           lmax: 2}
    cutoffs: {filter: 1.91,
              core: 2.55}
    valence states:
      #              energy  rcut
      - 2s(1.00)    -2.874   1.058
      - 2p(0.00)    -1.090   1.058
      -  s          24.337   1.058
  
    # Using partial waves for Li as LCAO basis

  O:
    name: Oxygen
    id: 32ecd46bf208036f09c70b0ec9a88b78
    Z: 8.0
    valence: 6
    core: 2
    charge: 0.0
    file: /home/vazumah/.conda/envs/GPAW/share/gpaw/O.PBE.gz
    compensation charges: {type: gauss,
                           rc: 0.21,
                           lmax: 2}
    cutoffs: {filter: 1.17,
              core: 0.83}
    valence states:
      #              energy  rcut
      - 2s(2.00)   -23.961   0.688
      - 2p(4.00)    -9.029   0.598
      -  s           3.251   0.688
      -  p          18.182   0.598
      -  d           0.000   0.619
  
    # Using partial waves for O as LCAO basis

  C:
    name: Carbon
    id: 4aa54d4b901d75f77cc0ea3eec22967b
    Z: 6.0
    valence: 4
    core: 2
    charge: 0.0
    file: /home/vazumah/.conda/envs/GPAW/share/gpaw/C.PBE.gz
    compensation charges: {type: gauss,
                           rc: 0.20,
                           lmax: 2}
    cutoffs: {filter: 1.14,
              core: 1.14}
    valence states:
      #              energy  rcut
      - 2s(2.00)   -13.751   0.635
      - 2p(2.00)    -5.284   0.635
      -  s          13.461   0.635
      -  p          21.927   0.635
      -  d           0.000   0.635
  
    # Using partial waves for C as LCAO basis

  H:
    name: Hydrogen
    id: d65de229564ff8ea4db303e23b6d1ecf
    Z: 1.0
    valence: 1
    core: 0
    charge: 0.0
    file: /home/vazumah/.conda/envs/GPAW/share/gpaw/H.PBE.gz
    compensation charges: {type: gauss,
                           rc: 0.15,
                           lmax: 2}
    cutoffs: {filter: 0.85,
              core: 0.53}
    valence states:
      #              energy  rcut
      - 1s(1.00)    -6.494   0.476
      -  s          20.717   0.476
      -  p           0.000   0.476
  
    # Using partial waves for H as LCAO basis

  N:
    name: Nitrogen
    id: f7500608b86eaa90eef8b1d9a670dc53
    Z: 7.0
    valence: 5
    core: 2
    charge: 0.0
    file: /home/vazumah/.conda/envs/GPAW/share/gpaw/N.PBE.gz
    compensation charges: {type: gauss,
                           rc: 0.18,
                           lmax: 2}
    cutoffs: {filter: 1.11,
              core: 0.96}
    valence states:
      #              energy  rcut
      - 2s(2.00)   -18.583   0.603
      - 2p(3.00)    -7.089   0.529
      -  s           8.629   0.603
      -  p          20.123   0.529
      -  d           0.000   0.577
  
    # Using partial waves for N as LCAO basis

Reference energy: -13382.245603  # eV

Spin-paired calculation

Convergence criteria:
 Maximum [total energy] change in last 3 cyles: 0.0005 eV / electron
 Maximum integral of absolute [dens]ity change: 0.0001 electrons / valence electron
 Maximum integral of absolute [eigenst]ate change: 4e-08 eV^2 / valence electron
 Maximum number of scf [iter]ations: 333
 (Square brackets indicate name in SCF output, whereas a 'c' in
 the SCF output indicates the quantity has converged.)

Symmetries present (total): 1

  ( 1  0  0)
  ( 0  1  0)
  ( 0  0  1)

16 k-points: 4 x 4 x 1 Monkhorst-Pack grid
8 k-points in the irreducible part of the Brillouin zone
       k-points in crystal coordinates                weights
   0:     0.12500000   -0.37500000    0.00000000          2/16
   1:     0.12500000   -0.12500000    0.00000000          2/16
   2:     0.12500000    0.12500000    0.00000000          2/16
   3:     0.12500000    0.37500000    0.00000000          2/16
   4:     0.37500000   -0.37500000    0.00000000          2/16
   5:     0.37500000   -0.12500000    0.00000000          2/16
   6:     0.37500000    0.12500000    0.00000000          2/16
   7:     0.37500000    0.37500000    0.00000000          2/16

Wave functions: Uniform real-space grid
  Kinetic energy operator: 6*3+1=19 point O(h^6) finite-difference Laplacian
  ScaLapack parameters: grid=1x1, blocksize=None
  Wavefunction extrapolation:
    Improved wavefunction reuse through dual PAW basis 

Occupation numbers: Fermi-Dirac:
  width: 0.0500  # eV
 

Eigensolver
   Davidson(niter=2) 

Densities:
  Coarse grid: 60*60*168 grid
  Fine grid: 120*120*336 grid
  Total Charge: 0.000000 

Density mixing:
  Method: separate
  Backend: pulay
  Linear mixing parameter: 0.05
  old densities: 5
  Damping of long wavelength oscillations: 50 

Hamiltonian:
  XC and Coulomb potentials evaluated on a 120*120*336 grid
  Using the BEEF-vdW Exchange-Correlation functional
  Interpolation: tri-quintic (5. degree polynomial)
  Poisson solver: FastPoissonSolver using
    Stencil: 6*3+1=19 point O(h^6) finite-difference Laplacian
    FFT axes: [0, 1]
    FST axes: [2]

Dipole correction along z-axis 

XC parameters: BEEF-vdW with 2 nearest neighbor stencil

Memory estimate:
  Process memory now: 227.74 MiB
  Calculator: 413.38 MiB
    Density: 121.66 MiB
      Arrays: 39.61 MiB
      Localized functions: 66.95 MiB
      Mixer: 15.11 MiB
    Hamiltonian: 31.19 MiB
      Arrays: 25.90 MiB
      XC: 0.00 MiB
      Poisson: 0.00 MiB
      vbar: 5.29 MiB
    Wavefunctions: 260.53 MiB
      Arrays psit_nG: 120.85 MiB
      Eigensolver: 136.20 MiB
      Projections: 0.05 MiB
      Projectors: 3.43 MiB

Total number of cores used: 24
Parallelization over k-points: 8
Domain decomposition: 1 x 1 x 3

Number of atoms: 44
Number of atomic orbitals: 164
Number of bands in calculation: 40
Number of valence electrons: 60
Bands to converge: occupied

... initialized

Initializing position-dependent things.

Density initialized from atomic densities
Creating initial wave functions:
  40 bands from LCAO basis set

       .-----------------------.  
      /|                       |  
     / |                       |  
    /  |                       |  
   /   |                       |  
  /    |                       |  
 *     |                       |  
 |     |                       |  
 |     |H                   H  C  
 |     |                       |  
 |     |                       |  
 |     |                      H|  
 |     |                    N  N  
 |H    |                       |  
 |     |                       |  
 |     |                       |  
 O   Li|     Li      Li        |  
 |     |  Li      Li      Li   |  
 | Li  |   Li      Li          |  
 |     |Li      Li      Li     |  
 Li    | Li      Li            |  
 |   LLi     LLi     LLi       |  
 |     |  Li      Li      Li   |  
 | Li  |   Li      Li          |  
 |     |Li      Li      Li     |  
 Li    | Li      Li            |  
 |    Li      Li      Li       |  
 |     |                       |  
 |     |                       |  
 |     |                       |  
 |     |                       |  
 |     |                       |  
 |     |                       |  
 |     .-----------------------.  
 |    /                       /   
 |   /                       /    
 |  /                       /     
 | /                       /      
 |/                       /       
 *-----------------------*        

Positions:
   0 Li     1.617037    1.617037   10.000000    ( 0.0000,  0.0000,  0.0000)
   1 Li     4.851111    1.617037   10.000000    ( 0.0000,  0.0000,  0.0000)
   2 Li     8.085185    1.617037   10.000000    ( 0.0000,  0.0000,  0.0000)
   3 Li     1.617037    4.851111   10.000000    ( 0.0000,  0.0000,  0.0000)
   4 Li     4.851111    4.851111   10.000000    ( 0.0000,  0.0000,  0.0000)
   5 Li     8.085185    4.851111   10.000000    ( 0.0000,  0.0000,  0.0000)
   6 Li     1.617037    8.085185   10.000000    ( 0.0000,  0.0000,  0.0000)
   7 Li     4.851111    8.085185   10.000000    ( 0.0000,  0.0000,  0.0000)
   8 Li     8.085185    8.085185   10.000000    ( 0.0000,  0.0000,  0.0000)
   9 Li     0.000000    0.000000   11.617037    ( 0.0000,  0.0000,  0.0000)
  10 Li     3.234074    0.000000   11.617037    ( 0.0000,  0.0000,  0.0000)
  11 Li     6.468148    0.000000   11.617037    ( 0.0000,  0.0000,  0.0000)
  12 Li     0.000000    3.234074   11.617037    ( 0.0000,  0.0000,  0.0000)
  13 Li     3.234074    3.234074   11.617037    ( 0.0000,  0.0000,  0.0000)
  14 Li     6.468148    3.234074   11.617037    ( 0.0000,  0.0000,  0.0000)
  15 Li     0.000000    6.468148   11.617037    ( 0.0000,  0.0000,  0.0000)
  16 Li     3.234074    6.468148   11.617037    ( 0.0000,  0.0000,  0.0000)
  17 Li     6.468148    6.468148   11.617037    ( 0.0000,  0.0000,  0.0000)
  18 Li     1.617038    1.617038   13.469728    ( 0.0000,  0.0000,  0.0000)
  19 Li     4.851111    1.617038   13.469729    ( 0.0000,  0.0000,  0.0000)
  20 Li     8.085184    1.617038   13.469728    ( 0.0000,  0.0000,  0.0000)
  21 Li     1.617038    4.851111   13.469729    ( 0.0000,  0.0000,  0.0000)
  22 Li     4.851111    4.851111   13.469730    ( 0.0000,  0.0000,  0.0000)
  23 Li     8.085184    4.851111   13.469729    ( 0.0000,  0.0000,  0.0000)
  24 Li     1.617038    8.085184   13.469728    ( 0.0000,  0.0000,  0.0000)
  25 Li     4.851111    8.085184   13.469729    ( 0.0000,  0.0000,  0.0000)
  26 Li     8.085184    8.085184   13.469728    ( 0.0000,  0.0000,  0.0000)
  27 Li    -0.000000   -0.000000   15.445939    ( 0.0000,  0.0000,  0.0000)
  28 Li     3.234074    0.000000   15.445939    ( 0.0000,  0.0000,  0.0000)
  29 Li     6.468148    0.000000   15.445939    ( 0.0000,  0.0000,  0.0000)
  30 Li     0.000000    3.234074   15.445939    ( 0.0000,  0.0000,  0.0000)
  31 Li     3.234076    3.234076   15.445938    ( 0.0000,  0.0000,  0.0000)
  32 Li     6.468146    3.234076   15.445938    ( 0.0000,  0.0000,  0.0000)
  33 Li     0.000000    6.468148   15.445939    ( 0.0000,  0.0000,  0.0000)
  34 Li     3.234076    6.468146   15.445938    ( 0.0000,  0.0000,  0.0000)
  35 Li     6.468146    6.468146   15.445938    ( 0.0000,  0.0000,  0.0000)
  36 O      9.702222    9.702222   18.445939    ( 0.0000,  0.0000,  0.0000)
  37 C      9.696723    9.687148   19.875902    ( 0.0000,  0.0000,  0.0000)
  38 H     10.383872    8.937195   20.280173    ( 0.0000,  0.0000,  0.0000)
  39 H      8.694934    9.508739   20.279414    ( 0.0000,  0.0000,  0.0000)
  40 H     10.029651   10.672863   20.195346    ( 0.0000,  0.0000,  0.0000)
  41 H      9.411217    8.839093   18.134284    ( 0.0000,  0.0000,  0.0000)
  42 N      9.702000    9.702000   17.195939    ( 0.0000,  0.0000,  0.0000)
  43 N      8.605378    9.702000   17.195939    ( 0.0000,  0.0000,  0.0000)

Unit cell:
           periodic     x           y           z      points  spacing
  1. axis:    yes    9.702222    0.000000    0.000000    60     0.1617
  2. axis:    yes    0.000000    9.702222    0.000000    60     0.1617
  3. axis:    no     0.000000    0.000000   26.601111   168     0.1583

  Lengths:   9.702222   9.702222  26.601111
  Angles:   90.000000  90.000000  90.000000

Effective grid spacing dv^(1/3) = 0.1606

     iter     time        total  log10-change:
                         energy  eigst   dens
iter:   1 11:34:04  -452.376230
iter:   2 11:36:44  -128.431930  +2.48  -0.04
iter:   3 11:39:21  -131.162967  +3.32  -0.23
iter:   4 11:42:08  -202.326095  +2.86  -0.25
Writing to output.gpw (mode='')

iter:   5 11:44:59  -194.299395  +2.55  -0.29
iter:   6 11:47:40  -235.270319  +2.50  -0.67
iter:   7 11:50:12  -268.027424  +2.26  -0.70
iter:   8 11:52:48  -280.909210  +2.00  -0.63
iter:   9 11:55:37  -299.540252  +2.00  -0.64
Writing to output.gpw (mode='')

iter:  10 11:58:19  -286.367143  +1.67  -0.62
iter:  11 12:00:48  -274.460804  +1.48  -0.65
iter:  12 12:03:19  -280.600495  +1.11  -0.85
iter:  13 12:05:48  -279.355212  +1.49  -0.81
iter:  14 12:08:29  -276.052415  +0.53  -0.64
Writing to output.gpw (mode='')

iter:  15 12:11:05  -278.659767  +0.61  -0.74
iter:  16 12:13:43  -279.834128  +0.59  -0.67
iter:  17 12:16:20  -273.835306  +1.01  -0.66
iter:  18 12:18:52  -272.555244  +0.56  -0.86
iter:  19 12:21:33  -272.155702  +0.37  -0.88
Writing to output.gpw (mode='')

iter:  20 12:24:06  -270.126937  +0.51  -0.93
iter:  21 12:26:43  -270.267592  +0.89  -1.22
iter:  22 12:29:14  -270.381250  +0.49  -1.22
iter:  23 12:31:53  -270.385747  +0.18  -1.25
iter:  24 12:34:30  -270.338155  -0.24  -1.27
Writing to output.gpw (mode='')

iter:  25 12:37:04  -270.151022  -0.11  -1.29
iter:  26 12:39:38  -270.079221  -0.13  -1.36
iter:  27 12:42:18  -270.058540  -0.59  -1.54
iter:  28 12:44:52  -270.048118  -0.75  -1.63
iter:  29 12:47:29  -270.040043c -1.10  -1.71
Writing to output.gpw (mode='')

iter:  30 12:50:06  -270.025514c -1.19  -1.82
iter:  31 12:52:50  -270.026069c -1.58  -1.96
iter:  32 12:55:29  -270.029048c -1.22  -2.02
iter:  33 12:58:05  -270.032171c -1.21  -2.06
iter:  34 13:00:49  -270.021520c -1.63  -2.05
Writing to output.gpw (mode='')

iter:  35 13:03:22  -270.023228c -1.48  -2.38
iter:  36 13:05:49  -270.023978c -2.18  -2.57
iter:  37 13:08:26  -270.025453c -1.97  -2.56
iter:  38 13:11:01  -270.025419c -2.20  -2.51
iter:  39 13:13:37  -270.026292c -2.40  -2.65
Writing to output.gpw (mode='')

iter:  40 13:16:14  -270.026733c -2.29  -2.67
iter:  41 13:18:48  -270.027248c -2.36  -2.80
iter:  42 13:21:33  -270.027489c -2.77  -2.83
iter:  43 13:24:11  -270.028322c -2.72  -2.88
iter:  44 13:26:47  -270.028588c -2.62  -2.97
Writing to output.gpw (mode='')

iter:  45 13:29:19  -270.028605c -2.68  -2.99
iter:  46 13:31:59  -270.028844c -3.02  -3.12
iter:  47 13:34:42  -270.029142c -2.87  -3.16
iter:  48 13:37:16  -270.029252c -3.16  -3.45
iter:  49 13:39:51  -270.029404c -2.94  -3.50
Writing to output.gpw (mode='')

iter:  50 13:42:32  -270.029565c -3.09  -3.61
iter:  51 13:45:10  -270.029658c -3.13  -3.69
iter:  52 13:47:48  -270.029750c -3.11  -3.71
iter:  53 13:50:24  -270.029809c -3.23  -3.70
iter:  54 13:53:03  -270.029899c -3.24  -3.61
Writing to output.gpw (mode='')

iter:  55 13:55:50  -270.029950c -3.48  -3.62
iter:  56 13:58:32  -270.029991c -3.46  -3.62
iter:  57 14:01:06  -270.030063c -3.52  -3.58
iter:  58 14:03:42  -270.030092c -3.66  -3.63
iter:  59 14:06:23  -270.030147c -3.82  -3.54
Writing to output.gpw (mode='')

iter:  60 14:09:05  -270.030133c -4.02  -3.62
iter:  61 14:11:42  -270.030183c -3.92  -3.53
iter:  62 14:14:21  -270.030255c -3.92  -3.63
iter:  63 14:16:58  -270.030291c -4.01  -3.83
iter:  64 14:19:35  -270.030323c -3.90  -3.93
Writing to output.gpw (mode='')

iter:  65 14:22:11  -270.030333c -4.01  -4.02c
iter:  66 14:24:51  -270.030351c -4.32  -4.05c
iter:  67 14:27:35  -270.030350c -4.26  -4.07c
iter:  68 14:30:11  -270.030349c -4.26  -4.11c
iter:  69 14:32:49  -270.030358c -4.25  -4.22c
Writing to output.gpw (mode='')

iter:  70 14:35:19  -270.030366c -4.54  -4.42c
iter:  71 14:37:57  -270.030377c -4.39  -4.51c
iter:  72 14:40:30  -270.030379c -4.53  -4.60c
iter:  73 14:42:59  -270.030385c -4.46  -4.64c
iter:  74 14:45:26  -270.030388c -4.51  -4.70c
Writing to output.gpw (mode='')

iter:  75 14:47:59  -270.030391c -4.62  -4.72c
iter:  76 14:50:36  -270.030392c -4.85  -4.71c
iter:  77 14:53:06  -270.030393c -4.76  -4.67c
iter:  78 14:55:46  -270.030391c -4.88  -4.64c
iter:  79 14:58:23  -270.030392c -5.11  -4.58c
Writing to output.gpw (mode='')

iter:  80 15:00:52  -270.030394c -5.04  -4.56c
iter:  81 15:03:27  -270.030401c -5.11  -4.56c
iter:  82 15:05:59  -270.030400c -5.27  -4.61c
iter:  83 15:08:30  -270.030397c -5.36  -4.52c
iter:  84 15:11:08  -270.030398c -5.10  -4.53c
Writing to output.gpw (mode='')

iter:  85 15:13:42  -270.030398c -5.40  -4.53c
iter:  86 15:16:19  -270.030402c -5.31  -4.50c
iter:  87 15:18:52  -270.030407c -5.37  -4.56c
iter:  88 15:21:30  -270.030407c -5.63  -4.59c
iter:  89 15:24:04  -270.030409c -5.61  -4.59c
Writing to output.gpw (mode='')

iter:  90 15:26:39  -270.030409c -5.57  -4.59c
iter:  91 15:29:08  -270.030409c -5.58  -4.68c
iter:  92 15:31:39  -270.030408c -5.74  -4.87c
iter:  93 15:34:13  -270.030409c -5.83  -4.92c
iter:  94 15:36:48  -270.030410c -5.90  -4.96c
Writing to output.gpw (mode='')

iter:  95 15:39:31  -270.030409c -5.97  -5.04c
iter:  96 15:42:03  -270.030409c -6.07  -5.30c
iter:  97 15:44:38  -270.030409c -6.04  -5.36c
iter:  98 15:47:19  -270.030410c -6.18  -5.53c
iter:  99 15:49:57  -270.030409c -6.17  -5.57c
Writing to output.gpw (mode='')

iter: 100 15:52:31  -270.030410c -6.20  -5.59c
iter: 101 15:55:02  -270.030410c -6.30  -5.59c
iter: 102 15:57:32  -270.030409c -6.36  -5.60c
iter: 103 16:00:06  -270.030410c -6.42  -5.54c
iter: 104 16:02:57  -270.030410c -6.37  -5.60c
Writing to output.gpw (mode='')

iter: 105 16:05:31  -270.030410c -6.43  -5.55c
iter: 106 16:08:06  -270.030410c -6.26  -5.57c
iter: 107 16:10:45  -270.030409c -6.40  -5.59c
iter: 108 16:13:23  -270.030410c -6.71  -5.52c
iter: 109 16:15:55  -270.030410c -6.52  -5.52c
Writing to output.gpw (mode='')

iter: 110 16:18:33  -270.030410c -6.70  -5.53c
iter: 111 16:21:09  -270.030410c -6.72  -5.58c
iter: 112 16:23:51  -270.030410c -6.52  -5.52c
iter: 113 16:26:37  -270.030409c -6.87  -5.50c
iter: 114 16:29:18  -270.030410c -6.90  -5.40c
Writing to output.gpw (mode='')

iter: 115 16:31:59  -270.030410c -6.77  -5.53c
iter: 116 16:34:34  -270.030410c -6.81  -5.70c
iter: 117 16:37:23  -270.030410c -6.81  -5.78c
iter: 118 16:40:07  -270.030410c -6.97  -5.85c
iter: 119 16:42:45  -270.030410c -6.98  -5.89c
Writing to output.gpw (mode='')

iter: 120 16:45:31  -270.030410c -7.02  -6.05c
iter: 121 16:48:09  -270.030410c -7.12  -6.14c
iter: 122 16:50:48  -270.030410c -7.10  -6.05c
iter: 123 16:53:23  -270.030410c -7.25  -6.06c
iter: 124 16:56:00  -270.030410c -7.16  -6.12c
Writing to output.gpw (mode='')

iter: 125 16:58:31  -270.030410c -7.44c -6.17c

Converged after 125 iterations.

Dipole moment: (-12.054572, -13.014623, 0.537695) |e|*Ang

Energy contributions relative to reference atoms: (reference = -13382.245603)

Kinetic:       +189.323864
Potential:     -160.379628
External:        +0.000000
XC:            -299.569308
Entropy (-ST):   -0.158820
Local:           +0.674072
--------------------------
Free energy:   -270.109819
Extrapolated:  -270.030410

Dipole-layer corrected work functions: 3.370063, 2.336430 eV

Showing only first 2 kpts
 Kpt  Band  Eigenvalues  Occupancy
  0    28     -3.10139    1.98611
  0    29     -3.00304    1.90478
  0    30     -2.73358    0.16737
  0    31     -2.63170    0.02353

  1    28     -2.91479    1.54795
  1    29     -2.87195    1.18484
  1    30     -2.79769    0.49530
  1    31     -2.75286    0.23679


Fermi level: -2.85325

Gap: 0.027 eV
Transition (v -> c):
  (s=0, k=7, n=29, [0.38, 0.38, 0.00]) -> (s=0, k=4, n=30, [0.38, -0.38, 0.00])

Forces in eV/Ang:
  0 Li    0.01538    0.00351   -0.27664
  1 Li   -0.00908   -0.00442   -0.26519
  2 Li   -0.00550    0.01230   -0.27348
  3 Li   -0.00465   -0.00012   -0.26643
  4 Li    0.00055   -0.00038   -0.27973
  5 Li    0.00132    0.00152   -0.26521
  6 Li    0.01428   -0.00269   -0.27680
  7 Li   -0.00735    0.00553   -0.26845
  8 Li   -0.00484   -0.01405   -0.27792
  9 Li   -0.00452    0.00075    0.34063
 10 Li    0.00194    0.00174    0.24415
 11 Li   -0.00096    0.00088    0.28148
 12 Li   -0.00068    0.01789    0.26477
 13 Li    0.00962   -0.00959    0.25882
 14 Li   -0.00496    0.00574    0.26370
 15 Li    0.00021   -0.01857    0.25775
 16 Li    0.00134    0.00675    0.26342
 17 Li    0.00042   -0.00503    0.26941
 18 Li   -0.00019    0.00773   -0.00752
 19 Li    0.01356   -0.02088    0.06765
 20 Li   -0.00978    0.03370   -0.07743
 21 Li    0.00507    0.00060    0.04797
 22 Li   -0.00956   -0.00169    0.00648
 23 Li    0.00270   -0.00320    0.06690
 24 Li   -0.00164   -0.00963   -0.00804
 25 Li    0.00587    0.02058    0.06303
 26 Li    0.00202   -0.02920   -0.06694
 27 Li    0.20834    0.03534   -1.88117
 28 Li    0.03424    0.00196   -0.04090
 29 Li    0.28446   -0.00664    0.24980
 30 Li    0.02545    0.09844   -0.05001
 31 Li    0.00628   -0.00159   -0.02233
 32 Li   -0.04068    0.04792   -0.03111
 33 Li    0.01562   -0.12913   -0.07818
 34 Li    0.00303    0.00150   -0.02083
 35 Li   -0.02487   -0.05432   -0.01378
 36 O     8.29195   -2.68712   22.37631
 37 C     1.81965    0.97945    4.31839
 38 H    -0.01763    0.03464   -0.06299
 39 H    -0.08998   -0.02478   -0.68672
 40 H     0.02744    0.00826    0.11779
 41 H    -0.72822   -3.36393    4.67257
 42 N     9.19663    4.67272  -15.39760
 43 N   -19.01714    0.39209  -13.54441

System changes: positions 

Initializing position-dependent things.

Density initialized from wave functions
       .-----------------------.  
      /|                       |  
     / |                       |  
    /  |                       |  
   /   |                       |  
  /    |                       |  
 *     |                       |  
 |     |                       |  
 |     |H                   H  C  
 |     |                       |  
 |     O                       |  
 |     |                      H|  
 |     |                       |  
 |H    |                       |  
 |     |               Li      |  
 |     |                       |  
 |   Li|     Li      Li        |  
 |     |  Li      Li      Li   |  
 N Li  |   Li      Li N        |  
 |     |Li      Li      Li     |  
 Li    | Li                    |  
 |   LLi     LLi     LLi       |  
 |     |  Li      Li      Li   |  
 | Li  |   Li      Li          |  
 |     |Li      Li      Li     |  
 Li    | Li      Li            |  
 |    Li      Li      Li       |  
 |     |                       |  
 |     |                       |  
 |     |                       |  
 |     |                       |  
 |     |                       |  
 |     |                       |  
 |     .-----------------------.  
 |    /                       /   
 |   /                       /    
 |  /                       /     
 | /                       /      
 |/                       /       
 *-----------------------*        

Positions:
   0 Li     1.617037    1.617037   10.000000    ( 0.0000,  0.0000,  0.0000)
   1 Li     4.851111    1.617037   10.000000    ( 0.0000,  0.0000,  0.0000)
   2 Li     8.085185    1.617037   10.000000    ( 0.0000,  0.0000,  0.0000)
   3 Li     1.617037    4.851111   10.000000    ( 0.0000,  0.0000,  0.0000)
   4 Li     4.851111    4.851111   10.000000    ( 0.0000,  0.0000,  0.0000)
   5 Li     8.085185    4.851111   10.000000    ( 0.0000,  0.0000,  0.0000)
   6 Li     1.617037    8.085185   10.000000    ( 0.0000,  0.0000,  0.0000)
   7 Li     4.851111    8.085185   10.000000    ( 0.0000,  0.0000,  0.0000)
   8 Li     8.085185    8.085185   10.000000    ( 0.0000,  0.0000,  0.0000)
   9 Li     0.000000    0.000000   11.617037    ( 0.0000,  0.0000,  0.0000)
  10 Li     3.234074    0.000000   11.617037    ( 0.0000,  0.0000,  0.0000)
  11 Li     6.468148    0.000000   11.617037    ( 0.0000,  0.0000,  0.0000)
  12 Li     0.000000    3.234074   11.617037    ( 0.0000,  0.0000,  0.0000)
  13 Li     3.234074    3.234074   11.617037    ( 0.0000,  0.0000,  0.0000)
  14 Li     6.468148    3.234074   11.617037    ( 0.0000,  0.0000,  0.0000)
  15 Li     0.000000    6.468148   11.617037    ( 0.0000,  0.0000,  0.0000)
  16 Li     3.234074    6.468148   11.617037    ( 0.0000,  0.0000,  0.0000)
  17 Li     6.468148    6.468148   11.617037    ( 0.0000,  0.0000,  0.0000)
  18 Li     1.617038    1.617051   13.469715    ( 0.0000,  0.0000,  0.0000)
  19 Li     4.851134    1.617004   13.469842    ( 0.0000,  0.0000,  0.0000)
  20 Li     8.085168    1.617094   13.469599    ( 0.0000,  0.0000,  0.0000)
  21 Li     1.617047    4.851112   13.469809    ( 0.0000,  0.0000,  0.0000)
  22 Li     4.851095    4.851108   13.469741    ( 0.0000,  0.0000,  0.0000)
  23 Li     8.085188    4.851106   13.469841    ( 0.0000,  0.0000,  0.0000)
  24 Li     1.617035    8.085168   13.469714    ( 0.0000,  0.0000,  0.0000)
  25 Li     4.851121    8.085218   13.469834    ( 0.0000,  0.0000,  0.0000)
  26 Li     8.085187    8.085135   13.469616    ( 0.0000,  0.0000,  0.0000)
  27 Li     0.000347    0.000059   15.442806    ( 0.0000,  0.0000,  0.0000)
  28 Li     3.234131    0.000003   15.445871    ( 0.0000,  0.0000,  0.0000)
  29 Li     6.468622   -0.000011   15.446355    ( 0.0000,  0.0000,  0.0000)
  30 Li     0.000042    3.234238   15.445856    ( 0.0000,  0.0000,  0.0000)
  31 Li     3.234087    3.234074   15.445901    ( 0.0000,  0.0000,  0.0000)
  32 Li     6.468078    3.234156   15.445886    ( 0.0000,  0.0000,  0.0000)
  33 Li     0.000026    6.467933   15.445809    ( 0.0000,  0.0000,  0.0000)
  34 Li     3.234081    6.468148   15.445903    ( 0.0000,  0.0000,  0.0000)
  35 Li     6.468104    6.468055   15.445915    ( 0.0000,  0.0000,  0.0000)
  36 O      9.716034    9.697746   18.483211    ( 0.0000,  0.0000,  0.0000)
  37 C      9.699754    9.688780   19.883095    ( 0.0000,  0.0000,  0.0000)
  38 H     10.383843    8.937253   20.280068    ( 0.0000,  0.0000,  0.0000)
  39 H      8.694784    9.508698   20.278270    ( 0.0000,  0.0000,  0.0000)
  40 H     10.029697   10.672877   20.195542    ( 0.0000,  0.0000,  0.0000)
  41 H      9.410004    8.833490   18.142067    ( 0.0000,  0.0000,  0.0000)
  42 N      9.717319    9.709783   17.170292    ( 0.0000,  0.0000,  0.0000)
  43 N      8.573701    9.702653   17.173379    ( 0.0000,  0.0000,  0.0000)

Unit cell:
           periodic     x           y           z      points  spacing
  1. axis:    yes    9.702222    0.000000    0.000000    60     0.1617
  2. axis:    yes    0.000000    9.702222    0.000000    60     0.1617
  3. axis:    no     0.000000    0.000000   26.601111   168     0.1583

  Lengths:   9.702222   9.702222  26.601111
  Angles:   90.000000  90.000000  90.000000

Effective grid spacing dv^(1/3) = 0.1606

     iter     time        total  log10-change:
                         energy  eigst   dens
iter:   1 17:01:52  -273.495132  -0.05
iter:   2 17:04:30  -272.624324  -0.10  -1.23
iter:   3 17:06:57  -272.403931  -0.72  -1.25
iter:   4 17:09:32  -272.360440  -0.45  -1.47
Writing to output.gpw (mode='')

iter:   5 17:12:19  -272.230903  -1.06  -1.62
iter:   6 17:15:01  -272.499039  -0.55  -1.93
iter:   7 17:17:38  -272.294924  -0.92  -1.42
iter:   8 17:20:13  -272.196056  -1.51  -1.83
iter:   9 17:22:52  -272.188024  -1.45  -2.08
Writing to output.gpw (mode='')

iter:  10 17:25:35  -272.185587c -1.94  -2.09
iter:  11 17:28:13  -272.184315c -2.07  -2.39
iter:  12 17:30:43  -272.185354c -2.42  -2.46
iter:  13 17:33:11  -272.182298c -2.83  -2.47
iter:  14 17:35:50  -272.182721c -2.84  -2.73
Writing to output.gpw (mode='')

iter:  15 17:38:31  -272.182195c -3.01  -2.83
iter:  16 17:41:05  -272.182598c -3.39  -2.95
iter:  17 17:43:35  -272.182452c -3.76  -3.01
iter:  18 17:46:05  -272.182473c -3.73  -3.14
iter:  19 17:48:38  -272.182607c -3.86  -3.29
Writing to output.gpw (mode='')

iter:  20 17:51:18  -272.182598c -4.07  -3.25
iter:  21 17:53:53  -272.182535c -4.12  -3.26
iter:  22 17:56:23  -272.182587c -4.17  -3.49
iter:  23 17:58:53  -272.182576c -4.19  -3.66
iter:  24 18:01:48  -272.182585c -4.71  -3.78
Writing to output.gpw (mode='')

iter:  25 18:04:25  -272.182585c -4.88  -3.82
iter:  26 18:06:56  -272.182604c -4.83  -3.87
iter:  27 18:09:34  -272.182596c -4.99  -3.97
iter:  28 18:12:08  -272.182587c -4.96  -4.02c
iter:  29 18:14:45  -272.182592c -5.07  -4.00c
Writing to output.gpw (mode='')

iter:  30 18:17:20  -272.182602c -5.08  -4.25c
iter:  31 18:19:51  -272.182599c -5.39  -4.47c
iter:  32 18:22:28  -272.182601c -5.26  -4.49c
iter:  33 18:25:05  -272.182602c -5.58  -4.57c
iter:  34 18:27:44  -272.182602c -5.67  -4.70c
Writing to output.gpw (mode='')

iter:  35 18:30:18  -272.182602c -5.66  -4.78c
iter:  36 18:32:51  -272.182602c -5.67  -4.79c
iter:  37 18:35:24  -272.182603c -5.89  -4.81c
iter:  38 18:37:57  -272.182603c -5.99  -4.81c
iter:  39 18:40:37  -272.182602c -6.05  -4.82c
Writing to output.gpw (mode='')

iter:  40 18:43:09  -272.182604c -6.18  -4.90c
iter:  41 18:45:48  -272.182604c -6.12  -4.93c
iter:  42 18:48:22  -272.182604c -6.44  -5.19c
iter:  43 18:51:05  -272.182604c -6.18  -5.28c
iter:  44 18:53:48  -272.182604c -6.48  -5.53c
Writing to output.gpw (mode='')

iter:  45 18:56:25  -272.182604c -6.57  -5.53c
iter:  46 18:59:04  -272.182604c -6.57  -5.52c
iter:  47 19:01:32  -272.182604c -6.63  -5.62c
iter:  48 19:04:12  -272.182604c -6.80  -5.74c
iter:  49 19:06:49  -272.182604c -6.92  -5.74c
Writing to output.gpw (mode='')

iter:  50 19:09:21  -272.182604c -6.94  -5.73c
iter:  51 19:12:04  -272.182604c -7.05  -5.71c
iter:  52 19:14:44  -272.182604c -7.04  -5.59c
iter:  53 19:17:07  -272.182604c -7.12  -5.69c
iter:  54 19:19:45  -272.182604c -7.16  -5.60c
Writing to output.gpw (mode='')

iter:  55 19:22:12  -272.182604c -7.29  -5.52c
iter:  56 19:24:51  -272.182604c -7.31  -5.68c
iter:  57 19:27:31  -272.182604c -7.15  -5.69c
iter:  58 19:30:03  -272.182604c -7.11  -5.77c
iter:  59 19:32:34  -272.182604c -7.43c -5.78c

Converged after 59 iterations.

Dipole moment: (-15.008356, -13.633733, 0.504611) |e|*Ang

Energy contributions relative to reference atoms: (reference = -13382.245603)

Kinetic:       +176.768501
Potential:     -151.824305
External:        +0.000000
XC:            -297.726145
Entropy (-ST):   -0.159909
Local:           +0.679300
--------------------------
Free energy:   -272.262559
Extrapolated:  -272.182604

Dipole-layer corrected work functions: 3.374151, 2.404116 eV

Showing only first 2 kpts
 Kpt  Band  Eigenvalues  Occupancy
  0    28     -3.13551    1.98562
  0    29     -3.03313    1.89369
  0    30     -2.79145    0.24830
  0    31     -2.65896    0.01983

  1    28     -2.95835    1.59936
  1    29     -2.90361    1.14373
  1    30     -2.82207    0.41462
  1    31     -2.78424    0.21862


Fermi level: -2.88913

Gap: 0.029 eV
Transition (v -> c):
  (s=0, k=1, n=29, [0.12, -0.12, 0.00]) -> (s=0, k=4, n=30, [0.38, -0.38, 0.00])
Writing to output.gpw (mode='')


Forces in eV/Ang:
  0 Li    0.01631    0.00360   -0.27807
  1 Li   -0.00945   -0.00488   -0.26439
  2 Li   -0.00579    0.01294   -0.27538
  3 Li   -0.00490    0.00030   -0.26563
  4 Li    0.00033    0.00000   -0.28114
  5 Li    0.00173    0.00164   -0.26432
  6 Li    0.01546   -0.00332   -0.27801
  7 Li   -0.00809    0.00555   -0.26827
  8 Li   -0.00508   -0.01483   -0.27901
  9 Li   -0.00422    0.00034    0.34588
 10 Li    0.00236    0.00151    0.24347
 11 Li   -0.00213    0.00083    0.28235
 12 Li   -0.00069    0.01706    0.26555
 13 Li    0.00892   -0.00811    0.25869
 14 Li   -0.00395    0.00685    0.26425
 15 Li   -0.00007   -0.01744    0.25748
 16 Li    0.00190    0.00562    0.26128
 17 Li    0.00028   -0.00606    0.26925
 18 Li    0.00253    0.00904   -0.01652
 19 Li    0.01265   -0.02135    0.06802
 20 Li   -0.01212    0.03451   -0.08791
 21 Li    0.00155    0.00100    0.05248
 22 Li   -0.00921   -0.00228    0.00583
 23 Li    0.00494   -0.00246    0.07075
 24 Li    0.00060   -0.01110   -0.01421
 25 Li    0.00585    0.02155    0.06380
 26 Li   -0.00051   -0.03090   -0.07727
 27 Li    0.21136    0.03164   -2.10796
 28 Li    0.03126    0.00118   -0.03751
 29 Li    0.30715   -0.00570    0.28345
 30 Li    0.02424    0.08753   -0.03775
 31 Li    0.00855    0.00224   -0.02456
 32 Li   -0.04211    0.04804   -0.02842
 33 Li    0.01604   -0.12181   -0.07645
 34 Li    0.00490   -0.00147   -0.02387
 35 Li   -0.02815   -0.05529   -0.01521
 36 O     6.28915   -3.13667   16.68197
 37 C     1.50312    0.85508    4.13910
 38 H     0.05229   -0.02198    0.13572
 39 H    -0.06033   -0.00307   -0.51422
 40 H     0.07369    0.13500    0.28760
 41 H    -0.53666   -2.18011    4.11265
 42 N     3.24274    4.10464  -11.94315
 43 N   -11.05269    0.24255  -10.84702

System changes: positions 

Initializing position-dependent things.

Density initialized from wave functions
       .-----------------------.  
      /|                       |  
     / |                       |  
    /  |                       |  
   /   |                       |  
  /    |                       |  
 *     |                       |  
 |     |                       |  
 |     CH                   H  |  
 |     |                       |  
 |     O                       |  
 |     |                      H|  
 |     |                       |  
 |H    |                       |  
 |     |               Li      |  
 |     |                       |  
 |   Li|     Li      Li        |  
 |     |  Li      Li      Li   |  
 | Li  |   Li      Li N  N     |  
 |     |Li      Li      Li     |  
 Li    | Li                    |  
 |   LLi     LLi     LLi       |  
 |     |  Li      Li      Li   |  
 | Li  |   Li      Li          |  
 |     |Li      Li      Li     |  
 Li    | Li      Li            |  
 |    Li      Li      Li       |  
 |     |                       |  
 |     |                       |  
 |     |                       |  
 |     |                       |  
 |     |                       |  
 |     |                       |  
 |     .-----------------------.  
 |    /                       /   
 |   /                       /    
 |  /                       /     
 | /                       /      
 |/                       /       
 *-----------------------*        

Positions:
   0 Li     1.617037    1.617037   10.000000    ( 0.0000,  0.0000,  0.0000)
   1 Li     4.851111    1.617037   10.000000    ( 0.0000,  0.0000,  0.0000)
   2 Li     8.085185    1.617037   10.000000    ( 0.0000,  0.0000,  0.0000)
   3 Li     1.617037    4.851111   10.000000    ( 0.0000,  0.0000,  0.0000)
   4 Li     4.851111    4.851111   10.000000    ( 0.0000,  0.0000,  0.0000)
   5 Li     8.085185    4.851111   10.000000    ( 0.0000,  0.0000,  0.0000)
   6 Li     1.617037    8.085185   10.000000    ( 0.0000,  0.0000,  0.0000)
   7 Li     4.851111    8.085185   10.000000    ( 0.0000,  0.0000,  0.0000)
   8 Li     8.085185    8.085185   10.000000    ( 0.0000,  0.0000,  0.0000)
   9 Li     0.000000    0.000000   11.617037    ( 0.0000,  0.0000,  0.0000)
  10 Li     3.234074    0.000000   11.617037    ( 0.0000,  0.0000,  0.0000)
  11 Li     6.468148    0.000000   11.617037    ( 0.0000,  0.0000,  0.0000)
  12 Li     0.000000    3.234074   11.617037    ( 0.0000,  0.0000,  0.0000)
  13 Li     3.234074    3.234074   11.617037    ( 0.0000,  0.0000,  0.0000)
  14 Li     6.468148    3.234074   11.617037    ( 0.0000,  0.0000,  0.0000)
  15 Li     0.000000    6.468148   11.617037    ( 0.0000,  0.0000,  0.0000)
  16 Li     3.234074    6.468148   11.617037    ( 0.0000,  0.0000,  0.0000)
  17 Li     6.468148    6.468148   11.617037    ( 0.0000,  0.0000,  0.0000)
  18 Li     1.617061    1.617092   13.469608    ( 0.0000,  0.0000,  0.0000)
  19 Li     4.851177    1.616921   13.470101    ( 0.0000,  0.0000,  0.0000)
  20 Li     8.085110    1.617229   13.469214    ( 0.0000,  0.0000,  0.0000)
  21 Li     1.617035    4.851118   13.470030    ( 0.0000,  0.0000,  0.0000)
  22 Li     4.851062    4.851097   13.469760    ( 0.0000,  0.0000,  0.0000)
  23 Li     8.085218    4.851100   13.470128    ( 0.0000,  0.0000,  0.0000)
  24 Li     1.617049    8.085119   13.469630    ( 0.0000,  0.0000,  0.0000)
  25 Li     4.851143    8.085304   13.470080    ( 0.0000,  0.0000,  0.0000)
  26 Li     8.085173    8.085010   13.469273    ( 0.0000,  0.0000,  0.0000)
  27 Li     0.001162    0.000160   15.433704    ( 0.0000,  0.0000,  0.0000)
  28 Li     3.234234    0.000004   15.445746    ( 0.0000,  0.0000,  0.0000)
  29 Li     6.469897   -0.000028   15.447594    ( 0.0000,  0.0000,  0.0000)
  30 Li     0.000128    3.234515   15.445774    ( 0.0000,  0.0000,  0.0000)
  31 Li     3.234131    3.234101   15.445797    ( 0.0000,  0.0000,  0.0000)
  32 Li     6.467911    3.234339   15.445792    ( 0.0000,  0.0000,  0.0000)
  33 Li     0.000089    6.467509   15.445528    ( 0.0000,  0.0000,  0.0000)
  34 Li     3.234109    6.468128   15.445798    ( 0.0000,  0.0000,  0.0000)
  35 Li     6.467981    6.467841   15.445850    ( 0.0000,  0.0000,  0.0000)
  36 O      9.729863    9.683645   18.517995    ( 0.0000,  0.0000,  0.0000)
  37 C      9.703865    9.691396   19.897861    ( 0.0000,  0.0000,  0.0000)
  38 H     10.384389    8.936888   20.281570    ( 0.0000,  0.0000,  0.0000)
  39 H      8.694703    9.508794   20.277183    ( 0.0000,  0.0000,  0.0000)
  40 H     10.030206   10.674018   20.197474    ( 0.0000,  0.0000,  0.0000)
  41 H      9.408927    8.831131   18.154840    ( 0.0000,  0.0000,  0.0000)
  42 N      9.699973    9.722485   17.142294    ( 0.0000,  0.0000,  0.0000)
  43 N      8.571504    9.702827   17.145762    ( 0.0000,  0.0000,  0.0000)

Unit cell:
           periodic     x           y           z      points  spacing
  1. axis:    yes    9.702222    0.000000    0.000000    60     0.1617
  2. axis:    yes    0.000000    9.702222    0.000000    60     0.1617
  3. axis:    no     0.000000    0.000000   26.601111   168     0.1583

  Lengths:   9.702222   9.702222  26.601111
  Angles:   90.000000  90.000000  90.000000

Effective grid spacing dv^(1/3) = 0.1606

     iter     time        total  log10-change:
                         energy  eigst   dens
iter:   1 19:35:46  -273.870303  -0.40
iter:   2 19:38:17  -273.696485  -0.47  -1.41
iter:   3 19:40:58  -273.643060  -1.11  -1.54
iter:   4 19:43:36  -273.630832  -0.71  -1.92
Writing to output.gpw (mode='')

iter:   5 19:46:11  -273.654601c -1.05  -1.77
iter:   6 19:48:50  -273.934689  -0.43  -1.93
iter:   7 19:51:37  -273.714964  -1.32  -1.53
iter:   8 19:54:10  -273.583084  -0.64  -1.73
iter:   9 19:56:39  -273.599235  -1.46  -2.21
Writing to output.gpw (mode='')

iter:  10 19:59:19  -273.613532  -2.07  -2.17
iter:  11 20:02:02  -273.593360c -1.15  -2.04
iter:  12 20:04:36  -273.593273c -2.06  -2.07
iter:  13 20:07:12  -273.587800c -2.49  -2.38
iter:  14 20:09:41  -273.587007c -2.10  -2.58
Writing to output.gpw (mode='')

iter:  15 20:12:10  -273.587085c -2.43  -2.56
iter:  16 20:14:44  -273.587672c -2.51  -2.76
iter:  17 20:17:10  -273.587823c -2.98  -2.85
iter:  18 20:19:41  -273.587769c -3.12  -2.86
iter:  19 20:22:14  -273.587717c -3.21  -3.14
Writing to output.gpw (mode='')

iter:  20 20:24:52  -273.587777c -3.58  -3.32
iter:  21 20:27:30  -273.587807c -3.53  -3.40
iter:  22 20:29:55  -273.587810c -3.52  -3.38
iter:  23 20:32:23  -273.587939c -3.69  -3.47
iter:  24 20:35:00  -273.587936c -3.91  -3.59
Writing to output.gpw (mode='')

iter:  25 20:37:40  -273.587964c -3.87  -3.70
iter:  26 20:40:15  -273.587987c -4.23  -3.71
iter:  27 20:42:44  -273.588023c -4.16  -3.83
iter:  28 20:45:12  -273.588026c -4.37  -3.94
iter:  29 20:47:50  -273.588040c -4.34  -3.97
Writing to output.gpw (mode='')

iter:  30 20:50:35  -273.588059c -4.51  -4.01c
iter:  31 20:53:18  -273.588053c -4.60  -4.09c
iter:  32 20:55:48  -273.588057c -4.74  -4.34c
iter:  33 20:58:28  -273.588064c -4.77  -4.35c
iter:  34 21:01:04  -273.588073c -4.81  -4.39c
Writing to output.gpw (mode='')

iter:  35 21:03:46  -273.588080c -5.04  -4.40c
iter:  36 21:06:22  -273.588086c -5.11  -4.52c
iter:  37 21:08:53  -273.588078c -5.08  -4.72c
iter:  38 21:11:23  -273.588083c -5.35  -4.58c
iter:  39 21:13:59  -273.588088c -5.21  -4.66c
Writing to output.gpw (mode='')

iter:  40 21:16:40  -273.588090c -5.31  -4.77c
iter:  41 21:19:09  -273.588092c -5.26  -4.77c
iter:  42 21:21:41  -273.588092c -5.52  -4.75c
iter:  43 21:24:13  -273.588094c -5.57  -4.77c
iter:  44 21:26:40  -273.588088c -5.78  -4.77c
Writing to output.gpw (mode='')

iter:  45 21:29:16  -273.588089c -5.70  -4.49c
iter:  46 21:31:45  -273.588090c -5.81  -4.57c
iter:  47 21:34:17  -273.588089c -5.91  -4.56c
iter:  48 21:37:01  -273.588094c -5.74  -4.51c
iter:  49 21:39:34  -273.588092c -5.95  -4.50c
Writing to output.gpw (mode='')

iter:  50 21:42:16  -273.588096c -5.94  -4.43c
iter:  51 21:44:42  -273.588094c -6.12  -4.51c
iter:  52 21:47:12  -273.588098c -6.26  -4.45c
iter:  53 21:49:54  -273.588100c -6.22  -4.57c
iter:  54 21:52:35  -273.588112c -6.04  -4.58c
Writing to output.gpw (mode='')

iter:  55 21:55:13  -273.588111c -6.36  -4.73c
iter:  56 21:57:36  -273.588112c -6.38  -4.80c
iter:  57 22:00:15  -273.588113c -6.63  -4.90c
iter:  58 22:03:00  -273.588113c -6.55  -4.93c
iter:  59 22:05:45  -273.588111c -6.68  -5.08c
Writing to output.gpw (mode='')

iter:  60 22:08:16  -273.588112c -6.73  -5.15c
iter:  61 22:10:44  -273.588112c -6.45  -5.19c
iter:  62 22:13:27  -273.588113c -6.85  -5.23c
iter:  63 22:16:14  -273.588112c -6.91  -5.32c
iter:  64 22:18:50  -273.588112c -6.89  -5.48c
Writing to output.gpw (mode='')

iter:  65 22:21:18  -273.588112c -7.20  -5.55c
iter:  66 22:23:58  -273.588112c -7.22  -5.57c
iter:  67 22:26:25  -273.588112c -7.11  -5.56c
iter:  68 22:29:04  -273.588112c -7.38  -5.46c
iter:  69 22:31:41  -273.588112c -7.39  -5.48c
Writing to output.gpw (mode='')

iter:  70 22:34:20  -273.588112c -7.21  -5.43c
iter:  71 22:36:50  -273.588112c -7.26  -5.47c
iter:  72 22:39:23  -273.588114c -7.41c -5.44c

Converged after 72 iterations.

Dipole moment: (-14.630621, -13.792644, 0.480831) |e|*Ang

Energy contributions relative to reference atoms: (reference = -13382.245603)

Kinetic:       +176.049535
Potential:     -152.539910
External:        +0.000000
XC:            -297.701713
Entropy (-ST):   -0.157403
Local:           +0.682676
--------------------------
Free energy:   -273.666815
Extrapolated:  -273.588114

Dipole-layer corrected work functions: 3.374639, 2.450318 eV

Showing only first 2 kpts
 Kpt  Band  Eigenvalues  Occupancy
  0    28     -3.16428    1.98709
  0    29     -3.05936    1.89936
  0    30     -2.80091    0.19392
  0    31     -2.67829    0.01832

  1    28     -2.97895    1.58152
  1    29     -2.92828    1.15670
  1    30     -2.84649    0.42169
  1    31     -2.81790    0.26215


Fermi level: -2.91248

Gap: 0.027 eV
Transition (v -> c):
  (s=0, k=1, n=29, [0.12, -0.12, 0.00]) -> (s=0, k=4, n=30, [0.38, -0.38, 0.00])
Writing to output.gpw (mode='')


Forces in eV/Ang:
  0 Li    0.01618    0.00354   -0.27730
  1 Li   -0.00918   -0.00502   -0.26308
  2 Li   -0.00596    0.01402   -0.27491
  3 Li   -0.00577    0.00053   -0.26501
  4 Li    0.00108   -0.00001   -0.28178
  5 Li    0.00183    0.00175   -0.26448
  6 Li    0.01531   -0.00330   -0.27733
  7 Li   -0.00791    0.00562   -0.26726
  8 Li   -0.00493   -0.01608   -0.27835
  9 Li   -0.00453    0.00049    0.34711
 10 Li    0.00338    0.00152    0.24373
 11 Li   -0.00315    0.00059    0.28026
 12 Li   -0.00017    0.01778    0.26403
 13 Li    0.00956   -0.00809    0.25804
 14 Li   -0.00484    0.00832    0.26236
 15 Li    0.00065   -0.01852    0.25481
 16 Li    0.00175    0.00532    0.26127
 17 Li   -0.00043   -0.00702    0.26652
 18 Li    0.00260    0.01061   -0.01594
 19 Li    0.01450   -0.02047    0.07033
 20 Li   -0.01469    0.03590   -0.08843
 21 Li    0.00253    0.00005    0.05229
 22 Li   -0.01043   -0.00230    0.00437
 23 Li    0.00535   -0.00203    0.07025
 24 Li   -0.00102   -0.01196   -0.01109
 25 Li    0.00810    0.02072    0.06600
 26 Li   -0.00265   -0.03360   -0.07854
 27 Li    0.29082    0.01297   -2.45887
 28 Li    0.03503    0.00059   -0.03685
 29 Li    0.24575   -0.00531    0.23939
 30 Li    0.02411    0.09152   -0.04358
 31 Li    0.00802    0.00217   -0.02446
 32 Li   -0.04183    0.04702   -0.03183
 33 Li    0.01818   -0.12653   -0.08436
 34 Li    0.00353   -0.00039   -0.02269
 35 Li   -0.02815   -0.05509   -0.02040
 36 O     5.02131   -3.26762   13.56373
 37 C     1.11680    0.54552    3.95564
 38 H     0.13604   -0.08542    0.41201
 39 H    -0.05407    0.02113   -0.25774
 40 H     0.13330    0.30162    0.42217
 41 H    -0.14900   -1.62694    3.97550
 42 N     3.05678    3.83606  -10.54900
 43 N    -9.82913    0.30789   -9.09781

System changes: positions 

Initializing position-dependent things.

Density initialized from wave functions
       .-----------------------.  
      /|                       |  
     / |                       |  
    /  |                       |  
   /   |                       |  
  /    |                       |  
 *     |                       |  
 |     |                       |  
 |     CH                   H  |  
 |     |                       |  
 |     O                       |  
 |     |                      H|  
 |     |                       |  
 |H    |                       |  
 |     |       Li      Li      |  
 |     |                       |  
 |   Li|     Li      Li        |  
 |     |  Li      Li      Li   |  
 | Li  |   Li      Li N  N     |  
 |     |Li      Li      Li     |  
 Li    |                       |  
 |   LLi     LLi     LLi       |  
 |     |  Li      Li      Li   |  
 | Li  |   Li      Li          |  
 |     |Li      Li      Li     |  
 Li    | Li      Li            |  
 |    Li      Li      Li       |  
 |     |                       |  
 |     |                       |  
 |     |                       |  
 |     |                       |  
 |     |                       |  
 |     |                       |  
 |     .-----------------------.  
 |    /                       /   
 |   /                       /    
 |  /                       /     
 | /                       /      
 |/                       /       
 *-----------------------*        

Positions:
   0 Li     1.617037    1.617037   10.000000    ( 0.0000,  0.0000,  0.0000)
   1 Li     4.851111    1.617037   10.000000    ( 0.0000,  0.0000,  0.0000)
   2 Li     8.085185    1.617037   10.000000    ( 0.0000,  0.0000,  0.0000)
   3 Li     1.617037    4.851111   10.000000    ( 0.0000,  0.0000,  0.0000)
   4 Li     4.851111    4.851111   10.000000    ( 0.0000,  0.0000,  0.0000)
   5 Li     8.085185    4.851111   10.000000    ( 0.0000,  0.0000,  0.0000)
   6 Li     1.617037    8.085185   10.000000    ( 0.0000,  0.0000,  0.0000)
   7 Li     4.851111    8.085185   10.000000    ( 0.0000,  0.0000,  0.0000)
   8 Li     8.085185    8.085185   10.000000    ( 0.0000,  0.0000,  0.0000)
   9 Li     0.000000    0.000000   11.617037    ( 0.0000,  0.0000,  0.0000)
  10 Li     3.234074    0.000000   11.617037    ( 0.0000,  0.0000,  0.0000)
  11 Li     6.468148    0.000000   11.617037    ( 0.0000,  0.0000,  0.0000)
  12 Li     0.000000    3.234074   11.617037    ( 0.0000,  0.0000,  0.0000)
  13 Li     3.234074    3.234074   11.617037    ( 0.0000,  0.0000,  0.0000)
  14 Li     6.468148    3.234074   11.617037    ( 0.0000,  0.0000,  0.0000)
  15 Li     0.000000    6.468148   11.617037    ( 0.0000,  0.0000,  0.0000)
  16 Li     3.234074    6.468148   11.617037    ( 0.0000,  0.0000,  0.0000)
  17 Li     6.468148    6.468148   11.617037    ( 0.0000,  0.0000,  0.0000)
  18 Li     1.617091    1.617174   13.469473    ( 0.0000,  0.0000,  0.0000)
  19 Li     4.851273    1.616805   13.470537    ( 0.0000,  0.0000,  0.0000)
  20 Li     8.084990    1.617456   13.468635    ( 0.0000,  0.0000,  0.0000)
  21 Li     1.617040    4.851112   13.470360    ( 0.0000,  0.0000,  0.0000)
  22 Li     4.850992    4.851080   13.469770    ( 0.0000,  0.0000,  0.0000)
  23 Li     8.085264    4.851095   13.470558    ( 0.0000,  0.0000,  0.0000)
  24 Li     1.617041    8.085033   13.469559    ( 0.0000,  0.0000,  0.0000)
  25 Li     4.851209    8.085425   13.470491    ( 0.0000,  0.0000,  0.0000)
  26 Li     8.085127    8.084781   13.468746    ( 0.0000,  0.0000,  0.0000)
  27 Li     0.003546    0.000064   15.415158    ( 0.0000,  0.0000,  0.0000)
  28 Li     3.234457   -0.000002   15.445551    ( 0.0000,  0.0000,  0.0000)
  29 Li     6.470957   -0.000051   15.448815    ( 0.0000,  0.0000,  0.0000)
  30 Li     0.000263    3.235032   15.445531    ( 0.0000,  0.0000,  0.0000)
  31 Li     3.234185    3.234133   15.445642    ( 0.0000,  0.0000,  0.0000)
  32 Li     6.467660    3.234608   15.445590    ( 0.0000,  0.0000,  0.0000)
  33 Li     0.000216    6.466761   15.444974    ( 0.0000,  0.0000,  0.0000)
  34 Li     3.234128    6.468119   15.445658    ( 0.0000,  0.0000,  0.0000)
  35 Li     6.467799    6.467513   15.445680    ( 0.0000,  0.0000,  0.0000)
  36 O      9.738884    9.661004   18.543438    ( 0.0000,  0.0000,  0.0000)
  37 C      9.705668    9.691436   19.918779    ( 0.0000,  0.0000,  0.0000)
  38 H     10.386235    8.935574   20.287283    ( 0.0000,  0.0000,  0.0000)
  39 H      8.694586    9.509229   20.278648    ( 0.0000,  0.0000,  0.0000)
  40 H     10.031717   10.677812   20.201935    ( 0.0000,  0.0000,  0.0000)
  41 H      9.412210    8.832097   18.174322    ( 0.0000,  0.0000,  0.0000)
  42 N      9.686227    9.740022   17.109075    ( 0.0000,  0.0000,  0.0000)
  43 N      8.564043    9.704421   17.120179    ( 0.0000,  0.0000,  0.0000)

Unit cell:
           periodic     x           y           z      points  spacing
  1. axis:    yes    9.702222    0.000000    0.000000    60     0.1617
  2. axis:    yes    0.000000    9.702222    0.000000    60     0.1617
  3. axis:    no     0.000000    0.000000   26.601111   168     0.1583

  Lengths:   9.702222   9.702222  26.601111
  Angles:   90.000000  90.000000  90.000000

Effective grid spacing dv^(1/3) = 0.1606

     iter     time        total  log10-change:
                         energy  eigst   dens
iter:   1 22:42:47  -275.060555  -0.51
iter:   2 22:45:22  -274.930369  -0.60  -1.45
iter:   3 22:47:56  -274.890139  -1.31  -1.61
iter:   4 22:50:32  -274.867581  -1.07  -2.01
Writing to output.gpw (mode='')

iter:   5 22:53:14  -274.886336c -1.63  -2.16
iter:   6 22:55:56  -274.974365  -1.14  -2.03
iter:   7 22:58:28  -274.877908  -1.45  -1.71
iter:   8 23:01:06  -274.855267  -1.12  -2.03
iter:   9 23:03:40  -274.860347c -2.14  -2.34
Writing to output.gpw (mode='')

iter:  10 23:06:20  -274.893070  -1.92  -2.41
iter:  11 23:08:54  -274.855290  -1.50  -2.00
iter:  12 23:11:26  -274.856008  -2.00  -2.73
iter:  13 23:13:56  -274.857155c -2.72  -2.75
iter:  14 23:16:36  -274.856523c -2.50  -2.85
Writing to output.gpw (mode='')

iter:  15 23:19:14  -274.857845c -2.91  -2.84
iter:  16 23:21:40  -274.857300c -2.75  -2.87
iter:  17 23:24:11  -274.857153c -3.07  -3.10
iter:  18 23:26:42  -274.857296c -3.21  -3.16
iter:  19 23:29:27  -274.857301c -3.43  -3.33
Writing to output.gpw (mode='')

iter:  20 23:31:54  -274.857385c -3.41  -3.39
iter:  21 23:34:18  -274.857438c -3.58  -3.54
iter:  22 23:36:50  -274.857431c -3.87  -3.55
iter:  23 23:39:24  -274.857499c -3.79  -3.69
iter:  24 23:41:51  -274.857517c -3.89  -3.79
Writing to output.gpw (mode='')

iter:  25 23:44:28  -274.857610c -4.08  -3.78
iter:  26 23:47:04  -274.857593c -4.43  -3.82
iter:  27 23:49:38  -274.857606c -4.11  -3.89
iter:  28 23:52:04  -274.857622c -4.50  -4.05c
iter:  29 23:54:33  -274.857619c -4.36  -4.12c
Writing to output.gpw (mode='')

iter:  30 23:57:02  -274.857627c -4.52  -4.18c
iter:  31 23:59:31  -274.857646c -4.63  -4.21c
iter:  32 00:02:02  -274.857647c -4.67  -4.20c
iter:  33 00:04:33  -274.857651c -4.96  -4.25c
iter:  34 00:07:03  -274.857659c -5.02  -4.38c
Writing to output.gpw (mode='')

iter:  35 00:09:39  -274.857658c -5.12  -4.44c
iter:  36 00:12:08  -274.857660c -5.03  -4.52c
iter:  37 00:14:39  -274.857661c -5.04  -4.55c
iter:  38 00:16:48  -274.857658c -5.23  -4.52c
iter:  39 00:19:17  -274.857660c -5.31  -4.47c
Writing to output.gpw (mode='')

iter:  40 00:21:50  -274.857662c -5.37  -4.44c
iter:  41 00:24:20  -274.857660c -5.52  -4.44c
iter:  42 00:26:55  -274.857666c -5.67  -4.34c
iter:  43 00:29:41  -274.857662c -5.52  -4.49c
iter:  44 00:32:20  -274.857673c -5.69  -4.41c
Writing to output.gpw (mode='')

iter:  45 00:34:52  -274.857676c -5.74  -4.56c
iter:  46 00:37:24  -274.857678c -5.78  -4.60c
iter:  47 00:39:54  -274.857681c -5.66  -4.61c
iter:  48 00:42:22  -274.857681c -6.06  -4.61c
iter:  49 00:44:51  -274.857686c -6.10  -4.62c
Writing to output.gpw (mode='')

iter:  50 00:47:21  -274.857678c -6.20  -4.67c
iter:  51 00:49:59  -274.857687c -6.35  -4.62c
iter:  52 00:52:40  -274.857686c -6.54  -4.94c
iter:  53 00:55:27  -274.857685c -6.16  -5.10c
iter:  54 00:58:01  -274.857686c -6.40  -4.96c
Writing to output.gpw (mode='')

iter:  55 01:00:37  -274.857687c -6.65  -5.37c
iter:  56 01:03:06  -274.857687c -6.48  -5.40c
iter:  57 01:05:43  -274.857688c -6.44  -5.42c
iter:  58 01:08:18  -274.857688c -6.64  -5.52c
iter:  59 01:10:51  -274.857688c -6.63  -5.59c
Writing to output.gpw (mode='')

iter:  60 01:13:28  -274.857688c -6.82  -5.67c
iter:  61 01:15:56  -274.857688c -6.97  -5.66c
iter:  62 01:18:32  -274.857688c -6.97  -5.64c
iter:  63 01:21:02  -274.857688c -7.02  -5.63c
iter:  64 01:23:34  -274.857688c -7.12  -5.54c
Writing to output.gpw (mode='')

iter:  65 01:26:09  -274.857689c -7.15  -5.56c
iter:  66 01:28:44  -274.857689c -7.21  -5.55c
iter:  67 01:31:25  -274.857689c -7.20  -5.55c
iter:  68 01:34:06  -274.857688c -7.26  -5.51c
iter:  69 01:36:33  -274.857688c -7.56c -5.51c

Converged after 69 iterations.

Dipole moment: (-13.934491, -13.402602, 0.462231) |e|*Ang

Energy contributions relative to reference atoms: (reference = -13382.245603)

Kinetic:       +174.540195
Potential:     -152.466413
External:        +0.000000
XC:            -297.537745
Entropy (-ST):   -0.155991
Local:           +0.684270
--------------------------
Free energy:   -274.935684
Extrapolated:  -274.857688

Dipole-layer corrected work functions: 3.376131, 2.487564 eV

Showing only first 2 kpts
 Kpt  Band  Eigenvalues  Occupancy
  0    28     -3.18665    1.98783
  0    29     -3.07985    1.90147
  0    30     -2.81413    0.17343
  0    31     -2.69401    0.01704

  1    28     -2.99683    1.57154
  1    29     -2.94762    1.15647
  1    30     -2.86413    0.41030
  1    31     -2.84459    0.29731


Fermi level: -2.93185

Gap: 0.025 eV
Transition (v -> c):
  (s=0, k=1, n=29, [0.12, -0.12, 0.00]) -> (s=0, k=4, n=30, [0.38, -0.38, 0.00])
Writing to output.gpw (mode='')


Forces in eV/Ang:
  0 Li    0.01646    0.00340   -0.27727
  1 Li   -0.00911   -0.00539   -0.26221
  2 Li   -0.00624    0.01467   -0.27510
  3 Li   -0.00661    0.00086   -0.26426
  4 Li    0.00165    0.00001   -0.28277
  5 Li    0.00199    0.00211   -0.26478
  6 Li    0.01529   -0.00341   -0.27727
  7 Li   -0.00789    0.00588   -0.26650
  8 Li   -0.00480   -0.01713   -0.27805
  9 Li   -0.00438    0.00060    0.34931
 10 Li    0.00419    0.00152    0.24447
 11 Li   -0.00468    0.00039    0.27800
 12 Li    0.00006    0.01800    0.26347
 13 Li    0.00994   -0.00715    0.25744
 14 Li   -0.00515    0.00922    0.26150
 15 Li    0.00085   -0.01906    0.25311
 16 Li    0.00202    0.00418    0.26048
 17 Li   -0.00093   -0.00764    0.26454
 18 Li    0.00536    0.01456   -0.02086
 19 Li    0.01504   -0.01954    0.07158
 20 Li   -0.01807    0.03606   -0.08990
 21 Li    0.00283   -0.00097    0.05274
 22 Li   -0.01116   -0.00196    0.00361
 23 Li    0.00587   -0.00194    0.06998
 24 Li    0.00040   -0.01495   -0.01221
 25 Li    0.00917    0.01967    0.06675
 26 Li   -0.00591   -0.03460   -0.07817
 27 Li    0.35562   -0.01717   -2.71034
 28 Li    0.03690   -0.00060   -0.03471
 29 Li    0.20298   -0.00604    0.20893
 30 Li    0.02412    0.09263   -0.04611
 31 Li    0.00824    0.00283   -0.02495
 32 Li   -0.04252    0.04685   -0.03407
 33 Li    0.01938   -0.12566   -0.08851
 34 Li    0.00230    0.00062   -0.02246
 35 Li   -0.02772   -0.05400   -0.02450
 36 O     4.25753   -2.62031   11.50268
 37 C     0.94135    0.33364    3.34462
 38 H     0.19165   -0.13381    0.67427
 39 H    -0.14220    0.01722   -0.00338
 40 H     0.13949    0.31459    0.44992
 41 H    -0.12861   -1.75882    3.54191
 42 N     2.44577    3.55465   -9.22750
 43 N    -8.29923    0.35679   -7.47837

System changes: positions 

Initializing position-dependent things.

Density initialized from wave functions
       .-----------------------.  
      /|                       |  
     / |                       |  
    /  |                       |  
   /   |                       |  
  /    |                       |  
 *     |                       |  
 |     |                       |  
 |     CH                   H  |  
 |     |                       |  
 |     O                       |  
 |     |                      H|  
 |     |                       |  
 |H    |                       |  
 |     Li      Li      Li      |  
 |     |                       |  
 |   Li|     Li      Li        |  
 |     |  Li      Li      Li   |  
 | Li  |   Li      Li N  N     |  
 |     |Li      Li      Li     |  
 |     |                       |  
 |   LLi     LLi     LLi       |  
 |     |  Li      Li      Li   |  
 | Li  |   Li      Li          |  
 |     |Li      Li      Li     |  
 Li    | Li      Li            |  
 |    Li      Li      Li       |  
 |     |                       |  
 |     |                       |  
 |     |                       |  
 |     |                       |  
 |     |                       |  
 |     |                       |  
 |     .-----------------------.  
 |    /                       /   
 |   /                       /    
 |  /                       /     
 | /                       /      
 |/                       /       
 *-----------------------*        

Positions:
   0 Li     1.617037    1.617037   10.000000    ( 0.0000,  0.0000,  0.0000)
   1 Li     4.851111    1.617037   10.000000    ( 0.0000,  0.0000,  0.0000)
   2 Li     8.085185    1.617037   10.000000    ( 0.0000,  0.0000,  0.0000)
   3 Li     1.617037    4.851111   10.000000    ( 0.0000,  0.0000,  0.0000)
   4 Li     4.851111    4.851111   10.000000    ( 0.0000,  0.0000,  0.0000)
   5 Li     8.085185    4.851111   10.000000    ( 0.0000,  0.0000,  0.0000)
   6 Li     1.617037    8.085185   10.000000    ( 0.0000,  0.0000,  0.0000)
   7 Li     4.851111    8.085185   10.000000    ( 0.0000,  0.0000,  0.0000)
   8 Li     8.085185    8.085185   10.000000    ( 0.0000,  0.0000,  0.0000)
   9 Li     0.000000    0.000000   11.617037    ( 0.0000,  0.0000,  0.0000)
  10 Li     3.234074    0.000000   11.617037    ( 0.0000,  0.0000,  0.0000)
  11 Li     6.468148    0.000000   11.617037    ( 0.0000,  0.0000,  0.0000)
  12 Li     0.000000    3.234074   11.617037    ( 0.0000,  0.0000,  0.0000)
  13 Li     3.234074    3.234074   11.617037    ( 0.0000,  0.0000,  0.0000)
  14 Li     6.468148    3.234074   11.617037    ( 0.0000,  0.0000,  0.0000)
  15 Li     0.000000    6.468148   11.617037    ( 0.0000,  0.0000,  0.0000)
  16 Li     3.234074    6.468148   11.617037    ( 0.0000,  0.0000,  0.0000)
  17 Li     6.468148    6.468148   11.617037    ( 0.0000,  0.0000,  0.0000)
  18 Li     1.617159    1.617320   13.469258    ( 0.0000,  0.0000,  0.0000)
  19 Li     4.851392    1.616676   13.471071    ( 0.0000,  0.0000,  0.0000)
  20 Li     8.084812    1.617726   13.467938    ( 0.0000,  0.0000,  0.0000)
  21 Li     1.617054    4.851094   13.470756    ( 0.0000,  0.0000,  0.0000)
  22 Li     4.850901    4.851066   13.469778    ( 0.0000,  0.0000,  0.0000)
  23 Li     8.085322    4.851088   13.471066    ( 0.0000,  0.0000,  0.0000)
  24 Li     1.617052    8.084895   13.469460    ( 0.0000,  0.0000,  0.0000)
  25 Li     4.851296    8.085556   13.470988    ( 0.0000,  0.0000,  0.0000)
  26 Li     8.085038    8.084503   13.468140    ( 0.0000,  0.0000,  0.0000)
  27 Li     0.007053   -0.000399   15.390879    ( 0.0000,  0.0000,  0.0000)
  28 Li     3.234744   -0.000021   15.445338    ( 0.0000,  0.0000,  0.0000)
  29 Li     6.471796   -0.000092   15.449944    ( 0.0000,  0.0000,  0.0000)
  30 Li     0.000428    3.235677   15.445200    ( 0.0000,  0.0000,  0.0000)
  31 Li     3.234251    3.234174   15.445453    ( 0.0000,  0.0000,  0.0000)
  32 Li     6.467349    3.234933   15.445322    ( 0.0000,  0.0000,  0.0000)
  33 Li     0.000378    6.465873   15.444272    ( 0.0000,  0.0000,  0.0000)
  34 Li     3.234135    6.468125   15.445495    ( 0.0000,  0.0000,  0.0000)
  35 Li     6.467590    6.467134   15.445438    ( 0.0000,  0.0000,  0.0000)
  36 O      9.746759    9.643780   18.565611    ( 0.0000,  0.0000,  0.0000)
  37 C      9.707186    9.689759   19.936504    ( 0.0000,  0.0000,  0.0000)
  38 H     10.388837    8.933628   20.296540    ( 0.0000,  0.0000,  0.0000)
  39 H      8.693172    9.509585   20.282792    ( 0.0000,  0.0000,  0.0000)
  40 H     10.033358   10.681823   20.206970    ( 0.0000,  0.0000,  0.0000)
  41 H      9.414918    8.827667   18.193277    ( 0.0000,  0.0000,  0.0000)
  42 N      9.672549    9.759124   17.076702    ( 0.0000,  0.0000,  0.0000)
  43 N      8.557980    9.707075   17.101331    ( 0.0000,  0.0000,  0.0000)

Unit cell:
           periodic     x           y           z      points  spacing
  1. axis:    yes    9.702222    0.000000    0.000000    60     0.1617
  2. axis:    yes    0.000000    9.702222    0.000000    60     0.1617
  3. axis:    no     0.000000    0.000000   26.601111   168     0.1583

  Lengths:   9.702222   9.702222  26.601111
  Angles:   90.000000  90.000000  90.000000

Effective grid spacing dv^(1/3) = 0.1606

     iter     time        total  log10-change:
                         energy  eigst   dens
iter:   1 01:39:46  -276.003327  -0.61
iter:   2 01:42:25  -275.921513  -0.79  -1.55
iter:   3 01:45:05  -275.894322  -1.48  -1.69
iter:   4 01:47:38  -275.876376  -1.15  -2.08
Writing to output.gpw (mode='')

iter:   5 01:50:10  -275.901898c -1.49  -2.10
iter:   6 01:52:47  -275.962464  -1.08  -2.02
iter:   7 01:55:30  -275.884935  -1.71  -1.78
iter:   8 01:58:11  -275.867414  -1.42  -2.11
iter:   9 02:00:46  -275.872199c -2.35  -2.45
Writing to output.gpw (mode='')

iter:  10 02:03:20  -275.890089c -2.05  -2.41
iter:  11 02:05:53  -275.866945c -1.64  -2.09
iter:  12 02:08:31  -275.867447c -2.32  -2.71
iter:  13 02:11:06  -275.867816c -2.73  -2.90
iter:  14 02:13:44  -275.867751c -2.76  -2.96
Writing to output.gpw (mode='')

iter:  15 02:16:25  -275.868287c -3.00  -2.99
iter:  16 02:19:05  -275.868296c -3.16  -3.14
iter:  17 02:21:48  -275.868185c -3.03  -3.14
iter:  18 02:24:19  -275.868266c -3.42  -3.22
iter:  19 02:26:52  -275.868265c -3.75  -3.27
Writing to output.gpw (mode='')

iter:  20 02:29:44  -275.868302c -3.45  -3.31
iter:  21 02:32:17  -275.868319c -3.83  -3.48
iter:  22 02:34:51  -275.868353c -3.86  -3.55
iter:  23 02:37:24  -275.868358c -4.33  -3.61
iter:  24 02:40:00  -275.868385c -4.19  -3.64
Writing to output.gpw (mode='')

iter:  25 02:42:36  -275.868402c -4.26  -3.73
iter:  26 02:45:09  -275.868412c -4.31  -3.80
iter:  27 02:47:36  -275.868418c -4.71  -3.80
iter:  28 02:50:15  -275.868426c -4.66  -3.87
iter:  29 02:52:48  -275.868429c -4.82  -3.85
Writing to output.gpw (mode='')

iter:  30 02:55:31  -275.868438c -4.95  -3.86
iter:  31 02:58:07  -275.868458c -5.08  -3.92
iter:  32 03:00:36  -275.868456c -5.12  -4.14c
iter:  33 03:03:10  -275.868450c -5.13  -4.22c
iter:  34 03:05:53  -275.868447c -5.28  -4.26c
Writing to output.gpw (mode='')

iter:  35 03:08:30  -275.868452c -5.55  -4.32c
iter:  36 03:10:58  -275.868454c -5.41  -4.30c
iter:  37 03:13:43  -275.868452c -5.65  -4.51c
iter:  38 03:16:23  -275.868451c -5.81  -4.72c
iter:  39 03:18:56  -275.868452c -5.74  -4.73c
Writing to output.gpw (mode='')

iter:  40 03:21:28  -275.868455c -5.78  -4.76c
iter:  41 03:24:04  -275.868455c -5.70  -4.91c
iter:  42 03:26:41  -275.868456c -5.92  -5.02c
iter:  43 03:29:21  -275.868458c -5.97  -5.06c
iter:  44 03:31:58  -275.868458c -6.27  -5.14c
Writing to output.gpw (mode='')

iter:  45 03:34:33  -275.868458c -6.10  -5.22c
iter:  46 03:37:10  -275.868459c -6.35  -5.21c
iter:  47 03:39:47  -275.868461c -6.42  -5.28c
iter:  48 03:42:19  -275.868460c -6.54  -5.29c
iter:  49 03:44:56  -275.868460c -6.61  -5.42c
Writing to output.gpw (mode='')

iter:  50 03:47:31  -275.868461c -6.48  -5.55c
iter:  51 03:50:05  -275.868461c -6.36  -5.58c
iter:  52 03:52:37  -275.868461c -6.83  -5.62c
iter:  53 03:55:16  -275.868461c -6.94  -5.59c
iter:  54 03:57:52  -275.868461c -6.93  -5.47c
Writing to output.gpw (mode='')

iter:  55 04:00:33  -275.868462c -6.98  -5.45c
iter:  56 04:03:04  -275.868462c -7.10  -5.72c
iter:  57 04:05:42  -275.868462c -7.09  -5.84c
iter:  58 04:08:13  -275.868462c -7.09  -5.85c
iter:  59 04:10:51  -275.868462c -7.13  -5.77c
Writing to output.gpw (mode='')

iter:  60 04:13:27  -275.868462c -7.44c -5.69c

Converged after 60 iterations.

Dipole moment: (-13.080770, -13.383462, 0.438728) |e|*Ang

Energy contributions relative to reference atoms: (reference = -13382.245603)

Kinetic:       +173.017350
Potential:     -152.175693
External:        +0.000000
XC:            -297.317941
Entropy (-ST):   -0.154843
Local:           +0.685243
--------------------------
Free energy:   -275.945884
Extrapolated:  -275.868462

Dipole-layer corrected work functions: 3.377509, 2.534123 eV

Showing only first 2 kpts
 Kpt  Band  Eigenvalues  Occupancy
  0    28     -3.21294    1.98838
  0    29     -3.10499    1.90365
  0    30     -2.83182    0.15455
  0    31     -2.71714    0.01676

  1    28     -3.01826    1.55424
  1    29     -2.97106    1.15126
  1    30     -2.88717    0.40432
  1    31     -2.87410    0.32648


Fermi level: -2.95582

Gap: 0.022 eV
Transition (v -> c):
  (s=0, k=1, n=29, [0.12, -0.12, 0.00]) -> (s=0, k=4, n=30, [0.38, -0.38, 0.00])

Forces in eV/Ang:
  0 Li    0.01682    0.00317   -0.27740
  1 Li   -0.00917   -0.00577   -0.26164
  2 Li   -0.00649    0.01496   -0.27543
  3 Li   -0.00738    0.00111   -0.26347
  4 Li    0.00215   -0.00013   -0.28360
  5 Li    0.00213    0.00265   -0.26523
  6 Li    0.01505   -0.00344   -0.27737
  7 Li   -0.00778    0.00624   -0.26572
  8 Li   -0.00460   -0.01797   -0.27791
  9 Li   -0.00408    0.00063    0.35134
 10 Li    0.00474    0.00161    0.24563
 11 Li   -0.00614    0.00028    0.27583
 12 Li    0.00019    0.01807    0.26325
 13 Li    0.01032   -0.00587    0.25680
 14 Li   -0.00541    0.00964    0.26099
 15 Li    0.00086   -0.01944    0.25220
 16 Li    0.00263    0.00272    0.25946
 17 Li   -0.00150   -0.00803    0.26295
 18 Li    0.00911    0.01982   -0.02727
 19 Li    0.01524   -0.01849    0.07237
 20 Li   -0.02155    0.03617   -0.09167
 21 Li    0.00341   -0.00194    0.05257
 22 Li   -0.01168   -0.00137    0.00348
 23 Li    0.00597   -0.00216    0.06907
 24 Li    0.00351   -0.01923   -0.01519
 25 Li    0.00982    0.01842    0.06671
 26 Li   -0.00979   -0.03528   -0.07678
 27 Li    0.40191   -0.05444   -2.84158
 28 Li    0.03813   -0.00187   -0.03226
 29 Li    0.16547   -0.00771    0.18116
 30 Li    0.02477    0.09351   -0.04821
 31 Li    0.00860    0.00327   -0.02546
 32 Li   -0.04392    0.04746   -0.03609
 33 Li    0.01987   -0.12270   -0.09042
 34 Li    0.00076    0.00194   -0.02230
 35 Li   -0.02640   -0.05232   -0.02754
 36 O     3.74486   -2.12243    9.86949
 37 C     0.84190    0.19017    2.90063
 38 H     0.21033   -0.15080    0.87302
 39 H    -0.17068    0.01211    0.17185
 40 H     0.11817    0.24095    0.45600
 41 H    -0.09095   -1.72314    3.09411
 42 N     2.26380    3.32427   -8.04953
 43 N    -7.50437    0.36174   -6.34608

System changes: positions 

Initializing position-dependent things.

Density initialized from wave functions
       .-----------------------.  
      /|                       |  
     / |                       |  
    /  |                       |  
   /   |                       |  
  /    |                       |  
 *     |                       |  
 |     |                       |  
 |     CH                   H  |  
 |     |                       |  
 |     O                       |  
 |     |                      H|  
 |     |                       |  
 |H    |                       |  
 |     Li      Li      Li      |  
 |     |                       |  
 |   Li|     Li      Li        |  
 |     |  Li      Li      Li   |  
 | Li  |   Li      Li N  N     |  
 |     |Li      Li      Li     |  
 |     |                       |  
 |   LLi     LLi     LLi       |  
 |     |  Li      Li      Li   |  
 | Li  |   Li      Li          |  
 |     |Li      Li      Li     |  
 Li    | Li      Li            |  
 |    Li      Li      Li       |  
 |     |                       |  
 |     |                       |  
 |     |                       |  
 |     |                       |  
 |     |                       |  
 |     |                       |  
 |     .-----------------------.  
 |    /                       /   
 |   /                       /    
 |  /                       /     
 | /                       /      
 |/                       /       
 *-----------------------*        

Positions:
   0 Li     1.617037    1.617037   10.000000    ( 0.0000,  0.0000,  0.0000)
   1 Li     4.851111    1.617037   10.000000    ( 0.0000,  0.0000,  0.0000)
   2 Li     8.085185    1.617037   10.000000    ( 0.0000,  0.0000,  0.0000)
   3 Li     1.617037    4.851111   10.000000    ( 0.0000,  0.0000,  0.0000)
   4 Li     4.851111    4.851111   10.000000    ( 0.0000,  0.0000,  0.0000)
   5 Li     8.085185    4.851111   10.000000    ( 0.0000,  0.0000,  0.0000)
   6 Li     1.617037    8.085185   10.000000    ( 0.0000,  0.0000,  0.0000)
   7 Li     4.851111    8.085185   10.000000    ( 0.0000,  0.0000,  0.0000)
   8 Li     8.085185    8.085185   10.000000    ( 0.0000,  0.0000,  0.0000)
   9 Li     0.000000    0.000000   11.617037    ( 0.0000,  0.0000,  0.0000)
  10 Li     3.234074    0.000000   11.617037    ( 0.0000,  0.0000,  0.0000)
  11 Li     6.468148    0.000000   11.617037    ( 0.0000,  0.0000,  0.0000)
  12 Li     0.000000    3.234074   11.617037    ( 0.0000,  0.0000,  0.0000)
  13 Li     3.234074    3.234074   11.617037    ( 0.0000,  0.0000,  0.0000)
  14 Li     6.468148    3.234074   11.617037    ( 0.0000,  0.0000,  0.0000)
  15 Li     0.000000    6.468148   11.617037    ( 0.0000,  0.0000,  0.0000)
  16 Li     3.234074    6.468148   11.617037    ( 0.0000,  0.0000,  0.0000)
  17 Li     6.468148    6.468148   11.617037    ( 0.0000,  0.0000,  0.0000)
  18 Li     1.617290    1.617563   13.468916    ( 0.0000,  0.0000,  0.0000)
  19 Li     4.851536    1.616530   13.471728    ( 0.0000,  0.0000,  0.0000)
  20 Li     8.084558    1.618054   13.467072    ( 0.0000,  0.0000,  0.0000)
  21 Li     1.617079    4.851061   13.471233    ( 0.0000,  0.0000,  0.0000)
  22 Li     4.850786    4.851056   13.469791    ( 0.0000,  0.0000,  0.0000)
  23 Li     8.085390    4.851075   13.471673    ( 0.0000,  0.0000,  0.0000)
  24 Li     1.617110    8.084673   13.469294    ( 0.0000,  0.0000,  0.0000)
  25 Li     4.851406    8.085702   13.471589    ( 0.0000,  0.0000,  0.0000)
  26 Li     8.084885    8.084162   13.467430    ( 0.0000,  0.0000,  0.0000)
  27 Li     0.011705   -0.001407   15.360774    ( 0.0000,  0.0000,  0.0000)
  28 Li     3.235103   -0.000059   15.445104    ( 0.0000,  0.0000,  0.0000)
  29 Li     6.472481   -0.000167   15.451050    ( 0.0000,  0.0000,  0.0000)
  30 Li     0.000642    3.236478   15.444772    ( 0.0000,  0.0000,  0.0000)
  31 Li     3.234336    3.234225   15.445216    ( 0.0000,  0.0000,  0.0000)
  32 Li     6.466950    3.235343   15.444974    ( 0.0000,  0.0000,  0.0000)
  33 Li     0.000575    6.464834   15.443410    ( 0.0000,  0.0000,  0.0000)
  34 Li     3.234125    6.468149   15.445298    ( 0.0000,  0.0000,  0.0000)
  35 Li     6.467357    6.466693   15.445118    ( 0.0000,  0.0000,  0.0000)
  36 O      9.755093    9.629340   18.585063    ( 0.0000,  0.0000,  0.0000)
  37 C      9.709110    9.686860   19.953535    ( 0.0000,  0.0000,  0.0000)
  38 H     10.391922    8.931295   20.309438    ( 0.0000,  0.0000,  0.0000)
  39 H      8.691177    9.509881   20.289167    ( 0.0000,  0.0000,  0.0000)
  40 H     10.034858   10.685115   20.212707    ( 0.0000,  0.0000,  0.0000)
  41 H      9.417703    8.820800   18.211574    ( 0.0000,  0.0000,  0.0000)
  42 N      9.660030    9.780805   17.045505    ( 0.0000,  0.0000,  0.0000)
  43 N      8.549303    9.710266   17.085172    ( 0.0000,  0.0000,  0.0000)

Unit cell:
           periodic     x           y           z      points  spacing
  1. axis:    yes    9.702222    0.000000    0.000000    60     0.1617
  2. axis:    yes    0.000000    9.702222    0.000000    60     0.1617
  3. axis:    no     0.000000    0.000000   26.601111   168     0.1583

  Lengths:   9.702222   9.702222  26.601111
  Angles:   90.000000  90.000000  90.000000

Effective grid spacing dv^(1/3) = 0.1606

     iter     time        total  log10-change:
                         energy  eigst   dens
iter:   1 04:16:38  -276.812038  -0.71
iter:   2 04:19:13  -276.780335  -1.07  -1.71
iter:   3 04:21:56  -276.768427  -1.71  -1.84
iter:   4 04:24:33  -276.757180c -1.49  -2.18
Writing to output.gpw (mode='')

iter:   5 04:27:02  -276.764746c -2.02  -2.27
iter:   6 04:29:36  -276.767125c -1.94  -2.18
iter:   7 04:32:02  -276.754392c -1.97  -2.15
iter:   8 04:34:35  -276.754530c -2.00  -2.64
iter:   9 04:37:03  -276.754627c -2.70  -2.41
Writing to output.gpw (mode='')

iter:  10 04:39:27  -276.753723c -3.26  -2.79
iter:  11 04:41:56  -276.753786c -3.33  -2.92
iter:  12 04:44:39  -276.753667c -3.33  -3.00
iter:  13 04:47:06  -276.753946c -3.26  -3.17
iter:  14 04:49:36  -276.753732c -3.69  -3.10
Writing to output.gpw (mode='')

iter:  15 04:52:09  -276.753710c -3.80  -3.22
iter:  16 04:54:42  -276.753800c -3.90  -3.40
iter:  17 04:57:22  -276.753786c -4.09  -3.63
iter:  18 04:59:54  -276.753851c -4.27  -3.71
iter:  19 05:02:24  -276.753842c -4.47  -3.81
Writing to output.gpw (mode='')

iter:  20 05:04:56  -276.753844c -4.42  -3.85
iter:  21 05:07:25  -276.753857c -4.41  -3.92
iter:  22 05:10:01  -276.753867c -4.47  -4.20c
iter:  23 05:12:35  -276.753870c -4.87  -4.13c
iter:  24 05:15:13  -276.753870c -4.77  -4.09c
Writing to output.gpw (mode='')

iter:  25 05:17:48  -276.753872c -5.19  -4.05c
iter:  26 05:20:18  -276.753862c -4.83  -4.05c
iter:  27 05:22:49  -276.753871c -5.07  -4.02c
iter:  28 05:25:16  -276.753869c -5.17  -4.03c
iter:  29 05:27:48  -276.753869c -5.33  -3.96
Writing to output.gpw (mode='')

iter:  30 05:30:23  -276.753869c -5.37  -3.92
iter:  31 05:32:55  -276.753874c -5.33  -3.99
iter:  32 05:35:27  -276.753886c -5.53  -3.96
iter:  33 05:37:55  -276.753893c -5.61  -3.99
iter:  34 05:40:37  -276.753900c -5.80  -4.00c
Writing to output.gpw (mode='')

iter:  35 05:43:15  -276.753901c -5.45  -4.09c
iter:  36 05:45:54  -276.753902c -6.12  -4.29c
iter:  37 05:48:37  -276.753903c -5.70  -4.38c
iter:  38 05:51:16  -276.753900c -5.71  -4.18c
iter:  39 05:53:52  -276.753900c -6.18  -4.66c
Writing to output.gpw (mode='')

iter:  40 05:56:24  -276.753900c -6.10  -4.69c
iter:  41 05:59:05  -276.753901c -6.23  -4.67c
iter:  42 06:01:35  -276.753901c -6.17  -4.89c
iter:  43 06:04:06  -276.753901c -6.65  -4.91c
iter:  44 06:06:36  -276.753903c -6.47  -4.94c
Writing to output.gpw (mode='')

iter:  45 06:09:12  -276.753903c -6.69  -5.10c
iter:  46 06:11:42  -276.753903c -6.69  -5.14c
iter:  47 06:14:13  -276.753903c -7.02  -4.94c
iter:  48 06:16:42  -276.753903c -6.87  -5.03c
iter:  49 06:19:23  -276.753904c -7.32  -5.39c
Writing to output.gpw (mode='')

iter:  50 06:21:56  -276.753904c -7.11  -5.56c
iter:  51 06:24:35  -276.753904c -7.32  -5.48c
iter:  52 06:27:07  -276.753904c -7.17  -5.65c
iter:  53 06:29:37  -276.753904c -7.65c -5.77c

Converged after 53 iterations.

Dipole moment: (-12.397456, -13.490880, 0.414299) |e|*Ang

Energy contributions relative to reference atoms: (reference = -13382.245603)

Kinetic:       +170.610039
Potential:     -151.037580
External:        +0.000000
XC:            -296.935238
Entropy (-ST):   -0.153976
Local:           +0.685863
--------------------------
Free energy:   -276.830892
Extrapolated:  -276.753904

Dipole-layer corrected work functions: 3.378911, 2.582486 eV

Showing only first 2 kpts
 Kpt  Band  Eigenvalues  Occupancy
  0    28     -3.23963    1.98879
  0    29     -3.13053    1.90484
  0    30     -2.85234    0.14257
  0    31     -2.74277    0.01701

  1    28     -3.04079    1.53767
  1    29     -2.99465    1.13860
  1    30     -2.91349    0.41363
  1    31     -2.89979    0.33092


Fermi level: -2.98070

Gap: 0.017 eV
Transition (v -> c):
  (s=0, k=1, n=29, [0.12, -0.12, 0.00]) -> (s=0, k=4, n=30, [0.38, -0.38, 0.00])
Writing to output.gpw (mode='')


Forces in eV/Ang:
  0 Li    0.01728    0.00292   -0.27791
  1 Li   -0.00933   -0.00619   -0.26124
  2 Li   -0.00673    0.01496   -0.27613
  3 Li   -0.00803    0.00133   -0.26265
  4 Li    0.00252   -0.00033   -0.28445
  5 Li    0.00230    0.00333   -0.26557
  6 Li    0.01474   -0.00348   -0.27780
  7 Li   -0.00768    0.00666   -0.26493
  8 Li   -0.00441   -0.01862   -0.27813
  9 Li   -0.00370    0.00062    0.35394
 10 Li    0.00510    0.00175    0.24697
 11 Li   -0.00745    0.00025    0.27426
 12 Li    0.00024    0.01792    0.26357
 13 Li    0.01075   -0.00442    0.25616
 14 Li   -0.00565    0.00994    0.26078
 15 Li    0.00071   -0.01959    0.25203
 16 Li    0.00353    0.00107    0.25819
 17 Li   -0.00215   -0.00851    0.26167
 18 Li    0.01436    0.02633   -0.03618
 19 Li    0.01519   -0.01756    0.07279
 20 Li   -0.02563    0.03720   -0.09550
 21 Li    0.00383   -0.00290    0.05230
 22 Li   -0.01194   -0.00063    0.00371
 23 Li    0.00590   -0.00258    0.06800
 24 Li    0.00864   -0.02483   -0.02072
 25 Li    0.01017    0.01722    0.06602
 26 Li   -0.01467   -0.03678   -0.07686
 27 Li    0.42358   -0.09504   -2.82726
 28 Li    0.03842   -0.00331   -0.02951
 29 Li    0.13935   -0.01010    0.16262
 30 Li    0.02563    0.09299   -0.04854
 31 Li    0.00939    0.00409   -0.02611
 32 Li   -0.04597    0.04866   -0.03747
 33 Li    0.01983   -0.11773   -0.09007
 34 Li   -0.00069    0.00310   -0.02239
 35 Li   -0.02485   -0.05049   -0.02962
 36 O     3.24217   -1.69608    8.36236
 37 C     0.72512    0.14029    2.50291
 38 H     0.20488   -0.15055    0.98823
 39 H    -0.15601    0.00602    0.28495
 40 H     0.08895    0.14306    0.45592
 41 H    -0.06988   -1.60782    2.65256
 42 N     1.84121    3.01702   -6.98857
 43 N    -6.56579    0.33043   -5.40262

System changes: positions 

Initializing position-dependent things.

Density initialized from wave functions
       .-----------------------.  
      /|                       |  
     / |                       |  
    /  |                       |  
   /   |                       |  
  /    |                       |  
 *     |                       |  
 |     |                       |  
 |     CH                   H  |  
 |     |                       |  
 |     O                       |  
 |     |                      H|  
 |     |                       |  
 |H    |                       |  
 |     Li      Li      Li      |  
 |     |                       |  
 |   Li|     Li      Li        |  
 |     |  Li      Li      Li   |  
 | Li  |   Li      Li N  N     |  
 |     |Li      Li      Li     |  
 |     |                       |  
[...]
iter:  12 09:18:06  -284.381065c -4.28  -3.18
iter:  13 09:20:40  -284.381087c -4.33  -3.39
iter:  14 09:23:07  -284.381114c -4.17  -3.51
Writing to output.gpw (mode='')

iter:  15 09:25:54  -284.381105c -4.55  -3.32
iter:  16 09:28:29  -284.381103c -4.30  -3.67
iter:  17 09:31:12  -284.381098c -4.89  -3.77
iter:  18 09:33:45  -284.381094c -5.19  -3.90
iter:  19 09:36:31  -284.381099c -5.24  -3.97
Writing to output.gpw (mode='')

iter:  20 09:39:29  -284.381103c -5.34  -4.10c
iter:  21 09:41:59  -284.381103c -5.47  -4.18c
iter:  22 09:44:32  -284.381102c -5.77  -4.31c
iter:  23 09:47:00  -284.381101c -5.77  -4.41c
iter:  24 09:49:33  -284.381101c -6.12  -4.48c
Writing to output.gpw (mode='')

iter:  25 09:52:12  -284.381102c -6.13  -4.51c
iter:  26 09:54:44  -284.381103c -6.19  -4.58c
iter:  27 09:57:18  -284.381103c -6.40  -4.83c
iter:  28 09:59:52  -284.381103c -6.54  -4.80c
iter:  29 10:02:29  -284.381103c -6.54  -4.83c
Writing to output.gpw (mode='')

iter:  30 10:05:27  -284.381103c -6.81  -4.98c
iter:  31 10:08:01  -284.381103c -6.84  -5.08c
iter:  32 10:10:31  -284.381103c -7.05  -5.13c
iter:  33 10:13:02  -284.381103c -7.04  -5.14c
iter:  34 10:15:35  -284.381103c -7.05  -5.26c
Writing to output.gpw (mode='')

iter:  35 10:18:17  -284.381103c -7.27  -5.29c
iter:  36 10:20:51  -284.381103c -7.24  -5.38c
iter:  37 10:23:27  -284.381103c -7.49c -5.42c

Converged after 37 iterations.

Dipole moment: (-23.711149, 15.614511, 0.333315) |e|*Ang

Energy contributions relative to reference atoms: (reference = -13382.245603)

Kinetic:       +126.024328
Potential:     -118.698111
External:        +0.000000
XC:            -292.364902
Entropy (-ST):   -0.156183
Local:           +0.735672
--------------------------
Free energy:   -284.459195
Extrapolated:  -284.381103

Dipole-layer corrected work functions: 3.382903, 2.742158 eV

Showing only first 2 kpts
 Kpt  Band  Eigenvalues  Occupancy
  0    28     -3.25969    1.96196
  0    29     -3.12889    1.58075
  0    30     -3.03396    0.72178
  0    31     -2.84844    0.02726

  1    28     -3.32129    1.98875
  1    29     -3.19162    1.85935
  1    30     -2.99330    0.40057
  1    31     -2.84777    0.02690


Fermi level: -3.06253

No gap
Writing to output.gpw (mode='')


Forces in eV/Ang:
  0 Li   -0.00196    0.00833   -0.30338
  1 Li   -0.00882   -0.01018   -0.29470
  2 Li    0.00046    0.00083   -0.27516
  3 Li    0.00036    0.01062   -0.28980
  4 Li   -0.01391    0.01277   -0.28003
  5 Li    0.00991    0.01076   -0.29631
  6 Li    0.00389   -0.00492   -0.29057
  7 Li   -0.00764    0.00237   -0.28830
  8 Li   -0.00795    0.00557   -0.30853
  9 Li   -0.06482    0.05368    0.27190
 10 Li   -0.00674    0.02014    0.33428
 11 Li    0.11128    0.05209    0.36264
 12 Li   -0.04656   -0.12897    0.35210
 13 Li    0.01775   -0.07057    0.32494
 14 Li    0.09417   -0.13040    0.32487
 15 Li   -0.03090   -0.00302    0.35327
 16 Li    0.00278    0.00296    0.38071
 17 Li    0.06257   -0.01548    0.34709
 18 Li    0.03986    0.04093    0.01158
 19 Li    0.02751   -0.00483    0.01456
 20 Li    0.01292   -0.02128   -0.18481
 21 Li    0.01455   -0.00255    0.00255
 22 Li   -0.01106    0.03448   -0.00294
 23 Li    0.00514    0.00604    0.02219
 24 Li    0.02066   -0.01478   -0.01691
 25 Li   -0.01987   -0.01528   -0.01086
 26 Li   -0.02336    0.00021    0.01369
 27 Li    0.05786    0.03611    0.07705
 28 Li   -0.02462   -0.01638    0.00813
 29 Li   -0.09763   -0.15921   -0.07989
 30 Li   -0.05798    0.00810   -0.02277
 31 Li   -0.01699    0.00239    0.04190
 32 Li   -0.11471    0.07710   -0.00411
 33 Li    0.02099    0.01541    0.01095
 34 Li    0.00911    0.00308    0.01321
 35 Li   -0.02856    0.00468    0.05429
 36 O    -0.02779   -0.02893   -0.19827
 37 C     0.06391   -0.02159   -0.21336
 38 H    -0.05503    0.04303   -0.07802
 39 H     0.16933    0.05791    0.01197
 40 H    -0.16135    0.03771    0.11611
 41 H    -0.03127   -0.14651   -0.00866
 42 N     0.41522    0.14380   -0.03283
 43 N    -0.30481    0.06492    0.05556

System changes: positions 

Initializing position-dependent things.

Density initialized from wave functions
       .-----------------------.  
      /|                       |  
     / |                       |  
    /  |                       |  
   /   |                       |  
  /    |                       |  
 *     |                       |  
 |     |                       |  
 |     CH                   H  |  
 |     |                       |  
 |     O                       |  
 |     H                       |  
 |     |                       |  
 | H   |                       |  
 |     |       Li      Li      |  
 |     |                       |  
 |     |     Li      Li      Li|  
 |  Li |  Li      Li      Li   |  
 |     |    Li      Li  N      |  
 |     |Li      Li   N  LLi    |  
 |     |                       |  
 |   LLi     LLi     LLi       |  
 |     |  Li      Li      Li   |  
 | Li  |   Li      Li          |  
 |     |Li      Li      Li     |  
 Li    | Li      Li            |  
 |    Li      Li      Li       |  
 |     |                       |  
 |     |                       |  
 |     |                       |  
 |     |                       |  
 |     |                       |  
 |     |                       |  
 |     .-----------------------.  
 |    /                       /   
 |   /                       /    
 |  /                       /     
 | /                       /      
 |/                       /       
 *-----------------------*        

Positions:
   0 Li     1.617037    1.617037   10.000000    ( 0.0000,  0.0000,  0.0000)
   1 Li     4.851111    1.617037   10.000000    ( 0.0000,  0.0000,  0.0000)
   2 Li     8.085185    1.617037   10.000000    ( 0.0000,  0.0000,  0.0000)
   3 Li     1.617037    4.851111   10.000000    ( 0.0000,  0.0000,  0.0000)
   4 Li     4.851111    4.851111   10.000000    ( 0.0000,  0.0000,  0.0000)
   5 Li     8.085185    4.851111   10.000000    ( 0.0000,  0.0000,  0.0000)
   6 Li     1.617037    8.085185   10.000000    ( 0.0000,  0.0000,  0.0000)
   7 Li     4.851111    8.085185   10.000000    ( 0.0000,  0.0000,  0.0000)
   8 Li     8.085185    8.085185   10.000000    ( 0.0000,  0.0000,  0.0000)
   9 Li     0.000000    0.000000   11.617037    ( 0.0000,  0.0000,  0.0000)
  10 Li     3.234074    0.000000   11.617037    ( 0.0000,  0.0000,  0.0000)
  11 Li     6.468148    0.000000   11.617037    ( 0.0000,  0.0000,  0.0000)
  12 Li     0.000000    3.234074   11.617037    ( 0.0000,  0.0000,  0.0000)
  13 Li     3.234074    3.234074   11.617037    ( 0.0000,  0.0000,  0.0000)
  14 Li     6.468148    3.234074   11.617037    ( 0.0000,  0.0000,  0.0000)
  15 Li     0.000000    6.468148   11.617037    ( 0.0000,  0.0000,  0.0000)
  16 Li     3.234074    6.468148   11.617037    ( 0.0000,  0.0000,  0.0000)
  17 Li     6.468148    6.468148   11.617037    ( 0.0000,  0.0000,  0.0000)
  18 Li     1.582538    1.603529   13.560002    ( 0.0000,  0.0000,  0.0000)
  19 Li     4.931216    1.546483   13.541474    ( 0.0000,  0.0000,  0.0000)
  20 Li     8.229399    1.456345   13.935092    ( 0.0000,  0.0000,  0.0000)
  21 Li     1.625294    4.814761   13.516502    ( 0.0000,  0.0000,  0.0000)
  22 Li     4.947812    4.747703   13.481623    ( 0.0000,  0.0000,  0.0000)
  23 Li     8.145182    4.711846   13.522217    ( 0.0000,  0.0000,  0.0000)
  24 Li     1.525916    8.172223   13.571658    ( 0.0000,  0.0000,  0.0000)
  25 Li     4.871835    8.093459   13.545560    ( 0.0000,  0.0000,  0.0000)
  26 Li     8.075680    8.105265   13.568181    ( 0.0000,  0.0000,  0.0000)
  27 Li    -0.189703    0.128057   16.313768    ( 0.0000,  0.0000,  0.0000)
  28 Li     3.169053   -0.002475   15.498282    ( 0.0000,  0.0000,  0.0000)
  29 Li     6.386722   -0.163296   15.760919    ( 0.0000,  0.0000,  0.0000)
  30 Li     0.221384    3.238797   15.731894    ( 0.0000,  0.0000,  0.0000)
  31 Li     3.459621    3.261327   15.395790    ( 0.0000,  0.0000,  0.0000)
  32 Li     6.825331    2.873033   15.763252    ( 0.0000,  0.0000,  0.0000)
  33 Li    -0.001308    6.465885   15.413303    ( 0.0000,  0.0000,  0.0000)
  34 Li     3.212452    6.465139   15.425208    ( 0.0000,  0.0000,  0.0000)
  35 Li     6.463617    6.263079   15.377633    ( 0.0000,  0.0000,  0.0000)
  36 O     10.027017    9.195210   18.801858    ( 0.0000,  0.0000,  0.0000)
  37 C      9.786201    9.509273   20.189338    ( 0.0000,  0.0000,  0.0000)
  38 H     10.276051    8.791975   20.855519    ( 0.0000,  0.0000,  0.0000)
  39 H      8.712984    9.539081   20.414409    ( 0.0000,  0.0000,  0.0000)
  40 H     10.232686   10.489149   20.349040    ( 0.0000,  0.0000,  0.0000)
  41 H      9.912899    8.244782   18.681843    ( 0.0000,  0.0000,  0.0000)
  42 N      8.615365   11.649437   15.963671    ( 0.0000,  0.0000,  0.0000)
  43 N      7.743924   10.751726   15.954593    ( 0.0000,  0.0000,  0.0000)

Unit cell:
           periodic     x           y           z      points  spacing
  1. axis:    yes    9.702222    0.000000    0.000000    60     0.1617
  2. axis:    yes    0.000000    9.702222    0.000000    60     0.1617
  3. axis:    no     0.000000    0.000000   26.601111   168     0.1583

  Lengths:   9.702222   9.702222  26.601111
  Angles:   90.000000  90.000000  90.000000

Effective grid spacing dv^(1/3) = 0.1606

     iter     time        total  log10-change:
                         energy  eigst   dens
iter:   1 10:26:40  -284.390842  -1.92
iter:   2 10:29:07  -284.391183  -2.61  -2.71
iter:   3 10:31:37  -284.391093c -3.08  -2.74
iter:   4 10:34:13  -284.390712c -3.15  -2.79
Writing to output.gpw (mode='')

iter:   5 10:36:58  -284.390677c -3.30  -3.02
iter:   6 10:39:28  -284.390687c -3.80  -3.09
iter:   7 10:42:01  -284.390670c -3.52  -3.27
iter:   8 10:44:36  -284.390661c -4.45  -3.29
iter:   9 10:47:13  -284.390653c -4.43  -3.41
Writing to output.gpw (mode='')

iter:  10 10:49:51  -284.390656c -4.63  -3.57
iter:  11 10:52:18  -284.390657c -4.95  -3.67
iter:  12 10:54:55  -284.390660c -5.02  -3.75
iter:  13 10:57:26  -284.390656c -5.23  -3.82
iter:  14 10:59:52  -284.390652c -5.27  -3.93
Writing to output.gpw (mode='')

iter:  15 11:02:42  -284.390652c -5.86  -4.11c
iter:  16 11:05:29  -284.390655c -6.02  -4.18c
iter:  17 11:08:01  -284.390654c -6.22  -4.31c
iter:  18 11:10:29  -284.390653c -6.16  -4.42c
iter:  19 11:12:54  -284.390654c -6.40  -4.41c
Writing to output.gpw (mode='')

iter:  20 11:15:45  -284.390654c -6.69  -4.56c
iter:  21 11:18:17  -284.390654c -6.68  -4.60c
iter:  22 11:20:46  -284.390654c -6.88  -4.79c
iter:  23 11:23:13  -284.390654c -6.95  -4.81c
iter:  24 11:25:45  -284.390654c -7.18  -4.87c
Writing to output.gpw (mode='')

iter:  25 11:28:40  -284.390654c -7.18  -5.00c
iter:  26 11:31:10  -284.390654c -7.31  -5.10c
iter:  27 11:33:39  -284.390654c -7.60c -5.18c

Converged after 27 iterations.

Dipole moment: (-23.752703, 15.640289, 0.334382) |e|*Ang

Energy contributions relative to reference atoms: (reference = -13382.245603)

Kinetic:       +126.020702
Potential:     -118.719042
External:        +0.000000
XC:            -292.349507
Entropy (-ST):   -0.156314
Local:           +0.735350
--------------------------
Free energy:   -284.468811
Extrapolated:  -284.390654

Dipole-layer corrected work functions: 3.382597, 2.739801 eV

Showing only first 2 kpts
 Kpt  Band  Eigenvalues  Occupancy
  0    28     -3.25844    1.96202
  0    29     -3.12682    1.57581
  0    30     -3.03267    0.72219
  0    31     -2.84742    0.02743

  1    28     -3.32038    1.98885
  1    29     -3.18988    1.85828
  1    30     -2.99257    0.40441
  1    31     -2.84593    0.02663


Fermi level: -3.06120

No gap
Writing to output.gpw (mode='')


Forces in eV/Ang:
  0 Li   -0.00209    0.00852   -0.30327
  1 Li   -0.00880   -0.01020   -0.29475
  2 Li    0.00038    0.00084   -0.27468
  3 Li    0.00043    0.01055   -0.28980
  4 Li   -0.01396    0.01297   -0.28004
  5 Li    0.00992    0.01067   -0.29619
  6 Li    0.00402   -0.00492   -0.29057
  7 Li   -0.00762    0.00222   -0.28820
  8 Li   -0.00800    0.00565   -0.30838
  9 Li   -0.06367    0.05344    0.27305
 10 Li   -0.00634    0.02048    0.33390
 11 Li    0.11066    0.05179    0.36237
 12 Li   -0.04619   -0.12866    0.35199
 13 Li    0.01846   -0.07039    0.32412
 14 Li    0.09388   -0.12957    0.32538
 15 Li   -0.03083   -0.00332    0.35329
 16 Li    0.00222    0.00262    0.37961
 17 Li    0.06262   -0.01565    0.34594
 18 Li    0.03676    0.03825    0.01139
 19 Li    0.02559   -0.00428    0.01495
 20 Li    0.01133   -0.01616   -0.18015
 21 Li    0.01433   -0.00066    0.00169
 22 Li   -0.01078    0.03150   -0.00055
 23 Li    0.00408    0.00699    0.02171
 24 Li    0.01860   -0.01311   -0.01718
 25 Li   -0.01968   -0.01461   -0.01074
 26 Li   -0.02129   -0.00177    0.01257
 27 Li    0.05634    0.02452    0.07642
 28 Li   -0.02307   -0.01571    0.00816
 29 Li   -0.05377   -0.10693   -0.07257
 30 Li   -0.05380    0.00862   -0.02594
 31 Li   -0.01595    0.00334    0.04002
 32 Li   -0.07774    0.05192   -0.00537
 33 Li    0.01882    0.01718    0.01151
 34 Li    0.00923    0.00224    0.01344
 35 Li   -0.02680    0.00356    0.05227
 36 O    -0.02943   -0.05993   -0.15738
 37 C     0.04308    0.00236   -0.15118
 38 H    -0.01362    0.01379   -0.07964
 39 H     0.10428    0.03924   -0.02488
 40 H    -0.10940    0.05497    0.07315
 41 H    -0.02170   -0.10140   -0.02596
 42 N     0.42287    0.22691   -0.05338
 43 N    -0.38782   -0.04683    0.04828

System changes: positions 

Initializing position-dependent things.

Density initialized from wave functions
       .-----------------------.  
      /|                       |  
     / |                       |  
    /  |                       |  
   /   |                       |  
  /    |                       |  
 *     |                       |  
 |     |                       |  
 |     CH                   H  |  
 |     |                       |  
 |     O                       |  
 |     H                       |  
 |     |                       |  
 | H   |                       |  
 |     |       Li      Li      |  
 |     |                       |  
 |   Li|     Li      Li        |  
 |  Li |  Li      Li      Li   |  
 |     |    Li      Li  N      |  
 |     |Li      Li   N  LLi    |  
 |     |                       |  
 |   LLi     LLi     LLi       |  
 |     |  Li      Li      Li   |  
 | Li  |   Li      Li          |  
 |     |Li      Li      Li     |  
 Li    | Li      Li            |  
 |    Li      Li      Li       |  
 |     |                       |  
 |     |                       |  
 |     |                       |  
 |     |                       |  
 |     |                       |  
 |     |                       |  
 |     .-----------------------.  
 |    /                       /   
 |   /                       /    
 |  /                       /     
 | /                       /      
 |/                       /       
 *-----------------------*        

Positions:
   0 Li     1.617037    1.617037   10.000000    ( 0.0000,  0.0000,  0.0000)
   1 Li     4.851111    1.617037   10.000000    ( 0.0000,  0.0000,  0.0000)
   2 Li     8.085185    1.617037   10.000000    ( 0.0000,  0.0000,  0.0000)
   3 Li     1.617037    4.851111   10.000000    ( 0.0000,  0.0000,  0.0000)
   4 Li     4.851111    4.851111   10.000000    ( 0.0000,  0.0000,  0.0000)
   5 Li     8.085185    4.851111   10.000000    ( 0.0000,  0.0000,  0.0000)
   6 Li     1.617037    8.085185   10.000000    ( 0.0000,  0.0000,  0.0000)
   7 Li     4.851111    8.085185   10.000000    ( 0.0000,  0.0000,  0.0000)
   8 Li     8.085185    8.085185   10.000000    ( 0.0000,  0.0000,  0.0000)
   9 Li     0.000000    0.000000   11.617037    ( 0.0000,  0.0000,  0.0000)
  10 Li     3.234074    0.000000   11.617037    ( 0.0000,  0.0000,  0.0000)
  11 Li     6.468148    0.000000   11.617037    ( 0.0000,  0.0000,  0.0000)
  12 Li     0.000000    3.234074   11.617037    ( 0.0000,  0.0000,  0.0000)
  13 Li     3.234074    3.234074   11.617037    ( 0.0000,  0.0000,  0.0000)
  14 Li     6.468148    3.234074   11.617037    ( 0.0000,  0.0000,  0.0000)
  15 Li     0.000000    6.468148   11.617037    ( 0.0000,  0.0000,  0.0000)
  16 Li     3.234074    6.468148   11.617037    ( 0.0000,  0.0000,  0.0000)
  17 Li     6.468148    6.468148   11.617037    ( 0.0000,  0.0000,  0.0000)
  18 Li     1.590403    1.610387   13.565636    ( 0.0000,  0.0000,  0.0000)
  19 Li     4.938292    1.544537   13.543916    ( 0.0000,  0.0000,  0.0000)
  20 Li     8.232511    1.447137   13.938006    ( 0.0000,  0.0000,  0.0000)
  21 Li     1.627695    4.811687   13.518740    ( 0.0000,  0.0000,  0.0000)
  22 Li     4.946315    4.754164   13.478008    ( 0.0000,  0.0000,  0.0000)
  23 Li     8.148526    4.710621   13.526597    ( 0.0000,  0.0000,  0.0000)
  24 Li     1.526694    8.172289   13.574807    ( 0.0000,  0.0000,  0.0000)
  25 Li     4.867521    8.088524   13.542571    ( 0.0000,  0.0000,  0.0000)
  26 Li     8.070299    8.107510   13.573760    ( 0.0000,  0.0000,  0.0000)
  27 Li    -0.188792    0.157674   16.340638    ( 0.0000,  0.0000,  0.0000)
  28 Li     3.160462   -0.005750   15.500118    ( 0.0000,  0.0000,  0.0000)
  29 Li     6.388037   -0.192732   15.752749    ( 0.0000,  0.0000,  0.0000)
  30 Li     0.217900    3.252342   15.737349    ( 0.0000,  0.0000,  0.0000)
  31 Li     3.456792    3.261168   15.403558    ( 0.0000,  0.0000,  0.0000)
  32 Li     6.799581    2.899756   15.765487    ( 0.0000,  0.0000,  0.0000)
  33 Li     0.004300    6.466409   15.414183    ( 0.0000,  0.0000,  0.0000)
  34 Li     3.214651    6.467164   15.427279    ( 0.0000,  0.0000,  0.0000)
  35 Li     6.456872    6.262011   15.388186    ( 0.0000,  0.0000,  0.0000)
  36 O     10.029536    9.186755   18.781795    ( 0.0000,  0.0000,  0.0000)
  37 C      9.791103    9.505813   20.165690    ( 0.0000,  0.0000,  0.0000)
  38 H     10.271833    8.791602   20.837881    ( 0.0000,  0.0000,  0.0000)
  39 H      8.726259    9.540635   20.410364    ( 0.0000,  0.0000,  0.0000)
  40 H     10.221872   10.488192   20.342864    ( 0.0000,  0.0000,  0.0000)
  41 H      9.914999    8.228144   18.679186    ( 0.0000,  0.0000,  0.0000)
  42 N      8.621571   11.664595   15.932606    ( 0.0000,  0.0000,  0.0000)
  43 N      7.726471   10.784390   15.940218    ( 0.0000,  0.0000,  0.0000)

Unit cell:
           periodic     x           y           z      points  spacing
  1. axis:    yes    9.702222    0.000000    0.000000    60     0.1617
  2. axis:    yes    0.000000    9.702222    0.000000    60     0.1617
  3. axis:    no     0.000000    0.000000   26.601111   168     0.1583

  Lengths:   9.702222   9.702222  26.601111
  Angles:   90.000000  90.000000  90.000000

Effective grid spacing dv^(1/3) = 0.1606

     iter     time        total  log10-change:
                         energy  eigst   dens
iter:   1 11:37:13  -284.417677  -0.65
iter:   2 11:39:51  -284.416984  -1.37  -1.94
iter:   3 11:42:30  -284.417857c -1.83  -2.10
iter:   4 11:45:02  -284.415082c -2.21  -2.12
Writing to output.gpw (mode='')

iter:   5 11:47:46  -284.409667c -2.07  -2.20
iter:   6 11:50:19  -284.409123c -1.89  -2.50
iter:   7 11:52:53  -284.409305c -2.40  -2.50
iter:   8 11:55:31  -284.409471c -2.79  -2.52
iter:   9 11:58:03  -284.409195c -3.00  -2.77
Writing to output.gpw (mode='')

iter:  10 12:00:56  -284.409109c -3.52  -2.87
iter:  11 12:03:34  -284.409215c -3.48  -2.98
iter:  12 12:06:13  -284.409203c -3.61  -3.19
iter:  13 12:09:00  -284.409090c -4.06  -3.28
iter:  14 12:11:36  -284.409099c -4.12  -3.38
Writing to output.gpw (mode='')

iter:  15 12:14:43  -284.409146c -4.47  -3.43
iter:  16 12:17:17  -284.409151c -4.60  -3.62
iter:  17 12:19:48  -284.409148c -4.84  -3.67
iter:  18 12:22:23  -284.409192c -4.74  -3.77
iter:  19 12:24:57  -284.409181c -5.27  -3.97
Writing to output.gpw (mode='')

iter:  20 12:27:56  -284.409166c -5.25  -4.06c
iter:  21 12:30:36  -284.409163c -5.27  -4.20c
