
  ___ ___ ___ _ _ _  
 |   |   |_  | | | | 
 | | | | | . | | | | 
 |__ |  _|___|_____|  22.8.0
 |___|_|             

User:   vazumah@r264.ib.bridges2.psc.edu
Date:   Fri Mar 10 11:14:10 2023
Arch:   x86_64
Pid:    20860
CWD:    /jet/home/vazumah/Calcs/LiMEAS/proton_donors/methanol_x/bridge/8.085_1.617/N2_x
Python: 3.11.0
gpaw:   /jet/home/vazumah/.conda/envs/GPAW_mpich/lib/python3.11/site-packages/gpaw
_gpaw:  /jet/home/vazumah/.conda/envs/GPAW_mpich/lib/python3.11/site-packages/
        _gpaw.cpython-311-x86_64-linux-gnu.so
ase:    /jet/home/vazumah/.conda/envs/GPAW_mpich/lib/python3.11/site-packages/ase (version 3.22.1)
numpy:  /jet/home/vazumah/.conda/envs/GPAW_mpich/lib/python3.11/site-packages/numpy (version 1.24.2)
scipy:  /jet/home/vazumah/.conda/envs/GPAW_mpich/lib/python3.11/site-packages/scipy (version 1.10.1)
libxc:  5.2.3
units:  Angstrom and eV
cores: 128
OpenMP: True
OMP_NUM_THREADS: 1

Input parameters:
  h: 0.16
  kpts: {size: [4, 4, 1]}
  occupations: {name: fermi-dirac,
                width: 0.05}
  poissonsolver: {dipolelayer: xy}
  xc: BEEF-vdW

System changes: positions, numbers, cell, pbc, initial_charges, initial_magmoms 

Initialize ...

species:
  Li:
    name: Lithium
    id: 830b4218f175192f93f959cfc0aad614
    Z: 3.0
    valence: 1
    core: 2
    charge: 0.0
    file: /jet/home/vazumah/datasets/gpaw-setups-0.9.20000/Li.PBE.gz
    compensation charges: {type: gauss,
                           rc: 0.33,
                           lmax: 2}
    cutoffs: {filter: 1.91,
              core: 2.55}
    valence states:
      #              energy  rcut
      - 2s(1.00)    -2.874   1.058
      - 2p(0.00)    -1.090   1.058
      -  s          24.337   1.058
  
    # Using partial waves for Li as LCAO basis

  O:
    name: Oxygen
    id: 32ecd46bf208036f09c70b0ec9a88b78
    Z: 8.0
    valence: 6
    core: 2
    charge: 0.0
    file: /jet/home/vazumah/datasets/gpaw-setups-0.9.20000/O.PBE.gz
    compensation charges: {type: gauss,
                           rc: 0.21,
                           lmax: 2}
    cutoffs: {filter: 1.17,
              core: 0.83}
    valence states:
      #              energy  rcut
      - 2s(2.00)   -23.961   0.688
      - 2p(4.00)    -9.029   0.598
      -  s           3.251   0.688
      -  p          18.182   0.598
      -  d           0.000   0.619
  
    # Using partial waves for O as LCAO basis

  C:
    name: Carbon
    id: 4aa54d4b901d75f77cc0ea3eec22967b
    Z: 6.0
    valence: 4
    core: 2
    charge: 0.0
    file: /jet/home/vazumah/datasets/gpaw-setups-0.9.20000/C.PBE.gz
    compensation charges: {type: gauss,
                           rc: 0.20,
                           lmax: 2}
    cutoffs: {filter: 1.14,
              core: 1.14}
    valence states:
      #              energy  rcut
      - 2s(2.00)   -13.751   0.635
      - 2p(2.00)    -5.284   0.635
      -  s          13.461   0.635
      -  p          21.927   0.635
      -  d           0.000   0.635
  
    # Using partial waves for C as LCAO basis

  H:
    name: Hydrogen
    id: d65de229564ff8ea4db303e23b6d1ecf
    Z: 1.0
    valence: 1
    core: 0
    charge: 0.0
    file: /jet/home/vazumah/datasets/gpaw-setups-0.9.20000/H.PBE.gz
    compensation charges: {type: gauss,
                           rc: 0.15,
                           lmax: 2}
    cutoffs: {filter: 0.85,
              core: 0.53}
    valence states:
      #              energy  rcut
      - 1s(1.00)    -6.494   0.476
      -  s          20.717   0.476
      -  p           0.000   0.476
  
    # Using partial waves for H as LCAO basis

  N:
    name: Nitrogen
    id: f7500608b86eaa90eef8b1d9a670dc53
    Z: 7.0
    valence: 5
    core: 2
    charge: 0.0
    file: /jet/home/vazumah/datasets/gpaw-setups-0.9.20000/N.PBE.gz
    compensation charges: {type: gauss,
                           rc: 0.18,
                           lmax: 2}
    cutoffs: {filter: 1.11,
              core: 0.96}
    valence states:
      #              energy  rcut
      - 2s(2.00)   -18.583   0.603
      - 2p(3.00)    -7.089   0.529
      -  s           8.629   0.603
      -  p          20.123   0.529
      -  d           0.000   0.577
  
    # Using partial waves for N as LCAO basis

Reference energy: -13382.245603  # eV

Spin-paired calculation

Convergence criteria:
 Maximum [total energy] change in last 3 cyles: 0.0005 eV / electron
 Maximum integral of absolute [dens]ity change: 0.0001 electrons / valence electron
 Maximum integral of absolute [eigenst]ate change: 4e-08 eV^2 / valence electron
 Maximum number of scf [iter]ations: 333
 (Square brackets indicate name in SCF output, whereas a 'c' in
 the SCF output indicates the quantity has converged.)

Symmetries present (total): 1

  ( 1  0  0)
  ( 0  1  0)
  ( 0  0  1)

16 k-points: 4 x 4 x 1 Monkhorst-Pack grid
8 k-points in the irreducible part of the Brillouin zone
       k-points in crystal coordinates                weights
   0:     0.12500000   -0.37500000    0.00000000          2/16
   1:     0.12500000   -0.12500000    0.00000000          2/16
   2:     0.12500000    0.12500000    0.00000000          2/16
   3:     0.12500000    0.37500000    0.00000000          2/16
   4:     0.37500000   -0.37500000    0.00000000          2/16
   5:     0.37500000   -0.12500000    0.00000000          2/16
   6:     0.37500000    0.12500000    0.00000000          2/16
   7:     0.37500000    0.37500000    0.00000000          2/16

Wave functions: Uniform real-space grid
  Kinetic energy operator: 6*3+1=19 point O(h^6) finite-difference Laplacian
  ScaLapack parameters: grid=1x1, blocksize=None
  Wavefunction extrapolation:
    Improved wavefunction reuse through dual PAW basis 

Occupation numbers: Fermi-Dirac:
  width: 0.0500  # eV
 

Eigensolver
   Davidson(niter=2) 

Densities:
  Coarse grid: 60*60*168 grid
  Fine grid: 120*120*336 grid
  Total Charge: 0.000000 

Density mixing:
  Method: separate
  Backend: pulay
  Linear mixing parameter: 0.05
  old densities: 5
  Damping of long wavelength oscillations: 50 

Hamiltonian:
  XC and Coulomb potentials evaluated on a 120*120*336 grid
  Using the BEEF-vdW Exchange-Correlation functional
  Interpolation: tri-quintic (5. degree polynomial)
  Poisson solver: FastPoissonSolver using
    Stencil: 6*3+1=19 point O(h^6) finite-difference Laplacian
    FFT axes: [0, 1]
    FST axes: [2]

Dipole correction along z-axis 

XC parameters: BEEF-vdW with 2 nearest neighbor stencil

Memory estimate:
  Process memory now: 132.98 MiB
  Calculator: 77.36 MiB
    Density: 22.77 MiB
      Arrays: 7.40 MiB
      Localized functions: 12.55 MiB
      Mixer: 2.82 MiB
    Hamiltonian: 5.83 MiB
      Arrays: 4.84 MiB
      XC: 0.00 MiB
      Poisson: 0.00 MiB
      vbar: 0.99 MiB
    Wavefunctions: 48.76 MiB
      Arrays psit_nG: 22.52 MiB
      Eigensolver: 25.58 MiB
      Projections: 0.01 MiB
      Projectors: 0.64 MiB

Total number of cores used: 128
Parallelization over k-points: 8
Domain decomposition: 2 x 2 x 4

Number of atoms: 44
Number of atomic orbitals: 164
Number of bands in calculation: 40
Number of valence electrons: 60
Bands to converge: occupied

... initialized

Initializing position-dependent things.

Density initialized from atomic densities
Creating initial wave functions:
  40 bands from LCAO basis set

       .-----------------------.  
      /|                       |  
     / |                       |  
    /  |                       |  
   /   |                       |  
  /    |                       |  
 *     |                       |  
 |     |                       |  
 |     |                       |  
 |     |                       |  
 |     |                       |  
 |     |                       |  
 |     |                       |  
 |     |                       |  
 |H    |                       |  
 | H   |             HO   C    |  
 |H  Li|     Li      Li        |  
 |     |  Li      LN  N   Li   |  
 | Li  |   Li      Li          |  
 |     |Li      Li      Li     |  
 Li    | Li      Li            |  
 |   LLi     LLi     LLi       |  
 |     |  Li      Li      Li   |  
 | Li  |   Li      Li          |  
 |     |Li      Li      Li     |  
 Li    | Li      Li            |  
 |    Li      Li      Li       |  
 |     |                       |  
 |     |                       |  
 |     |                       |  
 |     |                       |  
 |     |                       |  
 |     |                       |  
 |     .-----------------------.  
 |    /                       /   
 |   /                       /    
 |  /                       /     
 | /                       /      
 |/                       /       
 *-----------------------*        

Positions:
   0 Li     1.617037    1.617037   10.000000    ( 0.0000,  0.0000,  0.0000)
   1 Li     4.851111    1.617037   10.000000    ( 0.0000,  0.0000,  0.0000)
   2 Li     8.085185    1.617037   10.000000    ( 0.0000,  0.0000,  0.0000)
   3 Li     1.617037    4.851111   10.000000    ( 0.0000,  0.0000,  0.0000)
   4 Li     4.851111    4.851111   10.000000    ( 0.0000,  0.0000,  0.0000)
   5 Li     8.085185    4.851111   10.000000    ( 0.0000,  0.0000,  0.0000)
   6 Li     1.617037    8.085185   10.000000    ( 0.0000,  0.0000,  0.0000)
   7 Li     4.851111    8.085185   10.000000    ( 0.0000,  0.0000,  0.0000)
   8 Li     8.085185    8.085185   10.000000    ( 0.0000,  0.0000,  0.0000)
   9 Li     0.000000    0.000000   11.617037    ( 0.0000,  0.0000,  0.0000)
  10 Li     3.234074    0.000000   11.617037    ( 0.0000,  0.0000,  0.0000)
  11 Li     6.468148    0.000000   11.617037    ( 0.0000,  0.0000,  0.0000)
  12 Li     0.000000    3.234074   11.617037    ( 0.0000,  0.0000,  0.0000)
  13 Li     3.234074    3.234074   11.617037    ( 0.0000,  0.0000,  0.0000)
  14 Li     6.468148    3.234074   11.617037    ( 0.0000,  0.0000,  0.0000)
  15 Li     0.000000    6.468148   11.617037    ( 0.0000,  0.0000,  0.0000)
  16 Li     3.234074    6.468148   11.617037    ( 0.0000,  0.0000,  0.0000)
  17 Li     6.468148    6.468148   11.617037    ( 0.0000,  0.0000,  0.0000)
  18 Li     1.617038    1.617038   13.469728    ( 0.0000,  0.0000,  0.0000)
  19 Li     4.851111    1.617038   13.469729    ( 0.0000,  0.0000,  0.0000)
  20 Li     8.085184    1.617038   13.469728    ( 0.0000,  0.0000,  0.0000)
  21 Li     1.617038    4.851111   13.469729    ( 0.0000,  0.0000,  0.0000)
  22 Li     4.851111    4.851111   13.469730    ( 0.0000,  0.0000,  0.0000)
  23 Li     8.085184    4.851111   13.469729    ( 0.0000,  0.0000,  0.0000)
  24 Li     1.617038    8.085184   13.469728    ( 0.0000,  0.0000,  0.0000)
  25 Li     4.851111    8.085184   13.469729    ( 0.0000,  0.0000,  0.0000)
  26 Li     8.085184    8.085184   13.469728    ( 0.0000,  0.0000,  0.0000)
  27 Li    -0.000000   -0.000000   15.445939    ( 0.0000,  0.0000,  0.0000)
  28 Li     3.234074    0.000000   15.445939    ( 0.0000,  0.0000,  0.0000)
  29 Li     6.468148    0.000000   15.445939    ( 0.0000,  0.0000,  0.0000)
  30 Li     0.000000    3.234074   15.445939    ( 0.0000,  0.0000,  0.0000)
  31 Li     3.234076    3.234076   15.445938    ( 0.0000,  0.0000,  0.0000)
  32 Li     6.468146    3.234076   15.445938    ( 0.0000,  0.0000,  0.0000)
  33 Li     0.000000    6.468148   15.445939    ( 0.0000,  0.0000,  0.0000)
  34 Li     3.234076    6.468146   15.445938    ( 0.0000,  0.0000,  0.0000)
  35 Li     6.468146    6.468146   15.445938    ( 0.0000,  0.0000,  0.0000)
  36 O      8.085185    1.617037   18.445939    ( 0.0000,  0.0000,  0.0000)
  37 C      9.515148    1.601963   18.451439    ( 0.0000,  0.0000,  0.0000)
  38 H      9.919419    0.852010   17.764289    ( 0.0000,  0.0000,  0.0000)
  39 H      9.918660    1.423554   19.453228    ( 0.0000,  0.0000,  0.0000)
  40 H      9.834591    2.587678   18.118510    ( 0.0000,  0.0000,  0.0000)
  41 H      7.773530    0.753908   18.736944    ( 0.0000,  0.0000,  0.0000)
  42 N      8.085000    1.617000   17.195939    ( 0.0000,  0.0000,  0.0000)
  43 N      6.988378    1.617000   17.195939    ( 0.0000,  0.0000,  0.0000)

Unit cell:
           periodic     x           y           z      points  spacing
  1. axis:    yes    9.702222    0.000000    0.000000    60     0.1617
  2. axis:    yes    0.000000    9.702222    0.000000    60     0.1617
  3. axis:    no     0.000000    0.000000   26.601111   168     0.1583

  Lengths:   9.702222   9.702222  26.601111
  Angles:   90.000000  90.000000  90.000000

Effective grid spacing dv^(1/3) = 0.1606

     iter     time        total  log10-change:
                         energy  eigst   dens
iter:   1 11:14:25  -445.357601
iter:   2 11:14:39  -140.527907  +2.42  -0.07
iter:   3 11:14:46  -163.971995  +3.36  -0.22
iter:   4 11:14:53  -212.190448  +2.85  -0.22
Writing to output.gpw (mode='')

iter:   5 11:15:00  -225.271398  +2.68  -0.32
iter:   6 11:15:07  -253.178523  +2.43  -0.53
iter:   7 11:15:14  -293.964328  +2.47  -0.57
iter:   8 11:15:22  -306.446137  +2.09  -0.57
iter:   9 11:15:29  -292.633069  +1.81  -0.53
Writing to output.gpw (mode='')

iter:  10 11:15:36  -295.500557  +1.55  -0.55
iter:  11 11:15:43  -302.746801  +1.58  -0.51
iter:  12 11:15:50  -338.072254  +2.05  -0.60
iter:  13 11:15:57  -305.779775  +1.35  -0.43
iter:  14 11:16:04  -314.524683  +2.00  -0.57
Writing to output.gpw (mode='')

iter:  15 11:16:11  -290.284978  +1.34  -0.38
iter:  16 11:16:18  -282.703351  +1.61  -0.51
iter:  17 11:16:25  -278.303595  +0.81  -0.68
iter:  18 11:16:32  -276.449797  +0.60  -0.77
iter:  19 11:16:39  -275.541663  +0.69  -0.80
Writing to output.gpw (mode='')

iter:  20 11:16:46  -275.373948  +0.30  -0.88
iter:  21 11:16:53  -284.067171  +0.78  -0.88
iter:  22 11:17:00  -277.081236  -0.06  -0.72
iter:  23 11:17:07  -272.538248  +1.08  -0.80
iter:  24 11:17:14  -272.885302  +0.14  -1.07
Writing to output.gpw (mode='')

iter:  25 11:17:21  -273.034407  +0.38  -1.13
iter:  26 11:17:29  -272.788867  +0.24  -1.22
iter:  27 11:17:36  -273.629901  +0.86  -1.19
iter:  28 11:17:43  -273.167988  +0.18  -1.10
iter:  29 11:17:50  -272.895116  -0.19  -1.32
Writing to output.gpw (mode='')

iter:  30 11:17:57  -272.617405  -0.02  -1.44
iter:  31 11:18:04  -272.618243  -0.54  -1.56
iter:  32 11:18:11  -272.609065c -1.10  -1.59
iter:  33 11:18:18  -272.608728c -0.79  -1.69
iter:  34 11:18:25  -272.606861c -0.92  -1.82
Writing to output.gpw (mode='')

iter:  35 11:18:32  -272.596474c -1.33  -1.81
iter:  36 11:18:39  -272.594141c -1.19  -1.95
iter:  37 11:18:46  -272.598808c -1.11  -2.02
iter:  38 11:18:53  -272.599355c -1.37  -2.03
iter:  39 11:19:00  -272.597400c -1.76  -2.10
Writing to output.gpw (mode='')

iter:  40 11:19:07  -272.599732c -1.47  -2.20
iter:  41 11:19:14  -272.598651c -2.08  -2.37
iter:  42 11:19:21  -272.599213c -2.09  -2.62
iter:  43 11:19:34  -272.600346c -1.99  -2.65
iter:  44 11:19:42  -272.601425c -2.21  -2.79
Writing to output.gpw (mode='')

iter:  45 11:19:49  -272.601955c -2.32  -2.85
iter:  46 11:19:56  -272.602886c -2.10  -2.86
iter:  47 11:20:04  -272.603566c -2.45  -2.88
iter:  48 11:20:11  -272.604255c -2.44  -2.91
iter:  49 11:20:18  -272.604459c -2.34  -3.04
Writing to output.gpw (mode='')

iter:  50 11:20:25  -272.605166c -2.53  -3.10
iter:  51 11:20:32  -272.605335c -2.70  -3.21
iter:  52 11:20:39  -272.605468c -2.94  -3.40
iter:  53 11:20:46  -272.605711c -2.70  -3.40
iter:  54 11:20:53  -272.605661c -2.89  -3.39
Writing to output.gpw (mode='')

iter:  55 11:21:00  -272.605882c -3.06  -3.23
iter:  56 11:21:10  -272.606031c -3.15  -3.25
iter:  57 11:21:17  -272.606001c -2.90  -3.31
iter:  58 11:21:24  -272.605978c -3.08  -3.11
iter:  59 11:21:31  -272.606092c -2.90  -3.02
Writing to output.gpw (mode='')

iter:  60 11:21:39  -272.606314c -3.29  -3.00
iter:  61 11:21:46  -272.606484c -3.41  -3.09
iter:  62 11:21:53  -272.606721c -3.47  -3.12
iter:  63 11:22:00  -272.607034c -3.54  -3.21
iter:  64 11:22:07  -272.606763c -3.61  -3.28
Writing to output.gpw (mode='')

iter:  65 11:22:14  -272.607190c -3.35  -3.35
iter:  66 11:22:21  -272.607117c -3.78  -3.53
iter:  67 11:22:29  -272.607163c -3.85  -3.56
iter:  68 11:22:36  -272.607202c -3.73  -3.57
iter:  69 11:22:43  -272.607258c -3.68  -3.61
Writing to output.gpw (mode='')

iter:  70 11:22:50  -272.607259c -4.09  -3.94
iter:  71 11:22:57  -272.607282c -4.08  -3.94
iter:  72 11:23:04  -272.607331c -4.10  -3.98
iter:  73 11:23:11  -272.607336c -4.03  -4.18c
iter:  74 11:23:19  -272.607319c -3.98  -4.23c
Writing to output.gpw (mode='')

iter:  75 11:23:26  -272.607358c -4.23  -4.18c
iter:  76 11:23:33  -272.607363c -4.13  -4.29c
iter:  77 11:23:40  -272.607400c -4.35  -4.30c
iter:  78 11:23:47  -272.607402c -4.21  -4.31c
iter:  79 11:23:54  -272.607390c -4.12  -4.47c
Writing to output.gpw (mode='')

iter:  80 11:24:01  -272.607396c -4.45  -4.62c
iter:  81 11:24:08  -272.607394c -4.30  -4.62c
iter:  82 11:24:16  -272.607405c -4.58  -4.48c
iter:  83 11:24:23  -272.607389c -4.59  -4.52c
iter:  84 11:24:37  -272.607397c -4.81  -4.29c
Writing to output.gpw (mode='')

iter:  85 11:24:45  -272.607403c -4.64  -4.33c
iter:  86 11:24:52  -272.607403c -4.83  -4.36c
iter:  87 11:24:59  -272.607412c -4.62  -4.31c
iter:  88 11:25:06  -272.607419c -4.73  -4.36c
iter:  89 11:25:13  -272.607421c -5.07  -4.41c
Writing to output.gpw (mode='')

iter:  90 11:25:20  -272.607444c -4.97  -4.40c
iter:  91 11:25:27  -272.607455c -5.08  -4.61c
iter:  92 11:25:34  -272.607451c -5.00  -4.64c
iter:  93 11:25:41  -272.607456c -5.11  -4.73c
iter:  94 11:25:49  -272.607462c -5.07  -4.80c
Writing to output.gpw (mode='')

iter:  95 11:25:56  -272.607460c -5.15  -4.85c
iter:  96 11:26:03  -272.607462c -5.36  -5.03c
iter:  97 11:26:10  -272.607461c -5.43  -5.07c
iter:  98 11:26:17  -272.607465c -5.49  -5.14c
iter:  99 11:26:24  -272.607463c -5.41  -5.32c
Writing to output.gpw (mode='')

iter: 100 11:26:31  -272.607463c -5.43  -5.55c
iter: 101 11:26:38  -272.607464c -5.66  -5.49c
iter: 102 11:26:45  -272.607465c -5.64  -5.50c
iter: 103 11:26:52  -272.607466c -5.62  -5.54c
iter: 104 11:27:00  -272.607466c -5.71  -5.60c
Writing to output.gpw (mode='')

iter: 105 11:27:07  -272.607467c -5.89  -5.65c
iter: 106 11:27:14  -272.607467c -5.94  -5.89c
iter: 107 11:27:21  -272.607467c -5.99  -6.02c
iter: 108 11:27:28  -272.607467c -6.00  -5.82c
iter: 109 11:27:35  -272.607467c -6.02  -5.72c
Writing to output.gpw (mode='')

iter: 110 11:27:42  -272.607467c -6.00  -5.72c
iter: 111 11:27:50  -272.607467c -5.97  -5.57c
iter: 112 11:27:57  -272.607467c -6.17  -5.49c
iter: 113 11:28:04  -272.607467c -6.22  -5.41c
iter: 114 11:28:11  -272.607467c -6.19  -5.48c
Writing to output.gpw (mode='')

iter: 115 11:28:18  -272.607467c -6.31  -5.46c
iter: 116 11:28:25  -272.607468c -6.36  -5.40c
iter: 117 11:28:32  -272.607469c -6.39  -5.50c
iter: 118 11:28:39  -272.607468c -6.52  -5.61c
iter: 119 11:28:46  -272.607469c -6.48  -5.44c
Writing to output.gpw (mode='')

iter: 120 11:28:53  -272.607470c -6.49  -5.62c
iter: 121 11:29:00  -272.607469c -6.65  -5.74c
iter: 122 11:29:07  -272.607470c -6.52  -5.76c
iter: 123 11:29:15  -272.607470c -6.60  -5.91c
iter: 124 11:29:22  -272.607471c -6.45  -5.98c
Writing to output.gpw (mode='')

iter: 125 11:29:35  -272.607470c -6.69  -6.08c
iter: 126 11:29:42  -272.607470c -6.80  -6.18c
iter: 127 11:29:50  -272.607471c -6.69  -6.25c
iter: 128 11:29:57  -272.607471c -6.86  -6.37c
iter: 129 11:30:04  -272.607471c -6.79  -6.43c
Writing to output.gpw (mode='')

iter: 130 11:30:11  -272.607471c -6.79  -6.49c
iter: 131 11:30:18  -272.607471c -6.80  -6.56c
iter: 132 11:30:25  -272.607471c -6.97  -6.52c
iter: 133 11:30:32  -272.607471c -6.95  -6.45c
iter: 134 11:30:40  -272.607471c -7.10  -6.37c
Writing to output.gpw (mode='')

iter: 135 11:30:47  -272.607471c -7.21  -6.32c
iter: 136 11:30:54  -272.607471c -7.22  -6.23c
iter: 137 11:31:01  -272.607471c -7.33  -6.12c
iter: 138 11:31:08  -272.607471c -7.34  -6.18c
iter: 139 11:31:15  -272.607471c -7.42c -6.18c

Converged after 139 iterations.

Dipole moment: (-0.090775, -5.134313, 0.369541) |e|*Ang

Energy contributions relative to reference atoms: (reference = -13382.245603)

Kinetic:       +182.038861
Potential:     -156.936148
External:        +0.000000
XC:            -298.287784
Entropy (-ST):   -0.166082
Local:           +0.660641
--------------------------
Free energy:   -272.690512
Extrapolated:  -272.607471

Dipole-layer corrected work functions: 3.372933, 2.662549 eV

Showing only first 2 kpts
 Kpt  Band  Eigenvalues  Occupancy
  0    28     -3.26702    1.98642
  0    29     -3.12810    1.80178
  0    30     -2.90934    0.20533
  0    31     -2.82611    0.04239

  1    28     -3.08047    1.55617
  1    29     -3.02212    1.04378
  1    30     -2.97483    0.59543
  1    31     -2.91403    0.22327


Fermi level: -3.01774

No gap
Writing to output.gpw (mode='')


Forces in eV/Ang:
  0 Li    0.00992    0.00395   -0.26395
  1 Li   -0.01923    0.00330   -0.27878
  2 Li    0.00698    0.00056   -0.28010
  3 Li    0.00341   -0.00549   -0.27382
  4 Li    0.00043    0.00638   -0.27663
  5 Li   -0.00164    0.01706   -0.27131
  6 Li    0.00040    0.00086   -0.26973
  7 Li    0.00472   -0.00999   -0.27658
  8 Li   -0.00243   -0.01729   -0.27286
  9 Li    0.00871    0.00376    0.29237
 10 Li   -0.00439    0.00177    0.25202
 11 Li   -0.00144    0.00091    0.31124
 12 Li    0.01113   -0.00413    0.28556
 13 Li   -0.00424   -0.00289    0.24608
 14 Li   -0.00252   -0.00440    0.30862
 15 Li   -0.01269    0.00143    0.25018
 16 Li   -0.00098    0.00163    0.28273
 17 Li    0.00899    0.00206    0.23797
 18 Li    0.00652   -0.00139    0.08143
 19 Li   -0.03766    0.00088   -0.08962
 20 Li    0.02051    0.00253   -0.19257
 21 Li   -0.01392   -0.00648    0.04686
 22 Li    0.02114   -0.01871    0.04987
 23 Li   -0.01031   -0.01738    0.04686
 24 Li   -0.01264    0.00730    0.04506
 25 Li    0.01591    0.01866    0.04040
 26 Li   -0.00577    0.01349    0.04734
 27 Li    0.06682   -0.09721   -0.18955
 28 Li   -0.06898   -0.02953   -0.02890
 29 Li   -0.05460    0.26803    0.21732
 30 Li    0.07993    0.05693   -0.14200
 31 Li   -0.06896    0.03361   -0.03863
 32 Li   -0.06245   -0.28313    0.22532
 33 Li   -0.02392    0.00865    0.00254
 34 Li    0.00674   -0.00434   -0.00341
 35 Li    0.01980    0.01519   -0.00294
 36 O     9.48664    0.75083   16.11740
 37 C     6.35450    0.08350    3.75761
 38 H    -0.05003    0.07080    0.38733
 39 H    -0.16317    0.05780    0.05655
 40 H     0.04145   -0.07722    0.05210
 41 H    -0.98907   -1.69847    1.15464
 42 N     6.10518    0.95718   -9.71811
 43 N   -20.66131   -0.13620  -11.92758

System changes: positions 

Initializing position-dependent things.

Density initialized from wave functions
       .-----------------------.  
      /|                       |  
     / |                       |  
    /  |                       |  
   /   |                       |  
  /    |                       |  
 *     |                       |  
 |     |                       |  
 |     |                       |  
 |     |                       |  
 |     |                       |  
 |     |                       |  
 |     |                       |  
 |     |                       |  
 |H    Li      Li              |  
 | H   |             HO   C    |  
 |H    |     Li      Li      Li|  
 |     |  Li      LN  N   Li   |  
 | Li  |   Li      Li          |  
 |     |Li      Li      Li     |  
 |     |         Li            |  
 |   LLi     LLi     LLi       |  
 |     |  Li      Li      Li   |  
 | Li  |   Li      Li          |  
 |     |Li      Li      Li     |  
 Li    | Li      Li            |  
 |    Li      Li      Li       |  
 |     |                       |  
 |     |                       |  
 |     |                       |  
 |     |                       |  
 |     |                       |  
 |     |                       |  
 |     .-----------------------.  
 |    /                       /   
 |   /                       /    
 |  /                       /     
 | /                       /      
 |/                       /       
 *-----------------------*        

Positions:
   0 Li     1.617037    1.617037   10.000000    ( 0.0000,  0.0000,  0.0000)
   1 Li     4.851111    1.617037   10.000000    ( 0.0000,  0.0000,  0.0000)
   2 Li     8.085185    1.617037   10.000000    ( 0.0000,  0.0000,  0.0000)
   3 Li     1.617037    4.851111   10.000000    ( 0.0000,  0.0000,  0.0000)
   4 Li     4.851111    4.851111   10.000000    ( 0.0000,  0.0000,  0.0000)
   5 Li     8.085185    4.851111   10.000000    ( 0.0000,  0.0000,  0.0000)
   6 Li     1.617037    8.085185   10.000000    ( 0.0000,  0.0000,  0.0000)
   7 Li     4.851111    8.085185   10.000000    ( 0.0000,  0.0000,  0.0000)
   8 Li     8.085185    8.085185   10.000000    ( 0.0000,  0.0000,  0.0000)
   9 Li     0.000000    0.000000   11.617037    ( 0.0000,  0.0000,  0.0000)
  10 Li     3.234074    0.000000   11.617037    ( 0.0000,  0.0000,  0.0000)
  11 Li     6.468148    0.000000   11.617037    ( 0.0000,  0.0000,  0.0000)
  12 Li     0.000000    3.234074   11.617037    ( 0.0000,  0.0000,  0.0000)
  13 Li     3.234074    3.234074   11.617037    ( 0.0000,  0.0000,  0.0000)
  14 Li     6.468148    3.234074   11.617037    ( 0.0000,  0.0000,  0.0000)
  15 Li     0.000000    6.468148   11.617037    ( 0.0000,  0.0000,  0.0000)
  16 Li     3.234074    6.468148   11.617037    ( 0.0000,  0.0000,  0.0000)
  17 Li     6.468148    6.468148   11.617037    ( 0.0000,  0.0000,  0.0000)
  18 Li     1.617049    1.617036   13.469864    ( 0.0000,  0.0000,  0.0000)
  19 Li     4.851048    1.617040   13.469579    ( 0.0000,  0.0000,  0.0000)
  20 Li     8.085218    1.617042   13.469405    ( 0.0000,  0.0000,  0.0000)
  21 Li     1.617015    4.851100   13.469808    ( 0.0000,  0.0000,  0.0000)
  22 Li     4.851146    4.851080   13.469814    ( 0.0000,  0.0000,  0.0000)
  23 Li     8.085166    4.851082   13.469808    ( 0.0000,  0.0000,  0.0000)
  24 Li     1.617017    8.085196   13.469803    ( 0.0000,  0.0000,  0.0000)
  25 Li     4.851138    8.085215   13.469797    ( 0.0000,  0.0000,  0.0000)
  26 Li     8.085174    8.085207   13.469807    ( 0.0000,  0.0000,  0.0000)
  27 Li     0.000112   -0.000163   15.445622    ( 0.0000,  0.0000,  0.0000)
  28 Li     3.233958   -0.000050   15.445890    ( 0.0000,  0.0000,  0.0000)
  29 Li     6.468057    0.000449   15.446303    ( 0.0000,  0.0000,  0.0000)
  30 Li     0.000134    3.234169   15.445701    ( 0.0000,  0.0000,  0.0000)
  31 Li     3.233961    3.234133   15.445873    ( 0.0000,  0.0000,  0.0000)
  32 Li     6.468041    3.233602   15.446316    ( 0.0000,  0.0000,  0.0000)
  33 Li    -0.000040    6.468163   15.445943    ( 0.0000,  0.0000,  0.0000)
  34 Li     3.234088    6.468138   15.445932    ( 0.0000,  0.0000,  0.0000)
  35 Li     6.468179    6.468171   15.445933    ( 0.0000,  0.0000,  0.0000)
  36 O      8.101091    1.618296   18.472962    ( 0.0000,  0.0000,  0.0000)
  37 C      9.525802    1.602103   18.457739    ( 0.0000,  0.0000,  0.0000)
  38 H      9.919335    0.852128   17.764938    ( 0.0000,  0.0000,  0.0000)
  39 H      9.918386    1.423651   19.453322    ( 0.0000,  0.0000,  0.0000)
  40 H      9.834661    2.587549   18.118598    ( 0.0000,  0.0000,  0.0000)
  41 H      7.771872    0.751061   18.738880    ( 0.0000,  0.0000,  0.0000)
  42 N      8.095236    1.618605   17.179646    ( 0.0000,  0.0000,  0.0000)
  43 N      6.953737    1.616772   17.175941    ( 0.0000,  0.0000,  0.0000)

Unit cell:
           periodic     x           y           z      points  spacing
  1. axis:    yes    9.702222    0.000000    0.000000    60     0.1617
  2. axis:    yes    0.000000    9.702222    0.000000    60     0.1617
  3. axis:    no     0.000000    0.000000   26.601111   168     0.1583

  Lengths:   9.702222   9.702222  26.601111
  Angles:   90.000000  90.000000  90.000000

Effective grid spacing dv^(1/3) = 0.1606

     iter     time        total  log10-change:
                         energy  eigst   dens
iter:   1 11:31:23  -275.464023  -0.14
iter:   2 11:31:31  -274.730980  -0.03  -1.21
iter:   3 11:31:38  -274.377600  -0.71  -1.21
iter:   4 11:31:45  -274.365800  -0.51  -1.45
Writing to output.gpw (mode='')

iter:   5 11:31:52  -274.227975  -1.22  -1.64
iter:   6 11:31:59  -274.794250  -0.38  -2.02
iter:   7 11:32:06  -274.203342  -1.06  -1.30
iter:   8 11:32:13  -274.220608  -1.25  -2.12
iter:   9 11:32:20  -274.204688c -1.77  -2.05
Writing to output.gpw (mode='')

iter:  10 11:32:27  -274.204867c -1.89  -2.41
iter:  11 11:32:34  -274.203609c -2.15  -2.40
iter:  12 11:32:41  -274.206507c -2.36  -2.44
iter:  13 11:32:49  -274.203471c -2.95  -2.53
iter:  14 11:32:56  -274.203385c -2.73  -2.60
Writing to output.gpw (mode='')

iter:  15 11:33:03  -274.203592c -3.06  -2.91
iter:  16 11:33:10  -274.203333c -3.17  -2.93
iter:  17 11:33:17  -274.203611c -3.42  -3.03
iter:  18 11:33:24  -274.203495c -3.79  -3.12
iter:  19 11:33:31  -274.203519c -3.55  -3.18
Writing to output.gpw (mode='')

iter:  20 11:33:38  -274.203578c -3.84  -3.30
iter:  21 11:33:45  -274.203623c -4.21  -3.47
iter:  22 11:33:52  -274.203652c -4.00  -3.56
iter:  23 11:33:59  -274.203629c -4.43  -3.61
iter:  24 11:34:07  -274.203568c -4.26  -3.72
Writing to output.gpw (mode='')

iter:  25 11:34:14  -274.203607c -4.80  -3.86
iter:  26 11:34:21  -274.203619c -4.82  -3.94
iter:  27 11:34:36  -274.203639c -4.65  -4.07c
iter:  28 11:34:44  -274.203617c -4.86  -4.14c
iter:  29 11:34:51  -274.203621c -5.08  -4.15c
Writing to output.gpw (mode='')

iter:  30 11:34:58  -274.203617c -5.09  -4.23c
iter:  31 11:35:05  -274.203624c -5.07  -4.32c
iter:  32 11:35:12  -274.203629c -5.44  -4.34c
iter:  33 11:35:20  -274.203625c -5.37  -4.37c
iter:  34 11:35:27  -274.203628c -5.48  -4.45c
Writing to output.gpw (mode='')

iter:  35 11:35:34  -274.203616c -5.54  -4.49c
iter:  36 11:35:42  -274.203617c -5.87  -4.55c
iter:  37 11:35:51  -274.203618c -5.80  -4.65c
iter:  38 11:36:02  -274.203621c -6.05  -4.91c
iter:  39 11:36:11  -274.203621c -6.09  -4.97c
Writing to output.gpw (mode='')

iter:  40 11:36:19  -274.203621c -6.13  -4.98c
iter:  41 11:36:26  -274.203620c -6.14  -4.96c
iter:  42 11:36:33  -274.203621c -6.16  -4.94c
iter:  43 11:36:40  -274.203618c -6.30  -4.93c
iter:  44 11:36:47  -274.203618c -6.55  -4.93c
Writing to output.gpw (mode='')

iter:  45 11:36:54  -274.203617c -6.67  -4.85c
iter:  46 11:37:02  -274.203616c -6.68  -4.92c
iter:  47 11:37:12  -274.203616c -6.62  -4.88c
iter:  48 11:37:19  -274.203617c -6.59  -4.83c
iter:  49 11:37:26  -274.203617c -6.81  -4.82c
Writing to output.gpw (mode='')

iter:  50 11:37:33  -274.203618c -6.89  -4.91c
iter:  51 11:37:40  -274.203618c -6.85  -4.89c
iter:  52 11:37:47  -274.203620c -6.91  -4.86c
iter:  53 11:37:55  -274.203621c -6.91  -4.82c
iter:  54 11:38:02  -274.203621c -7.00  -4.84c
Writing to output.gpw (mode='')

iter:  55 11:38:09  -274.203619c -7.07  -4.84c
iter:  56 11:38:16  -274.203617c -7.11  -4.82c
iter:  57 11:38:23  -274.203615c -7.16  -4.77c
iter:  58 11:38:30  -274.203613c -7.32  -4.75c
iter:  59 11:38:37  -274.203615c -7.07  -4.85c
Writing to output.gpw (mode='')

iter:  60 11:38:45  -274.203614c -7.42c -5.19c

Converged after 60 iterations.

Dipole moment: (-0.464575, -5.008274, 0.362529) |e|*Ang

Energy contributions relative to reference atoms: (reference = -13382.245603)

Kinetic:       +170.488939
Potential:     -148.773623
External:        +0.000000
XC:            -296.497051
Entropy (-ST):   -0.170696
Local:           +0.663469
--------------------------
Free energy:   -274.288962
Extrapolated:  -274.203614

Dipole-layer corrected work functions: 3.374736, 2.677830 eV

Showing only first 2 kpts
 Kpt  Band  Eigenvalues  Occupancy
  0    28     -3.27460    1.98616
  0    29     -3.13028    1.77788
  0    30     -2.93581    0.28141
  0    31     -2.83096    0.03943

  1    28     -3.08407    1.52110
  1    29     -3.02986    1.03578
  1    30     -2.97742    0.54684
  1    31     -2.92194    0.22075


Fermi level: -3.02628

No gap

Forces in eV/Ang:
  0 Li    0.00905    0.00341   -0.26392
  1 Li   -0.01838    0.00291   -0.27857
  2 Li    0.00697    0.00000   -0.28102
  3 Li    0.00346   -0.00428   -0.27352
  4 Li    0.00059    0.00812   -0.27715
  5 Li   -0.00204    0.01805   -0.27220
  6 Li    0.00026    0.00034   -0.27035
  7 Li    0.00489   -0.01119   -0.27703
  8 Li   -0.00265   -0.01761   -0.27381
  9 Li    0.00793    0.00450    0.29363
 10 Li   -0.00409    0.00251    0.25242
 11 Li   -0.00110    0.00065    0.31298
 12 Li    0.01017   -0.00514    0.28895
 13 Li   -0.00372   -0.00324    0.24655
 14 Li   -0.00210   -0.00424    0.31191
 15 Li   -0.01203    0.00160    0.24770
 16 Li   -0.00165    0.00104    0.28250
 17 Li    0.00888    0.00217    0.23627
 18 Li    0.00893   -0.00099    0.07909
 19 Li   -0.03948    0.00089   -0.09679
 20 Li    0.01844    0.00186   -0.19496
 21 Li   -0.01476   -0.00792    0.04771
 22 Li    0.02167   -0.01941    0.04840
 23 Li   -0.00977   -0.01375    0.04148
 24 Li   -0.01382    0.00799    0.04643
 25 Li    0.01755    0.01924    0.04062
 26 Li   -0.00579    0.01000    0.04364
 27 Li    0.05340   -0.08420   -0.16958
 28 Li   -0.06892   -0.03243   -0.02891
 29 Li   -0.03702    0.29753    0.26199
 30 Li    0.06332    0.04390   -0.11639
 31 Li   -0.06816    0.03610   -0.03749
 32 Li   -0.04154   -0.31168    0.27495
 33 Li   -0.02024    0.00832   -0.00306
 34 Li    0.00649   -0.00377   -0.00395
 35 Li    0.01626    0.01450   -0.00915
 36 O     7.99028    0.60364   12.57793
 37 C     5.53577    0.05898    3.35834
 38 H    -0.02321    0.05948    0.40407
 39 H     0.05635    0.01943    0.30268
 40 H     0.09749   -0.04526    0.08376
 41 H    -0.89345   -1.43860    1.03073
 42 N     0.64728    0.96254   -8.04679
 43 N   -13.24183   -0.20482   -9.90556

System changes: positions 

Initializing position-dependent things.

Density initialized from wave functions
       .-----------------------.  
      /|                       |  
     / |                       |  
    /  |                       |  
   /   |                       |  
  /    |                       |  
 *     |                       |  
 |     |                       |  
 |     |                       |  
 |     |                       |  
 |     |                       |  
 |     |                       |  
 |     |                       |  
 |     |                       |  
 |H    Li      Li              |  
 | H   |             HO   C    |  
 |H    |     Li      Li      Li|  
 |     |  Li      LN  N   Li   |  
 | Li  |   Li      Li          |  
 |     |Li      Li      Li     |  
 |     |         Li            |  
 |   LLi     LLi     LLi       |  
 |     |  Li      Li      Li   |  
 | Li  |   Li      Li          |  
 |     |Li      Li      Li     |  
 Li    | Li      Li            |  
 |    Li      Li      Li       |  
 |     |                       |  
 |     |                       |  
 |     |                       |  
 |     |                       |  
 |     |                       |  
 |     |                       |  
 |     .-----------------------.  
 |    /                       /   
 |   /                       /    
 |  /                       /     
 | /                       /      
 |/                       /       
 *-----------------------*        

Positions:
   0 Li     1.617037    1.617037   10.000000    ( 0.0000,  0.0000,  0.0000)
   1 Li     4.851111    1.617037   10.000000    ( 0.0000,  0.0000,  0.0000)
   2 Li     8.085185    1.617037   10.000000    ( 0.0000,  0.0000,  0.0000)
   3 Li     1.617037    4.851111   10.000000    ( 0.0000,  0.0000,  0.0000)
   4 Li     4.851111    4.851111   10.000000    ( 0.0000,  0.0000,  0.0000)
   5 Li     8.085185    4.851111   10.000000    ( 0.0000,  0.0000,  0.0000)
   6 Li     1.617037    8.085185   10.000000    ( 0.0000,  0.0000,  0.0000)
   7 Li     4.851111    8.085185   10.000000    ( 0.0000,  0.0000,  0.0000)
   8 Li     8.085185    8.085185   10.000000    ( 0.0000,  0.0000,  0.0000)
   9 Li     0.000000    0.000000   11.617037    ( 0.0000,  0.0000,  0.0000)
  10 Li     3.234074    0.000000   11.617037    ( 0.0000,  0.0000,  0.0000)
  11 Li     6.468148    0.000000   11.617037    ( 0.0000,  0.0000,  0.0000)
  12 Li     0.000000    3.234074   11.617037    ( 0.0000,  0.0000,  0.0000)
  13 Li     3.234074    3.234074   11.617037    ( 0.0000,  0.0000,  0.0000)
  14 Li     6.468148    3.234074   11.617037    ( 0.0000,  0.0000,  0.0000)
  15 Li     0.000000    6.468148   11.617037    ( 0.0000,  0.0000,  0.0000)
  16 Li     3.234074    6.468148   11.617037    ( 0.0000,  0.0000,  0.0000)
  17 Li     6.468148    6.468148   11.617037    ( 0.0000,  0.0000,  0.0000)
  18 Li     1.617097    1.617034   13.470167    ( 0.0000,  0.0000,  0.0000)
  19 Li     4.850882    1.617044   13.469158    ( 0.0000,  0.0000,  0.0000)
  20 Li     8.085281    1.617046   13.468618    ( 0.0000,  0.0000,  0.0000)
  21 Li     1.616952    4.851061   13.470002    ( 0.0000,  0.0000,  0.0000)
  22 Li     4.851235    4.850999   13.469999    ( 0.0000,  0.0000,  0.0000)
  23 Li     8.085130    4.851046   13.469945    ( 0.0000,  0.0000,  0.0000)
  24 Li     1.616956    8.085231   13.469995    ( 0.0000,  0.0000,  0.0000)
  25 Li     4.851216    8.085294   13.469960    ( 0.0000,  0.0000,  0.0000)
  26 Li     8.085151    8.085228   13.469962    ( 0.0000,  0.0000,  0.0000)
  27 Li     0.000256   -0.000431   15.445050    ( 0.0000,  0.0000,  0.0000)
  28 Li     3.233684   -0.000193   15.445775    ( 0.0000,  0.0000,  0.0000)
  29 Li     6.468000    0.001784   15.447574    ( 0.0000,  0.0000,  0.0000)
  30 Li     0.000301    3.234277   15.445369    ( 0.0000,  0.0000,  0.0000)
  31 Li     3.233694    3.234289   15.445730    ( 0.0000,  0.0000,  0.0000)
  32 Li     6.467983    3.232216   15.447663    ( 0.0000,  0.0000,  0.0000)
  33 Li    -0.000102    6.468194   15.445902    ( 0.0000,  0.0000,  0.0000)
  34 Li     3.234112    6.468126   15.445914    ( 0.0000,  0.0000,  0.0000)
  35 Li     6.468225    6.468225   15.445865    ( 0.0000,  0.0000,  0.0000)
  36 O      8.125195    1.619942   18.504841    ( 0.0000,  0.0000,  0.0000)
  37 C      9.543619    1.602212   18.469047    ( 0.0000,  0.0000,  0.0000)
  38 H      9.919380    0.852307   17.766631    ( 0.0000,  0.0000,  0.0000)
  39 H      9.919735    1.423532   19.455787    ( 0.0000,  0.0000,  0.0000)
  40 H      9.835336    2.587532   18.119093    ( 0.0000,  0.0000,  0.0000)
  41 H      7.768809    0.746672   18.742344    ( 0.0000,  0.0000,  0.0000)
  42 N      8.069847    1.622460   17.156213    ( 0.0000,  0.0000,  0.0000)
  43 N      6.939097    1.615606   17.146914    ( 0.0000,  0.0000,  0.0000)

Unit cell:
           periodic     x           y           z      points  spacing
  1. axis:    yes    9.702222    0.000000    0.000000    60     0.1617
  2. axis:    yes    0.000000    9.702222    0.000000    60     0.1617
  3. axis:    no     0.000000    0.000000   26.601111   168     0.1583

  Lengths:   9.702222   9.702222  26.601111
  Angles:   90.000000  90.000000  90.000000

Effective grid spacing dv^(1/3) = 0.1606

     iter     time        total  log10-change:
                         energy  eigst   dens
iter:   1 11:38:53  -275.625612  -0.46
iter:   2 11:39:00  -275.535525  -0.62  -1.54
iter:   3 11:39:07  -275.516282  -1.18  -1.65
iter:   4 11:39:14  -275.517349c -1.33  -1.96
Writing to output.gpw (mode='')

iter:   5 11:39:22  -275.523733c -1.45  -1.99
iter:   6 11:39:35  -275.651705  -0.84  -1.98
iter:   7 11:39:44  -275.561273  -1.35  -1.47
iter:   8 11:39:51  -275.494561  -1.23  -1.69
iter:   9 11:39:58  -275.494595  -1.65  -2.15
Writing to output.gpw (mode='')

iter:  10 11:40:05  -275.488969c -2.09  -2.19
iter:  11 11:40:12  -275.488017c -1.96  -2.30
iter:  12 11:40:19  -275.488249c -2.06  -2.26
iter:  13 11:40:27  -275.489170c -2.38  -2.47
iter:  14 11:40:34  -275.488077c -2.70  -2.51
Writing to output.gpw (mode='')

iter:  15 11:40:41  -275.488916c -2.82  -2.68
iter:  16 11:40:48  -275.488747c -2.93  -2.74
iter:  17 11:40:55  -275.488325c -3.14  -2.95
iter:  18 11:41:02  -275.488165c -3.53  -3.06
iter:  19 11:41:09  -275.488363c -3.99  -3.07
Writing to output.gpw (mode='')

iter:  20 11:41:17  -275.488331c -3.79  -3.12
iter:  21 11:41:24  -275.488236c -3.98  -3.37
iter:  22 11:41:31  -275.488230c -4.38  -3.41
iter:  23 11:41:38  -275.488283c -4.48  -3.48
iter:  24 11:41:45  -275.488190c -4.50  -3.65
Writing to output.gpw (mode='')

iter:  25 11:41:52  -275.488296c -4.57  -3.70
iter:  26 11:41:59  -275.488286c -5.02  -3.89
iter:  27 11:42:06  -275.488322c -5.08  -4.01c
iter:  28 11:42:13  -275.488308c -5.20  -4.11c
iter:  29 11:42:21  -275.488305c -5.36  -4.16c
Writing to output.gpw (mode='')

iter:  30 11:42:28  -275.488305c -5.35  -4.19c
iter:  31 11:42:35  -275.488305c -5.49  -4.16c
iter:  32 11:42:42  -275.488302c -5.58  -4.39c
iter:  33 11:42:49  -275.488294c -5.64  -4.50c
iter:  34 11:42:56  -275.488301c -6.06  -4.38c
Writing to output.gpw (mode='')

iter:  35 11:43:03  -275.488298c -5.88  -4.41c
iter:  36 11:43:10  -275.488296c -6.03  -4.83c
iter:  37 11:43:17  -275.488298c -6.21  -4.87c
iter:  38 11:43:25  -275.488300c -6.12  -4.93c
iter:  39 11:43:32  -275.488299c -6.29  -5.10c
Writing to output.gpw (mode='')

iter:  40 11:43:39  -275.488298c -6.50  -5.23c
iter:  41 11:43:46  -275.488299c -6.55  -5.21c
iter:  42 11:43:53  -275.488298c -6.67  -5.35c
iter:  43 11:44:00  -275.488299c -6.60  -5.35c
iter:  44 11:44:07  -275.488299c -6.84  -5.42c
Writing to output.gpw (mode='')

iter:  45 11:44:14  -275.488299c -6.93  -5.40c
iter:  46 11:44:22  -275.488299c -7.07  -5.35c
iter:  47 11:44:35  -275.488299c -7.04  -5.30c
iter:  48 11:44:43  -275.488299c -6.96  -5.25c
iter:  49 11:44:50  -275.488298c -7.13  -5.25c
Writing to output.gpw (mode='')

iter:  50 11:44:57  -275.488298c -7.27  -5.18c
iter:  51 11:45:04  -275.488298c -7.27  -5.13c
iter:  52 11:45:11  -275.488299c -7.43c -5.32c

Converged after 52 iterations.

Dipole moment: (-1.160678, -5.082842, 0.389752) |e|*Ang

Energy contributions relative to reference atoms: (reference = -13382.245603)

Kinetic:       +166.901664
Potential:     -147.084000
External:        +0.000000
XC:            -295.892872
Entropy (-ST):   -0.166785
Local:           +0.670301
--------------------------
Free energy:   -275.571691
Extrapolated:  -275.488299

Dipole-layer corrected work functions: 3.373163, 2.623926 eV

Showing only first 2 kpts
 Kpt  Band  Eigenvalues  Occupancy
  0    28     -3.24806    1.98648
  0    29     -3.10918    1.80279
  0    30     -2.89536    0.22536
  0    31     -2.80789    0.04320

  1    28     -3.05621    1.52023
  1    29     -3.00193    1.03380
  1    30     -2.94961    0.54631
  1    31     -2.90126    0.25005


Fermi level: -2.99854

No gap
Writing to output.gpw (mode='')


Forces in eV/Ang:
  0 Li    0.00987    0.00354   -0.26416
  1 Li   -0.01973    0.00309   -0.27831
  2 Li    0.00783   -0.00025   -0.28037
  3 Li    0.00370   -0.00491   -0.27342
  4 Li    0.00065    0.00801   -0.27682
  5 Li   -0.00244    0.01855   -0.27160
  6 Li    0.00019    0.00093   -0.27051
  7 Li    0.00525   -0.01103   -0.27664
  8 Li   -0.00317   -0.01798   -0.27330
  9 Li    0.00860    0.00417    0.29280
 10 Li   -0.00519    0.00226    0.25092
 11 Li   -0.00100    0.00144    0.31392
 12 Li    0.01112   -0.00514    0.28854
 13 Li   -0.00550   -0.00284    0.24417
 14 Li   -0.00192   -0.00514    0.31317
 15 Li   -0.01339    0.00212    0.24818
 16 Li   -0.00089    0.00060    0.28364
 17 Li    0.00962    0.00227    0.23589
 18 Li    0.00806   -0.00082    0.07822
 19 Li   -0.04231    0.00125   -0.09640
 20 Li    0.02165    0.00202   -0.20346
 21 Li   -0.01470   -0.00691    0.04646
 22 Li    0.02240   -0.02226    0.05116
 23 Li   -0.01012   -0.01661    0.04448
 24 Li   -0.01379    0.00671    0.04490
 25 Li    0.01882    0.02161    0.04418
 26 Li   -0.00683    0.01323    0.04805
 27 Li    0.06327   -0.09107   -0.17928
 28 Li   -0.06771   -0.03049   -0.03184
 29 Li   -0.04642    0.25543    0.20935
 30 Li    0.06947    0.04857   -0.12446
 31 Li   -0.06570    0.03413   -0.03952
 32 Li   -0.04477   -0.26566    0.22412
 33 Li   -0.02209    0.00846   -0.00062
 34 Li    0.00725   -0.00351   -0.00293
 35 Li    0.01713    0.01506   -0.00836
 36 O     6.47269    0.19179   10.68080
 37 C     4.26249   -0.00318    2.55062
 38 H     0.01123    0.04676    0.38647
 39 H     0.37416   -0.03666    0.62801
 40 H     0.17559    0.00617    0.10503
 41 H    -0.53745   -0.89896    0.87472
 42 N     0.99893    0.98347   -7.05791
 43 N   -11.66899   -0.25818   -8.29352

System changes: positions 

Initializing position-dependent things.

Density initialized from wave functions
       .-----------------------.  
      /|                       |  
     / |                       |  
    /  |                       |  
   /   |                       |  
  /    |                       |  
 *     |                       |  
 |     |                       |  
 |     |                       |  
 |     |                       |  
 |     |                       |  
 |     |                       |  
 |     |                       |  
 |     |                       |  
 |H    Li      Li              |  
 | H   |             HO   C    |  
 |H    |     Li      Li      Li|  
 |     |  Li      LN  N   Li   |  
 | Li  |   Li      Li          |  
 |     |Li      Li      Li     |  
 |     |         Li            |  
 |   LLi     LLi     LLi       |  
 |     |  Li      Li      Li   |  
 | Li  |   Li      Li          |  
 |     |Li      Li      Li     |  
 Li    | Li      Li            |  
 |    Li      Li      Li       |  
 |     |                       |  
 |     |                       |  
 |     |                       |  
 |     |                       |  
 |     |                       |  
 |     |                       |  
 |     .-----------------------.  
 |    /                       /   
 |   /                       /    
 |  /                       /     
 | /                       /      
 |/                       /       
 *-----------------------*        

Positions:
   0 Li     1.617037    1.617037   10.000000    ( 0.0000,  0.0000,  0.0000)
   1 Li     4.851111    1.617037   10.000000    ( 0.0000,  0.0000,  0.0000)
   2 Li     8.085185    1.617037   10.000000    ( 0.0000,  0.0000,  0.0000)
   3 Li     1.617037    4.851111   10.000000    ( 0.0000,  0.0000,  0.0000)
   4 Li     4.851111    4.851111   10.000000    ( 0.0000,  0.0000,  0.0000)
   5 Li     8.085185    4.851111   10.000000    ( 0.0000,  0.0000,  0.0000)
   6 Li     1.617037    8.085185   10.000000    ( 0.0000,  0.0000,  0.0000)
   7 Li     4.851111    8.085185   10.000000    ( 0.0000,  0.0000,  0.0000)
   8 Li     8.085185    8.085185   10.000000    ( 0.0000,  0.0000,  0.0000)
   9 Li     0.000000    0.000000   11.617037    ( 0.0000,  0.0000,  0.0000)
  10 Li     3.234074    0.000000   11.617037    ( 0.0000,  0.0000,  0.0000)
  11 Li     6.468148    0.000000   11.617037    ( 0.0000,  0.0000,  0.0000)
  12 Li     0.000000    3.234074   11.617037    ( 0.0000,  0.0000,  0.0000)
  13 Li     3.234074    3.234074   11.617037    ( 0.0000,  0.0000,  0.0000)
  14 Li     6.468148    3.234074   11.617037    ( 0.0000,  0.0000,  0.0000)
  15 Li     0.000000    6.468148   11.617037    ( 0.0000,  0.0000,  0.0000)
  16 Li     3.234074    6.468148   11.617037    ( 0.0000,  0.0000,  0.0000)
  17 Li     6.468148    6.468148   11.617037    ( 0.0000,  0.0000,  0.0000)
  18 Li     1.617160    1.617032   13.470688    ( 0.0000,  0.0000,  0.0000)
  19 Li     4.850549    1.617056   13.468446    ( 0.0000,  0.0000,  0.0000)
  20 Li     8.085449    1.617058   13.467106    ( 0.0000,  0.0000,  0.0000)
  21 Li     1.616845    4.851014   13.470319    ( 0.0000,  0.0000,  0.0000)
  22 Li     4.851401    4.850812   13.470372    ( 0.0000,  0.0000,  0.0000)
  23 Li     8.085060    4.850926   13.470250    ( 0.0000,  0.0000,  0.0000)
  24 Li     1.616853    8.085270   13.470301    ( 0.0000,  0.0000,  0.0000)
  25 Li     4.851369    8.085471   13.470303    ( 0.0000,  0.0000,  0.0000)
  26 Li     8.085094    8.085329   13.470315    ( 0.0000,  0.0000,  0.0000)
  27 Li     0.000706   -0.001049   15.443835    ( 0.0000,  0.0000,  0.0000)
  28 Li     3.233226   -0.000405   15.445526    ( 0.0000,  0.0000,  0.0000)
  29 Li     6.467697    0.003340   15.448804    ( 0.0000,  0.0000,  0.0000)
  30 Li     0.000739    3.234578   15.444587    ( 0.0000,  0.0000,  0.0000)
  31 Li     3.233266    3.234523   15.445443    ( 0.0000,  0.0000,  0.0000)
  32 Li     6.467772    3.230632   15.449045    ( 0.0000,  0.0000,  0.0000)
  33 Li    -0.000250    6.468252   15.445886    ( 0.0000,  0.0000,  0.0000)
  34 Li     3.234168    6.468108   15.445900    ( 0.0000,  0.0000,  0.0000)
  35 Li     6.468330    6.468331   15.445775    ( 0.0000,  0.0000,  0.0000)
  36 O      8.146236    1.616396   18.538675    ( 0.0000,  0.0000,  0.0000)
  37 C      9.555890    1.601439   18.476519    ( 0.0000,  0.0000,  0.0000)
  38 H      9.919957    0.852439   17.769254    ( 0.0000,  0.0000,  0.0000)
  39 H      9.926767    1.422497   19.464823    ( 0.0000,  0.0000,  0.0000)
  40 H      9.837658    2.588270   18.120226    ( 0.0000,  0.0000,  0.0000)
  41 H      7.769091    0.747235   18.746150    ( 0.0000,  0.0000,  0.0000)
  42 N      8.045916    1.629533   17.127123    ( 0.0000,  0.0000,  0.0000)
  43 N      6.919629    1.612867   17.117418    ( 0.0000,  0.0000,  0.0000)

Unit cell:
           periodic     x           y           z      points  spacing
  1. axis:    yes    9.702222    0.000000    0.000000    60     0.1617
  2. axis:    yes    0.000000    9.702222    0.000000    60     0.1617
  3. axis:    no     0.000000    0.000000   26.601111   168     0.1583

  Lengths:   9.702222   9.702222  26.601111
  Angles:   90.000000  90.000000  90.000000

Effective grid spacing dv^(1/3) = 0.1606

     iter     time        total  log10-change:
                         energy  eigst   dens
iter:   1 11:45:20  -276.710469  -0.46
iter:   2 11:45:27  -276.669572  -0.77  -1.64
iter:   3 11:45:34  -276.660803  -1.21  -1.75
iter:   4 11:45:42  -276.674948c -1.35  -2.06
Writing to output.gpw (mode='')

iter:   5 11:45:49  -276.658011c -1.19  -2.01
iter:   6 11:45:56  -276.674602c -1.62  -1.80
iter:   7 11:46:03  -276.643489  -1.85  -1.72
iter:   8 11:46:10  -276.640865  -2.08  -2.01
iter:   9 11:46:18  -276.639541c -1.89  -2.08
Writing to output.gpw (mode='')

iter:  10 11:46:25  -276.639759c -2.02  -2.41
iter:  11 11:46:32  -276.637769c -2.41  -2.47
iter:  12 11:46:39  -276.639046c -2.85  -2.67
iter:  13 11:46:46  -276.639220c -2.97  -2.67
iter:  14 11:46:54  -276.638662c -2.91  -2.68
Writing to output.gpw (mode='')

iter:  15 11:47:01  -276.639298c -3.30  -2.63
iter:  16 11:47:08  -276.638946c -3.28  -2.63
iter:  17 11:47:15  -276.639247c -2.83  -2.66
iter:  18 11:47:22  -276.639101c -2.96  -2.55
iter:  19 11:47:30  -276.639372c -2.90  -2.49
Writing to output.gpw (mode='')

iter:  20 11:47:37  -276.638648c -3.26  -2.52
iter:  21 11:47:44  -276.638541c -3.27  -2.64
iter:  22 11:47:51  -276.638447c -3.25  -2.70
iter:  23 11:47:58  -276.638675c -2.72  -2.80
iter:  24 11:48:06  -276.638340c -3.66  -2.88
Writing to output.gpw (mode='')

iter:  25 11:48:13  -276.638460c -3.88  -2.99
iter:  26 11:48:20  -276.638332c -3.34  -3.10
iter:  27 11:48:27  -276.638312c -4.14  -3.39
iter:  28 11:48:34  -276.638301c -4.47  -3.53
iter:  29 11:48:41  -276.638245c -4.15  -3.56
Writing to output.gpw (mode='')

iter:  30 11:48:49  -276.638361c -4.68  -3.55
iter:  31 11:48:56  -276.638274c -4.93  -3.70
iter:  32 11:49:03  -276.638322c -5.06  -3.70
iter:  33 11:49:10  -276.638318c -5.05  -3.95
iter:  34 11:49:17  -276.638315c -5.22  -4.01c
Writing to output.gpw (mode='')

iter:  35 11:49:25  -276.638310c -5.46  -4.05c
iter:  36 11:49:38  -276.638308c -5.73  -4.24c
iter:  37 11:49:45  -276.638308c -5.69  -4.38c
iter:  38 11:49:53  -276.638301c -6.13  -4.31c
iter:  39 11:50:00  -276.638318c -6.00  -4.44c
Writing to output.gpw (mode='')

iter:  40 11:50:07  -276.638311c -6.18  -4.40c
iter:  41 11:50:14  -276.638311c -6.41  -4.61c
iter:  42 11:50:21  -276.638311c -6.50  -4.74c
iter:  43 11:50:29  -276.638310c -6.47  -4.73c
iter:  44 11:50:36  -276.638311c -6.61  -4.81c
Writing to output.gpw (mode='')

iter:  45 11:50:43  -276.638308c -6.57  -4.86c
iter:  46 11:50:50  -276.638309c -6.99  -5.02c
iter:  47 11:50:57  -276.638309c -6.83  -5.04c
iter:  48 11:51:05  -276.638309c -6.93  -5.09c
iter:  49 11:51:12  -276.638310c -6.95  -5.11c
Writing to output.gpw (mode='')

iter:  50 11:51:19  -276.638309c -7.14  -5.15c
iter:  51 11:51:26  -276.638309c -7.22  -5.29c
iter:  52 11:51:33  -276.638309c -7.20  -5.32c
iter:  53 11:51:40  -276.638309c -7.29  -5.36c
iter:  54 11:51:48  -276.638308c -7.34  -5.41c
Writing to output.gpw (mode='')

iter:  55 11:51:55  -276.638309c -7.61c -5.60c

Converged after 55 iterations.

Dipole moment: (-1.700874, -5.091857, 0.403741) |e|*Ang

Energy contributions relative to reference atoms: (reference = -13382.245603)

Kinetic:       +163.315119
Potential:     -145.241664
External:        +0.000000
XC:            -295.303545
Entropy (-ST):   -0.164266
Local:           +0.673914
--------------------------
Free energy:   -276.720442
Extrapolated:  -276.638309

Dipole-layer corrected work functions: 3.372837, 2.596709 eV

Showing only first 2 kpts
 Kpt  Band  Eigenvalues  Occupancy
  0    28     -3.23509    1.98670
  0    29     -3.09909    1.81548
  0    30     -2.87312    0.19365
  0    31     -2.79512    0.04406

  1    28     -3.04039    1.50513
  1    29     -2.98841    1.03638
  1    30     -2.93468    0.53715
  1    31     -2.89473    0.28349


Fermi level: -2.98477

No gap

Forces in eV/Ang:
  0 Li    0.01058    0.00345   -0.26451
  1 Li   -0.02086    0.00309   -0.27771
  2 Li    0.00860   -0.00051   -0.27980
  3 Li    0.00364   -0.00510   -0.27337
  4 Li    0.00085    0.00840   -0.27664
  5 Li   -0.00291    0.01931   -0.27132
  6 Li    0.00003    0.00135   -0.27101
  7 Li    0.00552   -0.01105   -0.27636
  8 Li   -0.00374   -0.01865   -0.27284
  9 Li    0.00923    0.00378    0.29184
 10 Li   -0.00632    0.00203    0.24958
 11 Li   -0.00096    0.00221    0.31484
 12 Li    0.01195   -0.00508    0.28851
 13 Li   -0.00725   -0.00246    0.24212
 14 Li   -0.00175   -0.00570    0.31458
 15 Li   -0.01459    0.00265    0.24810
 16 Li    0.00011    0.00003    0.28422
 17 Li    0.01025    0.00214    0.23533
 18 Li    0.00792   -0.00057    0.07473
 19 Li   -0.04370    0.00172   -0.09370
 20 Li    0.02357    0.00189   -0.20836
 21 Li   -0.01438   -0.00587    0.04532
 22 Li    0.02293   -0.02481    0.05291
 23 Li   -0.01021   -0.01862    0.04636
 24 Li   -0.01355    0.00525    0.04328
 25 Li    0.02029    0.02351    0.04767
 26 Li   -0.00795    0.01588    0.05188
 27 Li    0.07088   -0.09506   -0.18270
 28 Li   -0.06422   -0.02895   -0.03458
 29 Li   -0.05318    0.20771    0.16026
 30 Li    0.07101    0.05077   -0.12395
 31 Li   -0.06103    0.03239   -0.04121
 32 Li   -0.04527   -0.21206    0.17761
 33 Li   -0.02343    0.00839    0.00018
 34 Li    0.00818   -0.00295   -0.00237
 35 Li    0.01709    0.01542   -0.00900
 36 O     5.01314    0.21377    9.32056
 37 C     3.42459   -0.08592    2.21836
 38 H     0.05750    0.00198    0.32945
 39 H     0.54698   -0.03229    0.56246
 40 H     0.18663   -0.00059    0.13149
 41 H    -0.27718   -0.74473    0.77748
 42 N     0.73921    0.93745   -6.56852
 43 N    -9.59202   -0.26697   -6.76383

System changes: positions 

Initializing position-dependent things.

Density initialized from wave functions
       .-----------------------.  
      /|                       |  
     / |                       |  
    /  |                       |  
   /   |                       |  
  /    |                       |  
 *     |                       |  
 |     |                       |  
 |     |                       |  
 |     |                       |  
 |     |                       |  
 |     |                       |  
 |     |                       |  
 |     |                       |  
 |H    Li      Li              |  
 | H   |             HO   C    |  
 |H    |     Li      Li      Li|  
 |     |  Li      LN  N   Li   |  
 | Li  |   Li      Li          |  
 |     |Li      Li      Li     |  
 |     |         Li            |  
 |   LLi     LLi     LLi       |  
 |     |  Li      Li      Li   |  
 | Li  |   Li      Li          |  
 |     |Li      Li      Li     |  
 Li    | Li      Li            |  
 |    Li      Li      Li       |  
 |     |                       |  
 |     |                       |  
 |     |                       |  
 |     |                       |  
 |     |                       |  
 |     |                       |  
 |     .-----------------------.  
 |    /                       /   
 |   /                       /    
 |  /                       /     
 | /                       /      
 |/                       /       
 *-----------------------*        

Positions:
   0 Li     1.617037    1.617037   10.000000    ( 0.0000,  0.0000,  0.0000)
   1 Li     4.851111    1.617037   10.000000    ( 0.0000,  0.0000,  0.0000)
   2 Li     8.085185    1.617037   10.000000    ( 0.0000,  0.0000,  0.0000)
   3 Li     1.617037    4.851111   10.000000    ( 0.0000,  0.0000,  0.0000)
   4 Li     4.851111    4.851111   10.000000    ( 0.0000,  0.0000,  0.0000)
   5 Li     8.085185    4.851111   10.000000    ( 0.0000,  0.0000,  0.0000)
   6 Li     1.617037    8.085185   10.000000    ( 0.0000,  0.0000,  0.0000)
   7 Li     4.851111    8.085185   10.000000    ( 0.0000,  0.0000,  0.0000)
   8 Li     8.085185    8.085185   10.000000    ( 0.0000,  0.0000,  0.0000)
   9 Li     0.000000    0.000000   11.617037    ( 0.0000,  0.0000,  0.0000)
  10 Li     3.234074    0.000000   11.617037    ( 0.0000,  0.0000,  0.0000)
  11 Li     6.468148    0.000000   11.617037    ( 0.0000,  0.0000,  0.0000)
  12 Li     0.000000    3.234074   11.617037    ( 0.0000,  0.0000,  0.0000)
  13 Li     3.234074    3.234074   11.617037    ( 0.0000,  0.0000,  0.0000)
  14 Li     6.468148    3.234074   11.617037    ( 0.0000,  0.0000,  0.0000)
  15 Li     0.000000    6.468148   11.617037    ( 0.0000,  0.0000,  0.0000)
  16 Li     3.234074    6.468148   11.617037    ( 0.0000,  0.0000,  0.0000)
  17 Li     6.468148    6.468148   11.617037    ( 0.0000,  0.0000,  0.0000)
  18 Li     1.617228    1.617033   13.471246    ( 0.0000,  0.0000,  0.0000)
  19 Li     4.850160    1.617075   13.467679    ( 0.0000,  0.0000,  0.0000)
  20 Li     8.085663    1.617070   13.465336    ( 0.0000,  0.0000,  0.0000)
  21 Li     1.616728    4.850973   13.470669    ( 0.0000,  0.0000,  0.0000)
  22 Li     4.851596    4.850574   13.470818    ( 0.0000,  0.0000,  0.0000)
  23 Li     8.084978    4.850762   13.470626    ( 0.0000,  0.0000,  0.0000)
  24 Li     1.616740    8.085297   13.470633    ( 0.0000,  0.0000,  0.0000)
  25 Li     4.851558    8.085691   13.470732    ( 0.0000,  0.0000,  0.0000)
  26 Li     8.085016    8.085478   13.470766    ( 0.0000,  0.0000,  0.0000)
  27 Li     0.001323   -0.001817   15.442384    ( 0.0000,  0.0000,  0.0000)
  28 Li     3.232742   -0.000627   15.445211    ( 0.0000,  0.0000,  0.0000)
  29 Li     6.467252    0.004557   15.449629    ( 0.0000,  0.0000,  0.0000)
  30 Li     0.001277    3.234965   15.443668    ( 0.0000,  0.0000,  0.0000)
  31 Li     3.232828    3.234769   15.445094    ( 0.0000,  0.0000,  0.0000)
  32 Li     6.467490    3.229449   15.450062    ( 0.0000,  0.0000,  0.0000)
  33 Li    -0.000440    6.468318   15.445883    ( 0.0000,  0.0000,  0.0000)
  34 Li     3.234244    6.468092   15.445889    ( 0.0000,  0.0000,  0.0000)
  35 Li     6.468455    6.468457   15.445674    ( 0.0000,  0.0000,  0.0000)
  36 O      8.158476    1.614173   18.572225    ( 0.0000,  0.0000,  0.0000)
  37 C      9.564281    1.599681   18.483912    ( 0.0000,  0.0000,  0.0000)
  38 H      9.921081    0.852052   17.771521    ( 0.0000,  0.0000,  0.0000)
  39 H      9.935745    1.421617   19.472829    ( 0.0000,  0.0000,  0.0000)
  40 H      9.840122    2.588804   18.121753    ( 0.0000,  0.0000,  0.0000)
  41 H      7.771627    0.747779   18.749942    ( 0.0000,  0.0000,  0.0000)
  42 N      8.024930    1.636962   17.093890    ( 0.0000,  0.0000,  0.0000)
  43 N      6.905320    1.609907   17.095061    ( 0.0000,  0.0000,  0.0000)

Unit cell:
           periodic     x           y           z      points  spacing
  1. axis:    yes    9.702222    0.000000    0.000000    60     0.1617
  2. axis:    yes    0.000000    9.702222    0.000000    60     0.1617
  3. axis:    no     0.000000    0.000000   26.601111   168     0.1583

  Lengths:   9.702222   9.702222  26.601111
  Angles:   90.000000  90.000000  90.000000

Effective grid spacing dv^(1/3) = 0.1606

     iter     time        total  log10-change:
                         energy  eigst   dens
iter:   1 11:52:03  -277.592499  -0.48
iter:   2 11:52:10  -277.560317  -0.83  -1.70
iter:   3 11:52:17  -277.552446  -1.25  -1.80
iter:   4 11:52:25  -277.546773c -1.35  -2.09
Writing to output.gpw (mode='')

iter:   5 11:52:32  -277.586338  -1.23  -2.18
iter:   6 11:52:39  -277.590442  -1.47  -1.89
iter:   7 11:52:46  -277.541230  -1.80  -1.88
iter:   8 11:52:53  -277.522288  -1.42  -2.16
iter:   9 11:53:03  -277.561616  -1.61  -2.17
Writing to output.gpw (mode='')

iter:  10 11:53:10  -277.542529  -2.18  -2.01
iter:  11 11:53:18  -277.521572  -1.84  -2.14
iter:  12 11:53:25  -277.519927c -1.75  -2.45
iter:  13 11:53:32  -277.521438c -1.92  -2.43
iter:  14 11:53:39  -277.521208c -2.44  -2.61
Writing to output.gpw (mode='')

iter:  15 11:53:46  -277.521001c -2.77  -2.65
iter:  16 11:53:53  -277.521227c -3.46  -2.82
iter:  17 11:54:00  -277.520650c -3.46  -2.84
iter:  18 11:54:08  -277.520862c -3.24  -2.97
iter:  19 11:54:15  -277.521037c -3.77  -3.18
Writing to output.gpw (mode='')

iter:  20 11:54:22  -277.520918c -3.93  -3.21
iter:  21 11:54:36  -277.520866c -3.84  -3.30
iter:  22 11:54:45  -277.520963c -3.96  -3.56
iter:  23 11:54:52  -277.520954c -4.21  -3.48
iter:  24 11:54:59  -277.520929c -4.46  -3.76
Writing to output.gpw (mode='')

iter:  25 11:55:06  -277.520957c -4.54  -3.78
iter:  26 11:55:13  -277.520954c -4.81  -3.81
iter:  27 11:55:20  -277.520950c -4.79  -3.86
iter:  28 11:55:27  -277.520953c -5.01  -3.93
iter:  29 11:55:34  -277.520957c -5.02  -3.99
Writing to output.gpw (mode='')

iter:  30 11:55:42  -277.520958c -5.41  -4.18c
iter:  31 11:55:49  -277.520963c -5.41  -4.18c
iter:  32 11:55:56  -277.520960c -5.33  -4.20c
iter:  33 11:56:03  -277.520977c -5.37  -4.26c
iter:  34 11:56:10  -277.520978c -5.77  -4.31c
Writing to output.gpw (mode='')

iter:  35 11:56:17  -277.520975c -5.70  -4.36c
iter:  36 11:56:24  -277.520973c -5.86  -4.51c
iter:  37 11:56:31  -277.520978c -5.80  -4.61c
iter:  38 11:56:39  -277.520975c -5.89  -4.69c
iter:  39 11:56:46  -277.520977c -5.90  -4.79c
Writing to output.gpw (mode='')

iter:  40 11:56:53  -277.520977c -6.15  -4.91c
iter:  41 11:57:00  -277.520980c -6.15  -4.93c
iter:  42 11:57:07  -277.520980c -6.15  -5.07c
iter:  43 11:57:14  -277.520980c -6.28  -5.10c
iter:  44 11:57:22  -277.520980c -6.29  -5.06c
Writing to output.gpw (mode='')

iter:  45 11:57:29  -277.520981c -6.24  -5.32c
iter:  46 11:57:36  -277.520981c -6.49  -5.29c
iter:  47 11:57:43  -277.520982c -6.50  -5.41c
iter:  48 11:57:50  -277.520983c -6.62  -5.40c
iter:  49 11:57:57  -277.520983c -6.73  -5.55c
Writing to output.gpw (mode='')

iter:  50 11:58:04  -277.520983c -6.70  -5.62c
iter:  51 11:58:12  -277.520984c -6.88  -5.75c
iter:  52 11:58:19  -277.520984c -6.96  -5.80c
iter:  53 11:58:26  -277.520984c -7.05  -5.87c
iter:  54 11:58:33  -277.520984c -7.10  -5.87c
Writing to output.gpw (mode='')

iter:  55 11:58:40  -277.520984c -7.05  -5.95c
iter:  56 11:58:47  -277.520984c -7.34  -6.06c
iter:  57 11:58:55  -277.520985c -7.32  -6.05c
iter:  58 11:59:02  -277.520984c -7.10  -6.12c
iter:  59 11:59:09  -277.520985c -7.42c -6.09c

Converged after 59 iterations.

Dipole moment: (-2.104537, -5.060442, 0.398878) |e|*Ang

Energy contributions relative to reference atoms: (reference = -13382.245603)

Kinetic:       +161.016548
Potential:     -144.227563
External:        +0.000000
XC:            -294.905724
Entropy (-ST):   -0.162308
Local:           +0.676908
--------------------------
Free energy:   -277.602139
Extrapolated:  -277.520985

Dipole-layer corrected work functions: 3.373709, 2.606928 eV

Showing only first 2 kpts
 Kpt  Band  Eigenvalues  Occupancy
  0    28     -3.24122    1.98685
  0    29     -3.10680    1.82260
  0    30     -2.87199    0.17152
  0    31     -2.79802    0.04183

  1    28     -3.04275    1.48101
  1    29     -2.99489    1.04567
  1    30     -2.94042    0.53866
  1    31     -2.90562    0.31052


Fermi level: -2.99032

Gap: 0.025 eV
Transition (v -> c):
  (s=0, k=2, n=29, [0.12, 0.12, 0.00]) -> (s=0, k=7, n=30, [0.38, 0.38, 0.00])
Writing to output.gpw (mode='')


Forces in eV/Ang:
  0 Li    0.01149    0.00323   -0.26491
  1 Li   -0.02188    0.00294   -0.27703
  2 Li    0.00921   -0.00068   -0.27926
  3 Li    0.00332   -0.00503   -0.27344
  4 Li    0.00106    0.00881   -0.27647
  5 Li   -0.00331    0.02010   -0.27113
  6 Li   -0.00015    0.00170   -0.27170
  7 Li    0.00557   -0.01094   -0.27619
  8 Li   -0.00424   -0.01949   -0.27238
  9 Li    0.00985    0.00323    0.29043
 10 Li   -0.00756    0.00167    0.24816
 11 Li   -0.00105    0.00304    0.31537
 12 Li    0.01269   -0.00480    0.28807
 13 Li   -0.00911   -0.00202    0.24031
 14 Li   -0.00166   -0.00608    0.31548
 15 Li   -0.01562    0.00310    0.24800
 16 Li    0.00140   -0.00054    0.28391
 17 Li    0.01081    0.00188    0.23488
 18 Li    0.00766   -0.00038    0.07008
 19 Li   -0.04358    0.00221   -0.08769
 20 Li    0.02443    0.00176   -0.20917
 21 Li   -0.01373   -0.00462    0.04416
 22 Li    0.02320   -0.02679    0.05417
 23 Li   -0.01011   -0.02049    0.04834
 24 Li   -0.01297    0.00363    0.04172
 25 Li    0.02152    0.02479    0.05071
 26 Li   -0.00890    0.01846    0.05540
 27 Li    0.07791   -0.09841   -0.18382
 28 Li   -0.05890   -0.02696   -0.03713
 29 Li   -0.06027    0.15366    0.11081
 30 Li    0.07174    0.05307   -0.12138
 31 Li   -0.05469    0.03011   -0.04279
 32 Li   -0.04630   -0.15235    0.13053
 33 Li   -0.02479    0.00801    0.00018
 34 Li    0.00903   -0.00228   -0.00234
 35 Li    0.01692    0.01539   -0.00997
 36 O     4.12523    0.34621    8.40543
 37 C     2.74889   -0.10479    1.97340
 38 H     0.06823   -0.02143    0.30339
 39 H     0.67869   -0.03302    0.47810
 40 H     0.16768   -0.05250    0.16764
 41 H    -0.08953   -0.70505    0.68855
 42 N     0.73502    0.90110   -6.26940
 43 N    -8.28781   -0.24505   -5.69642

System changes: positions 

Initializing position-dependent things.

Density initialized from wave functions
       .-----------------------.  
      /|                       |  
     / |                       |  
    /  |                       |  
   /   |                       |  
  /    |                       |  
 *     |                       |  
 |     |                       |  
 |     |                       |  
 |     |                       |  
 |     |                       |  
 |     |                       |  
 |     |                       |  
 |     |                       |  
 |H    Li      Li              |  
 | H   |             HO   C    |  
 |H    |     Li      Li      Li|  
 |     |  Li      LN  N   Li   |  
 | Li  |   Li      Li          |  
 |     |Li      Li      Li     |  
 |     |         Li            |  
 |   LLi     LLi     LLi       |  
 |     |  Li      Li      Li   |  
 | Li  |   Li      Li          |  
 |     |Li      Li      Li     |  
 Li    | Li      Li            |  
 |    Li      Li      Li       |  
 |     |                       |  
 |     |                       |  
 |     |                       |  
 |     |                       |  
 |     |                       |  
 |     |                       |  
 |     .-----------------------.  
 |    /                       /   
 |   /                       /    
 |  /                       /     
 | /                       /      
 |/                       /       
 *-----------------------*        

Positions:
   0 Li     1.617037    1.617037   10.000000    ( 0.0000,  0.0000,  0.0000)
   1 Li     4.851111    1.617037   10.000000    ( 0.0000,  0.0000,  0.0000)
   2 Li     8.085185    1.617037   10.000000    ( 0.0000,  0.0000,  0.0000)
   3 Li     1.617037    4.851111   10.000000    ( 0.0000,  0.0000,  0.0000)
   4 Li     4.851111    4.851111   10.000000    ( 0.0000,  0.0000,  0.0000)
   5 Li     8.085185    4.851111   10.000000    ( 0.0000,  0.0000,  0.0000)
   6 Li     1.617037    8.085185   10.000000    ( 0.0000,  0.0000,  0.0000)
   7 Li     4.851111    8.085185   10.000000    ( 0.0000,  0.0000,  0.0000)
   8 Li     8.085185    8.085185   10.000000    ( 0.0000,  0.0000,  0.0000)
   9 Li     0.000000    0.000000   11.617037    ( 0.0000,  0.0000,  0.0000)
  10 Li     3.234074    0.000000   11.617037    ( 0.0000,  0.0000,  0.0000)
  11 Li     6.468148    0.000000   11.617037    ( 0.0000,  0.0000,  0.0000)
  12 Li     0.000000    3.234074   11.617037    ( 0.0000,  0.0000,  0.0000)
  13 Li     3.234074    3.234074   11.617037    ( 0.0000,  0.0000,  0.0000)
  14 Li     6.468148    3.234074   11.617037    ( 0.0000,  0.0000,  0.0000)
  15 Li     0.000000    6.468148   11.617037    ( 0.0000,  0.0000,  0.0000)
  16 Li     3.234074    6.468148   11.617037    ( 0.0000,  0.0000,  0.0000)
  17 Li     6.468148    6.468148   11.617037    ( 0.0000,  0.0000,  0.0000)
  18 Li     1.617296    1.617034   13.471786    ( 0.0000,  0.0000,  0.0000)
  19 Li     4.849760    1.617100   13.466947    ( 0.0000,  0.0000,  0.0000)
  20 Li     8.085893    1.617082   13.463478    ( 0.0000,  0.0000,  0.0000)
  21 Li     1.616613    4.850945   13.471027    ( 0.0000,  0.0000,  0.0000)
  22 Li     4.851802    4.850306   13.471300    ( 0.0000,  0.0000,  0.0000)
  23 Li     8.084893    4.850569   13.471047    ( 0.0000,  0.0000,  0.0000)
  24 Li     1.616629    8.085309   13.470967    ( 0.0000,  0.0000,  0.0000)
  25 Li     4.851767    8.085932   13.471213    ( 0.0000,  0.0000,  0.0000)
  26 Li     8.084924    8.085663   13.471278    ( 0.0000,  0.0000,  0.0000)
  27 Li     0.002049   -0.002666   15.440839    ( 0.0000,  0.0000,  0.0000)
  28 Li     3.232292   -0.000839   15.444855    ( 0.0000,  0.0000,  0.0000)
  29 Li     6.466700    0.005260   15.449984    ( 0.0000,  0.0000,  0.0000)
  30 Li     0.001858    3.235404   15.442721    ( 0.0000,  0.0000,  0.0000)
  31 Li     3.232435    3.235004   15.444711    ( 0.0000,  0.0000,  0.0000)
  32 Li     6.467166    3.228838   15.450640    ( 0.0000,  0.0000,  0.0000)
  33 Li    -0.000657    6.468383   15.445878    ( 0.0000,  0.0000,  0.0000)
  34 Li     3.234331    6.468083   15.445876    ( 0.0000,  0.0000,  0.0000)
  35 Li     6.468587    6.468589   15.445560    ( 0.0000,  0.0000,  0.0000)
  36 O      8.166152    1.614348   18.604420    ( 0.0000,  0.0000,  0.0000)
  37 C      9.568612    1.597840   18.490809    ( 0.0000,  0.0000,  0.0000)
  38 H      9.922251    0.851442   17.773685    ( 0.0000,  0.0000,  0.0000)
  39 H      9.945932    1.420800   19.479522    ( 0.0000,  0.0000,  0.0000)
  40 H      9.842277    2.588587   18.123731    ( 0.0000,  0.0000,  0.0000)
  41 H      7.775639    0.747467   18.753328    ( 0.0000,  0.0000,  0.0000)
  42 N      8.007496    1.644376   17.058661    ( 0.0000,  0.0000,  0.0000)
  43 N      6.894383    1.607231   17.078276    ( 0.0000,  0.0000,  0.0000)

Unit cell:
           periodic     x           y           z      points  spacing
  1. axis:    yes    9.702222    0.000000    0.000000    60     0.1617
  2. axis:    yes    0.000000    9.702222    0.000000    60     0.1617
  3. axis:    no     0.000000    0.000000   26.601111   168     0.1583

  Lengths:   9.702222   9.702222  26.601111
  Angles:   90.000000  90.000000  90.000000

Effective grid spacing dv^(1/3) = 0.1606

     iter     time        total  log10-change:
                         energy  eigst   dens
iter:   1 11:59:17  -278.294204  -0.55
iter:   2 11:59:25  -278.269773  -0.93  -1.75
iter:   3 11:59:36  -278.262884  -1.34  -1.86
iter:   4 11:59:44  -278.253233c -1.43  -2.14
Writing to output.gpw (mode='')

iter:   5 11:59:51  -278.292330  -1.30  -2.26
iter:   6 11:59:59  -278.310053  -1.46  -1.94
iter:   7 12:00:06  -278.243464  -1.62  -1.86
iter:   8 12:00:13  -278.232634  -1.43  -2.20
iter:   9 12:00:20  -278.243957c -1.82  -2.30
Writing to output.gpw (mode='')

iter:  10 12:00:27  -278.266774  -1.75  -2.28
iter:  11 12:00:34  -278.237041c -2.15  -2.01
iter:  12 12:00:42  -278.233093  -1.48  -2.33
iter:  13 12:00:49  -278.232242c -2.42  -2.36
iter:  14 12:00:56  -278.232311c -2.81  -2.61
Writing to output.gpw (mode='')

iter:  15 12:01:03  -278.234121c -3.05  -2.69
iter:  16 12:01:10  -278.233278c -2.82  -2.77
iter:  17 12:01:17  -278.233007c -3.18  -2.93
iter:  18 12:01:25  -278.232689c -3.36  -3.00
iter:  19 12:01:32  -278.233003c -3.52  -3.26
Writing to output.gpw (mode='')

iter:  20 12:01:39  -278.233004c -3.84  -3.36
iter:  21 12:01:46  -278.233078c -4.01  -3.42
iter:  22 12:01:53  -278.233050c -4.04  -3.53
iter:  23 12:02:00  -278.233037c -4.21  -3.76
iter:  24 12:02:08  -278.233041c -4.30  -3.90
Writing to output.gpw (mode='')

iter:  25 12:02:15  -278.233053c -4.39  -3.92
iter:  26 12:02:22  -278.233085c -4.56  -4.04c
iter:  27 12:02:29  -278.233075c -4.48  -4.05c
iter:  28 12:02:36  -278.233086c -4.62  -4.03c
iter:  29 12:02:43  -278.233095c -4.73  -4.11c
Writing to output.gpw (mode='')

iter:  30 12:02:51  -278.233100c -5.08  -4.24c
iter:  31 12:02:58  -278.233098c -5.08  -4.36c
iter:  32 12:03:05  -278.233104c -5.18  -4.43c
iter:  33 12:03:12  -278.233111c -5.21  -4.46c
iter:  34 12:03:19  -278.233104c -5.13  -4.36c
Writing to output.gpw (mode='')

iter:  35 12:03:26  -278.233109c -5.41  -4.48c
iter:  36 12:03:34  -278.233113c -5.30  -4.61c
iter:  37 12:03:41  -278.233115c -5.40  -4.60c
iter:  38 12:03:48  -278.233116c -5.62  -4.83c
iter:  39 12:03:55  -278.233121c -5.73  -4.88c
Writing to output.gpw (mode='')

iter:  40 12:04:02  -278.233121c -5.65  -4.86c
iter:  41 12:04:10  -278.233124c -5.79  -4.92c
iter:  42 12:04:17  -278.233121c -5.93  -5.02c
iter:  43 12:04:24  -278.233122c -5.98  -5.05c
iter:  44 12:04:36  -278.233124c -6.13  -5.08c
Writing to output.gpw (mode='')

iter:  45 12:04:44  -278.233126c -5.95  -5.30c
iter:  46 12:04:51  -278.233126c -6.28  -5.36c
iter:  47 12:04:58  -278.233127c -6.36  -5.47c
iter:  48 12:05:06  -278.233127c -6.29  -5.56c
iter:  49 12:05:13  -278.233127c -6.60  -5.53c
Writing to output.gpw (mode='')

iter:  50 12:05:20  -278.233126c -6.48  -5.53c
iter:  51 12:05:27  -278.233127c -6.74  -5.24c
iter:  52 12:05:34  -278.233128c -6.71  -5.42c
iter:  53 12:05:43  -278.233129c -6.84  -5.63c
iter:  54 12:05:57  -278.233130c -6.78  -5.66c
Writing to output.gpw (mode='')

iter:  55 12:06:08  -278.233130c -6.87  -5.77c
iter:  56 12:06:15  -278.233130c -6.87  -5.70c
iter:  57 12:06:22  -278.233130c -6.89  -5.76c
iter:  58 12:06:29  -278.233130c -6.96  -5.81c
iter:  59 12:06:36  -278.233130c -7.17  -5.83c
Writing to output.gpw (mode='')

iter:  60 12:06:44  -278.233130c -7.18  -5.99c
iter:  61 12:06:51  -278.233131c -7.22  -6.08c
iter:  62 12:06:58  -278.233131c -7.26  -6.22c
iter:  63 12:07:05  -278.233131c -7.41c -6.20c

Converged after 63 iterations.

Dipole moment: (-2.317077, -4.993751, 0.375594) |e|*Ang

Energy contributions relative to reference atoms: (reference = -13382.245603)

Kinetic:       +159.209668
Potential:     -143.426382
External:        +0.000000
XC:            -294.613564
Entropy (-ST):   -0.161051
Local:           +0.677673
--------------------------
Free energy:   -278.313656
Extrapolated:  -278.233131

Dipole-layer corrected work functions: 3.375704, 2.653685 eV

Showing only first 2 kpts
 Kpt  Band  Eigenvalues  Occupancy
  0    28     -3.26592    1.98694
  0    29     -3.13173    1.82438
  0    30     -2.89246    0.15965
  0    31     -2.81741    0.03794

  1    28     -3.06357    1.45320
  1    29     -3.02047    1.05772
  1    30     -2.96702    0.55641
  1    31     -2.93160    0.31903


Fermi level: -3.01469

Gap: 0.024 eV
Transition (v -> c):
  (s=0, k=2, n=29, [0.12, 0.12, 0.00]) -> (s=0, k=7, n=30, [0.38, 0.38, 0.00])
Writing to output.gpw (mode='')


Forces in eV/Ang:
  0 Li    0.01255    0.00298   -0.26524
  1 Li   -0.02263    0.00277   -0.27648
  2 Li    0.00958   -0.00078   -0.27884
  3 Li    0.00287   -0.00472   -0.27371
  4 Li    0.00110    0.00906   -0.27632
  5 Li   -0.00361    0.02077   -0.27103
  6 Li   -0.00039    0.00188   -0.27250
  7 Li    0.00537   -0.01068   -0.27615
  8 Li   -0.00462   -0.02029   -0.27203
  9 Li    0.01034    0.00264    0.28888
 10 Li   -0.00886    0.00125    0.24686
 11 Li   -0.00123    0.00384    0.31570
 12 Li    0.01320   -0.00443    0.28743
 13 Li   -0.01094   -0.00156    0.23888
 14 Li   -0.00161   -0.00636    0.31600
 15 Li   -0.01635    0.00350    0.24801
 16 Li    0.00286   -0.00108    0.28279
 17 Li    0.01127    0.00164    0.23460
 18 Li    0.00725   -0.00028    0.06488
 19 Li   -0.04267    0.00267   -0.08020
 20 Li    0.02443    0.00174   -0.20646
 21 Li   -0.01285   -0.00350    0.04306
 22 Li    0.02333   -0.02805    0.05489
 23 Li   -0.00991   -0.02189    0.04990
 24 Li   -0.01215    0.00216    0.04049
 25 Li    0.02242    0.02537    0.05287
 26 Li   -0.00956    0.02051    0.05781
 27 Li    0.08277   -0.09954   -0.18088
 28 Li   -0.05272   -0.02474   -0.03932
 29 Li   -0.06595    0.10382    0.06954
 30 Li    0.07018    0.05338   -0.11545
 31 Li   -0.04745    0.02762   -0.04402
 32 Li   -0.04601   -0.09814    0.09117
 33 Li   -0.02573    0.00733   -0.00064
 34 Li    0.00943   -0.00164   -0.00290
 35 Li    0.01657    0.01499   -0.01135
 36 O     3.42681    0.40852    7.68365
 37 C     2.26297   -0.09786    1.78867
 38 H     0.04726   -0.02396    0.30126
 39 H     0.76756   -0.03372    0.37931
 40 H     0.14572   -0.10391    0.19799
 41 H     0.04198   -0.66050    0.60407
 42 N     0.87329    0.79425   -5.87856
 43 N    -7.51791   -0.28170   -4.90750

System changes: positions 

Initializing position-dependent things.

Density initialized from wave functions
       .-----------------------.  
      /|                       |  
     / |                       |  
    /  |                       |  
   /   |                       |  
  /    |                       |  
 *     |                       |  
 |     |                       |  
 |     |                       |  
 |     |                       |  
 |     |                       |  
 |     |                       |  
 |     |                       |  
 |     |                       |  
 | H   Li      Li              |  
 | H   |             HO   C    |  
 |H    |     Li      Li      Li|  
 |     |  Li      LN  N   Li   |  
 | Li  |   Li      Li          |  
 |     |Li      Li      Li     |  
 |     |         Li            |  
 |   LLi     LLi     LLi       |  
 |     |  Li      Li      Li   |  
 | Li  |   Li      Li          |  
 |     |Li      Li      Li     |  
 Li    | Li      Li            |  
 |    Li      Li      Li       |  
 |     |                       |  
 |     |                       |  
 |     |                       |  
 |     |                       |  
 |     |                       |  
 |     |                       |  
 |     .-----------------------.  
 |    /                       /   
 |   /                       /    
 |  /                       /     
 | /                       /      
 |/                       /       
 *-----------------------*        

Positions:
   0 Li     1.617037    1.617037   10.000000    ( 0.0000,  0.0000,  0.0000)
   1 Li     4.851111    1.617037   10.000000    ( 0.0000,  0.0000,  0.0000)
   2 Li     8.085185    1.617037   10.000000    ( 0.0000,  0.0000,  0.0000)
   3 Li     1.617037    4.851111   10.000000    ( 0.0000,  0.0000,  0.0000)
[...]
iter:  16 21:55:56  -284.417817c -6.03  -4.35c
iter:  17 21:56:03  -284.417813c -5.90  -4.32c
iter:  18 21:56:10  -284.417813c -6.32  -4.24c
iter:  19 21:56:17  -284.417815c -6.51  -4.24c
Writing to output.gpw (mode='')

iter:  20 21:56:24  -284.417813c -6.71  -4.34c
iter:  21 21:56:31  -284.417817c -6.45  -4.31c
iter:  22 21:56:38  -284.417816c -6.97  -4.50c
iter:  23 21:56:45  -284.417818c -6.49  -4.58c
iter:  24 21:56:52  -284.417818c -7.35  -4.86c
Writing to output.gpw (mode='')

iter:  25 21:56:59  -284.417817c -7.15  -4.90c
iter:  26 21:57:06  -284.417818c -7.20  -4.94c
iter:  27 21:57:13  -284.417818c -7.39  -5.00c
iter:  28 21:57:20  -284.417817c -7.37  -5.09c
iter:  29 21:57:27  -284.417817c -7.69c -5.26c

Converged after 29 iterations.

Dipole moment: (-15.068786, -3.631762, -0.195864) |e|*Ang

Energy contributions relative to reference atoms: (reference = -13382.245603)

Kinetic:       +130.592025
Potential:     -121.389295
External:        +0.000000
XC:            -294.263994
Entropy (-ST):   -0.161068
Local:           +0.723980
--------------------------
Free energy:   -284.498351
Extrapolated:  -284.417817

Dipole-layer corrected work functions: 3.409018, 3.785536 eV

Showing only first 2 kpts
 Kpt  Band  Eigenvalues  Occupancy
  0    28     -3.83717    1.98364
  0    29     -3.63491    1.35948
  0    30     -3.56133    0.65529
  0    31     -3.38421    0.02781

  1    28     -3.83451    1.98275
  1    29     -3.75889    1.92406
  1    30     -3.53023    0.41473
  1    31     -3.34213    0.01208


Fermi level: -3.59728

No gap
Writing to output.gpw (mode='')


Forces in eV/Ang:
  0 Li   -0.00869    0.01060   -0.29668
  1 Li    0.00415   -0.01201   -0.29280
  2 Li   -0.00076    0.00021   -0.25214
  3 Li    0.00551    0.00785   -0.29191
  4 Li   -0.01828    0.01440   -0.28330
  5 Li    0.00969   -0.00761   -0.29510
  6 Li    0.01302   -0.01750   -0.28625
  7 Li   -0.01050   -0.00789   -0.29046
  8 Li   -0.01281    0.00456   -0.29343
  9 Li   -0.02635    0.03534    0.27561
 10 Li   -0.00283    0.01355    0.29029
 11 Li    0.04011    0.03577    0.31846
 12 Li   -0.02469   -0.01967    0.32775
 13 Li    0.02568   -0.01350    0.28039
 14 Li    0.04279   -0.03003    0.26277
 15 Li   -0.01177    0.01891    0.28532
 16 Li    0.02296    0.01509    0.26479
 17 Li    0.01855   -0.00885    0.26833
 18 Li    0.00957   -0.00743   -0.00390
 19 Li    0.00168    0.00029    0.00409
 20 Li    0.00521   -0.00429    0.02703
 21 Li   -0.00375   -0.00450    0.00156
 22 Li    0.00413   -0.00178    0.00126
 23 Li    0.00275   -0.00863    0.00474
 24 Li    0.00119   -0.00130   -0.00766
 25 Li    0.00029    0.00921    0.01376
 26 Li    0.00584   -0.00782   -0.00455
 27 Li    0.00674   -0.00798    0.00302
 28 Li   -0.01449   -0.00393    0.00251
 29 Li   -0.02119   -0.02005    0.00472
 30 Li    0.02316    0.02082    0.00343
 31 Li    0.00053    0.00718    0.00105
 32 Li   -0.00447    0.00450    0.00495
 33 Li    0.00853    0.01657   -0.00321
 34 Li   -0.00677   -0.00135    0.00042
 35 Li   -0.00043   -0.00518    0.00351
 36 O    -0.00982   -0.00070   -0.02694
 37 C    -0.01790   -0.00687   -0.00296
 38 H     0.02681   -0.03534    0.01989
 39 H     0.01154   -0.00407    0.00361
 40 H    -0.01714    0.00987    0.00812
 41 H    -0.02245    0.00836   -0.00600
 42 N    -0.05583    0.00372   -0.02330
 43 N     0.00853    0.01718    0.01643

System changes: positions 

Initializing position-dependent things.

Density initialized from wave functions
       .-----------------------.  
      /|                       |  
     / |                       |  
    /  |                       |  
   /   |                       |  
  /    |                       |  
 *     |                       |  
 |     |                       |  
 |     |                       |  
 |     |                       |  
 |     |                       |  
 |     |                       |  
 |     |                       |  
 | H   |                       |  
 |  H  |       Li      Li      |  
 |C    |               O       |  
 | H Li|     Li      LH        |  
 |     |  Li      Li      Li   |  
 |  Li |    Li      Li  N      |  
 |     |Li      Li   N  Li     |  
 |     |                 Li    |  
 |   LLi     LLi     LLi       |  
 |     |  Li      Li      Li   |  
 | Li  |   Li      Li          |  
 |     |Li      Li      Li     |  
 Li    | Li      Li            |  
 |    Li      Li      Li       |  
 |     |                       |  
 |     |                       |  
 |     |                       |  
 |     |                       |  
 |     |                       |  
 |     |                       |  
 |     .-----------------------.  
 |    /                       /   
 |   /                       /    
 |  /                       /     
 | /                       /      
 |/                       /       
 *-----------------------*        

Positions:
   0 Li     1.617037    1.617037   10.000000    ( 0.0000,  0.0000,  0.0000)
   1 Li     4.851111    1.617037   10.000000    ( 0.0000,  0.0000,  0.0000)
   2 Li     8.085185    1.617037   10.000000    ( 0.0000,  0.0000,  0.0000)
   3 Li     1.617037    4.851111   10.000000    ( 0.0000,  0.0000,  0.0000)
   4 Li     4.851111    4.851111   10.000000    ( 0.0000,  0.0000,  0.0000)
   5 Li     8.085185    4.851111   10.000000    ( 0.0000,  0.0000,  0.0000)
   6 Li     1.617037    8.085185   10.000000    ( 0.0000,  0.0000,  0.0000)
   7 Li     4.851111    8.085185   10.000000    ( 0.0000,  0.0000,  0.0000)
   8 Li     8.085185    8.085185   10.000000    ( 0.0000,  0.0000,  0.0000)
   9 Li     0.000000    0.000000   11.617037    ( 0.0000,  0.0000,  0.0000)
  10 Li     3.234074    0.000000   11.617037    ( 0.0000,  0.0000,  0.0000)
  11 Li     6.468148    0.000000   11.617037    ( 0.0000,  0.0000,  0.0000)
  12 Li     0.000000    3.234074   11.617037    ( 0.0000,  0.0000,  0.0000)
  13 Li     3.234074    3.234074   11.617037    ( 0.0000,  0.0000,  0.0000)
  14 Li     6.468148    3.234074   11.617037    ( 0.0000,  0.0000,  0.0000)
  15 Li     0.000000    6.468148   11.617037    ( 0.0000,  0.0000,  0.0000)
  16 Li     3.234074    6.468148   11.617037    ( 0.0000,  0.0000,  0.0000)
  17 Li     6.468148    6.468148   11.617037    ( 0.0000,  0.0000,  0.0000)
  18 Li     1.627427    1.668994   13.492843    ( 0.0000,  0.0000,  0.0000)
  19 Li     4.888712    1.579686   13.491637    ( 0.0000,  0.0000,  0.0000)
  20 Li     8.095225    1.627696   13.576730    ( 0.0000,  0.0000,  0.0000)
  21 Li     1.687017    4.912207   13.466361    ( 0.0000,  0.0000,  0.0000)
  22 Li     4.929135    4.791205   13.490876    ( 0.0000,  0.0000,  0.0000)
  23 Li     8.124937    4.857946   13.492240    ( 0.0000,  0.0000,  0.0000)
  24 Li     1.561644    8.150281   13.497196    ( 0.0000,  0.0000,  0.0000)
  25 Li     4.832748    8.042906   13.481217    ( 0.0000,  0.0000,  0.0000)
  26 Li     8.042094    8.104011   13.495133    ( 0.0000,  0.0000,  0.0000)
  27 Li    -0.177951    0.256488   15.503128    ( 0.0000,  0.0000,  0.0000)
  28 Li     3.166914   -0.050882   15.410014    ( 0.0000,  0.0000,  0.0000)
  29 Li     6.418170   -0.083139   15.497737    ( 0.0000,  0.0000,  0.0000)
  30 Li     0.186385    3.397047   15.430431    ( 0.0000,  0.0000,  0.0000)
  31 Li     3.434507    3.278680   15.428110    ( 0.0000,  0.0000,  0.0000)
  32 Li     6.796824    3.006504   15.585041    ( 0.0000,  0.0000,  0.0000)
  33 Li     0.032935    6.608324   15.432277    ( 0.0000,  0.0000,  0.0000)
  34 Li     3.223741    6.463728   15.439630    ( 0.0000,  0.0000,  0.0000)
  35 Li     6.409266    6.346158   15.437586    ( 0.0000,  0.0000,  0.0000)
  36 O      8.424661    1.336883   19.027157    ( 0.0000,  0.0000,  0.0000)
  37 C      9.834989    1.547205   18.971143    ( 0.0000,  0.0000,  0.0000)
  38 H     10.346555    0.756977   18.405673    ( 0.0000,  0.0000,  0.0000)
  39 H     10.196344    1.528232   19.998352    ( 0.0000,  0.0000,  0.0000)
  40 H     10.092764    2.515674   18.524917    ( 0.0000,  0.0000,  0.0000)
  41 H      8.094851    1.288976   18.121486    ( 0.0000,  0.0000,  0.0000)
  42 N      8.623546    2.090447   15.576083    ( 0.0000,  0.0000,  0.0000)
  43 N      7.728391    1.196901   15.626396    ( 0.0000,  0.0000,  0.0000)

Unit cell:
           periodic     x           y           z      points  spacing
  1. axis:    yes    9.702222    0.000000    0.000000    60     0.1617
  2. axis:    yes    0.000000    9.702222    0.000000    60     0.1617
  3. axis:    no     0.000000    0.000000   26.601111   168     0.1583

  Lengths:   9.702222   9.702222  26.601111
  Angles:   90.000000  90.000000  90.000000

Effective grid spacing dv^(1/3) = 0.1606

     iter     time        total  log10-change:
                         energy  eigst   dens
iter:   1 21:57:36  -284.418149  -3.04
iter:   2 21:57:43  -284.418204  -3.71  -3.02
iter:   3 21:57:50  -284.418162c -4.19  -3.21
iter:   4 21:57:57  -284.418153c -4.54  -3.31
Writing to output.gpw (mode='')

iter:   5 21:58:04  -284.418094c -4.21  -3.34
iter:   6 21:58:11  -284.418091c -4.31  -3.77
iter:   7 21:58:18  -284.418093c -4.86  -3.76
iter:   8 21:58:25  -284.418100c -5.30  -3.82
iter:   9 21:58:33  -284.418101c -5.39  -4.04c
Writing to output.gpw (mode='')

iter:  10 21:58:40  -284.418101c -5.80  -4.19c
iter:  11 21:58:47  -284.418099c -5.95  -4.26c
iter:  12 21:58:54  -284.418100c -6.09  -4.22c
iter:  13 21:59:01  -284.418101c -6.31  -4.28c
iter:  14 21:59:08  -284.418097c -6.30  -4.36c
Writing to output.gpw (mode='')

iter:  15 21:59:15  -284.418099c -6.50  -4.52c
iter:  16 21:59:22  -284.418099c -6.93  -4.64c
iter:  17 21:59:35  -284.418100c -6.85  -4.68c
iter:  18 21:59:43  -284.418100c -7.14  -4.82c
iter:  19 21:59:50  -284.418101c -7.04  -4.90c
Writing to output.gpw (mode='')

iter:  20 21:59:57  -284.418101c -7.39  -5.14c
iter:  21 22:00:04  -284.418101c -7.62c -5.20c

Converged after 21 iterations.

Dipole moment: (-15.063859, -3.630542, -0.195823) |e|*Ang

Energy contributions relative to reference atoms: (reference = -13382.245603)

Kinetic:       +130.643759
Potential:     -121.428115
External:        +0.000000
XC:            -294.277228
Entropy (-ST):   -0.161064
Local:           +0.724015
--------------------------
Free energy:   -284.498633
Extrapolated:  -284.418101

Dipole-layer corrected work functions: 3.409035, 3.785473 eV

Showing only first 2 kpts
 Kpt  Band  Eigenvalues  Occupancy
  0    28     -3.83713    1.98364
  0    29     -3.63495    1.36005
  0    30     -3.56140    0.65609
  0    31     -3.38412    0.02778

  1    28     -3.83452    1.98277
  1    29     -3.75877    1.92392
  1    30     -3.53022    0.41480
  1    31     -3.34215    0.01209


Fermi level: -3.59725

No gap
Writing to output.gpw (mode='')


Forces in eV/Ang:
  0 Li   -0.00856    0.01057   -0.29674
  1 Li    0.00410   -0.01200   -0.29279
  2 Li   -0.00079    0.00025   -0.25225
  3 Li    0.00564    0.00796   -0.29188
  4 Li   -0.01832    0.01431   -0.28338
  5 Li    0.00967   -0.00752   -0.29516
  6 Li    0.01298   -0.01749   -0.28616
  7 Li   -0.01048   -0.00780   -0.29062
  8 Li   -0.01282    0.00459   -0.29354
  9 Li   -0.02682    0.03518    0.27576
 10 Li   -0.00222    0.01292    0.28998
 11 Li    0.04030    0.03565    0.31859
 12 Li   -0.02505   -0.02025    0.32850
 13 Li    0.02579   -0.01392    0.28018
 14 Li    0.04279   -0.03051    0.26278
 15 Li   -0.01232    0.01819    0.28508
 16 Li    0.02419    0.01583    0.26501
 17 Li    0.01795   -0.00903    0.26900
 18 Li    0.00864   -0.00536   -0.00300
 19 Li    0.00170    0.00046    0.00386
 20 Li    0.00485   -0.00376    0.02249
 21 Li   -0.00513   -0.00649    0.00304
 22 Li    0.00456   -0.00013    0.00081
 23 Li    0.00367   -0.00806    0.00411
 24 Li    0.00169    0.00011   -0.00753
 25 Li   -0.00059    0.00728    0.01172
 26 Li    0.00488   -0.00710   -0.00396
 27 Li    0.00581   -0.00290    0.00367
 28 Li   -0.01506   -0.00413    0.00322
 29 Li   -0.01958   -0.02019    0.00472
 30 Li    0.02343    0.02239    0.00175
 31 Li    0.00015    0.00636    0.00107
 32 Li   -0.00762    0.00273    0.00536
 33 Li    0.00798    0.01611   -0.00275
 34 Li   -0.00557   -0.00094    0.00073
 35 Li   -0.00106   -0.00483    0.00363
 36 O    -0.01805   -0.00492   -0.01006
 37 C    -0.01315   -0.01092   -0.00255
 38 H     0.02468   -0.02958    0.01745
 39 H     0.01436   -0.00357    0.01079
 40 H    -0.01094    0.01055    0.00161
 41 H    -0.02673    0.00818   -0.02293
 42 N    -0.03126   -0.00054   -0.01622
 43 N    -0.00846    0.01843    0.02047

Timing:                                      incl.     excl.
-------------------------------------------------------------------
Density initialized from wave functions:     8.516     8.513   0.0% |
 Symmetrize density:                         0.003     0.003   0.0% |
Forces:                                     51.347    51.347   0.1% |
Hamiltonian:                               821.758     0.019   0.0% |
 Atomic:                                     0.030     0.030   0.0% |
  XC Correction:                             0.000     0.000   0.0% |
 Calculate atomic Hamiltonians:              0.047     0.047   0.0% |
 Communicate:                               11.615    11.615   0.0% |
 Hartree integrate/restrict:                 3.265     3.265   0.0% |
 Initialize Hamiltonian:                     0.000     0.000   0.0% |
 Poisson:                                   39.467    14.392   0.0% |
  Communicate from 1D:                       3.794     3.794   0.0% |
  Communicate from 2D:                       4.203     4.203   0.0% |
  Communicate to 1D:                         2.144     2.144   0.0% |
  Communicate to 2D:                         4.991     4.991   0.0% |
  FFT 1D:                                    4.992     4.992   0.0% |
  FFT 2D:                                    4.951     4.951   0.0% |
 XC 3D grid:                               766.659   119.750   0.3% |
  VdW-DF integral:                         646.908     5.277   0.0% |
   Convolution:                             57.271    57.271   0.1% |
   FFT:                                     24.883    24.883   0.1% |
   gather:                                 224.806   224.806   0.6% |
   hmm1:                                    20.516    20.516   0.1% |
   hmm2:                                    27.487    27.487   0.1% |
   iFFT:                                    26.141    26.141   0.1% |
   potential:                              256.902     6.602   0.0% |
    collect:                                38.298    38.298   0.1% |
    p1:                                    113.179   113.179   0.3% |
    p2:                                     42.566    42.566   0.1% |
    sum:                                    56.257    56.257   0.1% |
   splines:                                  3.626     3.626   0.0% |
 vbar:                                       0.655     0.655   0.0% |
LCAO initialization:                         1.030     0.183   0.0% |
 LCAO eigensolver:                           0.212     0.000   0.0% |
  Calculate projections:                     0.000     0.000   0.0% |
  DenseAtomicCorrection:                     0.000     0.000   0.0% |
  Distribute overlap matrix:                 0.177     0.177   0.0% |
  Orbital Layouts:                           0.033     0.033   0.0% |
  Potential matrix:                          0.001     0.001   0.0% |
  Sum over cells:                            0.001     0.001   0.0% |
 LCAO to grid:                               0.526     0.526   0.0% |
 Set positions (LCAO WFS):                   0.109     0.053   0.0% |
  Basic WFS set positions:                   0.001     0.001   0.0% |
  Basis functions set positions:             0.000     0.000   0.0% |
  P tci:                                     0.000     0.000   0.0% |
  ST tci:                                    0.027     0.027   0.0% |
  mktci:                                     0.027     0.027   0.0% |
Redistribute:                                0.088     0.088   0.0% |
SCF-cycle:                               37741.870   581.334   1.5% ||
 Davidson:                                8823.168  2647.395   6.8% |--|
  Apply hamiltonian:                       555.805   555.805   1.4% ||
  Subspace diag:                          1671.297     0.613   0.0% |
   calc_h_matrix:                          814.373   231.597   0.6% |
    Apply hamiltonian:                     582.776   582.776   1.5% ||
   diagonalize:                             98.811    98.811   0.3% |
   rotate_psi:                             757.500   757.500   2.0% ||
  calc. matrices:                         2704.641  1345.694   3.5% ||
   Apply hamiltonian:                     1358.947  1358.947   3.5% ||
  diagonalize:                              22.364    22.364   0.1% |
  rotate_psi:                             1221.665  1221.665   3.2% ||
 Density:                                  179.098     0.124   0.0% |
  Atomic density matrices:                  17.325    17.325   0.0% |
  Mix:                                      84.788    84.788   0.2% |
  Multipole moments:                         8.266     8.266   0.0% |
  Pseudo density:                           68.595    68.487   0.2% |
   Symmetrize density:                       0.108     0.108   0.0% |
 Hamiltonian:                            28135.137     0.644   0.0% |
  Atomic:                                    1.131     1.119   0.0% |
   XC Correction:                            0.012     0.012   0.0% |
  Calculate atomic Hamiltonians:             1.680     1.680   0.0% |
  Communicate:                             394.733   394.733   1.0% |
  Hartree integrate/restrict:              109.625   109.625   0.3% |
  Poisson:                                1350.408   500.022   1.3% ||
   Communicate from 1D:                    134.025   134.025   0.3% |
   Communicate from 2D:                    132.982   132.982   0.3% |
   Communicate to 1D:                       76.088    76.088   0.2% |
   Communicate to 2D:                      160.262   160.262   0.4% |
   FFT 1D:                                 175.220   175.220   0.5% |
   FFT 2D:                                 171.807   171.807   0.4% |
  XC 3D grid:                            26253.007  4127.136  10.6% |---|
   VdW-DF integral:                      22125.871   184.692   0.5% |
    Convolution:                          2004.018  2004.018   5.2% |-|
    FFT:                                   871.289   871.289   2.2% ||
    gather:                               7664.162  7664.162  19.8% |-------|
    hmm1:                                  719.016   719.016   1.9% ||
    hmm2:                                  960.671   960.671   2.5% ||
    iFFT:                                  901.674   901.674   2.3% ||
    potential:                            8820.300   232.912   0.6% |
     collect:                             1357.763  1357.763   3.5% ||
     p1:                                  3941.165  3941.165  10.2% |---|
     p2:                                  1484.981  1484.981   3.8% |-|
     sum:                                 1803.478  1803.478   4.7% |-|
    splines:                                 0.049     0.049   0.0% |
  vbar:                                     23.908    23.908   0.1% |
 Orthonormalize:                            23.134     0.020   0.0% |
  calc_s_matrix:                             3.160     3.160   0.0% |
  inverse-cholesky:                          6.779     6.779   0.0% |
  projections:                               0.003     0.003   0.0% |
  rotate_psi_s:                             13.171    13.171   0.0% |
Set symmetry:                                0.003     0.003   0.0% |
Other:                                     130.404   130.404   0.3% |
-------------------------------------------------------------------
Total:                                             38755.016 100.0%

Memory usage: 1.13 GiB
Date: Fri Mar 10 22:00:06 2023
