
  ___ ___ ___ _ _ _  
 |   |   |_  | | | | 
 | | | | | . | | | | 
 |__ |  _|___|_____|  22.8.0
 |___|_|             

User:   vazumah@c03.hercules
Date:   Sat Mar  4 19:33:27 2023
Arch:   x86_64
Pid:    10590
CWD:    /home/vazumah/Python_projects/LiNRR/Li_adsorb_studies/proton_donors/N2_with_proton_donor/Li_BCC_100/adsorbates/HF/ontop/9.702_9.702/N2_z
Python: 3.10.8
gpaw:   /home/vazumah/.conda/envs/GPAW/lib/python3.10/site-packages/gpaw
_gpaw:  /home/vazumah/.conda/envs/GPAW/lib/python3.10/site-packages/
        _gpaw.cpython-310-x86_64-linux-gnu.so
ase:    /home/vazumah/.conda/envs/GPAW/lib/python3.10/site-packages/ase (version 3.22.1)
numpy:  /home/vazumah/.conda/envs/GPAW/lib/python3.10/site-packages/numpy (version 1.24.1)
scipy:  /home/vazumah/.conda/envs/GPAW/lib/python3.10/site-packages/scipy (version 1.10.0)
libxc:  5.2.3
units:  Angstrom and eV
cores: 24
OpenMP: True
OMP_NUM_THREADS: 1

Input parameters:
  h: 0.16
  kpts: {size: [4, 4, 1]}
  occupations: {name: fermi-dirac,
                width: 0.05}
  poissonsolver: {dipolelayer: xy}
  xc: BEEF-vdW

System changes: positions, numbers, cell, pbc, initial_charges, initial_magmoms 

Initialize ...

species:
  Li:
    name: Lithium
    id: 830b4218f175192f93f959cfc0aad614
    Z: 3.0
    valence: 1
    core: 2
    charge: 0.0
    file: /home/vazumah/.conda/envs/GPAW/share/gpaw/Li.PBE.gz
    compensation charges: {type: gauss,
                           rc: 0.33,
                           lmax: 2}
    cutoffs: {filter: 1.91,
              core: 2.55}
    valence states:
      #              energy  rcut
      - 2s(1.00)    -2.874   1.058
      - 2p(0.00)    -1.090   1.058
      -  s          24.337   1.058
  
    # Using partial waves for Li as LCAO basis

  F:
    name: Fluorine
    id: 9cd46ba2a61e170ad72278be75b55cc0
    Z: 9.0
    valence: 7
    core: 2
    charge: 0.0
    file: /home/vazumah/.conda/envs/GPAW/share/gpaw/F.PBE.gz
    compensation charges: {type: gauss,
                           rc: 0.20,
                           lmax: 2}
    cutoffs: {filter: 1.14,
              core: 0.74}
    valence states:
      #              energy  rcut
      - 2s(2.00)   -29.898   0.635
      - 2p(5.00)   -11.110   0.635
      -  s          -2.687   0.635
      -  p          16.102   0.635
      -  d           0.000   0.635
  
    # Using partial waves for F as LCAO basis

  H:
    name: Hydrogen
    id: d65de229564ff8ea4db303e23b6d1ecf
    Z: 1.0
    valence: 1
    core: 0
    charge: 0.0
    file: /home/vazumah/.conda/envs/GPAW/share/gpaw/H.PBE.gz
    compensation charges: {type: gauss,
                           rc: 0.15,
                           lmax: 2}
    cutoffs: {filter: 0.85,
              core: 0.53}
    valence states:
      #              energy  rcut
      - 1s(1.00)    -6.494   0.476
      -  s          20.717   0.476
      -  p           0.000   0.476
  
    # Using partial waves for H as LCAO basis

  N:
    name: Nitrogen
    id: f7500608b86eaa90eef8b1d9a670dc53
    Z: 7.0
    valence: 5
    core: 2
    charge: 0.0
    file: /home/vazumah/.conda/envs/GPAW/share/gpaw/N.PBE.gz
    compensation charges: {type: gauss,
                           rc: 0.18,
                           lmax: 2}
    cutoffs: {filter: 1.11,
              core: 0.96}
    valence states:
      #              energy  rcut
      - 2s(2.00)   -18.583   0.603
      - 2p(3.00)    -7.089   0.529
      -  s           8.629   0.603
      -  p          20.123   0.529
      -  d           0.000   0.577
  
    # Using partial waves for N as LCAO basis

Reference energy: -12990.375485  # eV

Spin-paired calculation

Convergence criteria:
 Maximum [total energy] change in last 3 cyles: 0.0005 eV / electron
 Maximum integral of absolute [dens]ity change: 0.0001 electrons / valence electron
 Maximum integral of absolute [eigenst]ate change: 4e-08 eV^2 / valence electron
 Maximum number of scf [iter]ations: 333
 (Square brackets indicate name in SCF output, whereas a 'c' in
 the SCF output indicates the quantity has converged.)

Symmetries present (total): 1

  ( 1  0  0)
  ( 0  1  0)
  ( 0  0  1)

16 k-points: 4 x 4 x 1 Monkhorst-Pack grid
8 k-points in the irreducible part of the Brillouin zone
       k-points in crystal coordinates                weights
   0:     0.12500000   -0.37500000    0.00000000          2/16
   1:     0.12500000   -0.12500000    0.00000000          2/16
   2:     0.12500000    0.12500000    0.00000000          2/16
   3:     0.12500000    0.37500000    0.00000000          2/16
   4:     0.37500000   -0.37500000    0.00000000          2/16
   5:     0.37500000   -0.12500000    0.00000000          2/16
   6:     0.37500000    0.12500000    0.00000000          2/16
   7:     0.37500000    0.37500000    0.00000000          2/16

Wave functions: Uniform real-space grid
  Kinetic energy operator: 6*3+1=19 point O(h^6) finite-difference Laplacian
  ScaLapack parameters: grid=1x1, blocksize=None
  Wavefunction extrapolation:
    Improved wavefunction reuse through dual PAW basis 

Occupation numbers: Fermi-Dirac:
  width: 0.0500  # eV
 

Eigensolver
   Davidson(niter=2) 

Densities:
  Coarse grid: 60*60*168 grid
  Fine grid: 120*120*336 grid
  Total Charge: 0.000000 

Density mixing:
  Method: separate
  Backend: pulay
  Linear mixing parameter: 0.05
  old densities: 5
  Damping of long wavelength oscillations: 50 

Hamiltonian:
  XC and Coulomb potentials evaluated on a 120*120*336 grid
  Using the BEEF-vdW Exchange-Correlation functional
  Interpolation: tri-quintic (5. degree polynomial)
  Poisson solver: FastPoissonSolver using
    Stencil: 6*3+1=19 point O(h^6) finite-difference Laplacian
    FFT axes: [0, 1]
    FST axes: [2]

Dipole correction along z-axis 

XC parameters: BEEF-vdW with 2 nearest neighbor stencil

Memory estimate:
  Process memory now: 226.79 MiB
  Calculator: 393.40 MiB
    Density: 120.08 MiB
      Arrays: 39.61 MiB
      Localized functions: 65.36 MiB
      Mixer: 15.11 MiB
    Hamiltonian: 31.07 MiB
      Arrays: 25.90 MiB
      XC: 0.00 MiB
      Poisson: 0.00 MiB
      vbar: 5.17 MiB
    Wavefunctions: 242.25 MiB
      Arrays psit_nG: 111.79 MiB
      Eigensolver: 127.10 MiB
      Projections: 0.04 MiB
      Projectors: 3.32 MiB

Total number of cores used: 24
Parallelization over k-points: 8
Domain decomposition: 1 x 1 x 3

Number of atoms: 40
Number of atomic orbitals: 157
Number of bands in calculation: 37
Number of valence electrons: 54
Bands to converge: occupied

... initialized

Initializing position-dependent things.

Density initialized from atomic densities
Creating initial wave functions:
  37 bands from LCAO basis set

       .-----------------------.  
      /|                       |  
     / |                       |  
    /  |                       |  
   /   |                       |  
  /    |                       |  
 *     |                       |  
 |     |                       |  
 |     |                       |  
 |     |                       |  
 |     |                       N  
 |     |                       |  
 |     |                       N  
 |     |                       |  
 F H   |                       |  
 |     |                       |  
 |   Li|     Li      Li        |  
 |     |  Li      Li      Li   |  
 | Li  |   Li      Li          |  
 |     |Li      Li      Li     |  
 Li    | Li      Li            |  
 |   LLi     LLi     LLi       |  
 |     |  Li      Li      Li   |  
 | Li  |   Li      Li          |  
 |     |Li      Li      Li     |  
 Li    | Li      Li            |  
 |    Li      Li      Li       |  
 |     |                       |  
 |     |                       |  
 |     |                       |  
 |     |                       |  
 |     |                       |  
 |     |                       |  
 |     .-----------------------.  
 |    /                       /   
 |   /                       /    
 |  /                       /     
 | /                       /      
 |/                       /       
 *-----------------------*        

Positions:
   0 Li     1.617037    1.617037   10.000000    ( 0.0000,  0.0000,  0.0000)
   1 Li     4.851111    1.617037   10.000000    ( 0.0000,  0.0000,  0.0000)
   2 Li     8.085185    1.617037   10.000000    ( 0.0000,  0.0000,  0.0000)
   3 Li     1.617037    4.851111   10.000000    ( 0.0000,  0.0000,  0.0000)
   4 Li     4.851111    4.851111   10.000000    ( 0.0000,  0.0000,  0.0000)
   5 Li     8.085185    4.851111   10.000000    ( 0.0000,  0.0000,  0.0000)
   6 Li     1.617037    8.085185   10.000000    ( 0.0000,  0.0000,  0.0000)
   7 Li     4.851111    8.085185   10.000000    ( 0.0000,  0.0000,  0.0000)
   8 Li     8.085185    8.085185   10.000000    ( 0.0000,  0.0000,  0.0000)
   9 Li     0.000000    0.000000   11.617037    ( 0.0000,  0.0000,  0.0000)
  10 Li     3.234074    0.000000   11.617037    ( 0.0000,  0.0000,  0.0000)
  11 Li     6.468148    0.000000   11.617037    ( 0.0000,  0.0000,  0.0000)
  12 Li     0.000000    3.234074   11.617037    ( 0.0000,  0.0000,  0.0000)
  13 Li     3.234074    3.234074   11.617037    ( 0.0000,  0.0000,  0.0000)
  14 Li     6.468148    3.234074   11.617037    ( 0.0000,  0.0000,  0.0000)
  15 Li     0.000000    6.468148   11.617037    ( 0.0000,  0.0000,  0.0000)
  16 Li     3.234074    6.468148   11.617037    ( 0.0000,  0.0000,  0.0000)
  17 Li     6.468148    6.468148   11.617037    ( 0.0000,  0.0000,  0.0000)
  18 Li     1.617038    1.617038   13.469728    ( 0.0000,  0.0000,  0.0000)
  19 Li     4.851111    1.617038   13.469729    ( 0.0000,  0.0000,  0.0000)
  20 Li     8.085184    1.617038   13.469728    ( 0.0000,  0.0000,  0.0000)
  21 Li     1.617038    4.851111   13.469729    ( 0.0000,  0.0000,  0.0000)
  22 Li     4.851111    4.851111   13.469730    ( 0.0000,  0.0000,  0.0000)
  23 Li     8.085184    4.851111   13.469729    ( 0.0000,  0.0000,  0.0000)
  24 Li     1.617038    8.085184   13.469728    ( 0.0000,  0.0000,  0.0000)
  25 Li     4.851111    8.085184   13.469729    ( 0.0000,  0.0000,  0.0000)
  26 Li     8.085184    8.085184   13.469728    ( 0.0000,  0.0000,  0.0000)
  27 Li    -0.000000   -0.000000   15.445939    ( 0.0000,  0.0000,  0.0000)
  28 Li     3.234074    0.000000   15.445939    ( 0.0000,  0.0000,  0.0000)
  29 Li     6.468148    0.000000   15.445939    ( 0.0000,  0.0000,  0.0000)
  30 Li     0.000000    3.234074   15.445939    ( 0.0000,  0.0000,  0.0000)
  31 Li     3.234076    3.234076   15.445938    ( 0.0000,  0.0000,  0.0000)
  32 Li     6.468146    3.234076   15.445938    ( 0.0000,  0.0000,  0.0000)
  33 Li     0.000000    6.468148   15.445939    ( 0.0000,  0.0000,  0.0000)
  34 Li     3.234076    6.468146   15.445938    ( 0.0000,  0.0000,  0.0000)
  35 Li     6.468146    6.468146   15.445938    ( 0.0000,  0.0000,  0.0000)
  36 F      9.702222    9.702222   19.945939    ( 0.0000,  0.0000,  0.0000)
  37 H     10.630139    9.702222   19.945939    ( 0.0000,  0.0000,  0.0000)
  38 N      9.702000    9.702000   17.445939    ( 0.0000,  0.0000,  0.0000)
  39 N      9.702000    9.702000   18.542561    ( 0.0000,  0.0000,  0.0000)

Unit cell:
           periodic     x           y           z      points  spacing
  1. axis:    yes    9.702222    0.000000    0.000000    60     0.1617
  2. axis:    yes    0.000000    9.702222    0.000000    60     0.1617
  3. axis:    no     0.000000    0.000000   26.851111   168     0.1598

  Lengths:   9.702222   9.702222  26.851111
  Angles:   90.000000  90.000000  90.000000

Effective grid spacing dv^(1/3) = 0.1611

     iter     time        total  log10-change:
                         energy  eigst   dens
iter:   1 19:36:41  -396.897676
iter:   2 19:39:11  -146.023236  +2.33  -0.09
iter:   3 19:41:38   -73.580776  +3.16  -0.25
iter:   4 19:44:08  -105.786832  +3.00  -0.20
Writing to output.gpw (mode='')

iter:   5 19:46:43  -137.011027  +2.84  -0.23
iter:   6 19:49:12  -211.440232  +2.72  -0.47
iter:   7 19:51:35  -232.718013  +2.32  -0.52
iter:   8 19:54:11  -230.776484  +1.80  -0.62
iter:   9 19:56:39  -243.552805  +1.69  -0.72
Writing to output.gpw (mode='')

iter:  10 19:59:09  -248.649592  +1.30  -0.93
iter:  11 20:01:40  -256.775211  +1.20  -0.87
iter:  12 20:04:15  -250.269159  +1.36  -0.87
iter:  13 20:06:48  -249.379056  +0.85  -0.73
iter:  14 20:09:20  -249.634466  +0.93  -0.75
Writing to output.gpw (mode='')

iter:  15 20:11:47  -246.299591  +0.37  -0.82
iter:  16 20:14:19  -245.826347  +0.51  -0.96
iter:  17 20:16:46  -245.672454  +0.20  -0.98
iter:  18 20:19:19  -247.462894  -0.22  -1.00
iter:  19 20:21:50  -245.982222  +0.44  -0.92
Writing to output.gpw (mode='')

iter:  20 20:24:21  -244.965424  -0.03  -0.98
iter:  21 20:27:05  -244.685834  +0.60  -1.22
iter:  22 20:29:51  -244.797947  -0.00  -1.45
iter:  23 20:32:33  -244.779061  -0.32  -1.46
iter:  24 20:35:06  -244.719091  -0.13  -1.49
Writing to output.gpw (mode='')

iter:  25 20:37:37  -244.725598  -0.56  -1.62
iter:  26 20:40:07  -244.733128c -0.63  -1.62
iter:  27 20:42:40  -244.739924c -0.57  -1.68
iter:  28 20:45:11  -244.784543  -0.30  -1.87
iter:  29 20:47:42  -244.752825  -0.98  -1.79
Writing to output.gpw (mode='')

iter:  30 20:50:15  -244.763144  -0.70  -1.94
iter:  31 20:52:47  -244.752987c -0.98  -1.99
iter:  32 20:55:13  -244.757103c -1.43  -2.31
iter:  33 20:57:43  -244.759285c -1.45  -2.31
iter:  34 21:00:07  -244.763586c -1.50  -2.44
Writing to output.gpw (mode='')

iter:  35 21:02:35  -244.766032c -1.78  -2.55
iter:  36 21:05:22  -244.768306c -1.77  -2.52
iter:  37 21:07:52  -244.770925c -1.77  -2.50
iter:  38 21:10:22  -244.772675c -1.96  -2.48
iter:  39 21:12:53  -244.774826c -1.76  -2.57
Writing to output.gpw (mode='')

iter:  40 21:15:19  -244.776747c -1.86  -2.57
iter:  41 21:17:39  -244.778091c -1.81  -2.54
iter:  42 21:20:00  -244.779725c -1.95  -2.52
iter:  43 21:22:33  -244.781006c -2.15  -2.51
iter:  44 21:25:06  -244.780765c -2.36  -2.45
Writing to output.gpw (mode='')

iter:  45 21:27:38  -244.782693c -2.20  -2.50
iter:  46 21:30:02  -244.782650c -2.51  -2.50
iter:  47 21:32:29  -244.784975c -2.22  -2.49
iter:  48 21:35:10  -244.786091c -2.10  -2.45
iter:  49 21:37:40  -244.783802c -2.55  -2.46
Writing to output.gpw (mode='')

iter:  50 21:40:12  -244.785983c -2.41  -2.39
iter:  51 21:42:41  -244.787485c -2.25  -2.32
iter:  52 21:45:19  -244.786923c -2.50  -2.37
iter:  53 21:47:47  -244.784735c -2.62  -2.37
iter:  54 21:50:10  -244.785065c -2.32  -2.40
Writing to output.gpw (mode='')

iter:  55 21:52:42  -244.784169c -2.48  -2.27
iter:  56 21:55:04  -244.782827c -2.25  -2.31
iter:  57 21:57:29  -244.782387c -2.81  -2.58
iter:  58 21:59:56  -244.782271c -2.62  -2.61
iter:  59 22:02:23  -244.782409c -2.89  -2.69
Writing to output.gpw (mode='')

iter:  60 22:05:01  -244.782499c -3.19  -2.79
iter:  61 22:07:30  -244.782549c -3.35  -2.82
iter:  62 22:09:52  -244.782596c -3.18  -2.88
iter:  63 22:12:19  -244.782631c -3.39  -3.02
iter:  64 22:14:45  -244.782653c -3.53  -3.09
Writing to output.gpw (mode='')

iter:  65 22:17:17  -244.782698c -3.41  -3.18
iter:  66 22:19:39  -244.782706c -3.91  -3.30
iter:  67 22:22:09  -244.782722c -3.64  -3.37
iter:  68 22:24:44  -244.782729c -3.76  -3.42
iter:  69 22:27:17  -244.782748c -3.93  -3.53
Writing to output.gpw (mode='')

iter:  70 22:29:48  -244.782756c -4.22  -3.64
iter:  71 22:32:21  -244.782766c -4.11  -3.79
iter:  72 22:35:04  -244.782774c -4.42  -3.91
iter:  73 22:37:32  -244.782779c -4.47  -3.94
iter:  74 22:39:58  -244.782783c -4.54  -3.99
Writing to output.gpw (mode='')

iter:  75 22:42:23  -244.782788c -4.54  -4.25c
iter:  76 22:44:57  -244.782795c -4.47  -4.30c
iter:  77 22:47:25  -244.782800c -4.37  -4.30c
iter:  78 22:49:55  -244.782804c -4.68  -4.32c
iter:  79 22:52:23  -244.782807c -4.78  -4.35c
Writing to output.gpw (mode='')

iter:  80 22:55:01  -244.782809c -4.94  -4.31c
iter:  81 22:57:33  -244.782813c -4.62  -4.28c
iter:  82 23:00:00  -244.782815c -4.89  -4.27c
iter:  83 23:02:31  -244.782817c -4.97  -4.25c
iter:  84 23:05:01  -244.782819c -4.93  -4.22c
Writing to output.gpw (mode='')

iter:  85 23:07:27  -244.782819c -5.20  -4.16c
iter:  86 23:09:58  -244.782823c -4.87  -4.22c
iter:  87 23:12:32  -244.782822c -4.84  -4.17c
iter:  88 23:15:00  -244.782825c -5.04  -4.20c
iter:  89 23:17:29  -244.782825c -5.35  -4.11c
Writing to output.gpw (mode='')

iter:  90 23:20:01  -244.782826c -5.20  -4.13c
iter:  91 23:22:32  -244.782827c -5.06  -4.15c
iter:  92 23:24:16  -244.782826c -5.51  -4.04c
iter:  93 23:25:07  -244.782828c -5.27  -4.07c
iter:  94 23:25:58  -244.782827c -5.57  -4.03c
Writing to output.gpw (mode='')

iter:  95 23:26:52  -244.782828c -5.64  -4.06c
iter:  96 23:27:43  -244.782829c -5.33  -4.05c
iter:  97 23:28:34  -244.782829c -5.36  -4.10c
iter:  98 23:29:25  -244.782830c -5.51  -4.24c
iter:  99 23:30:16  -244.782829c -5.49  -4.33c
Writing to output.gpw (mode='')

iter: 100 23:31:08  -244.782829c -5.64  -4.44c
iter: 101 23:31:59  -244.782829c -5.75  -4.52c
iter: 102 23:32:50  -244.782829c -5.94  -4.79c
iter: 103 23:33:40  -244.782829c -6.12  -4.74c
iter: 104 23:34:31  -244.782829c -6.19  -4.75c
Writing to output.gpw (mode='')

iter: 105 23:35:23  -244.782829c -6.20  -4.70c
iter: 106 23:36:14  -244.782829c -6.15  -4.73c
iter: 107 23:37:05  -244.782829c -6.11  -4.72c
iter: 108 23:37:56  -244.782829c -6.45  -4.61c
iter: 109 23:38:47  -244.782829c -6.07  -4.63c
Writing to output.gpw (mode='')

iter: 110 23:39:39  -244.782829c -6.23  -4.66c
iter: 111 23:40:30  -244.782829c -6.25  -4.66c
iter: 112 23:41:22  -244.782829c -6.57  -4.77c
iter: 113 23:42:13  -244.782830c -6.54  -4.79c
iter: 114 23:43:04  -244.782830c -6.13  -4.79c
Writing to output.gpw (mode='')

iter: 115 23:43:57  -244.782830c -6.12  -4.90c
iter: 116 23:44:48  -244.782830c -6.39  -4.93c
iter: 117 23:45:39  -244.782830c -6.51  -4.97c
iter: 118 23:46:30  -244.782829c -6.71  -5.03c
iter: 119 23:47:21  -244.782829c -6.93  -5.11c
Writing to output.gpw (mode='')

iter: 120 23:48:14  -244.782830c -6.87  -5.16c
iter: 121 23:49:05  -244.782829c -7.02  -5.29c
iter: 122 23:49:56  -244.782829c -6.84  -5.31c
iter: 123 23:50:47  -244.782829c -7.15  -5.43c
iter: 124 23:51:38  -244.782829c -6.92  -5.52c
Writing to output.gpw (mode='')

iter: 125 23:52:30  -244.782829c -7.16  -5.76c
iter: 126 23:53:21  -244.782829c -6.84  -5.80c
iter: 127 23:54:13  -244.782829c -6.91  -5.83c
iter: 128 23:55:04  -244.782829c -7.07  -5.82c
iter: 129 23:55:55  -244.782829c -7.26  -5.76c
Writing to output.gpw (mode='')

iter: 130 23:56:47  -244.782829c -7.47c -5.78c

Converged after 130 iterations.

Dipole moment: (-16.075081, -16.341896, 0.084838) |e|*Ang

Energy contributions relative to reference atoms: (reference = -12990.375485)

Kinetic:       +145.732767
Potential:     -125.840939
External:        +0.000000
XC:            -264.967624
Entropy (-ST):   -0.145494
Local:           +0.365714
--------------------------
Free energy:   -244.855576
Extrapolated:  -244.782829

Dipole-layer corrected work functions: 3.403084, 3.239997 eV

Showing only first 2 kpts
 Kpt  Band  Eigenvalues  Occupancy
  0    25     -3.56902    1.98593
  0    26     -3.49688    1.94176
  0    27     -3.15342    0.06698
  0    28     -3.07522    0.01440

  1    25     -3.36281    1.39075
  1    26     -3.30525    0.83853
  1    27     -3.29524    0.74293
  1    28     -3.23363    0.29405


Fermi level: -3.32154

No gap

Forces in eV/Ang:
  0 Li    0.00709    0.00603   -0.26880
  1 Li   -0.00037    0.00046   -0.27286
  2 Li   -0.00682    0.00662   -0.26855
  3 Li    0.00084   -0.00000   -0.27276
  4 Li    0.00024    0.00000   -0.28821
  5 Li   -0.00099    0.00000   -0.27259
  6 Li    0.00709   -0.00603   -0.26880
  7 Li   -0.00037   -0.00046   -0.27286
  8 Li   -0.00682   -0.00662   -0.26855
  9 Li   -0.00026   -0.00000    0.30084
 10 Li    0.01279    0.00000    0.25289
 11 Li   -0.01235    0.00000    0.25478
 12 Li    0.00009    0.01131    0.25532
 13 Li    0.00048    0.00153    0.25418
 14 Li   -0.00053    0.00265    0.25353
 15 Li    0.00009   -0.01130    0.25532
 16 Li    0.00048   -0.00153    0.25418
 17 Li   -0.00053   -0.00265    0.25353
 18 Li    0.00052   -0.00115    0.01784
 19 Li    0.00090    0.00121    0.04185
 20 Li   -0.00119    0.00012    0.01382
 21 Li   -0.00000    0.00000    0.04268
 22 Li   -0.00025   -0.00000    0.03452
 23 Li    0.00017    0.00000    0.04357
 24 Li    0.00053    0.00115    0.01783
 25 Li    0.00090   -0.00121    0.04185
 26 Li   -0.00119   -0.00012    0.01381
 27 Li   -0.00551   -0.00000   -0.03588
 28 Li    0.01939    0.00000   -0.03608
 29 Li   -0.01955   -0.00000   -0.02772
 30 Li    0.00125    0.02413   -0.03194
 31 Li    0.00297    0.00109   -0.02973
 32 Li   -0.00454    0.00307   -0.02910
 33 Li    0.00125   -0.02414   -0.03194
 34 Li    0.00297   -0.00109   -0.02973
 35 Li   -0.00454   -0.00307   -0.02910
 36 F    -1.27517    0.00594   24.48724
 37 H     1.57986    0.00007    1.15061
 38 N    -0.57644    0.00369   -4.73407
 39 N     0.28284   -0.01054  -20.73929

System changes: positions 

Initializing position-dependent things.

Density initialized from wave functions
       .-----------------------.  
      /|                       |  
     / |                       |  
    /  |                       |  
   /   |                       |  
  /    |                       |  
 *     |                       |  
 |     |                       |  
 |     |                       |  
 |     |                       |  
 |     N                       |  
 |     |                       |  
 |     |                       N  
 |     |                       |  
 | H   |               LiF     Li 
 |     |                       |  
 |   Li|     Li      Li        |  
 |     |  Li      Li      Li   |  
 | Li  |   Li      Li          |  
 |     |Li      Li      Li     |  
 |     | Li                    |  
 |   LLi     LLi     LLi       |  
 |     |  Li      Li      Li   |  
 | Li  |   Li      Li          |  
 |     |Li      Li      Li     |  
 Li    | Li      Li            |  
 |    Li      Li      Li       |  
 |     |                       |  
 |     |                       |  
 |     |                       |  
 |     |                       |  
 |     |                       |  
 |     |                       |  
 |     .-----------------------.  
 |    /                       /   
 |   /                       /    
 |  /                       /     
 | /                       /      
 |/                       /       
 *-----------------------*        

Positions:
   0 Li     1.617037    1.617037   10.000000    ( 0.0000,  0.0000,  0.0000)
   1 Li     4.851111    1.617037   10.000000    ( 0.0000,  0.0000,  0.0000)
   2 Li     8.085185    1.617037   10.000000    ( 0.0000,  0.0000,  0.0000)
   3 Li     1.617037    4.851111   10.000000    ( 0.0000,  0.0000,  0.0000)
   4 Li     4.851111    4.851111   10.000000    ( 0.0000,  0.0000,  0.0000)
   5 Li     8.085185    4.851111   10.000000    ( 0.0000,  0.0000,  0.0000)
   6 Li     1.617037    8.085185   10.000000    ( 0.0000,  0.0000,  0.0000)
   7 Li     4.851111    8.085185   10.000000    ( 0.0000,  0.0000,  0.0000)
   8 Li     8.085185    8.085185   10.000000    ( 0.0000,  0.0000,  0.0000)
   9 Li     0.000000    0.000000   11.617037    ( 0.0000,  0.0000,  0.0000)
  10 Li     3.234074    0.000000   11.617037    ( 0.0000,  0.0000,  0.0000)
  11 Li     6.468148    0.000000   11.617037    ( 0.0000,  0.0000,  0.0000)
  12 Li     0.000000    3.234074   11.617037    ( 0.0000,  0.0000,  0.0000)
  13 Li     3.234074    3.234074   11.617037    ( 0.0000,  0.0000,  0.0000)
  14 Li     6.468148    3.234074   11.617037    ( 0.0000,  0.0000,  0.0000)
  15 Li     0.000000    6.468148   11.617037    ( 0.0000,  0.0000,  0.0000)
  16 Li     3.234074    6.468148   11.617037    ( 0.0000,  0.0000,  0.0000)
  17 Li     6.468148    6.468148   11.617037    ( 0.0000,  0.0000,  0.0000)
  18 Li     1.617039    1.617036   13.469757    ( 0.0000,  0.0000,  0.0000)
  19 Li     4.851112    1.617040   13.469798    ( 0.0000,  0.0000,  0.0000)
  20 Li     8.085182    1.617038   13.469750    ( 0.0000,  0.0000,  0.0000)
  21 Li     1.617038    4.851111   13.469799    ( 0.0000,  0.0000,  0.0000)
  22 Li     4.851111    4.851111   13.469787    ( 0.0000,  0.0000,  0.0000)
  23 Li     8.085184    4.851111   13.469801    ( 0.0000,  0.0000,  0.0000)
  24 Li     1.617039    8.085186   13.469757    ( 0.0000,  0.0000,  0.0000)
  25 Li     4.851112    8.085182   13.469798    ( 0.0000,  0.0000,  0.0000)
  26 Li     8.085182    8.085184   13.469750    ( 0.0000,  0.0000,  0.0000)
  27 Li    -0.000009   -0.000000   15.445881    ( 0.0000,  0.0000,  0.0000)
  28 Li     3.234105    0.000000   15.445880    ( 0.0000,  0.0000,  0.0000)
  29 Li     6.468116   -0.000000   15.445894    ( 0.0000,  0.0000,  0.0000)
  30 Li     0.000002    3.234113   15.445887    ( 0.0000,  0.0000,  0.0000)
  31 Li     3.234081    3.234078   15.445890    ( 0.0000,  0.0000,  0.0000)
  32 Li     6.468138    3.234081   15.445891    ( 0.0000,  0.0000,  0.0000)
  33 Li     0.000002    6.468109   15.445887    ( 0.0000,  0.0000,  0.0000)
  34 Li     3.234081    6.468144   15.445890    ( 0.0000,  0.0000,  0.0000)
  35 Li     6.468138    6.468141   15.445891    ( 0.0000,  0.0000,  0.0000)
  36 F      9.700142    9.702232   19.985885    ( 0.0000,  0.0000,  0.0000)
  37 H     10.632716    9.702222   19.947816    ( 0.0000,  0.0000,  0.0000)
  38 N      9.701060    9.702006   17.438217    ( 0.0000,  0.0000,  0.0000)
  39 N      9.702461    9.701983   18.508729    ( 0.0000,  0.0000,  0.0000)

Unit cell:
           periodic     x           y           z      points  spacing
  1. axis:    yes    9.702222    0.000000    0.000000    60     0.1617
  2. axis:    yes    0.000000    9.702222    0.000000    60     0.1617
  3. axis:    no     0.000000    0.000000   26.851111   168     0.1598

  Lengths:   9.702222   9.702222  26.851111
  Angles:   90.000000  90.000000  90.000000

Effective grid spacing dv^(1/3) = 0.1611

     iter     time        total  log10-change:
                         energy  eigst   dens
iter:   1 23:57:59  -246.841296  -0.48
iter:   2 23:58:50  -246.498126  -0.49  -1.23
iter:   3 23:59:41  -246.430799  -1.03  -1.46
iter:   4 00:00:32  -246.381769  -0.68  -1.76
Writing to output.gpw (mode='')

iter:   5 00:01:24  -246.380101  -1.39  -2.01
iter:   6 00:02:15  -246.373273c -1.50  -1.96
iter:   7 00:03:06  -246.365968c -1.07  -1.98
iter:   8 00:03:57  -246.361655c -1.85  -2.10
iter:   9 00:04:48  -246.362823c -1.78  -2.30
Writing to output.gpw (mode='')

iter:  10 00:05:40  -246.361716c -2.38  -2.35
iter:  11 00:06:31  -246.362550c -1.95  -2.48
iter:  12 00:07:22  -246.361977c -2.71  -2.56
iter:  13 00:08:13  -246.362079c -3.05  -2.77
iter:  14 00:09:04  -246.362064c -3.05  -2.78
Writing to output.gpw (mode='')

iter:  15 00:10:01  -246.362175c -2.98  -2.94
iter:  16 00:10:52  -246.362174c -3.55  -2.99
iter:  17 00:11:43  -246.362181c -3.69  -3.08
iter:  18 00:12:34  -246.362158c -3.65  -3.22
iter:  19 00:13:25  -246.362174c -3.79  -3.43
Writing to output.gpw (mode='')

iter:  20 00:14:21  -246.362207c -4.07  -3.45
iter:  21 00:15:12  -246.362206c -4.16  -3.61
iter:  22 00:16:03  -246.362216c -4.42  -3.72
iter:  23 00:16:54  -246.362230c -4.22  -3.74
iter:  24 00:17:45  -246.362234c -4.63  -3.82
Writing to output.gpw (mode='')

iter:  25 00:18:37  -246.362238c -4.61  -3.91
iter:  26 00:19:28  -246.362237c -4.53  -4.01c
iter:  27 00:20:19  -246.362238c -4.72  -4.11c
iter:  28 00:21:10  -246.362240c -5.05  -4.31c
iter:  29 00:22:01  -246.362242c -5.07  -4.32c
Writing to output.gpw (mode='')

iter:  30 00:22:53  -246.362246c -4.95  -4.33c
iter:  31 00:23:44  -246.362248c -4.92  -4.36c
iter:  32 00:24:35  -246.362248c -5.05  -4.36c
iter:  33 00:25:26  -246.362250c -5.24  -4.37c
iter:  34 00:26:17  -246.362249c -5.26  -4.34c
Writing to output.gpw (mode='')

iter:  35 00:27:09  -246.362250c -5.47  -4.42c
iter:  36 00:28:00  -246.362251c -5.55  -4.49c
iter:  37 00:28:51  -246.362251c -5.50  -4.50c
iter:  38 00:29:42  -246.362251c -5.43  -4.49c
iter:  39 00:30:33  -246.362252c -5.65  -4.47c
Writing to output.gpw (mode='')

iter:  40 00:31:25  -246.362253c -5.78  -4.40c
iter:  41 00:32:17  -246.362254c -5.75  -4.51c
iter:  42 00:33:08  -246.362254c -6.06  -4.79c
iter:  43 00:33:59  -246.362254c -5.84  -4.80c
iter:  44 00:34:50  -246.362254c -5.83  -4.87c
Writing to output.gpw (mode='')

iter:  45 00:35:42  -246.362254c -6.12  -4.92c
iter:  46 00:36:33  -246.362254c -6.12  -5.21c
iter:  47 00:37:24  -246.362254c -6.16  -5.26c
iter:  48 00:38:14  -246.362254c -6.24  -5.31c
iter:  49 00:39:06  -246.362254c -6.36  -5.34c
Writing to output.gpw (mode='')

iter:  50 00:39:58  -246.362254c -6.39  -5.40c
iter:  51 00:40:49  -246.362254c -6.54  -5.51c
iter:  52 00:41:40  -246.362254c -6.60  -5.52c
iter:  53 00:42:31  -246.362254c -6.74  -5.51c
iter:  54 00:43:22  -246.362254c -6.86  -5.43c
Writing to output.gpw (mode='')

iter:  55 00:44:16  -246.362254c -6.90  -5.55c
iter:  56 00:45:07  -246.362254c -6.84  -5.59c
iter:  57 00:45:58  -246.362254c -6.74  -5.63c
iter:  58 00:46:49  -246.362254c -6.84  -5.73c
iter:  59 00:47:40  -246.362254c -7.23  -5.93c
Writing to output.gpw (mode='')

iter:  60 00:48:32  -246.362254c -7.14  -5.89c
iter:  61 00:49:23  -246.362254c -7.40  -5.54c
iter:  62 00:50:14  -246.362254c -7.28  -5.61c
iter:  63 00:51:05  -246.362254c -7.17  -5.86c
iter:  64 00:51:56  -246.362254c -7.46c -6.04c

Converged after 64 iterations.

Dipole moment: (-15.861734, -16.300556, 0.123910) |e|*Ang

Energy contributions relative to reference atoms: (reference = -12990.375485)

Kinetic:       +147.060790
Potential:     -127.799951
External:        +0.000000
XC:            -265.923020
Entropy (-ST):   -0.145595
Local:           +0.372725
--------------------------
Free energy:   -246.435052
Extrapolated:  -246.362254

Dipole-layer corrected work functions: 3.396764, 3.158567 eV

Showing only first 2 kpts
 Kpt  Band  Eigenvalues  Occupancy
  0    25     -3.52678    1.98638
  0    26     -3.45351    1.94233
  0    27     -3.10674    0.06344
  0    28     -3.02769    0.01339

  1    25     -3.31685    1.37296
  1    26     -3.26256    0.85009
  1    27     -3.25047    0.73451
  1    28     -3.19492    0.32088


Fermi level: -3.27767

No gap
Writing to output.gpw (mode='')


Forces in eV/Ang:
  0 Li    0.00635    0.00550   -0.26860
  1 Li   -0.00040    0.00006   -0.27226
  2 Li   -0.00602    0.00620   -0.26827
  3 Li    0.00016   -0.00000   -0.27223
  4 Li    0.00034    0.00000   -0.28634
  5 Li   -0.00038   -0.00000   -0.27194
  6 Li    0.00635   -0.00550   -0.26860
  7 Li   -0.00040   -0.00006   -0.27226
  8 Li   -0.00602   -0.00620   -0.26827
  9 Li   -0.00004   -0.00000    0.29855
 10 Li    0.01223    0.00000    0.25287
 11 Li   -0.01202    0.00000    0.25486
 12 Li   -0.00003    0.01113    0.25464
 13 Li    0.00079    0.00124    0.25521
 14 Li   -0.00074    0.00231    0.25433
 15 Li   -0.00003   -0.01113    0.25464
 16 Li    0.00079   -0.00124    0.25521
 17 Li   -0.00074   -0.00231    0.25433
 18 Li    0.00015   -0.00100    0.02133
 19 Li    0.00082    0.00184    0.04219
 20 Li   -0.00078    0.00003    0.01705
 21 Li    0.00069    0.00000    0.04247
 22 Li   -0.00003   -0.00000    0.03210
 23 Li   -0.00077    0.00000    0.04352
 24 Li    0.00015    0.00100    0.02132
 25 Li    0.00082   -0.00184    0.04219
 26 Li   -0.00078   -0.00004    0.01704
 27 Li   -0.00491    0.00001   -0.10326
 28 Li    0.03235    0.00000   -0.05045
 29 Li   -0.03256    0.00000   -0.03952
 30 Li    0.00151    0.03408   -0.04289
 31 Li    0.00215    0.00035   -0.03036
 32 Li   -0.00392    0.00267   -0.02961
 33 Li    0.00151   -0.03409   -0.04289
 34 Li    0.00215   -0.00036   -0.03036
 35 Li   -0.00392   -0.00267   -0.02961
 36 F    -0.35768    0.00523   21.44018
 37 H     0.52284    0.00004    0.92766
 38 N    -0.55027    0.00262   -7.71109
 39 N     0.39539   -0.00536  -14.45897

System changes: positions 

Initializing position-dependent things.

Density initialized from wave functions
       .-----------------------.  
      /|                       |  
     / |                       |  
    /  |                       |  
   /   |                       |  
  /    |                       |  
 *     |                       |  
 |     |                       |  
 |     |                       |  
 |     |                       |  
 |     N                       |  
 |     |                       |  
 |     |                       N  
 |     |                       |  
 F H   |                       |  
 |     |                       |  
 |   Li|     Li      Li        |  
 |     |  Li      Li      Li   |  
 | Li  |   Li      Li          |  
 |     |Li      Li      Li     |  
 |     | Li      Li      Li    |  
 |   LLi     LLi     LLi       |  
 |     |  Li      Li      Li   |  
 | Li  |   Li      Li          |  
 |     |Li      Li      Li     |  
 Li    | Li      Li            |  
 |    Li      Li      Li       |  
 |     |                       |  
 |     |                       |  
 |     |                       |  
 |     |                       |  
 |     |                       |  
 |     |                       |  
 |     .-----------------------.  
 |    /                       /   
 |   /                       /    
 |  /                       /     
 | /                       /      
 |/                       /       
 *-----------------------*        

Positions:
   0 Li     1.617037    1.617037   10.000000    ( 0.0000,  0.0000,  0.0000)
   1 Li     4.851111    1.617037   10.000000    ( 0.0000,  0.0000,  0.0000)
   2 Li     8.085185    1.617037   10.000000    ( 0.0000,  0.0000,  0.0000)
   3 Li     1.617037    4.851111   10.000000    ( 0.0000,  0.0000,  0.0000)
   4 Li     4.851111    4.851111   10.000000    ( 0.0000,  0.0000,  0.0000)
   5 Li     8.085185    4.851111   10.000000    ( 0.0000,  0.0000,  0.0000)
   6 Li     1.617037    8.085185   10.000000    ( 0.0000,  0.0000,  0.0000)
   7 Li     4.851111    8.085185   10.000000    ( 0.0000,  0.0000,  0.0000)
   8 Li     8.085185    8.085185   10.000000    ( 0.0000,  0.0000,  0.0000)
   9 Li     0.000000    0.000000   11.617037    ( 0.0000,  0.0000,  0.0000)
  10 Li     3.234074    0.000000   11.617037    ( 0.0000,  0.0000,  0.0000)
  11 Li     6.468148    0.000000   11.617037    ( 0.0000,  0.0000,  0.0000)
  12 Li     0.000000    3.234074   11.617037    ( 0.0000,  0.0000,  0.0000)
  13 Li     3.234074    3.234074   11.617037    ( 0.0000,  0.0000,  0.0000)
  14 Li     6.468148    3.234074   11.617037    ( 0.0000,  0.0000,  0.0000)
  15 Li     0.000000    6.468148   11.617037    ( 0.0000,  0.0000,  0.0000)
  16 Li     3.234074    6.468148   11.617037    ( 0.0000,  0.0000,  0.0000)
  17 Li     6.468148    6.468148   11.617037    ( 0.0000,  0.0000,  0.0000)
  18 Li     1.617038    1.617034   13.469820    ( 0.0000,  0.0000,  0.0000)
  19 Li     4.851114    1.617047   13.469899    ( 0.0000,  0.0000,  0.0000)
  20 Li     8.085182    1.617038   13.469802    ( 0.0000,  0.0000,  0.0000)
  21 Li     1.617043    4.851111   13.469899    ( 0.0000,  0.0000,  0.0000)
  22 Li     4.851111    4.851111   13.469854    ( 0.0000,  0.0000,  0.0000)
  23 Li     8.085179    4.851111   13.469903    ( 0.0000,  0.0000,  0.0000)
  24 Li     1.617038    8.085188   13.469820    ( 0.0000,  0.0000,  0.0000)
  25 Li     4.851114    8.085175   13.469899    ( 0.0000,  0.0000,  0.0000)
  26 Li     8.085182    8.085184   13.469802    ( 0.0000,  0.0000,  0.0000)
  27 Li    -0.000018    0.000000   15.445398    ( 0.0000,  0.0000,  0.0000)
  28 Li     3.234228    0.000000   15.445710    ( 0.0000,  0.0000,  0.0000)
  29 Li     6.467993    0.000000   15.445758    ( 0.0000,  0.0000,  0.0000)
  30 Li     0.000007    3.234229   15.445747    ( 0.0000,  0.0000,  0.0000)
  31 Li     3.234083    3.234076   15.445816    ( 0.0000,  0.0000,  0.0000)
  32 Li     6.468131    3.234086   15.445819    ( 0.0000,  0.0000,  0.0000)
  33 Li     0.000007    6.467993   15.445747    ( 0.0000,  0.0000,  0.0000)
  34 Li     3.234084    6.468146   15.445816    ( 0.0000,  0.0000,  0.0000)
  35 Li     6.468131    6.468136   15.445819    ( 0.0000,  0.0000,  0.0000)
  36 F      9.702539    9.702242   20.025813    ( 0.0000,  0.0000,  0.0000)
  37 H     10.630216    9.702222   19.949222    ( 0.0000,  0.0000,  0.0000)
  38 N      9.699851    9.702008   17.409459    ( 0.0000,  0.0000,  0.0000)
  39 N      9.703794    9.701988   18.496739    ( 0.0000,  0.0000,  0.0000)

Unit cell:
           periodic     x           y           z      points  spacing
  1. axis:    yes    9.702222    0.000000    0.000000    60     0.1617
  2. axis:    yes    0.000000    9.702222    0.000000    60     0.1617
  3. axis:    no     0.000000    0.000000   26.851111   168     0.1598

  Lengths:   9.702222   9.702222  26.851111
  Angles:   90.000000  90.000000  90.000000

Effective grid spacing dv^(1/3) = 0.1611

     iter     time        total  log10-change:
                         energy  eigst   dens
iter:   1 00:53:09  -247.534965  -0.80
iter:   2 00:54:00  -247.534838  -1.22  -2.00
iter:   3 00:54:51  -247.532062c -1.70  -2.01
iter:   4 00:55:42  -247.526675c -1.74  -2.30
Writing to output.gpw (mode='')

iter:   5 00:56:35  -247.524899c -2.04  -2.38
iter:   6 00:57:26  -247.523566c -2.20  -2.39
iter:   7 00:58:17  -247.523402c -2.47  -2.51
iter:   8 00:59:08  -247.523674c -2.59  -2.63
iter:   9 00:59:59  -247.523256c -3.24  -2.67
Writing to output.gpw (mode='')

iter:  10 01:00:51  -247.523207c -3.01  -2.92
iter:  11 01:01:50  -247.523216c -3.81  -3.08
iter:  12 01:04:20  -247.523203c -3.54  -3.14
iter:  13 01:06:51  -247.523179c -3.78  -3.20
iter:  14 01:09:18  -247.523185c -4.00  -3.28
Writing to output.gpw (mode='')

iter:  15 01:11:46  -247.523199c -4.14  -3.38
iter:  16 01:14:18  -247.523203c -4.39  -3.59
iter:  17 01:16:52  -247.523202c -4.80  -3.67
iter:  18 01:19:24  -247.523200c -5.02  -3.80
iter:  19 01:22:00  -247.523207c -4.95  -3.86
Writing to output.gpw (mode='')

iter:  20 01:24:40  -247.523207c -5.35  -3.88
iter:  21 01:27:17  -247.523203c -4.93  -3.94
iter:  22 01:29:51  -247.523205c -5.61  -4.20c
iter:  23 01:32:18  -247.523207c -5.57  -4.26c
iter:  24 01:34:44  -247.523206c -5.68  -4.41c
Writing to output.gpw (mode='')

iter:  25 01:37:15  -247.523206c -5.67  -4.57c
iter:  26 01:39:42  -247.523206c -6.18  -4.60c
iter:  27 01:42:07  -247.523205c -6.12  -4.64c
iter:  28 01:44:31  -247.523205c -6.25  -4.71c
iter:  29 01:46:53  -247.523205c -6.38  -4.90c
Writing to output.gpw (mode='')

iter:  30 01:49:29  -247.523205c -6.50  -5.04c
iter:  31 01:51:59  -247.523206c -6.51  -5.18c
iter:  32 01:54:28  -247.523206c -6.76  -5.24c
iter:  33 01:56:53  -247.523205c -6.77  -5.25c
iter:  34 01:59:23  -247.523206c -6.85  -5.24c
Writing to output.gpw (mode='')

iter:  35 02:01:55  -247.523206c -6.95  -5.46c
iter:  36 02:04:22  -247.523206c -6.96  -5.60c
iter:  37 02:06:50  -247.523206c -7.21  -5.58c
iter:  38 02:09:20  -247.523206c -7.33  -5.44c
iter:  39 02:11:43  -247.523206c -7.34  -5.48c
Writing to output.gpw (mode='')

iter:  40 02:14:20  -247.523206c -7.47c -5.60c

Converged after 40 iterations.

Dipole moment: (-16.124103, -16.297254, 0.101503) |e|*Ang

Energy contributions relative to reference atoms: (reference = -12990.375485)

Kinetic:       +141.852365
Potential:     -124.171970
External:        +0.000000
XC:            -265.509322
Entropy (-ST):   -0.145389
Local:           +0.378415
--------------------------
Free energy:   -247.595900
Extrapolated:  -247.523206

Dipole-layer corrected work functions: 3.396376, 3.201252 eV

Showing only first 2 kpts
 Kpt  Band  Eigenvalues  Occupancy
  0    25     -3.54793    1.98638
  0    26     -3.47497    1.94268
  0    27     -3.12691    0.06226
  0    28     -3.05020    0.01376

  1    25     -3.33689    1.36336
  1    26     -3.28350    0.84801
  1    27     -3.27275    0.74507
  1    28     -3.21408    0.31033


Fermi level: -3.29881

No gap

Forces in eV/Ang:
  0 Li    0.00643    0.00552   -0.26865
  1 Li   -0.00041    0.00002   -0.27209
  2 Li   -0.00608    0.00627   -0.26839
  3 Li    0.00014   -0.00000   -0.27210
  4 Li    0.00039    0.00000   -0.28632
  5 Li   -0.00035   -0.00000   -0.27173
  6 Li    0.00643   -0.00552   -0.26865
  7 Li   -0.00041   -0.00002   -0.27208
  8 Li   -0.00609   -0.00627   -0.26839
  9 Li   -0.00001   -0.00000    0.29930
 10 Li    0.01223    0.00000    0.25303
 11 Li   -0.01197    0.00000    0.25520
 12 Li   -0.00002    0.01109    0.25494
 13 Li    0.00093    0.00134    0.25514
 14 Li   -0.00093    0.00256    0.25418
 15 Li   -0.00002   -0.01109    0.25494
 16 Li    0.00093   -0.00134    0.25514
 17 Li   -0.00093   -0.00256    0.25418
 18 Li    0.00056   -0.00073    0.01953
 19 Li    0.00082    0.00184    0.04241
 20 Li   -0.00122    0.00054    0.01458
 21 Li    0.00062    0.00000    0.04260
 22 Li    0.00001   -0.00000    0.03204
 23 Li   -0.00080    0.00000    0.04373
 24 Li    0.00057    0.00073    0.01952
 25 Li    0.00082   -0.00184    0.04242
 26 Li   -0.00123   -0.00054    0.01457
 27 Li   -0.00686    0.00001   -0.18243
 28 Li    0.03124    0.00000   -0.05020
 29 Li   -0.03162    0.00000   -0.03748
 30 Li    0.00164    0.03303   -0.04134
 31 Li    0.00284    0.00095   -0.03098
 32 Li   -0.00476    0.00337   -0.02994
 33 Li    0.00164   -0.03304   -0.04134
 34 Li    0.00285   -0.00096   -0.03098
 35 Li   -0.00476   -0.00338   -0.02994
 36 F    -0.21324    0.00429   18.87973
 37 H     0.33704    0.00003    0.80174
 38 N    -0.51806    0.00104   -4.91474
 39 N     0.38268   -0.00348  -14.43890

System changes: positions 

Initializing position-dependent things.

Density initialized from wave functions
       .-----------------------.  
      /|                       |  
     / |                       |  
    /  |                       |  
   /   |                       |  
  /    |                       |  
 *     |                       |  
 |     |                       |  
 |     | H                     |  
 |     |                       |  
 |     N                       |  
 |     |                       |  
 |     |                       N  
 |     |                       |  
 F     |                       |  
 |     |                       |  
 |   Li|     Li      Li        |  
 |     |  Li      Li      Li   |  
 | Li  |   Li      Li          |  
 |     |Li      Li      Li     |  
 |     | Li      Li      Li    |  
 |   LLi     LLi     LLi       |  
 |     |  Li      Li      Li   |  
 | Li  |   Li      Li          |  
 |     |Li      Li      Li     |  
 Li    | Li      Li            |  
 |    Li      Li      Li       |  
 |     |                       |  
 |     |                       |  
 |     |                       |  
 |     |                       |  
 |     |                       |  
 |     |                       |  
 |     .-----------------------.  
 |    /                       /   
 |   /                       /    
 |  /                       /     
 | /                       /      
 |/                       /       
 *-----------------------*        

Positions:
   0 Li     1.617037    1.617037   10.000000    ( 0.0000,  0.0000,  0.0000)
   1 Li     4.851111    1.617037   10.000000    ( 0.0000,  0.0000,  0.0000)
   2 Li     8.085185    1.617037   10.000000    ( 0.0000,  0.0000,  0.0000)
   3 Li     1.617037    4.851111   10.000000    ( 0.0000,  0.0000,  0.0000)
   4 Li     4.851111    4.851111   10.000000    ( 0.0000,  0.0000,  0.0000)
   5 Li     8.085185    4.851111   10.000000    ( 0.0000,  0.0000,  0.0000)
   6 Li     1.617037    8.085185   10.000000    ( 0.0000,  0.0000,  0.0000)
   7 Li     4.851111    8.085185   10.000000    ( 0.0000,  0.0000,  0.0000)
   8 Li     8.085185    8.085185   10.000000    ( 0.0000,  0.0000,  0.0000)
   9 Li     0.000000    0.000000   11.617037    ( 0.0000,  0.0000,  0.0000)
  10 Li     3.234074    0.000000   11.617037    ( 0.0000,  0.0000,  0.0000)
  11 Li     6.468148    0.000000   11.617037    ( 0.0000,  0.0000,  0.0000)
  12 Li     0.000000    3.234074   11.617037    ( 0.0000,  0.0000,  0.0000)
  13 Li     3.234074    3.234074   11.617037    ( 0.0000,  0.0000,  0.0000)
  14 Li     6.468148    3.234074   11.617037    ( 0.0000,  0.0000,  0.0000)
  15 Li     0.000000    6.468148   11.617037    ( 0.0000,  0.0000,  0.0000)
  16 Li     3.234074    6.468148   11.617037    ( 0.0000,  0.0000,  0.0000)
  17 Li     6.468148    6.468148   11.617037    ( 0.0000,  0.0000,  0.0000)
  18 Li     1.617042    1.617035   13.469914    ( 0.0000,  0.0000,  0.0000)
  19 Li     4.851117    1.617059   13.470091    ( 0.0000,  0.0000,  0.0000)
  20 Li     8.085175    1.617044   13.469867    ( 0.0000,  0.0000,  0.0000)
  21 Li     1.617049    4.851111   13.470087    ( 0.0000,  0.0000,  0.0000)
  22 Li     4.851113    4.851111   13.469978    ( 0.0000,  0.0000,  0.0000)
  23 Li     8.085168    4.851111   13.470098    ( 0.0000,  0.0000,  0.0000)
  24 Li     1.617042    8.085187   13.469914    ( 0.0000,  0.0000,  0.0000)
  25 Li     4.851117    8.085163   13.470091    ( 0.0000,  0.0000,  0.0000)
  26 Li     8.085175    8.085178   13.469867    ( 0.0000,  0.0000,  0.0000)
  27 Li    -0.000062    0.000000   15.443410    ( 0.0000,  0.0000,  0.0000)
  28 Li     3.234445    0.000000   15.445391    ( 0.0000,  0.0000,  0.0000)
  29 Li     6.467772    0.000000   15.445529    ( 0.0000,  0.0000,  0.0000)
  30 Li     0.000017    3.234434   15.445502    ( 0.0000,  0.0000,  0.0000)
  31 Li     3.234097    3.234081   15.445668    ( 0.0000,  0.0000,  0.0000)
  32 Li     6.468107    3.234105   15.445680    ( 0.0000,  0.0000,  0.0000)
  33 Li     0.000017    6.467787   15.445502    ( 0.0000,  0.0000,  0.0000)
  34 Li     3.234097    6.468141   15.445668    ( 0.0000,  0.0000,  0.0000)
  35 Li     6.468107    6.468117   15.445680    ( 0.0000,  0.0000,  0.0000)
  36 F      9.709236    9.702247   20.065249    ( 0.0000,  0.0000,  0.0000)
  37 H     10.622731    9.702222   19.950095    ( 0.0000,  0.0000,  0.0000)
  38 N      9.698028    9.701991   17.392401    ( 0.0000,  0.0000,  0.0000)
  39 N      9.706151    9.702026   18.476345    ( 0.0000,  0.0000,  0.0000)

Unit cell:
           periodic     x           y           z      points  spacing
  1. axis:    yes    9.702222    0.000000    0.000000    60     0.1617
  2. axis:    yes    0.000000    9.702222    0.000000    60     0.1617
  3. axis:    no     0.000000    0.000000   26.851111   168     0.1598

  Lengths:   9.702222   9.702222  26.851111
  Angles:   90.000000  90.000000  90.000000

Effective grid spacing dv^(1/3) = 0.1611

     iter     time        total  log10-change:
                         energy  eigst   dens
iter:   1 02:17:26  -248.697988  -0.84
iter:   2 02:19:54  -248.589610  -0.72  -1.46
iter:   3 02:22:13  -248.564109  -1.56  -1.69
iter:   4 02:24:40  -248.557802  -1.00  -2.06
Writing to output.gpw (mode='')

iter:   5 02:27:12  -248.556376c -1.86  -2.08
iter:   6 02:29:37  -248.558930c -1.74  -2.26
iter:   7 02:32:02  -248.557769c -1.66  -2.27
iter:   8 02:34:27  -248.555842c -2.52  -2.49
iter:   9 02:36:52  -248.556251c -2.14  -2.61
Writing to output.gpw (mode='')

iter:  10 02:39:22  -248.555251c -2.61  -2.58
iter:  11 02:41:46  -248.555499c -2.59  -2.82
iter:  12 02:44:10  -248.555280c -3.31  -2.88
iter:  13 02:46:41  -248.555302c -3.33  -3.02
iter:  14 02:49:09  -248.555322c -3.48  -3.07
Writing to output.gpw (mode='')

iter:  15 02:51:54  -248.555312c -4.02  -3.14
iter:  16 02:54:22  -248.555281c -4.02  -3.19
iter:  17 02:56:56  -248.555292c -4.34  -3.29
iter:  18 02:59:23  -248.555313c -4.22  -3.37
iter:  19 03:01:53  -248.555314c -4.39  -3.70
Writing to output.gpw (mode='')

iter:  20 03:04:31  -248.555323c -4.68  -3.66
iter:  21 03:06:59  -248.555325c -4.89  -3.73
iter:  22 03:09:33  -248.555321c -5.04  -3.78
iter:  23 03:12:03  -248.555314c -5.09  -3.84
iter:  24 03:14:42  -248.555314c -5.26  -3.96
Writing to output.gpw (mode='')

iter:  25 03:17:15  -248.555314c -5.51  -4.35c
iter:  26 03:19:50  -248.555314c -5.62  -4.39c
iter:  27 03:22:19  -248.555315c -5.78  -4.38c
iter:  28 03:24:49  -248.555315c -5.87  -4.54c
iter:  29 03:27:23  -248.555314c -5.96  -4.59c
Writing to output.gpw (mode='')

iter:  30 03:30:05  -248.555313c -5.79  -4.78c
iter:  31 03:32:29  -248.555313c -6.01  -4.96c
iter:  32 03:35:00  -248.555314c -6.06  -4.94c
iter:  33 03:37:24  -248.555314c -6.01  -5.10c
iter:  34 03:39:54  -248.555314c -6.26  -5.18c
Writing to output.gpw (mode='')

iter:  35 03:42:25  -248.555314c -6.41  -5.21c
iter:  36 03:45:10  -248.555314c -6.54  -5.31c
iter:  37 03:47:39  -248.555314c -6.65  -5.41c
iter:  38 03:50:07  -248.555314c -6.80  -5.46c
iter:  39 03:52:33  -248.555314c -6.75  -5.51c
Writing to output.gpw (mode='')

iter:  40 03:55:05  -248.555314c -6.99  -5.66c
iter:  41 03:57:33  -248.555314c -6.83  -5.67c
iter:  42 04:00:03  -248.555314c -6.84  -5.68c
iter:  43 04:02:27  -248.555314c -7.10  -5.75c
iter:  44 04:04:52  -248.555314c -7.22  -5.85c
Writing to output.gpw (mode='')

iter:  45 04:07:17  -248.555314c -7.19  -5.84c
iter:  46 04:09:48  -248.555314c -7.22  -5.82c
iter:  47 04:12:13  -248.555314c -7.20  -5.75c
iter:  48 04:14:38  -248.555314c -7.12  -5.68c
iter:  49 04:17:03  -248.555314c -7.40c -5.64c

Converged after 49 iterations.

Dipole moment: (-16.793297, -16.283026, 0.079513) |e|*Ang

Energy contributions relative to reference atoms: (reference = -12990.375485)

Kinetic:       +139.929866
Potential:     -123.130538
External:        +0.000000
XC:            -265.664462
Entropy (-ST):   -0.145291
Local:           +0.382465
--------------------------
Free energy:   -248.627960
Extrapolated:  -248.555314

Dipole-layer corrected work functions: 3.395575, 3.242723 eV

Showing only first 2 kpts
 Kpt  Band  Eigenvalues  Occupancy
  0    25     -3.56851    1.98644
  0    26     -3.49569    1.94311
  0    27     -3.14621    0.06101
  0    28     -3.07072    0.01381

  1    25     -3.35639    1.35609
  1    26     -3.30378    0.84747
  1    27     -3.29339    0.74800
  1    28     -3.23438    0.31012


Fermi level: -3.31915

No gap
Writing to output.gpw (mode='')


Forces in eV/Ang:
  0 Li    0.00629    0.00543   -0.26861
  1 Li   -0.00039   -0.00004   -0.27195
  2 Li   -0.00595    0.00615   -0.26841
  3 Li    0.00007   -0.00000   -0.27201
  4 Li    0.00041    0.00000   -0.28606
  5 Li   -0.00024   -0.00000   -0.27159
  6 Li    0.00629   -0.00543   -0.26861
  7 Li   -0.00039    0.00004   -0.27195
  8 Li   -0.00596   -0.00615   -0.26841
  9 Li    0.00004   -0.00000    0.29916
 10 Li    0.01213    0.00000    0.25323
 11 Li   -0.01186    0.00000    0.25540
 12 Li   -0.00002    0.01105    0.25505
 13 Li    0.00106    0.00135    0.25528
 14 Li   -0.00108    0.00259    0.25430
 15 Li   -0.00002   -0.01105    0.25505
 16 Li    0.00107   -0.00135    0.25527
 17 Li   -0.00109   -0.00259    0.25429
 18 Li    0.00081   -0.00044    0.01954
 19 Li    0.00077    0.00205    0.04191
 20 Li   -0.00146    0.00090    0.01438
 21 Li    0.00083    0.00000    0.04201
 22 Li    0.00008   -0.00000    0.03158
 23 Li   -0.00113    0.00000    0.04311
 24 Li    0.00082    0.00043    0.01952
 25 Li    0.00077   -0.00205    0.04192
 26 Li   -0.00148   -0.00090    0.01436
 27 Li   -0.00816   -0.00001   -0.24862
 28 Li    0.03289    0.00000   -0.05274
 29 Li   -0.03333    0.00000   -0.03887
 30 Li    0.00167    0.03431   -0.04294
 31 Li    0.00267    0.00083   -0.03095
 32 Li   -0.00459    0.00320   -0.02970
 33 Li    0.00167   -0.03433   -0.04295
 34 Li    0.00267   -0.00083   -0.03095
 35 Li   -0.00460   -0.00320   -0.02971
 36 F    -0.53225    0.00277   16.05207
 37 H     0.67896    0.00003    0.64412
 38 N    -0.44028    0.00226   -5.00101
 39 N     0.33071   -0.00309  -11.37071

System changes: positions 

Initializing position-dependent things.

Density initialized from wave functions
       .-----------------------.  
      /|                       |  
     / |                       |  
    /  |                       |  
   /   |                       |  
  /    |                       |  
 *     |                       |  
 |     |                       |  
 |     | H                     |  
 |     |                       |  
 |     N                       |  
 |     |                       |  
 |     |                       N  
 |     |                       |  
 F     |                       Li 
 |     |                       |  
 |   Li|     Li      Li        |  
 |     |  Li      Li      Li   |  
 | Li  |   Li      Li          |  
 |     |Li      Li      Li     |  
 |     | Li      Li            |  
 |   LLi     LLi     LLi       |  
 |     |  Li      Li      Li   |  
 | Li  |   Li      Li          |  
 |     |Li      Li      Li     |  
 Li    | Li      Li            |  
 |    Li      Li      Li       |  
 |     |                       |  
 |     |                       |  
 |     |                       |  
 |     |                       |  
 |     |                       |  
 |     |                       |  
 |     .-----------------------.  
 |    /                       /   
 |   /                       /    
 |  /                       /     
 | /                       /      
 |/                       /       
 *-----------------------*        

Positions:
   0 Li     1.617037    1.617037   10.000000    ( 0.0000,  0.0000,  0.0000)
   1 Li     4.851111    1.617037   10.000000    ( 0.0000,  0.0000,  0.0000)
   2 Li     8.085185    1.617037   10.000000    ( 0.0000,  0.0000,  0.0000)
   3 Li     1.617037    4.851111   10.000000    ( 0.0000,  0.0000,  0.0000)
   4 Li     4.851111    4.851111   10.000000    ( 0.0000,  0.0000,  0.0000)
   5 Li     8.085185    4.851111   10.000000    ( 0.0000,  0.0000,  0.0000)
   6 Li     1.617037    8.085185   10.000000    ( 0.0000,  0.0000,  0.0000)
   7 Li     4.851111    8.085185   10.000000    ( 0.0000,  0.0000,  0.0000)
   8 Li     8.085185    8.085185   10.000000    ( 0.0000,  0.0000,  0.0000)
   9 Li     0.000000    0.000000   11.617037    ( 0.0000,  0.0000,  0.0000)
  10 Li     3.234074    0.000000   11.617037    ( 0.0000,  0.0000,  0.0000)
  11 Li     6.468148    0.000000   11.617037    ( 0.0000,  0.0000,  0.0000)
  12 Li     0.000000    3.234074   11.617037    ( 0.0000,  0.0000,  0.0000)
  13 Li     3.234074    3.234074   11.617037    ( 0.0000,  0.0000,  0.0000)
  14 Li     6.468148    3.234074   11.617037    ( 0.0000,  0.0000,  0.0000)
  15 Li     0.000000    6.468148   11.617037    ( 0.0000,  0.0000,  0.0000)
  16 Li     3.234074    6.468148   11.617037    ( 0.0000,  0.0000,  0.0000)
  17 Li     6.468148    6.468148   11.617037    ( 0.0000,  0.0000,  0.0000)
  18 Li     1.617051    1.617038   13.470045    ( 0.0000,  0.0000,  0.0000)
  19 Li     4.851122    1.617078   13.470371    ( 0.0000,  0.0000,  0.0000)
  20 Li     8.085161    1.617058   13.469953    ( 0.0000,  0.0000,  0.0000)
  21 Li     1.617060    4.851111   13.470363    ( 0.0000,  0.0000,  0.0000)
  22 Li     4.851116    4.851111   13.470172    ( 0.0000,  0.0000,  0.0000)
  23 Li     8.085153    4.851111   13.470383    ( 0.0000,  0.0000,  0.0000)
  24 Li     1.617052    8.085184   13.470045    ( 0.0000,  0.0000,  0.0000)
  25 Li     4.851122    8.085144   13.470371    ( 0.0000,  0.0000,  0.0000)
  26 Li     8.085161    8.085164   13.469953    ( 0.0000,  0.0000,  0.0000)
  27 Li    -0.000145   -0.000000   15.439998    ( 0.0000,  0.0000,  0.0000)
  28 Li     3.234739    0.000000   15.444940    ( 0.0000,  0.0000,  0.0000)
  29 Li     6.467473    0.000000   15.445214    ( 0.0000,  0.0000,  0.0000)
  30 Li     0.000031    3.234719   15.445157    ( 0.0000,  0.0000,  0.0000)
  31 Li     3.234116    3.234088   15.445452    ( 0.0000,  0.0000,  0.0000)
  32 Li     6.468072    3.234130   15.445477    ( 0.0000,  0.0000,  0.0000)
  33 Li     0.000031    6.467503   15.445157    ( 0.0000,  0.0000,  0.0000)
  34 Li     3.234116    6.468134   15.445452    ( 0.0000,  0.0000,  0.0000)
  35 Li     6.468072    6.468092   15.445477    ( 0.0000,  0.0000,  0.0000)
  36 F      9.709565    9.702239   20.105247    ( 0.0000,  0.0000,  0.0000)
  37 H     10.622374    9.702222   19.950531    ( 0.0000,  0.0000,  0.0000)
  38 N      9.696221    9.701994   17.370795    ( 0.0000,  0.0000,  0.0000)
  39 N      9.708413    9.702057   18.461188    ( 0.0000,  0.0000,  0.0000)

Unit cell:
           periodic     x           y           z      points  spacing
  1. axis:    yes    9.702222    0.000000    0.000000    60     0.1617
  2. axis:    yes    0.000000    9.702222    0.000000    60     0.1617
  3. axis:    no     0.000000    0.000000   26.851111   168     0.1598

  Lengths:   9.702222   9.702222  26.851111
  Angles:   90.000000  90.000000  90.000000

Effective grid spacing dv^(1/3) = 0.1611

     iter     time        total  log10-change:
                         energy  eigst   dens
iter:   1 04:20:12  -249.405456  -1.01
iter:   2 04:22:39  -249.405485  -1.61  -2.10
iter:   3 04:25:03  -249.405271c -2.08  -2.30
iter:   4 04:27:35  -249.403668c -1.76  -2.49
Writing to output.gpw (mode='')

iter:   5 04:30:12  -249.404544c -2.03  -2.69
iter:   6 04:32:46  -249.404451c -2.73  -2.74
iter:   7 04:35:18  -249.404799c -2.46  -2.78
iter:   8 04:37:48  -249.404431c -2.13  -2.69
iter:   9 04:40:11  -249.403924c -3.38  -2.92
Writing to output.gpw (mode='')

iter:  10 04:42:45  -249.403845c -3.22  -3.18
iter:  11 04:45:13  -249.403964c -3.06  -3.28
iter:  12 04:47:42  -249.403879c -3.36  -3.26
iter:  13 04:50:05  -249.403863c -4.32  -3.34
iter:  14 04:52:33  -249.403903c -3.79  -3.45
Writing to output.gpw (mode='')

iter:  15 04:55:03  -249.403868c -4.42  -3.52
iter:  16 04:57:29  -249.403871c -3.91  -3.65
iter:  17 04:59:58  -249.403868c -4.68  -3.69
iter:  18 05:02:29  -249.403911c -4.08  -3.79
iter:  19 05:04:53  -249.403872c -3.90  -3.57
Writing to output.gpw (mode='')

iter:  20 05:07:16  -249.403873c -4.57  -4.02c
iter:  21 05:09:51  -249.403871c -5.52  -4.11c
iter:  22 05:12:25  -249.403868c -5.37  -4.26c
iter:  23 05:14:50  -249.403868c -5.35  -4.29c
iter:  24 05:17:19  -249.403869c -5.69  -4.51c
Writing to output.gpw (mode='')

iter:  25 05:19:47  -249.403869c -5.86  -4.53c
iter:  26 05:22:27  -249.403869c -6.23  -4.57c
iter:  27 05:24:58  -249.403870c -6.03  -4.69c
iter:  28 05:27:26  -249.403869c -6.60  -4.70c
iter:  29 05:29:52  -249.403869c -6.42  -4.72c
Writing to output.gpw (mode='')

iter:  30 05:32:25  -249.403869c -6.71  -4.77c
iter:  31 05:34:56  -249.403869c -6.80  -4.86c
iter:  32 05:37:23  -249.403869c -7.09  -4.99c
iter:  33 05:39:47  -249.403869c -6.93  -5.05c
iter:  34 05:42:21  -249.403869c -7.16  -5.07c
Writing to output.gpw (mode='')

iter:  35 05:44:53  -249.403869c -7.23  -5.27c
iter:  36 05:47:17  -249.403869c -7.53c -5.37c

Converged after 36 iterations.

Dipole moment: (-16.866915, -16.285816, 0.043894) |e|*Ang

Energy contributions relative to reference atoms: (reference = -12990.375485)

Kinetic:       +135.892977
Potential:     -120.342161
External:        +0.000000
XC:            -265.269770
Entropy (-ST):   -0.145086
Local:           +0.387629
--------------------------
Free energy:   -249.476412
Extrapolated:  -249.403869

Dipole-layer corrected work functions: 3.396097, 3.311718 eV

Showing only first 2 kpts
 Kpt  Band  Eigenvalues  Occupancy
  0    25     -3.60321    1.98643
  0    26     -3.53088    1.94358
  0    27     -3.18001    0.05989
  0    28     -3.10682    0.01418

  1    25     -3.39030    1.34863
  1    26     -3.33815    0.84368
  1    27     -3.32909    0.75676
  1    28     -3.26748    0.30156


Fermi level: -3.35391

No gap
Writing to output.gpw (mode='')


Forces in eV/Ang:
  0 Li    0.00634    0.00547   -0.26864
  1 Li   -0.00038   -0.00004   -0.27189
  2 Li   -0.00601    0.00618   -0.26853
  3 Li    0.00011   -0.00000   -0.27200
  4 Li    0.00042    0.00000   -0.28621
  5 Li   -0.00023   -0.00000   -0.27151
  6 Li    0.00634   -0.00547   -0.26864
  7 Li   -0.00038    0.00004   -0.27189
  8 Li   -0.00601   -0.00617   -0.26853
  9 Li    0.00004   -0.00000    0.29977
 10 Li    0.01218    0.00000    0.25348
 11 Li   -0.01183    0.00000    0.25573
 12 Li    0.00001    0.01109    0.25537
 13 Li    0.00119    0.00145    0.25521
 14 Li   -0.00128    0.00280    0.25422
 15 Li    0.00001   -0.01108    0.25538
 16 Li    0.00120   -0.00145    0.25521
 17 Li   -0.00129   -0.00280    0.25422
 18 Li    0.00138    0.00005    0.01808
 19 Li    0.00076    0.00214    0.04130
 20 Li   -0.00207    0.00160    0.01252
 21 Li    0.00091    0.00000    0.04137
 22 Li    0.00010   -0.00000    0.03144
 23 Li   -0.00129    0.00000    0.04245
 24 Li    0.00140   -0.00005    0.01806
 25 Li    0.00076   -0.00214    0.04131
 26 Li   -0.00209   -0.00161    0.01250
 27 Li   -0.01021   -0.00002   -0.31810
 28 Li    0.03130    0.00000   -0.05203
 29 Li   -0.03190    0.00000   -0.03705
 30 Li    0.00169    0.03294   -0.04161
 31 Li    0.00286    0.00104   -0.03091
 32 Li   -0.00480    0.00334   -0.02938
 33 Li    0.00169   -0.03296   -0.04161
 34 Li    0.00287   -0.00105   -0.03091
 35 Li   -0.00481   -0.00334   -0.02939
 36 F    -0.15707    0.00176   13.51271
 37 H     0.26587    0.00004    0.61424
 38 N    -0.40025    0.00153   -3.72752
 39 N     0.38933   -0.00289   -9.94655

System changes: positions 

Initializing position-dependent things.

Density initialized from wave functions
       .-----------------------.  
      /|                       |  
     / |                       |  
    /  |                       |  
   /   |                       |  
  /    |                       |  
 *     |                       |  
 |     |                       |  
 |     F H                     |  
 |     |                       |  
 |     N                       |  
 |     |                       |  
 |     |                       N  
 |     |                       |  
 |     |                       Li 
 |     |                       |  
 |   Li|     Li      Li        |  
 |     |  Li      Li      Li   |  
 | Li  |   Li      Li          |  
 |     |Li      Li      Li     |  
 |     | Li      Li            |  
 |   LLi     LLi     LLi       |  
 |     |  Li      Li      Li   |  
 | Li  |   Li      Li          |  
 |     |Li      Li      Li     |  
 Li    | Li      Li            |  
 |    Li      Li      Li       |  
 |     |                       |  
 |     |                       |  
 |     |                       |  
 |     |                       |  
 |     |                       |  
 |     |                       |  
 |     .-----------------------.  
 |    /                       /   
 |   /                       /    
 |  /                       /     
 | /                       /      
 |/                       /       
 *-----------------------*        

Positions:
   0 Li     1.617037    1.617037   10.000000    ( 0.0000,  0.0000,  0.0000)
   1 Li     4.851111    1.617037   10.000000    ( 0.0000,  0.0000,  0.0000)
   2 Li     8.085185    1.617037   10.000000    ( 0.0000,  0.0000,  0.0000)
   3 Li     1.617037    4.851111   10.000000    ( 0.0000,  0.0000,  0.0000)
   4 Li     4.851111    4.851111   10.000000    ( 0.0000,  0.0000,  0.0000)
   5 Li     8.085185    4.851111   10.000000    ( 0.0000,  0.0000,  0.0000)
   6 Li     1.617037    8.085185   10.000000    ( 0.0000,  0.0000,  0.0000)
   7 Li     4.851111    8.085185   10.000000    ( 0.0000,  0.0000,  0.0000)
   8 Li     8.085185    8.085185   10.000000    ( 0.0000,  0.0000,  0.0000)
   9 Li     0.000000    0.000000   11.617037    ( 0.0000,  0.0000,  0.0000)
  10 Li     3.234074    0.000000   11.617037    ( 0.0000,  0.0000,  0.0000)
  11 Li     6.468148    0.000000   11.617037    ( 0.0000,  0.0000,  0.0000)
  12 Li     0.000000    3.234074   11.617037    ( 0.0000,  0.0000,  0.0000)
  13 Li     3.234074    3.234074   11.617037    ( 0.0000,  0.0000,  0.0000)
  14 Li     6.468148    3.234074   11.617037    ( 0.0000,  0.0000,  0.0000)
  15 Li     0.000000    6.468148   11.617037    ( 0.0000,  0.0000,  0.0000)
  16 Li     3.234074    6.468148   11.617037    ( 0.0000,  0.0000,  0.0000)
  17 Li     6.468148    6.468148   11.617037    ( 0.0000,  0.0000,  0.0000)
  18 Li     1.617072    1.617048   13.470207    ( 0.0000,  0.0000,  0.0000)
  19 Li     4.851128    1.617105   13.470749    ( 0.0000,  0.0000,  0.0000)
  20 Li     8.085133    1.617086   13.470051    ( 0.0000,  0.0000,  0.0000)
  21 Li     1.617074    4.851111   13.470737    ( 0.0000,  0.0000,  0.0000)
  22 Li     4.851119    4.851111   13.470443    ( 0.0000,  0.0000,  0.0000)
  23 Li     8.085131    4.851111   13.470768    ( 0.0000,  0.0000,  0.0000)
  24 Li     1.617072    8.085174   13.470206    ( 0.0000,  0.0000,  0.0000)
  25 Li     4.851128    8.085118   13.470749    ( 0.0000,  0.0000,  0.0000)
  26 Li     8.085133    8.085136   13.470050    ( 0.0000,  0.0000,  0.0000)
  27 Li    -0.000280   -0.000000   15.434817    ( 0.0000,  0.0000,  0.0000)
  28 Li     3.235101    0.000000   15.444356    ( 0.0000,  0.0000,  0.0000)
  29 Li     6.467102    0.000000   15.444819    ( 0.0000,  0.0000,  0.0000)
  30 Li     0.000050    3.235076   15.444715    ( 0.0000,  0.0000,  0.0000)
  31 Li     3.234144    3.234099   15.445156    ( 0.0000,  0.0000,  0.0000)
  32 Li     6.468024    3.234164   15.445203    ( 0.0000,  0.0000,  0.0000)
  33 Li     0.000050    6.467146   15.444715    ( 0.0000,  0.0000,  0.0000)
  34 Li     3.234144    6.468123   15.445156    ( 0.0000,  0.0000,  0.0000)
  35 Li     6.468023    6.468057   15.445203    ( 0.0000,  0.0000,  0.0000)
  36 F      9.714678    9.702221   20.144919    ( 0.0000,  0.0000,  0.0000)
  37 H     10.616990    9.702222   19.952071    ( 0.0000,  0.0000,  0.0000)
  38 N      9.693953    9.701993   17.352805    ( 0.0000,  0.0000,  0.0000)
  39 N      9.712514    9.702084   18.444452    ( 0.0000,  0.0000,  0.0000)

Unit cell:
           periodic     x           y           z      points  spacing
  1. axis:    yes    9.702222    0.000000    0.000000    60     0.1617
  2. axis:    yes    0.000000    9.702222    0.000000    60     0.1617
  3. axis:    no     0.000000    0.000000   26.851111   168     0.1598

  Lengths:   9.702222   9.702222  26.851111
  Angles:   90.000000  90.000000  90.000000

Effective grid spacing dv^(1/3) = 0.1611

     iter     time        total  log10-change:
                         energy  eigst   dens
iter:   1 05:50:18  -250.156149  -1.00
iter:   2 05:52:47  -250.125779  -1.20  -1.71
iter:   3 05:55:15  -250.117387  -2.06  -1.93
iter:   4 05:57:44  -250.117445c -1.34  -2.34
Writing to output.gpw (mode='')

iter:   5 06:00:23  -250.114281c -2.29  -2.19
iter:   6 06:02:46  -250.113996c -2.38  -2.48
iter:   7 06:05:23  -250.115682c -2.20  -2.70
iter:   8 06:07:59  -250.114226c -2.50  -2.72
iter:   9 06:10:28  -250.113940c -2.49  -2.78
Writing to output.gpw (mode='')

iter:  10 06:12:56  -250.113943c -3.51  -3.02
iter:  11 06:15:28  -250.114142c -3.11  -3.11
iter:  12 06:17:53  -250.113913c -3.43  -3.05
iter:  13 06:20:23  -250.113915c -3.52  -3.34
iter:  14 06:22:54  -250.113942c -4.04  -3.37
Writing to output.gpw (mode='')

iter:  15 06:25:27  -250.113922c -4.45  -3.41
iter:  16 06:27:55  -250.113901c -4.10  -3.55
iter:  17 06:30:25  -250.113908c -5.06  -3.66
iter:  18 06:32:56  -250.113924c -4.76  -3.70
iter:  19 06:35:24  -250.113917c -5.06  -3.74
Writing to output.gpw (mode='')

iter:  20 06:37:58  -250.113911c -5.04  -3.90
iter:  21 06:40:34  -250.113915c -5.43  -4.02c
iter:  22 06:43:02  -250.113914c -5.75  -4.19c
iter:  23 06:45:41  -250.113916c -5.68  -4.37c
iter:  24 06:48:18  -250.113916c -6.14  -4.44c
Writing to output.gpw (mode='')

iter:  25 06:50:45  -250.113914c -6.00  -4.57c
iter:  26 06:53:12  -250.113914c -5.88  -4.62c
iter:  27 06:55:45  -250.113914c -6.58  -4.75c
iter:  28 06:58:23  -250.113914c -6.29  -4.85c
iter:  29 07:00:56  -250.113914c -6.38  -4.97c
Writing to output.gpw (mode='')

iter:  30 07:03:28  -250.113915c -6.77  -5.08c
iter:  31 07:05:48  -250.113915c -6.81  -5.10c
iter:  32 07:08:20  -250.113915c -7.01  -5.26c
iter:  33 07:10:56  -250.113915c -7.08  -5.35c
iter:  34 07:13:28  -250.113915c -7.06  -5.38c
Writing to output.gpw (mode='')

iter:  35 07:15:58  -250.113914c -7.00  -5.39c
iter:  36 07:18:33  -250.113914c -7.47c -5.39c

Converged after 36 iterations.

Dipole moment: (-17.483989, -16.282560, 0.009681) |e|*Ang

Energy contributions relative to reference atoms: (reference = -12990.375485)

Kinetic:       +133.285318
Potential:     -118.610391
External:        +0.000000
XC:            -265.109682
Entropy (-ST):   -0.144885
Local:           +0.393283
--------------------------
Free energy:   -250.186357
Extrapolated:  -250.113914

Dipole-layer corrected work functions: 3.396663, 3.378054 eV

Showing only first 2 kpts
 Kpt  Band  Eigenvalues  Occupancy
  0    25     -3.63666    1.98643
  0    26     -3.56481    1.94410
  0    27     -3.21248    0.05876
  0    28     -3.14141    0.01451

  1    25     -3.42303    1.34236
  1    26     -3.37124    0.84020
  1    27     -3.36327    0.76370
  1    28     -3.29968    0.29521


Fermi level: -3.38736

No gap
Writing to output.gpw (mode='')


Forces in eV/Ang:
  0 Li    0.00634    0.00548   -0.26870
  1 Li   -0.00037   -0.00007   -0.27186
  2 Li   -0.00602    0.00616   -0.26867
  3 Li    0.00013   -0.00000   -0.27202
  4 Li    0.00043    0.00000   -0.28641
  5 Li   -0.00017   -0.00000   -0.27147
  6 Li    0.00634   -0.00548   -0.26870
  7 Li   -0.00037    0.00007   -0.27186
  8 Li   -0.00602   -0.00616   -0.26867
  9 Li    0.00002   -0.00000    0.30040
 10 Li    0.01226    0.00000    0.25379
 11 Li   -0.01179    0.00000    0.25610
 12 Li    0.00006    0.01114    0.25571
 13 Li    0.00132    0.00151    0.25524
 14 Li   -0.00149    0.00301    0.25423
 15 Li    0.00006   -0.01113    0.25572
 16 Li    0.00133   -0.00151    0.25524
 17 Li   -0.00150   -0.00301    0.25422
 18 Li    0.00206    0.00067    0.01669
 19 Li    0.00077    0.00227    0.04036
 20 Li   -0.00283    0.00249    0.01076
 21 Li    0.00106    0.00000    0.04038
 22 Li    0.00009   -0.00000    0.03107
 23 Li   -0.00151    0.00000    0.04146
 24 Li    0.00208   -0.00067    0.01667
 25 Li    0.00077   -0.00227    0.04037
 26 Li   -0.00284   -0.00250    0.01074
 27 Li   -0.01274   -0.00003   -0.37428
 28 Li    0.03021    0.00000   -0.05180
 29 Li   -0.03105    0.00000   -0.03600
 30 Li    0.00167    0.03201   -0.04095
 31 Li    0.00285    0.00111   -0.03064
 32 Li   -0.00477    0.00327   -0.02889
 33 Li    0.00167   -0.03203   -0.04095
 34 Li    0.00286   -0.00111   -0.03064
 35 Li   -0.00477   -0.00327   -0.02889
 36 F    -0.30483    0.00093   11.35847
 37 H     0.35259    0.00005    0.51749
 38 N    -0.40747   -0.00014   -3.36485
 39 N     0.33984   -0.00086   -8.02959

System changes: positions 

Initializing position-dependent things.

Density initialized from wave functions
       .-----------------------.  
      /|                       |  
     / |                       |  
    /  |                       |  
   /   |                       |  
  /    |                       |  
 *     |                       |  
 |     |                       |  
 |     F                       |  
 |     |                       |  
 |     N                       |  
 |     |                       |  
 |     |                       N  
 |     |                       |  
 | H   |                       Li 
 |     |                       |  
 |   Li|     Li      Li        |  
 |     |  Li      Li      Li   |  
 | Li  |   Li      Li          |  
 |     |Li      Li      Li     |  
 |     | Li      Li            |  
 |   LLi     LLi     LLi       |  
 |     |  Li      Li      Li   |  
 | Li  |   Li      Li          |  
 |     |Li      Li      Li     |  
 Li    | Li      Li            |  
 |    Li      Li      Li       |  
 |     |                       |  
 |     |                       |  
 |     |                       |  
 |     |                       |  
 |     |                       |  
 |     |                       |  
 |     .-----------------------.  
 |    /                       /   
 |   /                       /    
 |  /                       /     
 | /                       /      
 |/                       /       
 *-----------------------*        

Positions:
   0 Li     1.617037    1.617037   10.000000    ( 0.0000,  0.0000,  0.0000)
   1 Li     4.851111    1.617037   10.000000    ( 0.0000,  0.0000,  0.0000)
   2 Li     8.085185    1.617037   10.000000    ( 0.0000,  0.0000,  0.0000)
   3 Li     1.617037    4.851111   10.000000    ( 0.0000,  0.0000,  0.0000)
   4 Li     4.851111    4.851111   10.000000    ( 0.0000,  0.0000,  0.0000)
   5 Li     8.085185    4.851111   10.000000    ( 0.0000,  0.0000,  0.0000)
   6 Li     1.617037    8.085185   10.000000    ( 0.0000,  0.0000,  0.0000)
   7 Li     4.851111    8.085185   10.000000    ( 0.0000,  0.0000,  0.0000)
   8 Li     8.085185    8.085185   10.000000    ( 0.0000,  0.0000,  0.0000)
   9 Li     0.000000    0.000000   11.617037    ( 0.0000,  0.0000,  0.0000)
  10 Li     3.234074    0.000000   11.617037    ( 0.0000,  0.0000,  0.0000)
  11 Li     6.468148    0.000000   11.617037    ( 0.0000,  0.0000,  0.0000)
  12 Li     0.000000    3.234074   11.617037    ( 0.0000,  0.0000,  0.0000)
  13 Li     3.234074    3.234074   11.617037    ( 0.0000,  0.0000,  0.0000)
  14 Li     6.468148    3.234074   11.617037    ( 0.0000,  0.0000,  0.0000)
  15 Li     0.000000    6.468148   11.617037    ( 0.0000,  0.0000,  0.0000)
  16 Li     3.234074    6.468148   11.617037    ( 0.0000,  0.0000,  0.0000)
  17 Li     6.468148    6.468148   11.617037    ( 0.0000,  0.0000,  0.0000)
  18 Li     1.617108    1.617068   13.470389    ( 0.0000,  0.0000,  0.0000)
  19 Li     4.851136    1.617138   13.471217    ( 0.0000,  0.0000,  0.0000)
  20 Li     8.085088    1.617132   13.470148    ( 0.0000,  0.0000,  0.0000)
  21 Li     1.617093    4.851111   13.471199    ( 0.0000,  0.0000,  0.0000)
  22 Li     4.851123    4.851111   13.470789    ( 0.0000,  0.0000,  0.0000)
  23 Li     8.085102    4.851111   13.471245    ( 0.0000,  0.0000,  0.0000)
  24 Li     1.617108    8.085154   13.470388    ( 0.0000,  0.0000,  0.0000)
  25 Li     4.851136    8.085084   13.471217    ( 0.0000,  0.0000,  0.0000)
  26 Li     8.085087    8.085090   13.470147    ( 0.0000,  0.0000,  0.0000)
  27 Li    -0.000484   -0.000001   15.427932    ( 0.0000,  0.0000,  0.0000)
  28 Li     3.235516    0.000000   15.443652    ( 0.0000,  0.0000,  0.0000)
  29 Li     6.466673    0.000000   15.444355    ( 0.0000,  0.0000,  0.0000)
  30 Li     0.000073    3.235495   15.444185    ( 0.0000,  0.0000,  0.0000)
  31 Li     3.234179    3.234114   15.444787    ( 0.0000,  0.0000,  0.0000)
  32 Li     6.467963    3.234207   15.444862    ( 0.0000,  0.0000,  0.0000)
  33 Li     0.000073    6.466726   15.444185    ( 0.0000,  0.0000,  0.0000)
  34 Li     3.234180    6.468107   15.444787    ( 0.0000,  0.0000,  0.0000)
  35 Li     6.467962    6.468015   15.444862    ( 0.0000,  0.0000,  0.0000)
  36 F      9.716828    9.702195   20.184862    ( 0.0000,  0.0000,  0.0000)
  37 H     10.613866    9.702222   19.953708    ( 0.0000,  0.0000,  0.0000)
  38 N      9.690516    9.701968   17.333929    ( 0.0000,  0.0000,  0.0000)
  39 N      9.716767    9.702135   18.429904    ( 0.0000,  0.0000,  0.0000)

Unit cell:
           periodic     x           y           z      points  spacing
  1. axis:    yes    9.702222    0.000000    0.000000    60     0.1617
  2. axis:    yes    0.000000    9.702222    0.000000    60     0.1617
  3. axis:    no     0.000000    0.000000   26.851111   168     0.1598

  Lengths:   9.702222   9.702222  26.851111
  Angles:   90.000000  90.000000  90.000000

Effective grid spacing dv^(1/3) = 0.1611

     iter     time        total  log10-change:
                         energy  eigst   dens
iter:   1 07:21:42  -250.703535  -1.11
iter:   2 07:24:06  -250.702662  -1.77  -2.13
iter:   3 07:26:30  -250.702071c -2.28  -2.35
iter:   4 07:29:06  -250.701160c -1.73  -2.51
Writing to output.gpw (mode='')

iter:   5 07:31:38  -250.701018c -2.63  -2.72
iter:   6 07:34:05  -250.701637c -2.59  -2.82
iter:   7 07:36:36  -250.700347c -2.81  -2.75
iter:   8 07:39:03  -250.700360c -3.41  -2.99
iter:   9 07:41:30  -250.700331c -3.57  -3.05
Writing to output.gpw (mode='')

iter:  10 07:44:03  -250.700326c -3.20  -3.24
iter:  11 07:46:35  -250.700343c -3.73  -3.35
iter:  12 07:49:06  -250.700319c -4.43  -3.40
iter:  13 07:51:45  -250.700322c -4.03  -3.46
iter:  14 07:54:14  -250.700319c -4.89  -3.64
Writing to output.gpw (mode='')

iter:  15 07:56:39  -250.700323c -4.59  -3.72
iter:  16 07:59:18  -250.700325c -4.45  -3.81
iter:  17 08:01:53  -250.700324c -5.23  -3.78
iter:  18 08:04:21  -250.700325c -4.82  -3.98
iter:  19 08:06:52  -250.700321c -5.33  -4.03c
Writing to output.gpw (mode='')

iter:  20 08:09:20  -250.700321c -5.65  -4.22c
iter:  21 08:11:50  -250.700322c -5.96  -4.28c
iter:  22 08:14:31  -250.700323c -5.75  -4.32c
iter:  23 08:16:57  -250.700322c -5.89  -4.38c
iter:  24 08:19:20  -250.700321c -5.86  -4.51c
Writing to output.gpw (mode='')

iter:  25 08:21:46  -250.700322c -5.97  -4.55c
iter:  26 08:24:13  -250.700320c -6.20  -4.49c
iter:  27 08:26:44  -250.700320c -6.82  -4.84c
iter:  28 08:29:15  -250.700321c -6.81  -4.91c
iter:  29 08:31:46  -250.700321c -6.89  -5.00c
Writing to output.gpw (mode='')

iter:  30 08:34:10  -250.700321c -6.74  -5.05c
iter:  31 08:36:42  -250.700321c -7.15  -5.08c
iter:  32 08:39:18  -250.700321c -7.07  -5.10c
iter:  33 08:41:59  -250.700321c -7.24  -5.10c
iter:  34 08:44:35  -250.700321c -7.39  -5.16c
Writing to output.gpw (mode='')

iter:  35 08:47:22  -250.700321c -7.37  -5.25c
iter:  36 08:50:05  -250.700321c -7.43c -5.30c

Converged after 36 iterations.

Dipole moment: (-17.722114, -16.284735, -0.027727) |e|*Ang

Energy contributions relative to reference atoms: (reference = -12990.375485)

Kinetic:       +130.158054
Potential:     -116.412468
External:        +0.000000
XC:            -264.771448
Entropy (-ST):   -0.144660
Local:           +0.397871
--------------------------
Free energy:   -250.772651
Extrapolated:  -250.700321

Dipole-layer corrected work functions: 3.397586, 3.450886 eV

Showing only first 2 kpts
 Kpt  Band  Eigenvalues  Occupancy
  0    25     -3.67348    1.98641
  0    26     -3.60219    1.94464
  0    27     -3.24838    0.05766
  0    28     -3.17995    0.01499

  1    25     -3.45918    1.33591
  1    26     -3.40771    0.83625
  1    27     -3.40101    0.77180
  1    28     -3.33479    0.28639


Fermi level: -3.42424

No gap
Writing to output.gpw (mode='')


Forces in eV/Ang:
  0 Li    0.00640    0.00554   -0.26882
  1 Li   -0.00036   -0.00011   -0.27184
  2 Li   -0.00609    0.00620   -0.26891
  3 Li    0.00015   -0.00000   -0.27206
  4 Li    0.00045    0.00000   -0.28675
  5 Li   -0.00011   -0.00000   -0.27142
  6 Li    0.00640   -0.00554   -0.26882
  7 Li   -0.00037    0.00011   -0.27183
  8 Li   -0.00609   -0.00620   -0.26891
  9 Li   -0.00004   -0.00000    0.30142
 10 Li    0.01243    0.00000    0.25414
 11 Li   -0.01177    0.00000    0.25658
 12 Li    0.00013    0.01125    0.25616
 13 Li    0.00148    0.00159    0.25529
 14 Li   -0.00176    0.00335    0.25420
 15 Li    0.00013   -0.01124    0.25617
 16 Li    0.00149   -0.00159    0.25528
 17 Li   -0.00177   -0.00336    0.25419
 18 Li    0.00301    0.00150    0.01455
 19 Li    0.00081    0.00237    0.03930
 20 Li   -0.00390    0.00375    0.00804
 21 Li    0.00119    0.00000    0.03926
 22 Li    0.00005   -0.00000    0.03062
 23 Li   -0.00169    0.00001    0.04037
 24 Li    0.00303   -0.00150    0.01452
 25 Li    0.00081   -0.00237    0.03930
 26 Li   -0.00392   -0.00375    0.00801
 27 Li   -0.01602   -0.00006   -0.42283
 28 Li    0.02796    0.00000   -0.05042
 29 Li   -0.02921    0.00000   -0.03376
 30 Li    0.00167    0.03016   -0.03922
 31 Li    0.00299    0.00131   -0.03029
 32 Li   -0.00489    0.00335   -0.02830
 33 Li    0.00167   -0.03018   -0.03922
 34 Li    0.00300   -0.00132   -0.03029
 35 Li   -0.00490   -0.00335   -0.02830
[...]
iter:  19 19:12:10  -253.755594c -6.21  -4.45c
Writing to output.gpw (mode='')

iter:  20 19:14:43  -253.755593c -6.19  -4.54c
iter:  21 19:17:09  -253.755593c -6.25  -4.65c
iter:  22 19:19:40  -253.755593c -6.54  -4.68c
iter:  23 19:22:15  -253.755593c -6.78  -4.81c
iter:  24 19:24:46  -253.755594c -6.51  -4.84c
Writing to output.gpw (mode='')

iter:  25 19:27:14  -253.755594c -6.81  -4.87c
iter:  26 19:29:45  -253.755594c -7.04  -5.07c
iter:  27 19:32:15  -253.755594c -7.17  -5.30c
iter:  28 19:34:50  -253.755594c -7.21  -5.35c
iter:  29 19:37:13  -253.755594c -7.14  -5.39c
Writing to output.gpw (mode='')

iter:  30 19:39:40  -253.755594c -7.53c -5.57c

Converged after 30 iterations.

Dipole moment: (-34.767711, -16.084523, -0.547077) |e|*Ang

Energy contributions relative to reference atoms: (reference = -12990.375485)

Kinetic:       +113.614699
Potential:     -104.686380
External:        +0.000000
XC:            -263.028817
Entropy (-ST):   -0.141690
Local:           +0.415749
--------------------------
Free energy:   -253.826439
Extrapolated:  -253.755594

Dipole-layer corrected work functions: 3.411053, 4.462722 eV

Showing only first 2 kpts
 Kpt  Band  Eigenvalues  Occupancy
  0    25     -4.20215    1.99012
  0    26     -4.12837    1.95749
  0    27     -3.74424    0.04155
  0    28     -3.72633    0.02923

  1    25     -3.96151    1.24133
  1    26     -3.91385    0.77366
  1    27     -3.91088    0.74559
  1    28     -3.83153    0.21682


Fermi level: -3.93689

No gap

Forces in eV/Ang:
  0 Li    0.00808    0.00778   -0.27312
  1 Li    0.00089    0.00276   -0.27265
  2 Li   -0.00671    0.00708   -0.27288
  3 Li    0.00181    0.00002   -0.27147
  4 Li    0.00069   -0.00000   -0.29412
  5 Li   -0.00352    0.00002   -0.27394
  6 Li    0.00809   -0.00777   -0.27311
  7 Li    0.00089   -0.00274   -0.27261
  8 Li   -0.00671   -0.00707   -0.27286
  9 Li   -0.00820   -0.00006    0.32453
 10 Li    0.02291   -0.00002    0.25220
 11 Li   -0.03897   -0.00005    0.24923
 12 Li   -0.00927    0.03156    0.25053
 13 Li    0.02127    0.02952    0.22735
 14 Li   -0.02190    0.01545    0.22702
 15 Li   -0.00930   -0.03167    0.25033
 16 Li    0.02136   -0.02963    0.22712
 17 Li   -0.02196   -0.01554    0.22682
 18 Li   -0.01177   -0.02074    0.02699
 19 Li    0.00586   -0.00267    0.00271
 20 Li    0.03331   -0.02458    0.01980
 21 Li    0.00324   -0.00015   -0.00238
 22 Li   -0.00715   -0.00001    0.00959
 23 Li    0.00512   -0.00012    0.00413
 24 Li   -0.01208    0.02082    0.02757
 25 Li    0.00589    0.00273    0.00260
 26 Li    0.03363    0.02465    0.02018
 27 Li   -0.02681    0.00208   -0.10032
 28 Li    0.03013   -0.00004   -0.00010
 29 Li    0.00186    0.00000    0.01641
 30 Li    0.00678    0.01324    0.00876
 31 Li   -0.01309   -0.01234   -0.00411
 32 Li   -0.00066    0.00076   -0.00555
 33 Li    0.00682   -0.01325    0.00815
 34 Li   -0.01311    0.01239   -0.00421
 35 Li   -0.00071   -0.00077   -0.00564
 36 F     0.00213   -0.01374    0.06979
 37 H     0.02485    0.00704    0.04090
 38 N    -0.06785    0.00163   -0.20997
 39 N    -0.00467   -0.02223    0.28522

System changes: positions 

Initializing position-dependent things.

Density initialized from wave functions
       .-----------------------.  
      /|                       |  
     / |                       |  
    /  |                       |  
   /   |                       |  
  /    |                       |  
 *     |                       |  
 |     |                       |  
 |     |H                      |  
 |     |                       |  
 |     N                       |  
 |     |                       |  
 |     N                       |  
 |F    |                       |  
 |     Li      Li      Li      |  
 |     |                       |  
 |     |     Li      Li      Li|  
 |     |          Li           |  
 |     |  LLi      Li     LLi  |  
 |     |Li      Li      Li     |  
 |     |                       |  
 |   LLi     LLi     LLi       |  
 |     |  Li      Li      Li   |  
 | Li  |   Li      Li          |  
 |     |Li      Li      Li     |  
 Li    | Li      Li            |  
 |    Li      Li      Li       |  
 |     |                       |  
 |     |                       |  
 |     |                       |  
 |     |                       |  
 |     |                       |  
 |     |                       |  
 |     .-----------------------.  
 |    /                       /   
 |   /                       /    
 |  /                       /     
 | /                       /      
 |/                       /       
 *-----------------------*        

Positions:
   0 Li     1.617037    1.617037   10.000000    ( 0.0000,  0.0000,  0.0000)
   1 Li     4.851111    1.617037   10.000000    ( 0.0000,  0.0000,  0.0000)
   2 Li     8.085185    1.617037   10.000000    ( 0.0000,  0.0000,  0.0000)
   3 Li     1.617037    4.851111   10.000000    ( 0.0000,  0.0000,  0.0000)
   4 Li     4.851111    4.851111   10.000000    ( 0.0000,  0.0000,  0.0000)
   5 Li     8.085185    4.851111   10.000000    ( 0.0000,  0.0000,  0.0000)
   6 Li     1.617037    8.085185   10.000000    ( 0.0000,  0.0000,  0.0000)
   7 Li     4.851111    8.085185   10.000000    ( 0.0000,  0.0000,  0.0000)
   8 Li     8.085185    8.085185   10.000000    ( 0.0000,  0.0000,  0.0000)
   9 Li     0.000000    0.000000   11.617037    ( 0.0000,  0.0000,  0.0000)
  10 Li     3.234074    0.000000   11.617037    ( 0.0000,  0.0000,  0.0000)
  11 Li     6.468148    0.000000   11.617037    ( 0.0000,  0.0000,  0.0000)
  12 Li     0.000000    3.234074   11.617037    ( 0.0000,  0.0000,  0.0000)
  13 Li     3.234074    3.234074   11.617037    ( 0.0000,  0.0000,  0.0000)
  14 Li     6.468148    3.234074   11.617037    ( 0.0000,  0.0000,  0.0000)
  15 Li     0.000000    6.468148   11.617037    ( 0.0000,  0.0000,  0.0000)
  16 Li     3.234074    6.468148   11.617037    ( 0.0000,  0.0000,  0.0000)
  17 Li     6.468148    6.468148   11.617037    ( 0.0000,  0.0000,  0.0000)
  18 Li     1.634977    1.649068   13.420262    ( 0.0000,  0.0000,  0.0000)
  19 Li     4.841165    1.631118   13.469680    ( 0.0000,  0.0000,  0.0000)
  20 Li     8.045762    1.642930   13.431683    ( 0.0000,  0.0000,  0.0000)
  21 Li     1.628133    4.851116   13.472556    ( 0.0000,  0.0000,  0.0000)
  22 Li     4.860975    4.851182   13.472447    ( 0.0000,  0.0000,  0.0000)
  23 Li     8.069846    4.851099   13.469553    ( 0.0000,  0.0000,  0.0000)
  24 Li     1.635146    8.052843   13.420071    ( 0.0000,  0.0000,  0.0000)
  25 Li     4.841149    8.071034   13.469734    ( 0.0000,  0.0000,  0.0000)
  26 Li     8.045596    8.058974   13.431544    ( 0.0000,  0.0000,  0.0000)
  27 Li     0.001976   -0.000831   15.277351    ( 0.0000,  0.0000,  0.0000)
  28 Li     3.208743   -0.000019   15.366395    ( 0.0000,  0.0000,  0.0000)
  29 Li     6.442835   -0.000038   15.369521    ( 0.0000,  0.0000,  0.0000)
  30 Li    -0.005801    3.233176   15.369024    ( 0.0000,  0.0000,  0.0000)
  31 Li     3.246032    3.245157   15.414477    ( 0.0000,  0.0000,  0.0000)
  32 Li     6.464768    3.237410   15.424180    ( 0.0000,  0.0000,  0.0000)
  33 Li    -0.005819    6.468391   15.369185    ( 0.0000,  0.0000,  0.0000)
  34 Li     3.246020    6.457098   15.414560    ( 0.0000,  0.0000,  0.0000)
  35 Li     6.464831    6.464897   15.424272    ( 0.0000,  0.0000,  0.0000)
  36 F     10.144714    9.702406   21.241884    ( 0.0000,  0.0000,  0.0000)
  37 H     10.004295    9.698253   20.320173    ( 0.0000,  0.0000,  0.0000)
  38 N      9.824850    9.701765   17.245992    ( 0.0000,  0.0000,  0.0000)
  39 N      9.865384    9.697646   18.360650    ( 0.0000,  0.0000,  0.0000)

Unit cell:
           periodic     x           y           z      points  spacing
  1. axis:    yes    9.702222    0.000000    0.000000    60     0.1617
  2. axis:    yes    0.000000    9.702222    0.000000    60     0.1617
  3. axis:    no     0.000000    0.000000   26.851111   168     0.1598

  Lengths:   9.702222   9.702222  26.851111
  Angles:   90.000000  90.000000  90.000000

Effective grid spacing dv^(1/3) = 0.1611

     iter     time        total  log10-change:
                         energy  eigst   dens
iter:   1 19:42:46  -253.779693  -1.18
iter:   2 19:45:14  -253.767901  -1.69  -1.90
iter:   3 19:47:50  -253.761607c -2.68  -2.01
iter:   4 19:50:21  -253.759149c -2.71  -2.42
Writing to output.gpw (mode='')

iter:   5 19:52:54  -253.758754c -2.25  -2.62
iter:   6 19:55:34  -253.758607c -3.04  -2.71
iter:   7 19:58:07  -253.758680c -3.00  -2.96
iter:   8 20:00:45  -253.758706c -3.51  -3.09
iter:   9 20:03:15  -253.758792c -3.45  -3.11
Writing to output.gpw (mode='')

iter:  10 20:05:59  -253.758640c -3.61  -3.06
iter:  11 20:08:29  -253.758619c -4.08  -3.31
iter:  12 20:11:17  -253.758617c -4.28  -3.41
iter:  13 20:13:46  -253.758612c -4.38  -3.47
iter:  14 20:16:17  -253.758607c -4.48  -3.67
Writing to output.gpw (mode='')

iter:  15 20:18:44  -253.758611c -5.07  -3.71
iter:  16 20:21:19  -253.758621c -5.22  -3.76
iter:  17 20:23:54  -253.758627c -5.20  -3.88
iter:  18 20:26:25  -253.758626c -5.46  -4.02c
iter:  19 20:28:59  -253.758624c -5.80  -4.06c
Writing to output.gpw (mode='')

iter:  20 20:31:39  -253.758621c -5.83  -4.13c
iter:  21 20:34:10  -253.758618c -6.03  -4.18c
iter:  22 20:36:40  -253.758619c -6.18  -4.18c
iter:  23 20:39:14  -253.758617c -5.70  -4.23c
iter:  24 20:41:53  -253.758619c -6.28  -4.38c
Writing to output.gpw (mode='')

iter:  25 20:44:36  -253.758620c -6.14  -4.51c
iter:  26 20:47:07  -253.758620c -6.45  -4.69c
iter:  27 20:49:41  -253.758621c -6.57  -4.77c
iter:  28 20:52:17  -253.758621c -6.67  -5.07c
iter:  29 20:54:46  -253.758621c -6.86  -5.11c
Writing to output.gpw (mode='')

iter:  30 20:57:26  -253.758621c -7.26  -5.12c
iter:  31 21:00:01  -253.758621c -7.19  -5.11c
iter:  32 21:02:25  -253.758621c -7.11  -5.10c
iter:  33 21:04:51  -253.758621c -7.24  -5.25c
iter:  34 21:07:23  -253.758621c -7.26  -5.33c
Writing to output.gpw (mode='')

iter:  35 21:09:56  -253.758621c -7.58c -5.43c

Converged after 35 iterations.

Dipole moment: (-34.532222, -15.766725, -0.539370) |e|*Ang

Energy contributions relative to reference atoms: (reference = -12990.375485)

Kinetic:       +113.220846
Potential:     -104.388966
External:        +0.000000
XC:            -262.935055
Entropy (-ST):   -0.141432
Local:           +0.415271
--------------------------
Free energy:   -253.829337
Extrapolated:  -253.758621

Dipole-layer corrected work functions: 3.410558, 4.447412 eV

Showing only first 2 kpts
 Kpt  Band  Eigenvalues  Occupancy
  0    25     -4.19383    1.99004
  0    26     -4.12098    1.95791
  0    27     -3.73477    0.04030
  0    28     -3.71844    0.02923

  1    25     -3.95264    1.23228
  1    26     -3.90609    0.77496
  1    27     -3.90457    0.76056
  1    28     -3.82139    0.20829


Fermi level: -3.92899

No gap

Forces in eV/Ang:
  0 Li    0.00805    0.00795   -0.27396
  1 Li    0.00097    0.00222   -0.27215
  2 Li   -0.00694    0.00711   -0.27370
  3 Li    0.00162    0.00001   -0.27125
  4 Li    0.00055   -0.00000   -0.29483
  5 Li   -0.00270    0.00001   -0.27314
  6 Li    0.00805   -0.00795   -0.27393
  7 Li    0.00097   -0.00221   -0.27213
  8 Li   -0.00694   -0.00710   -0.27367
  9 Li   -0.00697   -0.00006    0.32718
 10 Li    0.02379   -0.00003    0.25405
 11 Li   -0.03799   -0.00005    0.25004
 12 Li   -0.00803    0.03150    0.25177
 13 Li    0.02188    0.02898    0.22897
 14 Li   -0.02297    0.01730    0.22785
 15 Li   -0.00805   -0.03162    0.25160
 16 Li    0.02192   -0.02907    0.22879
 17 Li   -0.02300   -0.01738    0.22768
 18 Li   -0.00867   -0.01545    0.01812
 19 Li    0.00495   -0.00193    0.00040
 20 Li    0.02500   -0.01876    0.01452
 21 Li    0.00239   -0.00013   -0.00331
 22 Li   -0.00588   -0.00001    0.00617
 23 Li    0.00395   -0.00010    0.00153
 24 Li   -0.00897    0.01556    0.01860
 25 Li    0.00498    0.00199    0.00031
 26 Li    0.02531    0.01888    0.01486
 27 Li   -0.01094    0.00194   -0.00083
 28 Li    0.02273   -0.00001    0.00165
 29 Li    0.00178    0.00001    0.01265
 30 Li    0.00515    0.01077    0.00746
 31 Li   -0.01050   -0.00967   -0.00285
 32 Li    0.00019   -0.00037   -0.00456
 33 Li    0.00518   -0.01068    0.00696
 34 Li   -0.01047    0.00967   -0.00293
 35 Li    0.00012    0.00033   -0.00463
 36 F    -0.01842   -0.00113    0.03208
 37 H     0.02880    0.00226    0.00867
 38 N    -0.02686   -0.00268   -0.00605
 39 N    -0.00236    0.01082    0.03688

Timing:                                      incl.     excl.
-------------------------------------------------------------------
Density initialized from wave functions:   130.173   130.172   0.0% |
 Symmetrize density:                         0.002     0.002   0.0% |
Forces:                                    393.063   393.063   0.1% |
Hamiltonian:                              5382.015     0.010   0.0% |
 Atomic:                                     8.117     0.114   0.0% |
  XC Correction:                             8.003     8.003   0.0% |
 Calculate atomic Hamiltonians:             26.375    26.375   0.0% |
 Communicate:                               25.135    25.135   0.0% |
 Hartree integrate/restrict:                10.211    10.211   0.0% |
 Initialize Hamiltonian:                     0.000     0.000   0.0% |
 Poisson:                                  217.985    99.271   0.0% |
  Communicate from 1D:                      15.243    15.243   0.0% |
  Communicate from 2D:                      26.645    26.645   0.0% |
  Communicate to 1D:                         6.798     6.798   0.0% |
  Communicate to 2D:                        25.651    25.651   0.0% |
  FFT 1D:                                   22.178    22.178   0.0% |
  FFT 2D:                                   22.198    22.198   0.0% |
 XC 3D grid:                              5091.678   524.271   0.2% |
  VdW-DF integral:                        4567.406    10.494   0.0% |
   Convolution:                            291.952   291.952   0.1% |
   FFT:                                     52.449    52.449   0.0% |
   gather:                                3634.072  3634.072   1.4% ||
   hmm1:                                    51.797    51.797   0.0% |
   hmm2:                                    69.977    69.977   0.0% |
   iFFT:                                    53.632    53.632   0.0% |
   potential:                              389.871     4.415   0.0% |
    collect:                                36.577    36.577   0.0% |
    p1:                                    155.516   155.516   0.1% |
    p2:                                    105.275   105.275   0.0% |
    sum:                                    88.088    88.088   0.0% |
   splines:                                 13.162    13.162   0.0% |
 vbar:                                       2.504     2.504   0.0% |
LCAO initialization:                        11.497     0.566   0.0% |
 LCAO eigensolver:                           3.484     0.001   0.0% |
  Calculate projections:                     0.000     0.000   0.0% |
  DenseAtomicCorrection:                     0.000     0.000   0.0% |
  Distribute overlap matrix:                 3.320     3.320   0.0% |
  Orbital Layouts:                           0.049     0.049   0.0% |
  Potential matrix:                          0.110     0.110   0.0% |
  Sum over cells:                            0.004     0.004   0.0% |
 LCAO to grid:                               5.643     5.643   0.0% |
 Set positions (LCAO WFS):                   1.805     1.441   0.0% |
  Basic WFS set positions:                   0.003     0.003   0.0% |
  Basis functions set positions:             0.001     0.001   0.0% |
  P tci:                                     0.001     0.001   0.0% |
  ST tci:                                    0.247     0.247   0.0% |
  mktci:                                     0.112     0.112   0.0% |
Redistribute:                                0.089     0.089   0.0% |
SCF-cycle:                               257845.232  3237.081   1.2% |
 Davidson:                               71591.704 29671.238  11.2% |---|
  Apply hamiltonian:                      4587.550  4587.550   1.7% ||
  Subspace diag:                          9908.774     0.521   0.0% |
   calc_h_matrix:                         6177.459  1678.902   0.6% |
    Apply hamiltonian:                    4498.557  4498.557   1.7% ||
   diagonalize:                            371.619   371.619   0.1% |
   rotate_psi:                            3359.175  3359.175   1.3% ||
  calc. matrices:                        20896.265 12631.503   4.8% |-|
   Apply hamiltonian:                     8264.762  8264.762   3.1% ||
  diagonalize:                              23.660    23.660   0.0% |
  rotate_psi:                             6504.218  6504.218   2.5% ||
 Density:                                 1718.089     0.096   0.0% |
  Atomic density matrices:                 428.273   428.273   0.2% |
  Mix:                                     595.679   595.679   0.2% |
  Multipole moments:                         6.198     6.198   0.0% |
  Pseudo density:                          687.844   687.779   0.3% |
   Symmetrize density:                       0.065     0.065   0.0% |
 Hamiltonian:                            181144.358     0.551   0.0% |
  Atomic:                                  266.674     3.295   0.0% |
   XC Correction:                          263.379   263.379   0.1% |
  Calculate atomic Hamiltonians:           893.069   893.069   0.3% |
  Communicate:                             871.648   871.648   0.3% |
  Hartree integrate/restrict:              335.051   335.051   0.1% |
  Poisson:                                7344.648  3325.201   1.3% ||
   Communicate from 1D:                    536.773   536.773   0.2% |
   Communicate from 2D:                    920.696   920.696   0.3% |
   Communicate to 1D:                      221.528   221.528   0.1% |
   Communicate to 2D:                      849.641   849.641   0.3% |
   FFT 1D:                                 733.697   733.697   0.3% |
   FFT 2D:                                 757.112   757.112   0.3% |
  XC 3D grid:                            171350.249 17730.912   6.7% |--|
   VdW-DF integral:                      153619.337   362.767   0.1% |
    Convolution:                          9830.722  9830.722   3.7% ||
    FFT:                                  1698.879  1698.879   0.6% |
    gather:                              122380.218 122380.218  46.2% |-----------------|
    hmm1:                                 1833.854  1833.854   0.7% |
    hmm2:                                 2451.789  2451.789   0.9% |
    iFFT:                                 1799.495  1799.495   0.7% |
    potential:                           13261.581   154.220   0.1% |
     collect:                             1215.554  1215.554   0.5% |
     p1:                                  5287.040  5287.040   2.0% ||
     p2:                                  3480.859  3480.859   1.3% ||
     sum:                                 3123.908  3123.908   1.2% |
    splines:                                 0.032     0.032   0.0% |
  vbar:                                     82.467    82.467   0.0% |
 Orthonormalize:                           153.999     0.014   0.0% |
  calc_s_matrix:                            24.404    24.404   0.0% |
  inverse-cholesky:                          5.071     5.071   0.0% |
  projections:                              73.681    73.681   0.0% |
  rotate_psi_s:                             50.829    50.829   0.0% |
Set symmetry:                                0.003     0.003   0.0% |
Other:                                    1234.469  1234.469   0.5% |
-------------------------------------------------------------------
Total:                                             264996.542 100.0%

Memory usage: 1.61 GiB
Date: Tue Mar  7 21:10:04 2023
