
  ___ ___ ___ _ _ _  
 |   |   |_  | | | | 
 | | | | | . | | | | 
 |__ |  _|___|_____|  22.8.0
 |___|_|             

User:   vazumah@c03.hercules
Date:   Fri Feb 24 17:05:33 2023
Arch:   x86_64
Pid:    11170
CWD:    /home/vazumah/Python_projects/LiNRR/Li_adsorb_studies/proton_donors/N2_with_proton_donor/Li_BCC_100/adsorbates/CH3CH2OH_z/ontop/9.702_9.702/N2_z
Python: 3.10.8
gpaw:   /home/vazumah/.conda/envs/GPAW/lib/python3.10/site-packages/gpaw
_gpaw:  /home/vazumah/.conda/envs/GPAW/lib/python3.10/site-packages/
        _gpaw.cpython-310-x86_64-linux-gnu.so
ase:    /home/vazumah/.conda/envs/GPAW/lib/python3.10/site-packages/ase (version 3.22.1)
numpy:  /home/vazumah/.conda/envs/GPAW/lib/python3.10/site-packages/numpy (version 1.24.1)
scipy:  /home/vazumah/.conda/envs/GPAW/lib/python3.10/site-packages/scipy (version 1.10.0)
libxc:  5.2.3
units:  Angstrom and eV
cores: 24
OpenMP: True
OMP_NUM_THREADS: 1

Reading from output.gpw
Reading input parameters:
  h: 0.16
  kpts: {size: [4, 4, 1]}
  occupations: {name: fermi-dirac,
                width: 0.05}
  poissonsolver: {dipolelayer: xy}
  xc: BEEF-vdW

Initialize ...

species:
  Li:
    name: Lithium
    id: 830b4218f175192f93f959cfc0aad614
    Z: 3.0
    valence: 1
    core: 2
    charge: 0.0
    file: /home/vazumah/.conda/envs/GPAW/share/gpaw/Li.PBE.gz
    compensation charges: {type: gauss,
                           rc: 0.33,
                           lmax: 2}
    cutoffs: {filter: 1.91,
              core: 2.55}
    valence states:
      #              energy  rcut
      - 2s(1.00)    -2.874   1.058
      - 2p(0.00)    -1.090   1.058
      -  s          24.337   1.058
  
    # Using partial waves for Li as LCAO basis

  O:
    name: Oxygen
    id: 32ecd46bf208036f09c70b0ec9a88b78
    Z: 8.0
    valence: 6
    core: 2
    charge: 0.0
    file: /home/vazumah/.conda/envs/GPAW/share/gpaw/O.PBE.gz
    compensation charges: {type: gauss,
                           rc: 0.21,
                           lmax: 2}
    cutoffs: {filter: 1.17,
              core: 0.83}
    valence states:
      #              energy  rcut
      - 2s(2.00)   -23.961   0.688
      - 2p(4.00)    -9.029   0.598
      -  s           3.251   0.688
      -  p          18.182   0.598
      -  d           0.000   0.619
  
    # Using partial waves for O as LCAO basis

  C:
    name: Carbon
    id: 4aa54d4b901d75f77cc0ea3eec22967b
    Z: 6.0
    valence: 4
    core: 2
    charge: 0.0
    file: /home/vazumah/.conda/envs/GPAW/share/gpaw/C.PBE.gz
    compensation charges: {type: gauss,
                           rc: 0.20,
                           lmax: 2}
    cutoffs: {filter: 1.14,
              core: 1.14}
    valence states:
      #              energy  rcut
      - 2s(2.00)   -13.751   0.635
      - 2p(2.00)    -5.284   0.635
      -  s          13.461   0.635
      -  p          21.927   0.635
      -  d           0.000   0.635
  
    # Using partial waves for C as LCAO basis

  H:
    name: Hydrogen
    id: d65de229564ff8ea4db303e23b6d1ecf
    Z: 1.0
    valence: 1
    core: 0
    charge: 0.0
    file: /home/vazumah/.conda/envs/GPAW/share/gpaw/H.PBE.gz
    compensation charges: {type: gauss,
                           rc: 0.15,
                           lmax: 2}
    cutoffs: {filter: 0.85,
              core: 0.53}
    valence states:
      #              energy  rcut
      - 1s(1.00)    -6.494   0.476
      -  s          20.717   0.476
      -  p           0.000   0.476
  
    # Using partial waves for H as LCAO basis

  N:
    name: Nitrogen
    id: f7500608b86eaa90eef8b1d9a670dc53
    Z: 7.0
    valence: 5
    core: 2
    charge: 0.0
    file: /home/vazumah/.conda/envs/GPAW/share/gpaw/N.PBE.gz
    compensation charges: {type: gauss,
                           rc: 0.18,
                           lmax: 2}
    cutoffs: {filter: 1.11,
              core: 0.96}
    valence states:
      #              energy  rcut
      - 2s(2.00)   -18.583   0.603
      - 2p(3.00)    -7.089   0.529
      -  s           8.629   0.603
      -  p          20.123   0.529
      -  d           0.000   0.577
  
    # Using partial waves for N as LCAO basis

Reference energy: -14434.854043  # eV

Spin-paired calculation

Convergence criteria:
 Maximum [total energy] change in last 3 cyles: 0.0005 eV / electron
 Maximum integral of absolute [dens]ity change: 0.0001 electrons / valence electron
 Maximum integral of absolute [eigenst]ate change: 4e-08 eV^2 / valence electron
 Maximum number of scf [iter]ations: 333
 (Square brackets indicate name in SCF output, whereas a 'c' in
 the SCF output indicates the quantity has converged.)

Symmetries present (total): 1

  ( 1  0  0)
  ( 0  1  0)
  ( 0  0  1)

16 k-points: 4 x 4 x 1 Monkhorst-Pack grid
8 k-points in the irreducible part of the Brillouin zone
       k-points in crystal coordinates                weights
   0:     0.12500000   -0.37500000    0.00000000          2/16
   1:     0.12500000   -0.12500000    0.00000000          2/16
   2:     0.12500000    0.12500000    0.00000000          2/16
   3:     0.12500000    0.37500000    0.00000000          2/16
   4:     0.37500000   -0.37500000    0.00000000          2/16
   5:     0.37500000   -0.12500000    0.00000000          2/16
   6:     0.37500000    0.12500000    0.00000000          2/16
   7:     0.37500000    0.37500000    0.00000000          2/16

Wave functions: Uniform real-space grid
  Kinetic energy operator: 6*3+1=19 point O(h^6) finite-difference Laplacian
  ScaLapack parameters: grid=1x1, blocksize=None
  Wavefunction extrapolation:
    Improved wavefunction reuse through dual PAW basis 

Occupation numbers: Fermi-Dirac:
  width: 0.0500  # eV
 

Eigensolver
   Davidson(niter=2) 

Densities:
  Coarse grid: 60*60*156 grid
  Fine grid: 120*120*312 grid
  Total Charge: 0.000000 

Density mixing:
  Method: separate
  Backend: pulay
  Linear mixing parameter: 0.05
  old densities: 5
  Damping of long wavelength oscillations: 50 

Hamiltonian:
  XC and Coulomb potentials evaluated on a 120*120*312 grid
  Using the BEEF-vdW Exchange-Correlation functional
  Interpolation: tri-quintic (5. degree polynomial)
  Poisson solver: FastPoissonSolver using
    Stencil: 6*3+1=19 point O(h^6) finite-difference Laplacian
    FFT axes: [0, 1]
    FST axes: [2]

Dipole correction along z-axis 

XC parameters: BEEF-vdW with 2 nearest neighbor stencil

Memory estimate:
  Process memory now: 217.12 MiB
  Calculator: 411.72 MiB
    Density: 118.00 MiB
      Arrays: 36.75 MiB
      Localized functions: 67.24 MiB
      Mixer: 14.01 MiB
    Hamiltonian: 29.35 MiB
      Arrays: 24.03 MiB
      XC: 0.00 MiB
      Poisson: 0.00 MiB
      vbar: 5.32 MiB
    Wavefunctions: 264.37 MiB
      Arrays psit_nG: 123.27 MiB
      Eigensolver: 137.57 MiB
      Projections: 0.06 MiB
      Projectors: 3.47 MiB

Total number of cores used: 24
Parallelization over k-points: 8
Domain decomposition: 1 x 1 x 3

Number of atoms: 47
Number of atomic orbitals: 170
Number of bands in calculation: 44
Number of valence electrons: 66
Bands to converge: occupied

... initialized

Initializing position-dependent things.

Creating initial wave functions:
  44 bands from LCAO basis set

       .-----------------------.  
      /|                       |  
     / |                       |  
    /  |                       |  
   /   |                       |  
  /    |                       |  
 *     H  H                   H|  
 |     C                       |  
 |     |                       |  
 |     CH                   H H|  
 |     O                       |  
 |     |                       |  
 |     |Li      Li             |  
 |     |                       |  
 |   Li|     Li      Li        |  
 |     |  Li      Li      Li   |  
 | Li  |   Li      Li N        |  
 |     |Li      LiLi   NLi     |  
 |     |                       |  
 |   LLi     LLi     LLi       |  
 |     |  Li      Li      Li   |  
 | Li  |   Li      Li          |  
 |     |Li      Li      Li     |  
 Li    | Li      Li            |  
 |    Li      Li      Li       |  
 |     |                       |  
 |     |                       |  
 |     |                       |  
 |     |                       |  
 |     |                       |  
 |     |                       |  
 |     .-----------------------.  
 |    /                       /   
 |   /                       /    
 |  /                       /     
 | /                       /      
 |/                       /       
 *-----------------------*        

Positions:
   0 Li     1.617037    1.617037   10.000000    ( 0.0000,  0.0000,  0.0000)
   1 Li     4.851111    1.617037   10.000000    ( 0.0000,  0.0000,  0.0000)
   2 Li     8.085185    1.617037   10.000000    ( 0.0000,  0.0000,  0.0000)
   3 Li     1.617037    4.851111   10.000000    ( 0.0000,  0.0000,  0.0000)
   4 Li     4.851111    4.851111   10.000000    ( 0.0000,  0.0000,  0.0000)
   5 Li     8.085185    4.851111   10.000000    ( 0.0000,  0.0000,  0.0000)
   6 Li     1.617037    8.085185   10.000000    ( 0.0000,  0.0000,  0.0000)
   7 Li     4.851111    8.085185   10.000000    ( 0.0000,  0.0000,  0.0000)
   8 Li     8.085185    8.085185   10.000000    ( 0.0000,  0.0000,  0.0000)
   9 Li     0.000000    0.000000   11.617037    ( 0.0000,  0.0000,  0.0000)
  10 Li     3.234074    0.000000   11.617037    ( 0.0000,  0.0000,  0.0000)
  11 Li     6.468148    0.000000   11.617037    ( 0.0000,  0.0000,  0.0000)
  12 Li     0.000000    3.234074   11.617037    ( 0.0000,  0.0000,  0.0000)
  13 Li     3.234074    3.234074   11.617037    ( 0.0000,  0.0000,  0.0000)
  14 Li     6.468148    3.234074   11.617037    ( 0.0000,  0.0000,  0.0000)
  15 Li     0.000000    6.468148   11.617037    ( 0.0000,  0.0000,  0.0000)
  16 Li     3.234074    6.468148   11.617037    ( 0.0000,  0.0000,  0.0000)
  17 Li     6.468148    6.468148   11.617037    ( 0.0000,  0.0000,  0.0000)
  18 Li     1.744163    1.516005   13.567565    ( 0.0000,  0.0000,  0.0000)
  19 Li     4.949148    1.674391   13.481686    ( 0.0000,  0.0000,  0.0000)
  20 Li     8.219650    1.640212   13.544113    ( 0.0000,  0.0000,  0.0000)
  21 Li     1.626785    4.773899   13.487247    ( 0.0000,  0.0000,  0.0000)
  22 Li     4.906630    4.901990   13.489510    ( 0.0000,  0.0000,  0.0000)
  23 Li     8.072327    4.858691   13.456626    ( 0.0000,  0.0000,  0.0000)
  24 Li     1.731442    8.043061   13.435836    ( 0.0000,  0.0000,  0.0000)
  25 Li     4.937333    8.164217   13.479501    ( 0.0000,  0.0000,  0.0000)
  26 Li     8.127600    8.111488   13.466201    ( 0.0000,  0.0000,  0.0000)
  27 Li     0.305813   -0.269225   15.603088    ( 0.0000,  0.0000,  0.0000)
  28 Li     3.699062   -0.092108   15.524186    ( 0.0000,  0.0000,  0.0000)
  29 Li     6.898226    0.356020   15.489405    ( 0.0000,  0.0000,  0.0000)
  30 Li     0.030887    2.993986   15.520037    ( 0.0000,  0.0000,  0.0000)
  31 Li     3.321231    3.272414   15.423084    ( 0.0000,  0.0000,  0.0000)
  32 Li     6.601711    3.377637   15.457837    ( 0.0000,  0.0000,  0.0000)
  33 Li     0.017562    6.266500   15.323660    ( 0.0000,  0.0000,  0.0000)
  34 Li     3.200578    6.447062   15.396356    ( 0.0000,  0.0000,  0.0000)
  35 Li     6.386632    6.703759   15.450023    ( 0.0000,  0.0000,  0.0000)
  36 O      9.912131    8.999818   17.556041    ( 0.0000,  0.0000,  0.0000)
  37 C      9.953150    8.082086   18.669883    ( 0.0000,  0.0000,  0.0000)
  38 C     10.087253    8.839887   19.982898    ( 0.0000,  0.0000,  0.0000)
  39 H      9.046696    7.461229   18.660844    ( 0.0000,  0.0000,  0.0000)
  40 H     10.805078    7.427303   18.469982    ( 0.0000,  0.0000,  0.0000)
  41 H     10.084380    8.145763   20.823217    ( 0.0000,  0.0000,  0.0000)
  42 H     11.014923    9.417535   20.001762    ( 0.0000,  0.0000,  0.0000)
  43 H      9.236448    9.517168   20.107366    ( 0.0000,  0.0000,  0.0000)
  44 H      9.175613    9.612329   17.700737    ( 0.0000,  0.0000,  0.0000)
  45 N      8.796533   10.879462   15.545294    ( 0.0000,  0.0000,  0.0000)
  46 N      7.943183   11.812803   15.580068    ( 0.0000,  0.0000,  0.0000)

Unit cell:
           periodic     x           y           z      points  spacing
  1. axis:    yes    9.702222    0.000000    0.000000    60     0.1617
  2. axis:    yes    0.000000    9.702222    0.000000    60     0.1617
  3. axis:    no     0.000000    0.000000   24.851111   156     0.1593

  Lengths:   9.702222   9.702222  24.851111
  Angles:   90.000000  90.000000  90.000000

Effective grid spacing dv^(1/3) = 0.1609

     iter     time        total  log10-change:
                         energy  eigst   dens
iter:   1 17:09:51  -309.245858  +1.06
iter:   2 17:12:28  -309.862667  +0.38  -1.75
iter:   3 17:15:15  -310.014480  -0.11  -2.02
iter:   4 17:17:43  -310.073502  -0.49  -2.26
Writing to output.gpw (mode='')

iter:   5 17:20:16  -310.100649  -0.82  -2.45
iter:   6 17:22:48  -310.114366  -1.12  -2.57
iter:   7 17:25:18  -310.122108c -1.34  -2.69
iter:   8 17:27:58  -310.127183c -1.54  -3.00
iter:   9 17:30:28  -310.130447c -1.76  -3.18
Writing to output.gpw (mode='')

iter:  10 17:33:01  -310.132722c -1.92  -3.09
iter:  11 17:35:35  -310.134706c -2.07  -3.12
iter:  12 17:38:08  -310.135741c -2.29  -3.16
iter:  13 17:40:44  -310.136451c -2.40  -3.22
iter:  14 17:43:12  -310.136980c -2.55  -3.39
Writing to output.gpw (mode='')

iter:  15 17:45:38  -310.137374c -2.64  -3.48
iter:  16 17:48:09  -310.137668c -2.77  -3.65
iter:  17 17:50:41  -310.137913c -2.97  -3.59
iter:  18 17:53:24  -310.138085c -3.13  -3.60
iter:  19 17:55:54  -310.138227c -3.25  -3.54
Writing to output.gpw (mode='')

iter:  20 17:58:19  -310.138331c -3.40  -3.43
iter:  21 18:00:50  -310.138392c -3.49  -3.42
iter:  22 18:03:28  -310.138425c -3.66  -3.41
iter:  23 18:06:04  -310.138451c -3.64  -3.43
iter:  24 18:08:40  -310.138475c -3.94  -3.44
Writing to output.gpw (mode='')

iter:  25 18:11:12  -310.138497c -4.13  -3.35
iter:  26 18:13:37  -310.138550c -3.79  -3.34
iter:  27 18:16:16  -310.138515c -4.35  -3.24
iter:  28 18:19:00  -310.138493c -4.46  -3.38
iter:  29 18:21:30  -310.138509c -4.56  -3.45
Writing to output.gpw (mode='')

iter:  30 18:24:02  -310.138508c -4.28  -3.42
iter:  31 18:26:35  -310.138505c -4.73  -3.56
iter:  32 18:29:09  -310.138496c -4.63  -3.59
iter:  33 18:31:53  -310.138507c -4.66  -3.78
iter:  34 18:34:36  -310.138497c -5.01  -3.81
Writing to output.gpw (mode='')

iter:  35 18:37:09  -310.138505c -4.99  -3.88
iter:  36 18:39:55  -310.138508c -5.20  -4.16c
iter:  37 18:42:33  -310.138510c -5.33  -4.24c
iter:  38 18:45:14  -310.138509c -5.53  -4.30c
iter:  39 18:47:52  -310.138512c -5.63  -4.41c
Writing to output.gpw (mode='')

iter:  40 18:50:34  -310.138514c -5.65  -4.52c
iter:  41 18:53:06  -310.138516c -5.83  -4.60c
iter:  42 18:55:40  -310.138516c -6.08  -4.61c
iter:  43 18:58:13  -310.138515c -6.19  -4.64c
iter:  44 19:00:36  -310.138516c -6.20  -4.72c
Writing to output.gpw (mode='')

iter:  45 19:03:11  -310.138515c -6.32  -4.96c
iter:  46 19:05:56  -310.138514c -6.23  -5.09c
iter:  47 19:08:29  -310.138514c -6.34  -5.17c
iter:  48 19:11:04  -310.138514c -6.33  -5.17c
iter:  49 19:13:34  -310.138515c -6.60  -5.18c
Writing to output.gpw (mode='')

iter:  50 19:16:16  -310.138514c -6.70  -5.27c
iter:  51 19:19:04  -310.138515c -6.73  -5.42c
iter:  52 19:21:42  -310.138515c -6.87  -5.38c
iter:  53 19:24:19  -310.138515c -6.97  -5.37c
iter:  54 19:26:56  -310.138515c -6.88  -5.43c
Writing to output.gpw (mode='')

iter:  55 19:29:29  -310.138515c -6.91  -5.47c
iter:  56 19:32:04  -310.138515c -6.95  -5.47c
iter:  57 19:34:36  -310.138515c -7.28  -5.45c
iter:  58 19:37:16  -310.138515c -7.47c -5.42c

Converged after 58 iterations.

Dipole moment: (-31.804525, 9.376165, 0.367274) |e|*Ang

Energy contributions relative to reference atoms: (reference = -14434.854043)

Kinetic:       +148.487047
Potential:     -140.707200
External:        +0.000000
XC:            -318.613685
Entropy (-ST):   -0.160190
Local:           +0.775418
--------------------------
Free energy:   -310.218610
Extrapolated:  -310.138515

Dipole-layer corrected work functions: 3.393863, 2.687837 eV

Showing only first 2 kpts
 Kpt  Band  Eigenvalues  Occupancy
  0    31     -3.25204    1.97114
  0    32     -3.06141    1.20277
  0    33     -3.02388    0.83192
  0    34     -2.92663    0.18485

  1    31     -3.34512    1.99546
  1    32     -2.96608    0.36624
  1    33     -2.95686    0.31427
  1    34     -2.90626    0.12693


Fermi level: -3.04085

No gap
Writing to output.gpw (mode='')


Forces in eV/Ang:
  0 Li   -0.01977   -0.00395   -0.29254
  1 Li   -0.00434    0.00765   -0.29259
  2 Li   -0.00459   -0.00267   -0.25567
  3 Li    0.00181    0.01095   -0.29343
  4 Li   -0.01861    0.00265   -0.28849
  5 Li   -0.01276   -0.00954   -0.28995
  6 Li    0.00050   -0.01075   -0.29422
  7 Li   -0.01812   -0.01264   -0.27635
  8 Li   -0.00069    0.00490   -0.29745
  9 Li    0.03121    0.03033    0.30565
 10 Li    0.06620    0.03471    0.24065
 11 Li    0.06357    0.05656    0.26332
 12 Li    0.04285   -0.02664    0.24910
 13 Li    0.02022   -0.01935    0.30329
 14 Li    0.07986   -0.03923    0.30476
 15 Li    0.01869   -0.00837    0.30618
 16 Li    0.07179   -0.02512    0.26637
 17 Li    0.02335    0.03487    0.24917
 18 Li   -0.03811   -0.00232   -0.02655
 19 Li   -0.00873   -0.01690    0.01694
 20 Li    0.01496    0.01744   -0.00620
 21 Li   -0.00043   -0.01687   -0.00786
 22 Li   -0.02357   -0.00050   -0.01302
 23 Li   -0.00370   -0.00671    0.00588
 24 Li   -0.02163   -0.00396    0.00894
 25 Li   -0.00562    0.00299   -0.01715
 26 Li    0.01676   -0.00196    0.01879
 27 Li   -0.01048    0.05787    0.02242
 28 Li   -0.05006    0.01972   -0.03244
 29 Li    0.02282    0.02236    0.01697
 30 Li    0.00830    0.05570   -0.00456
 31 Li   -0.01922    0.01656    0.00509
 32 Li    0.03149   -0.02755    0.02340
 33 Li   -0.00101   -0.01912   -0.00343
 34 Li    0.02668   -0.01682   -0.00208
 35 Li   -0.00282   -0.02192   -0.01276
 36 O    -0.00507    0.04266   -0.01503
 37 C    -0.04152   -0.00544   -0.02113
 38 C     0.02363   -0.10782   -0.12338
 39 H     0.03954    0.01876    0.01449
 40 H     0.01358    0.07085    0.07882
 41 H     0.02463   -0.05517    0.07261
 42 H    -0.09409    0.00295    0.01926
 43 H     0.07554    0.02511    0.04565
 44 H    -0.03721    0.05379    0.00006
 45 N    -0.10594    0.02846    0.11761
 46 N    -0.14574   -0.14029   -0.06486

System changes: positions 

Initializing position-dependent things.

Density initialized from wave functions
       .-----------------------.  
      /|                       |  
     / |                       |  
    /  |                       |  
   /   |                       |  
  /    |                       |  
 *     H  H                   H|  
 |     C                       |  
 |     |                       |  
 |     CH                   H H|  
 |     O                       |  
 |     |                       |  
 |     |Li      Li             |  
 |     |                       |  
 |   Li|     Li      Li        |  
 |     |  Li      Li      Li   |  
 | Li  |   Li      Li N        |  
 |     |Li      LiLi   NLi     |  
 |     |                       |  
 |   LLi     LLi     LLi       |  
 |     |  Li      Li      Li   |  
 | Li  |   Li      Li          |  
 |     |Li      Li      Li     |  
 Li    | Li      Li            |  
 |    Li      Li      Li       |  
 |     |                       |  
 |     |                       |  
 |     |                       |  
 |     |                       |  
 |     |                       |  
 |     |                       |  
 |     .-----------------------.  
 |    /                       /   
 |   /                       /    
 |  /                       /     
 | /                       /      
 |/                       /       
 *-----------------------*        

Positions:
   0 Li     1.617037    1.617037   10.000000    ( 0.0000,  0.0000,  0.0000)
   1 Li     4.851111    1.617037   10.000000    ( 0.0000,  0.0000,  0.0000)
   2 Li     8.085185    1.617037   10.000000    ( 0.0000,  0.0000,  0.0000)
   3 Li     1.617037    4.851111   10.000000    ( 0.0000,  0.0000,  0.0000)
   4 Li     4.851111    4.851111   10.000000    ( 0.0000,  0.0000,  0.0000)
   5 Li     8.085185    4.851111   10.000000    ( 0.0000,  0.0000,  0.0000)
   6 Li     1.617037    8.085185   10.000000    ( 0.0000,  0.0000,  0.0000)
   7 Li     4.851111    8.085185   10.000000    ( 0.0000,  0.0000,  0.0000)
   8 Li     8.085185    8.085185   10.000000    ( 0.0000,  0.0000,  0.0000)
   9 Li     0.000000    0.000000   11.617037    ( 0.0000,  0.0000,  0.0000)
  10 Li     3.234074    0.000000   11.617037    ( 0.0000,  0.0000,  0.0000)
  11 Li     6.468148    0.000000   11.617037    ( 0.0000,  0.0000,  0.0000)
  12 Li     0.000000    3.234074   11.617037    ( 0.0000,  0.0000,  0.0000)
  13 Li     3.234074    3.234074   11.617037    ( 0.0000,  0.0000,  0.0000)
  14 Li     6.468148    3.234074   11.617037    ( 0.0000,  0.0000,  0.0000)
  15 Li     0.000000    6.468148   11.617037    ( 0.0000,  0.0000,  0.0000)
  16 Li     3.234074    6.468148   11.617037    ( 0.0000,  0.0000,  0.0000)
  17 Li     6.468148    6.468148   11.617037    ( 0.0000,  0.0000,  0.0000)
  18 Li     1.732976    1.514040   13.569186    ( 0.0000,  0.0000,  0.0000)
  19 Li     4.941260    1.677392   13.479223    ( 0.0000,  0.0000,  0.0000)
  20 Li     8.219039    1.639098   13.547724    ( 0.0000,  0.0000,  0.0000)
  21 Li     1.626853    4.774054   13.490496    ( 0.0000,  0.0000,  0.0000)
  22 Li     4.909054    4.897530   13.493225    ( 0.0000,  0.0000,  0.0000)
  23 Li     8.071516    4.856282   13.455039    ( 0.0000,  0.0000,  0.0000)
  24 Li     1.726925    8.044520   13.434565    ( 0.0000,  0.0000,  0.0000)
  25 Li     4.937535    8.165227   13.479601    ( 0.0000,  0.0000,  0.0000)
  26 Li     8.134327    8.109711   13.467019    ( 0.0000,  0.0000,  0.0000)
  27 Li     0.308096   -0.265334   15.604239    ( 0.0000,  0.0000,  0.0000)
  28 Li     3.698759   -0.089396   15.520121    ( 0.0000,  0.0000,  0.0000)
  29 Li     6.898926    0.353875   15.487951    ( 0.0000,  0.0000,  0.0000)
  30 Li     0.030488    2.989539   15.517039    ( 0.0000,  0.0000,  0.0000)
  31 Li     3.318463    3.268305   15.425731    ( 0.0000,  0.0000,  0.0000)
  32 Li     6.600217    3.376747   15.466816    ( 0.0000,  0.0000,  0.0000)
  33 Li     0.013194    6.258910   15.326890    ( 0.0000,  0.0000,  0.0000)
  34 Li     3.202145    6.449649   15.391024    ( 0.0000,  0.0000,  0.0000)
  35 Li     6.390121    6.703779   15.443685    ( 0.0000,  0.0000,  0.0000)
  36 O      9.909768    9.003211   17.552686    ( 0.0000,  0.0000,  0.0000)
  37 C      9.953545    8.086011   18.664863    ( 0.0000,  0.0000,  0.0000)
  38 C     10.087065    8.834822   19.980168    ( 0.0000,  0.0000,  0.0000)
  39 H      9.047303    7.466540   18.656495    ( 0.0000,  0.0000,  0.0000)
  40 H     10.807270    7.436369   18.459129    ( 0.0000,  0.0000,  0.0000)
  41 H     10.088963    8.140348   20.820445    ( 0.0000,  0.0000,  0.0000)
  42 H     11.012809    9.413432   20.000105    ( 0.0000,  0.0000,  0.0000)
  43 H      9.240104    9.515477   20.108563    ( 0.0000,  0.0000,  0.0000)
  44 H      9.171100    9.614708   17.692668    ( 0.0000,  0.0000,  0.0000)
  45 N      8.794538   10.877136   15.553565    ( 0.0000,  0.0000,  0.0000)
  46 N      7.940558   11.808123   15.582532    ( 0.0000,  0.0000,  0.0000)

Unit cell:
           periodic     x           y           z      points  spacing
  1. axis:    yes    9.702222    0.000000    0.000000    60     0.1617
  2. axis:    yes    0.000000    9.702222    0.000000    60     0.1617
  3. axis:    no     0.000000    0.000000   24.851111   156     0.1593

  Lengths:   9.702222   9.702222  24.851111
  Angles:   90.000000  90.000000  90.000000

Effective grid spacing dv^(1/3) = 0.1609

     iter     time        total  log10-change:
                         energy  eigst   dens
iter:   1 19:40:43  -310.147077  -1.68
iter:   2 19:43:14  -310.144517  -2.40  -2.20
iter:   3 19:45:43  -310.143136c -3.04  -2.39
iter:   4 19:48:17  -310.142713c -3.35  -2.58
Writing to output.gpw (mode='')

iter:   5 19:50:54  -310.142182c -2.91  -2.72
iter:   6 19:53:29  -310.142230c -3.01  -2.96
iter:   7 19:56:09  -310.142143c -3.86  -2.95
iter:   8 19:58:44  -310.142156c -3.72  -3.24
iter:   9 20:01:15  -310.142148c -4.38  -3.23
Writing to output.gpw (mode='')

iter:  10 20:03:59  -310.142115c -4.16  -3.28
iter:  11 20:06:42  -310.142143c -4.46  -3.46
iter:  12 20:09:16  -310.142137c -4.54  -3.48
iter:  13 20:11:53  -310.142136c -5.12  -3.74
iter:  14 20:14:28  -310.142128c -4.90  -3.75
Writing to output.gpw (mode='')

iter:  15 20:17:11  -310.142134c -4.88  -3.75
iter:  16 20:19:51  -310.142130c -5.78  -4.00c
iter:  17 20:22:32  -310.142131c -5.37  -4.14c
iter:  18 20:25:07  -310.142131c -5.89  -4.07c
iter:  19 20:27:43  -310.142134c -5.64  -4.23c
Writing to output.gpw (mode='')

iter:  20 20:30:20  -310.142131c -6.28  -4.34c
iter:  21 20:33:04  -310.142131c -6.15  -4.38c
iter:  22 20:35:40  -310.142132c -6.15  -4.47c
iter:  23 20:38:10  -310.142131c -6.91  -4.75c
iter:  24 20:40:53  -310.142131c -6.95  -4.85c
Writing to output.gpw (mode='')

iter:  25 20:43:36  -310.142131c -7.04  -4.89c
iter:  26 20:46:30  -310.142131c -7.20  -5.01c
iter:  27 20:49:08  -310.142131c -7.24  -5.07c
iter:  28 20:51:43  -310.142131c -7.47c -5.14c

Converged after 28 iterations.

Dipole moment: (-31.754051, 9.245875, 0.365478) |e|*Ang

Energy contributions relative to reference atoms: (reference = -14434.854043)

Kinetic:       +148.915461
Potential:     -141.031638
External:        +0.000000
XC:            -318.721893
Entropy (-ST):   -0.159898
Local:           +0.775888
--------------------------
Free energy:   -310.222080
Extrapolated:  -310.142131

Dipole-layer corrected work functions: 3.394058, 2.691483 eV

Showing only first 2 kpts
 Kpt  Band  Eigenvalues  Occupancy
  0    31     -3.25386    1.97108
  0    32     -3.06413    1.21043
  0    33     -3.02540    0.82800
  0    34     -2.92795    0.18283

  1    31     -3.34705    1.99546
  1    32     -2.96734    0.36229
  1    33     -2.95786    0.30940
  1    34     -2.90698    0.12410


Fermi level: -3.04277

No gap
Writing to output.gpw (mode='')


Forces in eV/Ang:
  0 Li   -0.01934   -0.00384   -0.29326
  1 Li   -0.00430    0.00776   -0.29246
  2 Li   -0.00390   -0.00234   -0.25613
  3 Li    0.00173    0.01093   -0.29406
  4 Li   -0.01848    0.00262   -0.28814
  5 Li   -0.01282   -0.00911   -0.29035
  6 Li    0.00026   -0.01066   -0.29400
  7 Li   -0.01806   -0.01249   -0.27728
  8 Li   -0.00061    0.00471   -0.29757
  9 Li    0.02824    0.03232    0.30333
 10 Li    0.06331    0.03549    0.24273
 11 Li    0.06432    0.05692    0.26730
 12 Li    0.04191   -0.02758    0.25124
 13 Li    0.01601   -0.01873    0.30381
 14 Li    0.07974   -0.04166    0.30334
 15 Li    0.01921   -0.01139    0.30455
 16 Li    0.07215   -0.02624    0.27082
 17 Li    0.02349    0.03494    0.25224
 18 Li   -0.02443   -0.00042   -0.03279
 19 Li    0.00082   -0.01981    0.01993
 20 Li    0.01387    0.01657   -0.01221
 21 Li   -0.00143   -0.01966   -0.01251
 22 Li   -0.02617    0.00273   -0.01722
 23 Li   -0.00256   -0.00779    0.00907
 24 Li   -0.01873   -0.00589    0.01108
 25 Li   -0.00430    0.00214   -0.02105
 26 Li    0.01180   -0.00017    0.01670
 27 Li   -0.00254    0.04256    0.01932
 28 Li   -0.05153    0.01930   -0.03042
 29 Li    0.00843    0.01099    0.01831
 30 Li    0.00102    0.05932    0.00206
 31 Li   -0.02139    0.01935    0.00400
 32 Li    0.03928   -0.03598    0.01425
 33 Li    0.00250   -0.01413   -0.00381
 34 Li    0.02623   -0.01806    0.00102
 35 Li   -0.00453   -0.02267   -0.00911
 36 O    -0.01533    0.10475   -0.02219
 37 C    -0.05313   -0.04483   -0.03048
 38 C     0.06282   -0.03132   -0.08556
 39 H     0.02918   -0.02345    0.00137
 40 H     0.01361    0.02833    0.10211
 41 H     0.00207   -0.06145    0.04915
 42 H    -0.04773    0.02093    0.02083
 43 H     0.04518    0.00980    0.04988
 44 H    -0.03291    0.04147    0.01343
 45 N    -0.06323   -0.00955    0.08283
 46 N    -0.17537   -0.05985   -0.06449

System changes: positions 

Initializing position-dependent things.

Density initialized from wave functions
       .-----------------------.  
      /|                       |  
     / |                       |  
    /  |                       |  
   /   |                       |  
  /    |                       |  
 *     H  H                   H|  
 |     C                       |  
 |     |                       |  
 |     CH                   H H|  
 |     O                       |  
 |     |                       |  
 |     |Li      Li             |  
 |     |                       |  
 |   Li|     Li      Li        |  
 |     |  Li      Li      Li   |  
 | Li  |   Li      Li N        |  
 |     |Li      LiLi   NLi     |  
 |     |                       |  
 |   LLi     LLi     LLi       |  
 |     |  Li      Li      Li   |  
 | Li  |   Li      Li          |  
 |     |Li      Li      Li     |  
 Li    | Li      Li            |  
 |    Li      Li      Li       |  
 |     |                       |  
 |     |                       |  
 |     |                       |  
 |     |                       |  
 |     |                       |  
 |     |                       |  
 |     .-----------------------.  
 |    /                       /   
 |   /                       /    
 |  /                       /     
 | /                       /      
 |/                       /       
 *-----------------------*        

Positions:
   0 Li     1.617037    1.617037   10.000000    ( 0.0000,  0.0000,  0.0000)
   1 Li     4.851111    1.617037   10.000000    ( 0.0000,  0.0000,  0.0000)
   2 Li     8.085185    1.617037   10.000000    ( 0.0000,  0.0000,  0.0000)
   3 Li     1.617037    4.851111   10.000000    ( 0.0000,  0.0000,  0.0000)
   4 Li     4.851111    4.851111   10.000000    ( 0.0000,  0.0000,  0.0000)
   5 Li     8.085185    4.851111   10.000000    ( 0.0000,  0.0000,  0.0000)
   6 Li     1.617037    8.085185   10.000000    ( 0.0000,  0.0000,  0.0000)
   7 Li     4.851111    8.085185   10.000000    ( 0.0000,  0.0000,  0.0000)
   8 Li     8.085185    8.085185   10.000000    ( 0.0000,  0.0000,  0.0000)
   9 Li     0.000000    0.000000   11.617037    ( 0.0000,  0.0000,  0.0000)
  10 Li     3.234074    0.000000   11.617037    ( 0.0000,  0.0000,  0.0000)
  11 Li     6.468148    0.000000   11.617037    ( 0.0000,  0.0000,  0.0000)
  12 Li     0.000000    3.234074   11.617037    ( 0.0000,  0.0000,  0.0000)
  13 Li     3.234074    3.234074   11.617037    ( 0.0000,  0.0000,  0.0000)
  14 Li     6.468148    3.234074   11.617037    ( 0.0000,  0.0000,  0.0000)
  15 Li     0.000000    6.468148   11.617037    ( 0.0000,  0.0000,  0.0000)
  16 Li     3.234074    6.468148   11.617037    ( 0.0000,  0.0000,  0.0000)
  17 Li     6.468148    6.468148   11.617037    ( 0.0000,  0.0000,  0.0000)
  18 Li     1.718496    1.512455   13.572013    ( 0.0000,  0.0000,  0.0000)
  19 Li     4.929237    1.679038   13.476674    ( 0.0000,  0.0000,  0.0000)
  20 Li     8.211876    1.636358   13.543168    ( 0.0000,  0.0000,  0.0000)
  21 Li     1.626848    4.775418   13.492552    ( 0.0000,  0.0000,  0.0000)
  22 Li     4.909499    4.893149   13.496460    ( 0.0000,  0.0000,  0.0000)
  23 Li     8.069368    4.854353   13.454873    ( 0.0000,  0.0000,  0.0000)
  24 Li     1.723716    8.046010   13.432078    ( 0.0000,  0.0000,  0.0000)
  25 Li     4.936931    8.166767   13.481700    ( 0.0000,  0.0000,  0.0000)
  26 Li     8.138348    8.107906   13.466636    ( 0.0000,  0.0000,  0.0000)
  27 Li     0.304715   -0.260371   15.599496    ( 0.0000,  0.0000,  0.0000)
  28 Li     3.692994   -0.087186   15.519287    ( 0.0000,  0.0000,  0.0000)
  29 Li     6.892719    0.346879   15.477799    ( 0.0000,  0.0000,  0.0000)
  30 Li     0.023078    2.989103   15.504864    ( 0.0000,  0.0000,  0.0000)
  31 Li     3.312870    3.266034   15.427550    ( 0.0000,  0.0000,  0.0000)
  32 Li     6.594826    3.369852   15.472001    ( 0.0000,  0.0000,  0.0000)
  33 Li     0.010363    6.255066   15.326611    ( 0.0000,  0.0000,  0.0000)
  34 Li     3.204374    6.451386   15.388325    ( 0.0000,  0.0000,  0.0000)
  35 Li     6.392515    6.699222   15.439951    ( 0.0000,  0.0000,  0.0000)
  36 O      9.906310    9.006414   17.546090    ( 0.0000,  0.0000,  0.0000)
  37 C      9.954893    8.085589   18.655497    ( 0.0000,  0.0000,  0.0000)
  38 C     10.090423    8.825517   19.974208    ( 0.0000,  0.0000,  0.0000)
  39 H      9.052435    7.463625   18.648981    ( 0.0000,  0.0000,  0.0000)
  40 H     10.812316    7.443751   18.444074    ( 0.0000,  0.0000,  0.0000)
  41 H     10.094800    8.130874   20.814602    ( 0.0000,  0.0000,  0.0000)
  42 H     11.014928    9.404333   19.994512    ( 0.0000,  0.0000,  0.0000)
  43 H      9.245284    9.507206   20.109554    ( 0.0000,  0.0000,  0.0000)
  44 H      9.167159    9.618940   17.685017    ( 0.0000,  0.0000,  0.0000)
  45 N      8.786986   10.869628   15.554389    ( 0.0000,  0.0000,  0.0000)
  46 N      7.933025   11.799790   15.577501    ( 0.0000,  0.0000,  0.0000)

Unit cell:
           periodic     x           y           z      points  spacing
  1. axis:    yes    9.702222    0.000000    0.000000    60     0.1617
  2. axis:    yes    0.000000    9.702222    0.000000    60     0.1617
  3. axis:    no     0.000000    0.000000   24.851111   156     0.1593

  Lengths:   9.702222   9.702222  24.851111
  Angles:   90.000000  90.000000  90.000000

Effective grid spacing dv^(1/3) = 0.1609

     iter     time        total  log10-change:
                         energy  eigst   dens
iter:   1 20:55:02  -310.147127  -1.35
iter:   2 20:57:37  -310.147235  -2.18  -2.37
iter:   3 21:00:15  -310.147003c -2.73  -2.44
iter:   4 21:02:52  -310.146598c -3.16  -2.53
Writing to output.gpw (mode='')

iter:   5 21:05:29  -310.146078c -2.51  -2.59
iter:   6 21:08:04  -310.146141c -2.95  -2.80
iter:   7 21:10:44  -310.145750c -3.49  -2.81
iter:   8 21:13:12  -310.145889c -3.34  -3.07
iter:   9 21:15:42  -310.145741c -4.13  -3.16
Writing to output.gpw (mode='')

iter:  10 21:18:21  -310.145689c -4.17  -3.27
iter:  11 21:20:56  -310.145799c -4.16  -3.32
iter:  12 21:23:47  -310.145737c -4.34  -3.42
iter:  13 21:26:25  -310.145723c -4.58  -3.63
iter:  14 21:29:04  -310.145739c -5.01  -3.72
Writing to output.gpw (mode='')

iter:  15 21:31:48  -310.145742c -5.17  -3.82
iter:  16 21:34:28  -310.145737c -5.40  -3.87
iter:  17 21:37:06  -310.145728c -5.41  -4.01c
iter:  18 21:39:36  -310.145725c -5.59  -4.19c
iter:  19 21:42:09  -310.145725c -6.10  -4.31c
Writing to output.gpw (mode='')

iter:  20 21:44:49  -310.145724c -6.15  -4.39c
iter:  21 21:47:27  -310.145723c -6.34  -4.47c
iter:  22 21:50:11  -310.145727c -6.37  -4.55c
iter:  23 21:52:57  -310.145728c -6.40  -4.57c
iter:  24 21:55:36  -310.145728c -7.03  -4.72c
Writing to output.gpw (mode='')

iter:  25 21:58:11  -310.145727c -6.93  -4.79c
iter:  26 22:00:54  -310.145725c -6.98  -4.88c
iter:  27 22:03:25  -310.145724c -7.12  -5.00c
iter:  28 22:05:59  -310.145724c -7.33  -5.09c
iter:  29 22:08:31  -310.145725c -7.51c -5.13c

Converged after 29 iterations.

Dipole moment: (-31.563741, 9.032952, 0.364116) |e|*Ang

Energy contributions relative to reference atoms: (reference = -14434.854043)

Kinetic:       +149.168109
Potential:     -141.220134
External:        +0.000000
XC:            -318.790412
Entropy (-ST):   -0.159750
Local:           +0.776586
--------------------------
Free energy:   -310.225600
Extrapolated:  -310.145725

Dipole-layer corrected work functions: 3.394276, 2.694320 eV

Showing only first 2 kpts
 Kpt  Band  Eigenvalues  Occupancy
  0    31     -3.25581    1.97132
  0    32     -3.06591    1.21283
  0    33     -3.02632    0.82218
  0    34     -2.92917    0.18183

  1    31     -3.34858    1.99546
  1    32     -2.96848    0.35997
  1    33     -2.95906    0.30769
  1    34     -2.90829    0.12358


Fermi level: -3.04430

No gap
Writing to output.gpw (mode='')


Forces in eV/Ang:
  0 Li   -0.01882   -0.00381   -0.29357
  1 Li   -0.00364    0.00795   -0.29259
  2 Li   -0.00309   -0.00216   -0.25630
  3 Li    0.00202    0.01106   -0.29483
  4 Li   -0.01822    0.00261   -0.28796
  5 Li   -0.01300   -0.00893   -0.29040
  6 Li    0.00039   -0.01063   -0.29383
  7 Li   -0.01792   -0.01232   -0.27808
  8 Li   -0.00050    0.00489   -0.29775
  9 Li    0.02549    0.03240    0.30055
 10 Li    0.05910    0.03654    0.24437
 11 Li    0.06118    0.05577    0.26873
 12 Li    0.04091   -0.02676    0.25365
 13 Li    0.01015   -0.01823    0.30385
 14 Li    0.07664   -0.04303    0.30164
 15 Li    0.01898   -0.01408    0.30358
 16 Li    0.07298   -0.02715    0.27375
 17 Li    0.02185    0.03486    0.25537
 18 Li   -0.00921    0.00113   -0.04194
 19 Li    0.00952   -0.02225    0.02169
 20 Li    0.01609    0.01517   -0.00743
 21 Li   -0.00226   -0.02245   -0.01702
 22 Li   -0.02785    0.00589   -0.02146
 23 Li   -0.00139   -0.00907    0.00973
 24 Li   -0.01576   -0.00805    0.01426
 25 Li   -0.00287   -0.00020   -0.02468
 26 Li    0.00832   -0.00017    0.01398
 27 Li    0.01808    0.00795    0.02334
 28 Li   -0.05245    0.01917   -0.03042
 29 Li    0.00199    0.00596    0.02416
 30 Li   -0.01691    0.04219    0.01256
 31 Li   -0.02427    0.02072    0.00352
 32 Li    0.03651   -0.03197    0.00412
 33 Li    0.00561   -0.01046   -0.00282
 34 Li    0.02518   -0.01818    0.00187
 35 Li   -0.00555   -0.02272   -0.00774
 36 O    -0.05139    0.13607   -0.01436
 37 C    -0.01508   -0.02161   -0.03735
 38 C     0.05199    0.03824   -0.04354
 39 H    -0.00979   -0.05603   -0.01602
 40 H     0.01974   -0.00665    0.09724
 41 H     0.00294   -0.07928    0.02012
 42 H    -0.01771    0.03598    0.02413
 43 H     0.04478    0.00198    0.04252
 44 H    -0.00630    0.00157    0.02884
 45 N    -0.07789    0.01275    0.03695
 46 N    -0.24172   -0.01742   -0.04907

System changes: positions 

Initializing position-dependent things.

Density initialized from wave functions
       .-----------------------.  
      /|                       |  
     / |                       |  
    /  |                       |  
   /   |                       |  
  /    |                       |  
 *     H  H                   H|  
 |     C                       |  
 |     |                       |  
 |     CH                   H H|  
 |     O                       |  
 |     |                       |  
 |     |Li      Li             |  
 |     |                       |  
 |   Li|     Li      Li        |  
 |     |  Li      Li      Li   |  
 | Li  |   Li      Li N        |  
 |     |Li      Li     NLi     |  
 |     |          Li           |  
 |   LLi     LLi     LLi       |  
 |     |  Li      Li      Li   |  
 | Li  |   Li      Li          |  
 |     |Li      Li      Li     |  
 Li    | Li      Li            |  
 |    Li      Li      Li       |  
 |     |                       |  
 |     |                       |  
 |     |                       |  
 |     |                       |  
 |     |                       |  
 |     |                       |  
 |     .-----------------------.  
 |    /                       /   
 |   /                       /    
 |  /                       /     
 | /                       /      
 |/                       /       
 *-----------------------*        

Positions:
   0 Li     1.617037    1.617037   10.000000    ( 0.0000,  0.0000,  0.0000)
   1 Li     4.851111    1.617037   10.000000    ( 0.0000,  0.0000,  0.0000)
   2 Li     8.085185    1.617037   10.000000    ( 0.0000,  0.0000,  0.0000)
   3 Li     1.617037    4.851111   10.000000    ( 0.0000,  0.0000,  0.0000)
   4 Li     4.851111    4.851111   10.000000    ( 0.0000,  0.0000,  0.0000)
   5 Li     8.085185    4.851111   10.000000    ( 0.0000,  0.0000,  0.0000)
   6 Li     1.617037    8.085185   10.000000    ( 0.0000,  0.0000,  0.0000)
   7 Li     4.851111    8.085185   10.000000    ( 0.0000,  0.0000,  0.0000)
   8 Li     8.085185    8.085185   10.000000    ( 0.0000,  0.0000,  0.0000)
   9 Li     0.000000    0.000000   11.617037    ( 0.0000,  0.0000,  0.0000)
  10 Li     3.234074    0.000000   11.617037    ( 0.0000,  0.0000,  0.0000)
  11 Li     6.468148    0.000000   11.617037    ( 0.0000,  0.0000,  0.0000)
  12 Li     0.000000    3.234074   11.617037    ( 0.0000,  0.0000,  0.0000)
  13 Li     3.234074    3.234074   11.617037    ( 0.0000,  0.0000,  0.0000)
  14 Li     6.468148    3.234074   11.617037    ( 0.0000,  0.0000,  0.0000)
  15 Li     0.000000    6.468148   11.617037    ( 0.0000,  0.0000,  0.0000)
  16 Li     3.234074    6.468148   11.617037    ( 0.0000,  0.0000,  0.0000)
  17 Li     6.468148    6.468148   11.617037    ( 0.0000,  0.0000,  0.0000)
  18 Li     1.696015    1.508591   13.574683    ( 0.0000,  0.0000,  0.0000)
  19 Li     4.902952    1.681512   13.469033    ( 0.0000,  0.0000,  0.0000)
  20 Li     8.190890    1.629270   13.525048    ( 0.0000,  0.0000,  0.0000)
  21 Li     1.627632    4.778156   13.493833    ( 0.0000,  0.0000,  0.0000)
  22 Li     4.907615    4.888648   13.500900    ( 0.0000,  0.0000,  0.0000)
  23 Li     8.064231    4.850174   13.452954    ( 0.0000,  0.0000,  0.0000)
  24 Li     1.723403    8.045493   13.426417    ( 0.0000,  0.0000,  0.0000)
  25 Li     4.936467    8.168349   13.486979    ( 0.0000,  0.0000,  0.0000)
  26 Li     8.141906    8.100505   13.462330    ( 0.0000,  0.0000,  0.0000)
  27 Li     0.291243   -0.260313   15.584880    ( 0.0000,  0.0000,  0.0000)
  28 Li     3.683533   -0.085248   15.520878    ( 0.0000,  0.0000,  0.0000)
  29 Li     6.876800    0.328346   15.451243    ( 0.0000,  0.0000,  0.0000)
  30 Li     0.004042    2.983606   15.476505    ( 0.0000,  0.0000,  0.0000)
  31 Li     3.298140    3.262982   15.429291    ( 0.0000,  0.0000,  0.0000)
  32 Li     6.575015    3.352811   15.471649    ( 0.0000,  0.0000,  0.0000)
  33 Li     0.006525    6.246490   15.321759    ( 0.0000,  0.0000,  0.0000)
  34 Li     3.206090    6.456291   15.384619    ( 0.0000,  0.0000,  0.0000)
  35 Li     6.396915    6.690638   15.435013    ( 0.0000,  0.0000,  0.0000)
  36 O      9.900443    9.012366   17.529058    ( 0.0000,  0.0000,  0.0000)
  37 C      9.960693    8.081809   18.630949    ( 0.0000,  0.0000,  0.0000)
  38 C     10.100720    8.805270   19.957791    ( 0.0000,  0.0000,  0.0000)
  39 H      9.064823    7.453351   18.626800    ( 0.0000,  0.0000,  0.0000)
  40 H     10.824552    7.453554   18.407274    ( 0.0000,  0.0000,  0.0000)
  41 H     10.110999    8.105244   20.794456    ( 0.0000,  0.0000,  0.0000)
  42 H     11.023810    9.384713   19.978758    ( 0.0000,  0.0000,  0.0000)
  43 H      9.255933    9.484683   20.106743    ( 0.0000,  0.0000,  0.0000)
  44 H      9.158226    9.622375   17.670695    ( 0.0000,  0.0000,  0.0000)
  45 N      8.766533   10.854330   15.539521    ( 0.0000,  0.0000,  0.0000)
  46 N      7.912721   11.783709   15.559005    ( 0.0000,  0.0000,  0.0000)

Unit cell:
           periodic     x           y           z      points  spacing
  1. axis:    yes    9.702222    0.000000    0.000000    60     0.1617
  2. axis:    yes    0.000000    9.702222    0.000000    60     0.1617
  3. axis:    no     0.000000    0.000000   24.851111   156     0.1593

  Lengths:   9.702222   9.702222  24.851111
  Angles:   90.000000  90.000000  90.000000

Effective grid spacing dv^(1/3) = 0.1609

     iter     time        total  log10-change:
                         energy  eigst   dens
iter:   1 22:11:51  -310.199679  -0.56
iter:   2 22:14:23  -310.170576  -1.30  -1.73
iter:   3 22:16:54  -310.162411  -1.97  -1.91
iter:   4 22:19:32  -310.158801c -2.48  -2.07
Writing to output.gpw (mode='')

iter:   5 22:22:14  -310.150394c -1.84  -2.14
iter:   6 22:24:57  -310.150603c -2.25  -2.49
iter:   7 22:27:33  -310.149344c -2.66  -2.49
iter:   8 22:30:12  -310.149714c -2.32  -2.68
iter:   9 22:32:48  -310.149932c -2.81  -2.79
Writing to output.gpw (mode='')

iter:  10 22:35:32  -310.150170c -2.86  -2.75
iter:  11 22:37:58  -310.149919c -3.38  -2.73
iter:  12 22:40:36  -310.149258c -3.65  -2.76
iter:  13 22:43:13  -310.149167c -3.84  -2.95
iter:  14 22:45:44  -310.149167c -3.72  -2.98
Writing to output.gpw (mode='')

iter:  15 22:48:24  -310.149239c -4.02  -3.08
iter:  16 22:51:03  -310.149181c -4.15  -3.14
iter:  17 22:53:42  -310.149192c -4.15  -3.31
iter:  18 22:56:21  -310.149158c -4.36  -3.49
iter:  19 22:59:00  -310.149192c -4.64  -3.52
Writing to output.gpw (mode='')

iter:  20 23:01:40  -310.149185c -4.94  -3.72
iter:  21 23:04:09  -310.149173c -5.00  -3.79
iter:  22 23:06:44  -310.149170c -5.18  -3.85
iter:  23 23:09:19  -310.149173c -5.45  -3.94
iter:  24 23:12:01  -310.149163c -5.64  -4.08c
Writing to output.gpw (mode='')

iter:  25 23:14:47  -310.149167c -6.16  -4.22c
iter:  26 23:17:19  -310.149166c -6.14  -4.31c
iter:  27 23:19:53  -310.149170c -6.21  -4.46c
iter:  28 23:22:35  -310.149171c -6.31  -4.61c
iter:  29 23:25:15  -310.149169c -6.58  -4.71c
Writing to output.gpw (mode='')

iter:  30 23:27:56  -310.149168c -6.83  -4.86c
iter:  31 23:30:36  -310.149168c -6.98  -4.92c
iter:  32 23:33:09  -310.149167c -7.07  -4.96c
iter:  33 23:35:41  -310.149168c -7.05  -5.07c
iter:  34 23:38:35  -310.149168c -7.37  -5.13c
Writing to output.gpw (mode='')

iter:  35 23:41:17  -310.149168c -7.47c -5.17c

Converged after 35 iterations.

Dipole moment: (-30.995971, 8.782977, 0.362710) |e|*Ang

Energy contributions relative to reference atoms: (reference = -14434.854043)

Kinetic:       +149.487631
Potential:     -141.448284
External:        +0.000000
XC:            -318.884830
Entropy (-ST):   -0.159881
Local:           +0.776255
--------------------------
Free energy:   -310.229108
Extrapolated:  -310.149168

Dipole-layer corrected work functions: 3.394695, 2.697441 eV

Showing only first 2 kpts
 Kpt  Band  Eigenvalues  Occupancy
  0    31     -3.25953    1.97240
  0    32     -3.06699    1.20621
  0    33     -3.02695    0.81107
  0    34     -2.93157    0.18391

  1    31     -3.35017    1.99544
  1    32     -2.96953    0.35578
  1    33     -2.96114    0.30929
  1    34     -2.91036    0.12429


Fermi level: -3.04607

No gap

Forces in eV/Ang:
  0 Li   -0.01760   -0.00386   -0.29317
  1 Li   -0.00176    0.00824   -0.29292
  2 Li   -0.00180   -0.00181   -0.25602
  3 Li    0.00273    0.01178   -0.29595
  4 Li   -0.01777    0.00264   -0.28792
  5 Li   -0.01330   -0.00886   -0.28990
  6 Li    0.00092   -0.01062   -0.29367
  7 Li   -0.01773   -0.01192   -0.27916
  8 Li   -0.00040    0.00586   -0.29791
  9 Li    0.02189    0.02889    0.29553
 10 Li    0.05221    0.03551    0.24414
 11 Li    0.05124    0.05098    0.26715
 12 Li    0.04051   -0.02484    0.25670
 13 Li   -0.00087   -0.01536    0.30071
 14 Li    0.06655   -0.04339    0.29731
 15 Li    0.01976   -0.01915    0.30162
 16 Li    0.07593   -0.02930    0.27456
 17 Li    0.01677    0.03366    0.25816
 18 Li    0.01027    0.00304   -0.05565
 19 Li    0.02596   -0.02767    0.02739
 20 Li    0.02213    0.01544    0.00323
 21 Li   -0.00384   -0.02813   -0.02400
 22 Li   -0.03131    0.00968   -0.02888
 23 Li   -0.00106   -0.01167    0.01135
 24 Li   -0.01550   -0.00895    0.01990
 25 Li   -0.00236   -0.00361   -0.03343
 26 Li    0.00530    0.00156    0.01053
 27 Li    0.04063   -0.02625    0.02319
 28 Li   -0.05585    0.02096   -0.03266
 29 Li   -0.00369    0.00860    0.03539
 30 Li   -0.04457    0.01862    0.03031
 31 Li   -0.02854    0.02408    0.00289
 32 Li    0.03535   -0.02285   -0.00833
 33 Li    0.01030   -0.00626   -0.00082
 34 Li    0.02645   -0.02106    0.00409
 35 Li   -0.00829   -0.02431   -0.00570
 36 O    -0.08987    0.14823    0.01258
 37 C     0.01091    0.00326   -0.04346
 38 C     0.04126    0.08373   -0.00898
 39 H    -0.04987   -0.08921   -0.03614
 40 H     0.00225   -0.04425    0.09122
 41 H     0.00705   -0.09829   -0.01759
 42 H     0.00873    0.06088    0.03330
 43 H     0.03223    0.01838    0.03154
 44 H     0.03369   -0.04972    0.05047
 45 N    -0.09147    0.08622    0.02483
 46 N    -0.18952   -0.04148   -0.04262

System changes: positions 

Initializing position-dependent things.

Density initialized from wave functions
       .-----------------------.  
      /|                       |  
     / |                       |  
    /  |                       |  
   /   |                       |  
  /    |                       |  
 *     H  H                   H|  
 |     C                       |  
 |     |                       |  
 |     CH                   H H|  
 |     O                       |  
 |     |                       |  
 |     |Li      Li             |  
 |     |                       |  
 |   Li|     Li      Li        |  
 |     |  Li      Li      Li   |  
 | Li  |   Li      Li N        |  
 |     |Li      Li     NLi     |  
 |     |          Li           |  
 |   LLi     LLi     LLi       |  
 |     |  Li      Li      Li   |  
 | Li  |   Li      Li          |  
 |     |Li      Li      Li     |  
 Li    | Li      Li            |  
 |    Li      Li      Li       |  
 |     |                       |  
 |     |                       |  
 |     |                       |  
 |     |                       |  
 |     |                       |  
 |     |                       |  
 |     .-----------------------.  
 |    /                       /   
 |   /                       /    
 |  /                       /     
 | /                       /      
 |/                       /       
 *-----------------------*        

Positions:
   0 Li     1.617037    1.617037   10.000000    ( 0.0000,  0.0000,  0.0000)
   1 Li     4.851111    1.617037   10.000000    ( 0.0000,  0.0000,  0.0000)
   2 Li     8.085185    1.617037   10.000000    ( 0.0000,  0.0000,  0.0000)
   3 Li     1.617037    4.851111   10.000000    ( 0.0000,  0.0000,  0.0000)
   4 Li     4.851111    4.851111   10.000000    ( 0.0000,  0.0000,  0.0000)
   5 Li     8.085185    4.851111   10.000000    ( 0.0000,  0.0000,  0.0000)
   6 Li     1.617037    8.085185   10.000000    ( 0.0000,  0.0000,  0.0000)
   7 Li     4.851111    8.085185   10.000000    ( 0.0000,  0.0000,  0.0000)
   8 Li     8.085185    8.085185   10.000000    ( 0.0000,  0.0000,  0.0000)
   9 Li     0.000000    0.000000   11.617037    ( 0.0000,  0.0000,  0.0000)
  10 Li     3.234074    0.000000   11.617037    ( 0.0000,  0.0000,  0.0000)
  11 Li     6.468148    0.000000   11.617037    ( 0.0000,  0.0000,  0.0000)
  12 Li     0.000000    3.234074   11.617037    ( 0.0000,  0.0000,  0.0000)
  13 Li     3.234074    3.234074   11.617037    ( 0.0000,  0.0000,  0.0000)
  14 Li     6.468148    3.234074   11.617037    ( 0.0000,  0.0000,  0.0000)
  15 Li     0.000000    6.468148   11.617037    ( 0.0000,  0.0000,  0.0000)
  16 Li     3.234074    6.468148   11.617037    ( 0.0000,  0.0000,  0.0000)
  17 Li     6.468148    6.468148   11.617037    ( 0.0000,  0.0000,  0.0000)
  18 Li     1.697725    1.508900   13.571516    ( 0.0000,  0.0000,  0.0000)
  19 Li     4.903106    1.679776   13.470358    ( 0.0000,  0.0000,  0.0000)
  20 Li     8.190421    1.629636   13.520096    ( 0.0000,  0.0000,  0.0000)
  21 Li     1.628627    4.777792   13.491718    ( 0.0000,  0.0000,  0.0000)
  22 Li     4.905469    4.890033   13.499674    ( 0.0000,  0.0000,  0.0000)
  23 Li     8.064347    4.850793   13.452854    ( 0.0000,  0.0000,  0.0000)
  24 Li     1.725503    8.043525   13.425571    ( 0.0000,  0.0000,  0.0000)
  25 Li     4.936192    8.167544   13.487565    ( 0.0000,  0.0000,  0.0000)
  26 Li     8.139779    8.100012   13.462416    ( 0.0000,  0.0000,  0.0000)
  27 Li     0.292358   -0.261538   15.582905    ( 0.0000,  0.0000,  0.0000)
  28 Li     3.681236   -0.085395   15.519895    ( 0.0000,  0.0000,  0.0000)
  29 Li     6.875540    0.325782   15.450079    ( 0.0000,  0.0000,  0.0000)
  30 Li     0.000900    2.986725   15.472310    ( 0.0000,  0.0000,  0.0000)
  31 Li     3.297787    3.265146   15.428996    ( 0.0000,  0.0000,  0.0000)
  32 Li     6.574731    3.352460   15.472242    ( 0.0000,  0.0000,  0.0000)
  33 Li     0.007930    6.247677   15.317770    ( 0.0000,  0.0000,  0.0000)
  34 Li     3.206442    6.455411   15.385836    ( 0.0000,  0.0000,  0.0000)
  35 Li     6.395880    6.688921   15.436071    ( 0.0000,  0.0000,  0.0000)
  36 O      9.898252    9.011135   17.525887    ( 0.0000,  0.0000,  0.0000)
  37 C      9.960205    8.080360   18.627887    ( 0.0000,  0.0000,  0.0000)
  38 C     10.101582    8.803742   19.956571    ( 0.0000,  0.0000,  0.0000)
  39 H      9.066049    7.447432   18.625234    ( 0.0000,  0.0000,  0.0000)
  40 H     10.825501    7.454023   18.405304    ( 0.0000,  0.0000,  0.0000)
  41 H     10.112334    8.101631   20.792126    ( 0.0000,  0.0000,  0.0000)
  42 H     11.025452    9.382655   19.977581    ( 0.0000,  0.0000,  0.0000)
  43 H      9.257055    9.483072   20.105630    ( 0.0000,  0.0000,  0.0000)
  44 H      9.160085    9.623816   17.671687    ( 0.0000,  0.0000,  0.0000)
  45 N      8.762431   10.852134   15.535583    ( 0.0000,  0.0000,  0.0000)
  46 N      7.909797   11.781823   15.554291    ( 0.0000,  0.0000,  0.0000)

Unit cell:
           periodic     x           y           z      points  spacing
  1. axis:    yes    9.702222    0.000000    0.000000    60     0.1617
  2. axis:    yes    0.000000    9.702222    0.000000    60     0.1617
  3. axis:    no     0.000000    0.000000   24.851111   156     0.1593

  Lengths:   9.702222   9.702222  24.851111
  Angles:   90.000000  90.000000  90.000000

Effective grid spacing dv^(1/3) = 0.1609

     iter     time        total  log10-change:
                         energy  eigst   dens
iter:   1 23:44:38  -310.157100  -2.06
iter:   2 23:47:16  -310.152274  -2.63  -2.22
iter:   3 23:49:54  -310.151424c -3.47  -2.47
iter:   4 23:52:33  -310.151112c -3.74  -2.74
Writing to output.gpw (mode='')

iter:   5 23:55:10  -310.151021c -3.44  -2.93
iter:   6 23:57:52  -310.150956c -3.61  -3.16
iter:   7 00:00:34  -310.150966c -3.34  -3.36
iter:   8 00:03:08  -310.150946c -4.15  -3.36
iter:   9 00:05:43  -310.150915c -4.76  -3.40
Writing to output.gpw (mode='')

iter:  10 00:08:18  -310.150932c -4.62  -3.52
iter:  11 00:10:52  -310.150950c -4.76  -3.50
iter:  12 00:13:29  -310.150933c -4.75  -3.63
iter:  13 00:15:57  -310.150925c -5.46  -3.87
iter:  14 00:18:31  -310.150929c -5.58  -3.96
Writing to output.gpw (mode='')

iter:  15 00:21:06  -310.150924c -5.55  -4.06c
iter:  16 00:23:42  -310.150926c -5.93  -4.26c
iter:  17 00:26:12  -310.150920c -5.98  -4.35c
iter:  18 00:28:44  -310.150917c -6.25  -4.48c
iter:  19 00:31:09  -310.150920c -6.57  -4.54c
Writing to output.gpw (mode='')

iter:  20 00:33:54  -310.150921c -6.89  -4.71c
iter:  21 00:36:22  -310.150921c -7.08  -4.73c
iter:  22 00:38:59  -310.150921c -7.24  -4.90c
iter:  23 00:41:31  -310.150922c -7.24  -4.95c
iter:  24 00:44:01  -310.150921c -7.33  -5.08c
Writing to output.gpw (mode='')

iter:  25 00:46:43  -310.150920c -7.76c -5.17c

Converged after 25 iterations.

Dipole moment: (-30.979054, 8.707779, 0.363879) |e|*Ang

Energy contributions relative to reference atoms: (reference = -14434.854043)

Kinetic:       +149.397255
Potential:     -141.383121
External:        +0.000000
XC:            -318.861064
Entropy (-ST):   -0.159996
Local:           +0.776008
--------------------------
Free energy:   -310.230919
Extrapolated:  -310.150920

Dipole-layer corrected work functions: 3.394647, 2.695146 eV

Showing only first 2 kpts
 Kpt  Band  Eigenvalues  Occupancy
  0    31     -3.25886    1.97267
  0    32     -3.06556    1.20372
  0    33     -3.02563    0.80972
  0    34     -2.93064    0.18474

  1    31     -3.34893    1.99544
  1    32     -2.96854    0.35682
  1    33     -2.96009    0.30995
  1    34     -2.90947    0.12494


Fermi level: -3.04490

No gap

Forces in eV/Ang:
  0 Li   -0.01768   -0.00384   -0.29288
  1 Li   -0.00163    0.00825   -0.29283
  2 Li   -0.00183   -0.00181   -0.25570
  3 Li    0.00285    0.01194   -0.29571
  4 Li   -0.01778    0.00281   -0.28804
  5 Li   -0.01336   -0.00901   -0.28978
  6 Li    0.00115   -0.01050   -0.29381
  7 Li   -0.01785   -0.01191   -0.27901
  8 Li   -0.00044    0.00603   -0.29789
  9 Li    0.02262    0.02656    0.29545
 10 Li    0.05333    0.03462    0.24313
 11 Li    0.04969    0.04992    0.26576
 12 Li    0.04084   -0.02365    0.25540
 13 Li    0.00080   -0.01602    0.29935
 14 Li    0.06495   -0.04246    0.29718
 15 Li    0.01951   -0.01852    0.30171
 16 Li    0.07651   -0.02952    0.27203
 17 Li    0.01618    0.03354    0.25745
 18 Li    0.00818    0.00346   -0.05182
 19 Li    0.02562   -0.02468    0.02574
 20 Li    0.02015    0.01319    0.00943
 21 Li   -0.00464   -0.02754   -0.02229
 22 Li   -0.02846    0.00733   -0.02736
 23 Li   -0.00322   -0.01240    0.01046
 24 Li   -0.01716   -0.00670    0.02020
 25 Li   -0.00239   -0.00351   -0.03390
 26 Li    0.00715    0.00222    0.00916
 27 Li    0.02812   -0.01479    0.02064
 28 Li   -0.05504    0.02064   -0.03205
 29 Li   -0.00935    0.00727    0.03270
 30 Li   -0.05043    0.00394    0.03023
 31 Li   -0.02923    0.02180    0.00257
 32 Li    0.02870   -0.01801   -0.01283
 33 Li    0.00989   -0.00714    0.00121
 34 Li    0.02573   -0.01993    0.00370
 35 Li   -0.00740   -0.02489   -0.00614
 36 O    -0.06570    0.10745    0.03432
 37 C     0.01600   -0.00396   -0.01024
 38 C     0.04215    0.05760   -0.04105
 39 H    -0.03059   -0.05049   -0.03895
 40 H     0.00716   -0.04670    0.07935
 41 H     0.00226   -0.08259   -0.02699
 42 H    -0.00328    0.05424    0.03135
 43 H     0.02803    0.02135    0.03877
 44 H     0.00414   -0.02874    0.05064
 45 N    -0.04636    0.09400    0.03540
 46 N    -0.19292   -0.01298   -0.02712

System changes: positions 

Initializing position-dependent things.

Density initialized from wave functions
       .-----------------------.  
      /|                       |  
     / |                       |  
    /  |                       |  
   /   |                       |  
  /    |                       |  
 *     H  H                   H|  
 |     C                       |  
 |     |                       |  
 |     CH                   H H|  
 |     O                       |  
 |     |                       |  
 |     |Li      Li             |  
 |     |                       |  
 |   Li|     Li      Li        |  
 |     |  Li      Li      Li   |  
 | Li  |   Li      Li N        |  
 |     |Li      Li     NLi     |  
 |     |          Li           |  
 |   LLi     LLi     LLi       |  
 |     |  Li      Li      Li   |  
 | Li  |   Li      Li          |  
 |     |Li      Li      Li     |  
 Li    | Li      Li            |  
 |    Li      Li      Li       |  
 |     |                       |  
 |     |                       |  
 |     |                       |  
 |     |                       |  
 |     |                       |  
 |     |                       |  
 |     .-----------------------.  
 |    /                       /   
 |   /                       /    
 |  /                       /     
 | /                       /      
 |/                       /       
 *-----------------------*        

Positions:
   0 Li     1.617037    1.617037   10.000000    ( 0.0000,  0.0000,  0.0000)
   1 Li     4.851111    1.617037   10.000000    ( 0.0000,  0.0000,  0.0000)
   2 Li     8.085185    1.617037   10.000000    ( 0.0000,  0.0000,  0.0000)
   3 Li     1.617037    4.851111   10.000000    ( 0.0000,  0.0000,  0.0000)
   4 Li     4.851111    4.851111   10.000000    ( 0.0000,  0.0000,  0.0000)
   5 Li     8.085185    4.851111   10.000000    ( 0.0000,  0.0000,  0.0000)
   6 Li     1.617037    8.085185   10.000000    ( 0.0000,  0.0000,  0.0000)
   7 Li     4.851111    8.085185   10.000000    ( 0.0000,  0.0000,  0.0000)
   8 Li     8.085185    8.085185   10.000000    ( 0.0000,  0.0000,  0.0000)
   9 Li     0.000000    0.000000   11.617037    ( 0.0000,  0.0000,  0.0000)
  10 Li     3.234074    0.000000   11.617037    ( 0.0000,  0.0000,  0.0000)
  11 Li     6.468148    0.000000   11.617037    ( 0.0000,  0.0000,  0.0000)
  12 Li     0.000000    3.234074   11.617037    ( 0.0000,  0.0000,  0.0000)
  13 Li     3.234074    3.234074   11.617037    ( 0.0000,  0.0000,  0.0000)
  14 Li     6.468148    3.234074   11.617037    ( 0.0000,  0.0000,  0.0000)
  15 Li     0.000000    6.468148   11.617037    ( 0.0000,  0.0000,  0.0000)
  16 Li     3.234074    6.468148   11.617037    ( 0.0000,  0.0000,  0.0000)
  17 Li     6.468148    6.468148   11.617037    ( 0.0000,  0.0000,  0.0000)
  18 Li     1.716209    1.514721   13.555163    ( 0.0000,  0.0000,  0.0000)
  19 Li     4.918503    1.673207   13.480817    ( 0.0000,  0.0000,  0.0000)
  20 Li     8.203711    1.636446   13.515852    ( 0.0000,  0.0000,  0.0000)
  21 Li     1.632417    4.774070   13.484721    ( 0.0000,  0.0000,  0.0000)
  22 Li     4.898729    4.897721   13.492429    ( 0.0000,  0.0000,  0.0000)
  23 Li     8.067650    4.856646   13.450107    ( 0.0000,  0.0000,  0.0000)
  24 Li     1.732661    8.035527   13.427934    ( 0.0000,  0.0000,  0.0000)
  25 Li     4.934781    8.162858   13.486479    ( 0.0000,  0.0000,  0.0000)
  26 Li     8.130382    8.102274   13.468697    ( 0.0000,  0.0000,  0.0000)
  27 Li     0.302588   -0.259909   15.584071    ( 0.0000,  0.0000,  0.0000)
  28 Li     3.674934   -0.086028   15.513213    ( 0.0000,  0.0000,  0.0000)
  29 Li     6.884044    0.327537   15.466215    ( 0.0000,  0.0000,  0.0000)
  30 Li     0.001813    3.000529   15.474405    ( 0.0000,  0.0000,  0.0000)
  31 Li     3.304087    3.273202   15.426721    ( 0.0000,  0.0000,  0.0000)
  32 Li     6.585337    3.360007   15.475657    ( 0.0000,  0.0000,  0.0000)
  33 Li     0.015158    6.256036   15.307744    ( 0.0000,  0.0000,  0.0000)
  34 Li     3.207523    6.449733   15.390660    ( 0.0000,  0.0000,  0.0000)
  35 Li     6.390124    6.688336   15.441136    ( 0.0000,  0.0000,  0.0000)
  36 O      9.895837    9.003147   17.526199    ( 0.0000,  0.0000,  0.0000)
  37 C      9.955020    8.077546   18.634594    ( 0.0000,  0.0000,  0.0000)
  38 C     10.097839    8.811651   19.963599    ( 0.0000,  0.0000,  0.0000)
  39 H      9.061858    7.436298   18.634306    ( 0.0000,  0.0000,  0.0000)
  40 H     10.822770    7.450842   18.424596    ( 0.0000,  0.0000,  0.0000)
  41 H     10.104796    8.105367   20.797186    ( 0.0000,  0.0000,  0.0000)
  42 H     11.025372    9.387411   19.983217    ( 0.0000,  0.0000,  0.0000)
  43 H      9.254595    9.492814   20.103623    ( 0.0000,  0.0000,  0.0000)
  44 H      9.171161    9.626631   17.684050    ( 0.0000,  0.0000,  0.0000)
  45 N      8.764408   10.859880   15.538614    ( 0.0000,  0.0000,  0.0000)
  46 N      7.911792   11.789888   15.556286    ( 0.0000,  0.0000,  0.0000)

Unit cell:
           periodic     x           y           z      points  spacing
  1. axis:    yes    9.702222    0.000000    0.000000    60     0.1617
  2. axis:    yes    0.000000    9.702222    0.000000    60     0.1617
  3. axis:    no     0.000000    0.000000   24.851111   156     0.1593

  Lengths:   9.702222   9.702222  24.851111
  Angles:   90.000000  90.000000  90.000000

Effective grid spacing dv^(1/3) = 0.1609

     iter     time        total  log10-change:
                         energy  eigst   dens
iter:   1 00:49:59  -310.172288  -1.14
iter:   2 00:52:32  -310.161460  -1.86  -1.96
iter:   3 00:54:58  -310.158700c -2.46  -2.13
iter:   4 00:57:33  -310.155296c -2.74  -2.26
Writing to output.gpw (mode='')

iter:   5 01:00:11  -310.153420c -2.42  -2.40
iter:   6 01:02:48  -310.153440c -2.62  -2.67
iter:   7 01:05:28  -310.153202c -3.33  -2.69
iter:   8 01:08:02  -310.153292c -2.58  -2.85
iter:   9 01:10:33  -310.153158c -3.60  -2.82
Writing to output.gpw (mode='')

iter:  10 01:13:11  -310.153108c -3.94  -2.95
iter:  11 01:15:53  -310.153107c -3.89  -3.01
iter:  12 01:18:25  -310.153070c -4.04  -3.19
iter:  13 01:20:51  -310.153110c -3.82  -3.34
iter:  14 01:23:21  -310.153074c -4.76  -3.47
Writing to output.gpw (mode='')

iter:  15 01:26:02  -310.153061c -4.67  -3.65
iter:  16 01:28:36  -310.153078c -4.82  -3.74
iter:  17 01:31:09  -310.153065c -5.18  -3.78
iter:  18 01:33:37  -310.153062c -5.29  -3.97
iter:  19 01:36:11  -310.153068c -5.45  -4.04c
Writing to output.gpw (mode='')

iter:  20 01:38:41  -310.153067c -5.48  -4.19c
iter:  21 01:41:24  -310.153064c -5.85  -4.19c
iter:  22 01:43:51  -310.153064c -6.16  -4.23c
iter:  23 01:46:20  -310.153066c -6.14  -4.31c
iter:  24 01:48:54  -310.153067c -6.31  -4.40c
Writing to output.gpw (mode='')

iter:  25 01:51:26  -310.153068c -6.43  -4.56c
iter:  26 01:54:00  -310.153068c -6.62  -4.73c
iter:  27 01:56:36  -310.153067c -6.55  -4.79c
iter:  28 01:59:07  -310.153068c -6.77  -4.88c
iter:  29 02:01:41  -310.153068c -7.03  -5.07c
Writing to output.gpw (mode='')

iter:  30 02:04:29  -310.153068c -7.00  -5.13c
iter:  31 02:07:04  -310.153068c -7.28  -5.22c
iter:  32 02:09:39  -310.153068c -7.39  -5.23c
iter:  33 02:12:21  -310.153068c -7.39  -5.32c
iter:  34 02:15:01  -310.153068c -7.66c -5.42c

Converged after 34 iterations.

Dipole moment: (-31.266322, 8.577763, 0.367764) |e|*Ang

Energy contributions relative to reference atoms: (reference = -14434.854043)

Kinetic:       +148.793228
Potential:     -140.942064
External:        +0.000000
XC:            -318.700095
Entropy (-ST):   -0.160126
Local:           +0.775926
--------------------------
Free energy:   -310.233131
Extrapolated:  -310.153068

Dipole-layer corrected work functions: 3.394472, 2.687504 eV

Showing only first 2 kpts
 Kpt  Band  Eigenvalues  Occupancy
  0    31     -3.25539    1.97291
  0    32     -3.06175    1.20472
  0    33     -3.02193    0.81167
  0    34     -2.92744    0.18710

  1    31     -3.34610    1.99553
  1    32     -2.96478    0.35771
  1    33     -2.95589    0.30842
  1    34     -2.90551    0.12483


Fermi level: -3.04099

No gap
Writing to output.gpw (mode='')


Forces in eV/Ang:
  0 Li   -0.01872   -0.00360   -0.29234
  1 Li   -0.00255    0.00817   -0.29231
  2 Li   -0.00256   -0.00192   -0.25483
  3 Li    0.00294    0.01197   -0.29415
  4 Li   -0.01810    0.00341   -0.28854
  5 Li   -0.01341   -0.00950   -0.28999
  6 Li    0.00163   -0.01022   -0.29451
  7 Li   -0.01837   -0.01231   -0.27824
  8 Li   -0.00056    0.00578   -0.29775
  9 Li    0.02624    0.01977    0.29998
 10 Li    0.06124    0.03117    0.24120
 11 Li    0.05140    0.05001    0.26514
 12 Li    0.04251   -0.02018    0.24788
 13 Li    0.01399   -0.01933    0.29528
 14 Li    0.06533   -0.04053    0.29986
 15 Li    0.01875   -0.01258    0.30337
 16 Li    0.07602   -0.02870    0.26262
 17 Li    0.01693    0.03518    0.25316
 18 Li   -0.00991    0.00179   -0.02785
 19 Li    0.01749   -0.01309    0.01495
 20 Li    0.00656    0.00489    0.04258
 21 Li   -0.00799   -0.02072   -0.01466
 22 Li   -0.01595   -0.00444   -0.01720
 23 Li   -0.01067   -0.01548    0.01272
 24 Li   -0.02440    0.00500    0.01487
 25 Li   -0.00107    0.00138   -0.03027
 26 Li    0.01552    0.00400    0.00098
 27 Li   -0.01299    0.02742    0.02045
 28 Li   -0.04728    0.01782   -0.02779
 29 Li   -0.01622    0.01500    0.01655
 30 Li   -0.04715   -0.01823    0.02196
 31 Li   -0.02834    0.01347    0.00207
 32 Li   -0.01035    0.01409   -0.02098
 33 Li    0.00568   -0.01053    0.00706
 34 Li    0.02259   -0.01591    0.00358
 35 Li   -0.00325   -0.02658   -0.00750
 36 O    -0.04676    0.01523    0.09014
 37 C     0.02867   -0.00256    0.07916
 38 C     0.04176   -0.07420   -0.17634
 39 H     0.04852    0.06814   -0.03772
 40 H     0.01245   -0.04272    0.03572
 41 H    -0.00088   -0.02047   -0.03146
 42 H    -0.04761    0.01976    0.02209
 43 H     0.01330    0.03255    0.08509
 44 H    -0.04842    0.02123    0.02254
 45 N    -0.02896    0.04950    0.02393
 46 N    -0.15905   -0.08967   -0.03504

System changes: positions 

Initializing position-dependent things.

Density initialized from wave functions
       .-----------------------.  
      /|                       |  
     / |                       |  
    /  |                       |  
   /   |                       |  
  /    |                       |  
 *     H  H                   H|  
 |     C                       |  
 |     |                       |  
 |     CH                   H H|  
 |     O                       |  
 |     |                       |  
 |     |Li      Li             |  
 |     |                       |  
 |   Li|     Li      Li        |  
 |     |  Li      Li      Li   |  
 |     |   Li      Li N    Li  |  
 |     |Li      Li     NLi     |  
 |     |          Li           |  
 |   LLi     LLi     LLi       |  
 |     |  Li      Li      Li   |  
 | Li  |   Li      Li          |  
 |     |Li      Li      Li     |  
 Li    | Li      Li            |  
 |    Li      Li      Li       |  
 |     |                       |  
 |     |                       |  
 |     |                       |  
 |     |                       |  
 |     |                       |  
 |     |                       |  
 |     .-----------------------.  
 |    /                       /   
 |   /                       /    
 |  /                       /     
 | /                       /      
 |/                       /       
 *-----------------------*        

Positions:
   0 Li     1.617037    1.617037   10.000000    ( 0.0000,  0.0000,  0.0000)
   1 Li     4.851111    1.617037   10.000000    ( 0.0000,  0.0000,  0.0000)
   2 Li     8.085185    1.617037   10.000000    ( 0.0000,  0.0000,  0.0000)
   3 Li     1.617037    4.851111   10.000000    ( 0.0000,  0.0000,  0.0000)
   4 Li     4.851111    4.851111   10.000000    ( 0.0000,  0.0000,  0.0000)
   5 Li     8.085185    4.851111   10.000000    ( 0.0000,  0.0000,  0.0000)
   6 Li     1.617037    8.085185   10.000000    ( 0.0000,  0.0000,  0.0000)
   7 Li     4.851111    8.085185   10.000000    ( 0.0000,  0.0000,  0.0000)
   8 Li     8.085185    8.085185   10.000000    ( 0.0000,  0.0000,  0.0000)
   9 Li     0.000000    0.000000   11.617037    ( 0.0000,  0.0000,  0.0000)
  10 Li     3.234074    0.000000   11.617037    ( 0.0000,  0.0000,  0.0000)
  11 Li     6.468148    0.000000   11.617037    ( 0.0000,  0.0000,  0.0000)
  12 Li     0.000000    3.234074   11.617037    ( 0.0000,  0.0000,  0.0000)
  13 Li     3.234074    3.234074   11.617037    ( 0.0000,  0.0000,  0.0000)
  14 Li     6.468148    3.234074   11.617037    ( 0.0000,  0.0000,  0.0000)
  15 Li     0.000000    6.468148   11.617037    ( 0.0000,  0.0000,  0.0000)
  16 Li     3.234074    6.468148   11.617037    ( 0.0000,  0.0000,  0.0000)
  17 Li     6.468148    6.468148   11.617037    ( 0.0000,  0.0000,  0.0000)
  18 Li     1.708154    1.514545   13.552192    ( 0.0000,  0.0000,  0.0000)
  19 Li     4.906354    1.673411   13.478019    ( 0.0000,  0.0000,  0.0000)
  20 Li     8.194384    1.634416   13.505022    ( 0.0000,  0.0000,  0.0000)
  21 Li     1.632702    4.773943   13.484603    ( 0.0000,  0.0000,  0.0000)
  22 Li     4.895776    4.897428   13.492050    ( 0.0000,  0.0000,  0.0000)
  23 Li     8.065293    4.855249   13.447435    ( 0.0000,  0.0000,  0.0000)
  24 Li     1.733988    8.033137   13.426915    ( 0.0000,  0.0000,  0.0000)
  25 Li     4.934447    8.163095   13.488784    ( 0.0000,  0.0000,  0.0000)
  26 Li     8.130198    8.097512   13.467463    ( 0.0000,  0.0000,  0.0000)
  27 Li     0.294191   -0.261138   15.574116    ( 0.0000,  0.0000,  0.0000)
  28 Li     3.667856   -0.084891   15.513850    ( 0.0000,  0.0000,  0.0000)
  29 Li     6.878620    0.319299   15.455363    ( 0.0000,  0.0000,  0.0000)
  30 Li    -0.010877    2.996403   15.462592    ( 0.0000,  0.0000,  0.0000)
  31 Li     3.295461    3.272861   15.426832    ( 0.0000,  0.0000,  0.0000)
  32 Li     6.574650    3.350418   15.472731    ( 0.0000,  0.0000,  0.0000)
  33 Li     0.014850    6.252277   15.304864    ( 0.0000,  0.0000,  0.0000)
  34 Li     3.209032    6.451303   15.388785    ( 0.0000,  0.0000,  0.0000)
  35 Li     6.391160    6.683828   15.438934    ( 0.0000,  0.0000,  0.0000)
  36 O      9.893030    9.005673   17.518004    ( 0.0000,  0.0000,  0.0000)
  37 C      9.959204    8.074026   18.622827    ( 0.0000,  0.0000,  0.0000)
  38 C     10.103801    8.800804   19.954675    ( 0.0000,  0.0000,  0.0000)
  39 H      9.067885    7.431263   18.621521    ( 0.0000,  0.0000,  0.0000)
  40 H     10.829664    7.452774   18.407356    ( 0.0000,  0.0000,  0.0000)
  41 H     10.114290    8.090274   20.784973    ( 0.0000,  0.0000,  0.0000)
  42 H     11.029832    9.378358   19.974426    ( 0.0000,  0.0000,  0.0000)
  43 H      9.260694    9.481679   20.101054    ( 0.0000,  0.0000,  0.0000)
  44 H      9.165484    9.626448   17.680789    ( 0.0000,  0.0000,  0.0000)
  45 N      8.755093   10.852651   15.528212    ( 0.0000,  0.0000,  0.0000)
  46 N      7.901758   11.781849   15.546384    ( 0.0000,  0.0000,  0.0000)

Unit cell:
           periodic     x           y           z      points  spacing
  1. axis:    yes    9.702222    0.000000    0.000000    60     0.1617
  2. axis:    yes    0.000000    9.702222    0.000000    60     0.1617
  3. axis:    no     0.000000    0.000000   24.851111   156     0.1593

  Lengths:   9.702222   9.702222  24.851111
  Angles:   90.000000  90.000000  90.000000

Effective grid spacing dv^(1/3) = 0.1609

     iter     time        total  log10-change:
                         energy  eigst   dens
iter:   1 02:18:30  -310.188870  -1.07
iter:   2 02:20:58  -310.164993  -1.73  -1.83
iter:   3 02:23:38  -310.158945c -2.55  -2.06
iter:   4 02:26:12  -310.157434c -3.04  -2.31
Writing to output.gpw (mode='')

iter:   5 02:28:54  -310.155466c -2.43  -2.41
iter:   6 02:31:37  -310.155152c -2.79  -2.78
iter:   7 02:34:13  -310.155206c -2.61  -2.86
iter:   8 02:36:45  -310.155040c -3.52  -3.03
iter:   9 02:39:25  -310.155113c -3.65  -3.10
Writing to output.gpw (mode='')

iter:  10 02:42:04  -310.155119c -3.57  -3.05
iter:  11 02:44:31  -310.155073c -3.77  -3.20
iter:  12 02:47:02  -310.155061c -4.31  -3.32
iter:  13 02:49:36  -310.155007c -4.47  -3.35
iter:  14 02:52:03  -310.155041c -4.79  -3.39
Writing to output.gpw (mode='')

iter:  15 02:54:41  -310.155039c -5.00  -3.38
iter:  16 02:57:16  -310.154987c -4.52  -3.40
iter:  17 02:59:44  -310.154999c -5.10  -3.65
iter:  18 03:02:30  -310.154981c -5.12  -3.67
iter:  19 03:05:05  -310.154962c -4.76  -3.81
Writing to output.gpw (mode='')

iter:  20 03:07:54  -310.154964c -5.17  -3.85
iter:  21 03:10:28  -310.154989c -5.48  -3.85
iter:  22 03:13:08  -310.154966c -5.26  -4.16c
iter:  23 03:15:41  -310.154979c -6.30  -3.95
iter:  24 03:18:22  -310.154986c -5.62  -4.25c
Writing to output.gpw (mode='')

iter:  25 03:20:58  -310.154983c -6.48  -4.47c
iter:  26 03:23:31  -310.154983c -6.28  -4.62c
iter:  27 03:26:02  -310.154982c -6.78  -4.70c
iter:  28 03:28:41  -310.154981c -6.84  -4.83c
iter:  29 03:31:11  -310.154981c -6.88  -4.95c
Writing to output.gpw (mode='')

iter:  30 03:33:38  -310.154981c -7.02  -5.08c
iter:  31 03:36:16  -310.154981c -7.28  -5.17c
iter:  32 03:38:44  -310.154981c -7.42c -5.22c

Converged after 32 iterations.

Dipole moment: (-30.895214, 8.488172, 0.367715) |e|*Ang

Energy contributions relative to reference atoms: (reference = -14434.854043)

Kinetic:       +148.924334
Potential:     -141.033183
External:        +0.000000
XC:            -318.741369
Entropy (-ST):   -0.160219
Local:           +0.775347
--------------------------
Free energy:   -310.235090
Extrapolated:  -310.154981

Dipole-layer corrected work functions: 3.394709, 2.687834 eV

Showing only first 2 kpts
 Kpt  Band  Eigenvalues  Occupancy
  0    31     -3.25687    1.97354
  0    32     -3.06176    1.20211
  0    33     -3.02185    0.80817
  0    34     -2.92845    0.18961

  1    31     -3.34716    1.99560
  1    32     -2.96447    0.35424
  1    33     -2.95640    0.30960
  1    34     -2.90581    0.12485


Fermi level: -3.04127

No gap
Writing to output.gpw (mode='')


Forces in eV/Ang:
  0 Li   -0.01825   -0.00355   -0.29190
  1 Li   -0.00164    0.00829   -0.29233
  2 Li   -0.00201   -0.00174   -0.25460
  3 Li    0.00342    0.01235   -0.29422
  4 Li   -0.01780    0.00354   -0.28872
  5 Li   -0.01354   -0.00956   -0.28962
  6 Li    0.00201   -0.01011   -0.29462
  7 Li   -0.01826   -0.01220   -0.27859
  8 Li   -0.00050    0.00633   -0.29774
  9 Li    0.02501    0.01593    0.29869
 10 Li    0.05837    0.02919    0.24076
 11 Li    0.04651    0.04735    0.26359
 12 Li    0.04255   -0.01861    0.24690
 13 Li    0.01033   -0.01788    0.29217
 14 Li    0.05947   -0.04041    0.29767
 15 Li    0.01963   -0.01400    0.30269
 16 Li    0.07657   -0.02944    0.26135
 17 Li    0.01403    0.03509    0.25314
 18 Li   -0.00549    0.00156   -0.02813
 19 Li    0.02476   -0.01448    0.01645
 20 Li    0.00790    0.00304    0.05167
 21 Li   -0.00968   -0.02167   -0.01712
 22 Li   -0.01549   -0.00559   -0.01790
 23 Li   -0.01138   -0.01659    0.01581
 24 Li   -0.02544    0.00680    0.01393
 25 Li   -0.00147    0.00093   -0.03348
 26 Li    0.01569    0.00625   -0.00231
 27 Li   -0.00189    0.01330    0.02765
 28 Li   -0.04667    0.01804   -0.02905
 29 Li   -0.02531    0.01166    0.01840
 30 Li   -0.04475   -0.02002    0.02682
 31 Li   -0.02923    0.01460    0.00180
 32 Li   -0.01129    0.02042   -0.02532
 33 Li    0.00692   -0.01010    0.00807
 34 Li    0.02288   -0.01724    0.00546
 35 Li   -0.00357   -0.02811   -0.00638
 36 O    -0.05926    0.02600    0.13748
 37 C     0.02704    0.02285    0.03290
 38 C     0.02816   -0.03742   -0.14852
 39 H     0.04361    0.04813   -0.03661
 40 H    -0.00087   -0.04794    0.03010
 41 H    -0.00238   -0.01244   -0.03575
 42 H    -0.03287    0.02329    0.03271
 43 H     0.01755    0.01454    0.07073
 44 H    -0.00041   -0.02163    0.01575
 45 N     0.01491    0.10464    0.02873
 46 N    -0.15371   -0.06794   -0.04866

System changes: positions 

Initializing position-dependent things.

Density initialized from wave functions
       .-----------------------.  
      /|                       |  
     / |                       |  
    /  |                       |  
   /   |                       |  
  /    |                       |  
 *     H  H                   H|  
 |     C                       |  
 |     |                       |  
 |     CH                   H H|  
 |     O                       |  
 |     |                       |  
 |     |Li      Li             |  
 |     |                       |  
 |   Li|     Li      Li        |  
 |     |  Li      Li      Li   |  
 |     |   Li      Li N    Li  |  
 |     |Li      Li     NLi     |  
 |     |          Li           |  
 |   LLi     LLi     LLi       |  
 |     |  Li      Li      Li   |  
 | Li  |   Li      Li          |  
 |     |Li      Li      Li     |  
 Li    | Li      Li            |  
 |    Li      Li      Li       |  
 |     |                       |  
 |     |                       |  
 |     |                       |  
 |     |                       |  
 |     |                       |  
 |     |                       |  
 |     .-----------------------.  
 |    /                       /   
 |   /                       /    
 |  /                       /     
 | /                       /      
 |/                       /       
 *-----------------------*        

Positions:
   0 Li     1.617037    1.617037   10.000000    ( 0.0000,  0.0000,  0.0000)
   1 Li     4.851111    1.617037   10.000000    ( 0.0000,  0.0000,  0.0000)
   2 Li     8.085185    1.617037   10.000000    ( 0.0000,  0.0000,  0.0000)
   3 Li     1.617037    4.851111   10.000000    ( 0.0000,  0.0000,  0.0000)
   4 Li     4.851111    4.851111   10.000000    ( 0.0000,  0.0000,  0.0000)
   5 Li     8.085185    4.851111   10.000000    ( 0.0000,  0.0000,  0.0000)
   6 Li     1.617037    8.085185   10.000000    ( 0.0000,  0.0000,  0.0000)
   7 Li     4.851111    8.085185   10.000000    ( 0.0000,  0.0000,  0.0000)
   8 Li     8.085185    8.085185   10.000000    ( 0.0000,  0.0000,  0.0000)
[...]
iter:  19 07:26:22  -310.235128c -6.25  -4.41c
Writing to output.gpw (mode='')

iter:  20 07:29:10  -310.235127c -6.31  -4.51c
iter:  21 07:31:56  -310.235128c -6.48  -4.71c
iter:  22 07:34:31  -310.235128c -6.76  -4.78c
iter:  23 07:37:06  -310.235127c -6.71  -4.81c
iter:  24 07:39:34  -310.235128c -7.08  -4.98c
Writing to output.gpw (mode='')

iter:  25 07:42:20  -310.235128c -7.30  -5.10c
iter:  26 07:45:06  -310.235127c -7.31  -5.17c
iter:  27 07:47:47  -310.235128c -7.60c -5.34c

Converged after 27 iterations.

Dipole moment: (-16.363848, 4.974817, 0.372645) |e|*Ang

Energy contributions relative to reference atoms: (reference = -14434.854043)

Kinetic:       +149.915074
Potential:     -141.826359
External:        +0.000000
XC:            -319.018670
Entropy (-ST):   -0.157271
Local:           +0.773463
--------------------------
Free energy:   -310.313763
Extrapolated:  -310.235128

Dipole-layer corrected work functions: 3.400845, 2.684493 eV

Showing only first 2 kpts
 Kpt  Band  Eigenvalues  Occupancy
  0    31     -3.26755    1.97797
  0    32     -3.07351    1.29898
  0    33     -3.02627    0.83748
  0    34     -2.92578    0.17608

  1    31     -3.35744    1.99632
  1    32     -2.95652    0.30300
  1    33     -2.93457    0.20643
  1    34     -2.89063    0.09124


Fermi level: -3.04267

No gap
Writing to output.gpw (mode='')


Forces in eV/Ang:
  0 Li   -0.00652   -0.00328   -0.29428
  1 Li    0.00384    0.00891   -0.29665
  2 Li    0.00103    0.00085   -0.25500
  3 Li    0.01201    0.01127   -0.28778
  4 Li   -0.00789    0.00754   -0.29266
  5 Li   -0.01067   -0.00431   -0.29422
  6 Li    0.01003   -0.00785   -0.29408
  7 Li   -0.01099   -0.01351   -0.28635
  8 Li    0.00477    0.00587   -0.29822
  9 Li   -0.03857    0.03110    0.27238
 10 Li    0.01740    0.03781    0.27283
 11 Li    0.04723    0.05633    0.24317
 12 Li   -0.04892   -0.04823    0.23022
 13 Li   -0.01250   -0.03566    0.26017
 14 Li    0.06578   -0.07014    0.27517
 15 Li   -0.03076   -0.03087    0.28511
 16 Li    0.01319   -0.01661    0.28558
 17 Li    0.03739    0.01764    0.26023
 18 Li    0.02572   -0.00258    0.02038
 19 Li    0.00171   -0.00597   -0.00239
 20 Li   -0.01572    0.02281    0.04207
 21 Li    0.00421    0.00817    0.01347
 22 Li   -0.02931    0.00590    0.00499
 23 Li    0.00984    0.00273    0.01070
 24 Li    0.01235   -0.00869    0.00916
 25 Li    0.00938    0.00241    0.02805
 26 Li   -0.00708   -0.01471    0.00403
 27 Li    0.01139    0.01720    0.01547
 28 Li   -0.00280    0.00542    0.02059
 29 Li   -0.00536    0.01477   -0.00568
 30 Li   -0.03480   -0.00507   -0.02487
 31 Li   -0.02057    0.00009    0.01034
 32 Li    0.00892    0.00460   -0.00330
 33 Li   -0.00484   -0.01464   -0.00655
 34 Li   -0.01124   -0.01501    0.00750
 35 Li   -0.00101    0.01928   -0.00727
 36 O    -0.08854    0.04954    0.14510
 37 C     0.01165    0.06422   -0.03472
 38 C     0.02372   -0.00368    0.01144
 39 H    -0.01263   -0.00660    0.02807
 40 H     0.01215    0.00069    0.03521
 41 H    -0.02261    0.02807   -0.02039
 42 H     0.00529   -0.02512   -0.02007
 43 H     0.01042   -0.01941   -0.03232
 44 H     0.06468   -0.06561   -0.02612
 45 N    -0.02176    0.03096    0.03658
 46 N    -0.00309   -0.08769   -0.07467

System changes: positions 

Initializing position-dependent things.

Density initialized from wave functions
       .-----------------------.  
      /|                       |  
     / |                       |  
    /  |                       |  
   /   |                       |  
  /    |                       |  
 *     |  H                   H|  
 |     |H                      |  
 |     |                       |  
 |     C                      H|  
 |     | H                  H  |  
 |     |                       |  
 |     Li       Li             |  
 |     |                       |  
 |   Li|     Li      Li        |  
 |     |  Li      Li      Li   |  
 |     |   Li      LiN    Li   |  
 |     |Li      Li     NLi     |  
 |     |          Li           |  
 |   LLi     LLi     LLi       |  
 |     |  Li      Li      Li   |  
 | Li  |   Li      Li          |  
 |     |Li      Li      Li     |  
 Li    | Li      Li            |  
 |    Li      Li      Li       |  
 |     |                       |  
 |     |                       |  
 |     |                       |  
 |     |                       |  
 |     |                       |  
 |     |                       |  
 |     .-----------------------.  
 |    /                       /   
 |   /                       /    
 |  /                       /     
 | /                       /      
 |/                       /       
 *-----------------------*        

Positions:
   0 Li     1.617037    1.617037   10.000000    ( 0.0000,  0.0000,  0.0000)
   1 Li     4.851111    1.617037   10.000000    ( 0.0000,  0.0000,  0.0000)
   2 Li     8.085185    1.617037   10.000000    ( 0.0000,  0.0000,  0.0000)
   3 Li     1.617037    4.851111   10.000000    ( 0.0000,  0.0000,  0.0000)
   4 Li     4.851111    4.851111   10.000000    ( 0.0000,  0.0000,  0.0000)
   5 Li     8.085185    4.851111   10.000000    ( 0.0000,  0.0000,  0.0000)
   6 Li     1.617037    8.085185   10.000000    ( 0.0000,  0.0000,  0.0000)
   7 Li     4.851111    8.085185   10.000000    ( 0.0000,  0.0000,  0.0000)
   8 Li     8.085185    8.085185   10.000000    ( 0.0000,  0.0000,  0.0000)
   9 Li     0.000000    0.000000   11.617037    ( 0.0000,  0.0000,  0.0000)
  10 Li     3.234074    0.000000   11.617037    ( 0.0000,  0.0000,  0.0000)
  11 Li     6.468148    0.000000   11.617037    ( 0.0000,  0.0000,  0.0000)
  12 Li     0.000000    3.234074   11.617037    ( 0.0000,  0.0000,  0.0000)
  13 Li     3.234074    3.234074   11.617037    ( 0.0000,  0.0000,  0.0000)
  14 Li     6.468148    3.234074   11.617037    ( 0.0000,  0.0000,  0.0000)
  15 Li     0.000000    6.468148   11.617037    ( 0.0000,  0.0000,  0.0000)
  16 Li     3.234074    6.468148   11.617037    ( 0.0000,  0.0000,  0.0000)
  17 Li     6.468148    6.468148   11.617037    ( 0.0000,  0.0000,  0.0000)
  18 Li     1.585157    1.558967   13.486941    ( 0.0000,  0.0000,  0.0000)
  19 Li     4.869678    1.676531   13.463321    ( 0.0000,  0.0000,  0.0000)
  20 Li     8.110165    1.599365   13.559109    ( 0.0000,  0.0000,  0.0000)
  21 Li     1.570611    4.748285   13.443919    ( 0.0000,  0.0000,  0.0000)
  22 Li     4.869588    4.863762   13.429058    ( 0.0000,  0.0000,  0.0000)
  23 Li     8.040519    4.805022   13.467852    ( 0.0000,  0.0000,  0.0000)
  24 Li     1.647810    8.056825   13.422949    ( 0.0000,  0.0000,  0.0000)
  25 Li     4.935835    8.157229   13.437810    ( 0.0000,  0.0000,  0.0000)
  26 Li     8.129247    8.101762   13.469079    ( 0.0000,  0.0000,  0.0000)
  27 Li     0.132482   -0.220273   15.614789    ( 0.0000,  0.0000,  0.0000)
  28 Li     3.451335   -0.049669   15.344588    ( 0.0000,  0.0000,  0.0000)
  29 Li     6.691484    0.259244   15.485338    ( 0.0000,  0.0000,  0.0000)
  30 Li    -0.218967    2.966051   15.551230    ( 0.0000,  0.0000,  0.0000)
  31 Li     3.141898    3.296349   15.368120    ( 0.0000,  0.0000,  0.0000)
  32 Li     6.380226    3.343031   15.471047    ( 0.0000,  0.0000,  0.0000)
  33 Li     0.058436    6.223432   15.284419    ( 0.0000,  0.0000,  0.0000)
  34 Li     3.286892    6.452901   15.294489    ( 0.0000,  0.0000,  0.0000)
  35 Li     6.427132    6.589005   15.375967    ( 0.0000,  0.0000,  0.0000)
  36 O      9.936566    9.073228   17.563818    ( 0.0000,  0.0000,  0.0000)
  37 C     10.147092    7.957438   18.457820    ( 0.0000,  0.0000,  0.0000)
  38 C     10.375700    8.414769   19.890045    ( 0.0000,  0.0000,  0.0000)
  39 H      9.292092    7.272047   18.390228    ( 0.0000,  0.0000,  0.0000)
  40 H     11.023400    7.444109   18.054990    ( 0.0000,  0.0000,  0.0000)
  41 H     10.607844    7.558272   20.527511    ( 0.0000,  0.0000,  0.0000)
  42 H     11.209801    9.116057   19.940657    ( 0.0000,  0.0000,  0.0000)
  43 H      9.487358    8.906674   20.297144    ( 0.0000,  0.0000,  0.0000)
  44 H      9.189533    9.597937   17.885736    ( 0.0000,  0.0000,  0.0000)
  45 N      8.540559   10.836578   15.610975    ( 0.0000,  0.0000,  0.0000)
  46 N      7.666798   11.740909   15.600441    ( 0.0000,  0.0000,  0.0000)

Unit cell:
           periodic     x           y           z      points  spacing
  1. axis:    yes    9.702222    0.000000    0.000000    60     0.1617
  2. axis:    yes    0.000000    9.702222    0.000000    60     0.1617
  3. axis:    no     0.000000    0.000000   24.851111   156     0.1593

  Lengths:   9.702222   9.702222  24.851111
  Angles:   90.000000  90.000000  90.000000

Effective grid spacing dv^(1/3) = 0.1609

     iter     time        total  log10-change:
                         energy  eigst   dens
iter:   1 07:51:15  -310.265365  -0.86
iter:   2 07:53:52  -310.249278  -1.63  -1.83
iter:   3 07:56:32  -310.243194c -2.30  -2.07
iter:   4 07:59:11  -310.245173c -2.55  -2.29
Writing to output.gpw (mode='')

iter:   5 08:01:59  -310.237681c -2.47  -2.23
iter:   6 08:04:42  -310.235900c -2.37  -2.53
iter:   7 08:07:17  -310.235625c -2.61  -2.76
iter:   8 08:09:56  -310.235552c -3.21  -2.87
iter:   9 08:12:34  -310.235532c -3.28  -2.96
Writing to output.gpw (mode='')

iter:  10 08:15:14  -310.235576c -3.63  -3.17
iter:  11 08:17:54  -310.235573c -4.05  -3.18
iter:  12 08:20:26  -310.235569c -4.46  -3.25
iter:  13 08:23:05  -310.235553c -4.49  -3.37
iter:  14 08:25:42  -310.235570c -4.70  -3.61
Writing to output.gpw (mode='')

iter:  15 08:28:28  -310.235568c -5.06  -3.68
iter:  16 08:31:01  -310.235569c -5.03  -3.74
iter:  17 08:33:45  -310.235571c -5.32  -4.01c
iter:  18 08:36:21  -310.235574c -5.60  -4.02c
iter:  19 08:38:57  -310.235573c -5.56  -4.07c
Writing to output.gpw (mode='')

iter:  20 08:41:43  -310.235575c -5.94  -4.25c
iter:  21 08:44:15  -310.235573c -6.06  -4.36c
iter:  22 08:46:52  -310.235572c -5.99  -4.40c
iter:  23 08:49:34  -310.235573c -6.42  -4.54c
iter:  24 08:52:10  -310.235573c -6.47  -4.61c
Writing to output.gpw (mode='')

iter:  25 08:54:48  -310.235573c -6.51  -4.81c
iter:  26 08:57:22  -310.235573c -6.80  -4.93c
iter:  27 09:00:01  -310.235573c -6.85  -5.04c
iter:  28 09:02:30  -310.235573c -7.00  -5.18c
iter:  29 09:05:06  -310.235573c -7.10  -5.21c
Writing to output.gpw (mode='')

iter:  30 09:07:51  -310.235573c -7.19  -5.24c
iter:  31 09:10:22  -310.235573c -7.31  -5.25c
iter:  32 09:13:01  -310.235573c -7.57c -5.28c

Converged after 32 iterations.

Dipole moment: (-16.964838, 5.081907, 0.371941) |e|*Ang

Energy contributions relative to reference atoms: (reference = -14434.854043)

Kinetic:       +150.268031
Potential:     -142.085673
External:        +0.000000
XC:            -319.113017
Entropy (-ST):   -0.157594
Local:           +0.773883
--------------------------
Free energy:   -310.314370
Extrapolated:  -310.235573

Dipole-layer corrected work functions: 3.400648, 2.685650 eV

Showing only first 2 kpts
 Kpt  Band  Eigenvalues  Occupancy
  0    31     -3.26738    1.97769
  0    32     -3.07313    1.29116
  0    33     -3.02614    0.83154
  0    34     -2.92695    0.17830

  1    31     -3.35675    1.99623
  1    32     -2.95743    0.30519
  1    33     -2.93635    0.21128
  1    34     -2.89194    0.09269


Fermi level: -3.04315

No gap
Writing to output.gpw (mode='')


Forces in eV/Ang:
  0 Li   -0.00664   -0.00350   -0.29408
  1 Li    0.00404    0.00889   -0.29661
  2 Li    0.00107    0.00097   -0.25527
  3 Li    0.01161    0.01159   -0.28877
  4 Li   -0.00858    0.00737   -0.29292
  5 Li   -0.01081   -0.00464   -0.29390
  6 Li    0.00955   -0.00789   -0.29432
  7 Li   -0.01130   -0.01355   -0.28561
  8 Li    0.00429    0.00611   -0.29845
  9 Li   -0.03635    0.03077    0.27846
 10 Li    0.01876    0.03642    0.27010
 11 Li    0.04485    0.05654    0.24132
 12 Li   -0.04329   -0.04669    0.23567
 13 Li   -0.01272   -0.03216    0.26044
 14 Li    0.06176   -0.06538    0.27698
 15 Li   -0.02652   -0.03106    0.28817
 16 Li    0.01749   -0.01722    0.28423
 17 Li    0.03538    0.01514    0.25911
 18 Li    0.02037   -0.00510    0.01550
 19 Li    0.00465   -0.00482    0.00058
 20 Li   -0.00110    0.00741    0.02471
 21 Li    0.00101    0.00496    0.00561
 22 Li   -0.02156   -0.00134    0.00491
 23 Li    0.00131    0.00781    0.00075
 24 Li    0.00796   -0.00780    0.00794
 25 Li   -0.00021   -0.00034    0.02276
 26 Li    0.00152   -0.00667    0.00587
 27 Li    0.01892    0.00812    0.04235
 28 Li   -0.00738    0.00607    0.01408
 29 Li   -0.00415   -0.01014    0.00396
 30 Li   -0.03741   -0.02315   -0.00983
 31 Li   -0.01929   -0.00043    0.01227
 32 Li   -0.00643    0.01126   -0.01015
 33 Li   -0.00266   -0.01570   -0.00146
 34 Li   -0.00878   -0.01169    0.00846
 35 Li   -0.00080    0.01111   -0.00550
 36 O     0.01564    0.04709    0.00939
 37 C    -0.01549    0.01802    0.02810
 38 C     0.03798   -0.00737   -0.03646
 39 H     0.02671   -0.00394    0.02319
 40 H    -0.01491    0.00129    0.05790
 41 H    -0.02309   -0.01803   -0.00372
 42 H     0.02151   -0.00050   -0.01144
 43 H     0.00038   -0.02758   -0.01433
 44 H    -0.02833   -0.01061    0.01673
 45 N    -0.07043    0.02341    0.02924
 46 N    -0.02024    0.04109   -0.03772

System changes: positions 

Initializing position-dependent things.

Density initialized from wave functions
       .-----------------------.  
      /|                       |  
     / |                       |  
    /  |                       |  
   /   |                       |  
  /    |                       |  
 *     |  H                   H|  
 |     |H                      |  
 |     |                       |  
 |     C                      H|  
 |     | H                  H  |  
 |     |                       |  
 |     Li      Li              |  
 |     |                       |  
 |   Li|     Li      Li        |  
 |     |  Li      Li      Li   |  
 |     |   Li      LiN    Li   |  
 |     |Li      Li     NLi     |  
 |     |          Li           |  
 |   LLi     LLi     LLi       |  
 |     |  Li      Li      Li   |  
 | Li  |   Li      Li          |  
 |     |Li      Li      Li     |  
 Li    | Li      Li            |  
 |    Li      Li      Li       |  
 |     |                       |  
 |     |                       |  
 |     |                       |  
 |     |                       |  
 |     |                       |  
 |     |                       |  
 |     .-----------------------.  
 |    /                       /   
 |   /                       /    
 |  /                       /     
 | /                       /      
 |/                       /       
 *-----------------------*        

Positions:
   0 Li     1.617037    1.617037   10.000000    ( 0.0000,  0.0000,  0.0000)
   1 Li     4.851111    1.617037   10.000000    ( 0.0000,  0.0000,  0.0000)
   2 Li     8.085185    1.617037   10.000000    ( 0.0000,  0.0000,  0.0000)
   3 Li     1.617037    4.851111   10.000000    ( 0.0000,  0.0000,  0.0000)
   4 Li     4.851111    4.851111   10.000000    ( 0.0000,  0.0000,  0.0000)
   5 Li     8.085185    4.851111   10.000000    ( 0.0000,  0.0000,  0.0000)
   6 Li     1.617037    8.085185   10.000000    ( 0.0000,  0.0000,  0.0000)
   7 Li     4.851111    8.085185   10.000000    ( 0.0000,  0.0000,  0.0000)
   8 Li     8.085185    8.085185   10.000000    ( 0.0000,  0.0000,  0.0000)
   9 Li     0.000000    0.000000   11.617037    ( 0.0000,  0.0000,  0.0000)
  10 Li     3.234074    0.000000   11.617037    ( 0.0000,  0.0000,  0.0000)
  11 Li     6.468148    0.000000   11.617037    ( 0.0000,  0.0000,  0.0000)
  12 Li     0.000000    3.234074   11.617037    ( 0.0000,  0.0000,  0.0000)
  13 Li     3.234074    3.234074   11.617037    ( 0.0000,  0.0000,  0.0000)
  14 Li     6.468148    3.234074   11.617037    ( 0.0000,  0.0000,  0.0000)
  15 Li     0.000000    6.468148   11.617037    ( 0.0000,  0.0000,  0.0000)
  16 Li     3.234074    6.468148   11.617037    ( 0.0000,  0.0000,  0.0000)
  17 Li     6.468148    6.468148   11.617037    ( 0.0000,  0.0000,  0.0000)
  18 Li     1.581726    1.558281   13.485606    ( 0.0000,  0.0000,  0.0000)
  19 Li     4.870686    1.676174   13.464687    ( 0.0000,  0.0000,  0.0000)
  20 Li     8.110514    1.597017   13.561683    ( 0.0000,  0.0000,  0.0000)
  21 Li     1.569979    4.747076   13.442817    ( 0.0000,  0.0000,  0.0000)
  22 Li     4.871268    4.862840   13.427082    ( 0.0000,  0.0000,  0.0000)
  23 Li     8.037991    4.805912   13.466482    ( 0.0000,  0.0000,  0.0000)
  24 Li     1.644590    8.056635   13.424351    ( 0.0000,  0.0000,  0.0000)
  25 Li     4.933913    8.157754   13.437565    ( 0.0000,  0.0000,  0.0000)
  26 Li     8.130353    8.104711   13.471344    ( 0.0000,  0.0000,  0.0000)
  27 Li     0.128118   -0.214648   15.618855    ( 0.0000,  0.0000,  0.0000)
  28 Li     3.445728   -0.048156   15.341558    ( 0.0000,  0.0000,  0.0000)
  29 Li     6.690519    0.258752   15.491357    ( 0.0000,  0.0000,  0.0000)
  30 Li    -0.221385    2.966476   15.557581    ( 0.0000,  0.0000,  0.0000)
  31 Li     3.141399    3.295959   15.367425    ( 0.0000,  0.0000,  0.0000)
  32 Li     6.372727    3.346760   15.469554    ( 0.0000,  0.0000,  0.0000)
  33 Li     0.059105    6.221703   15.284571    ( 0.0000,  0.0000,  0.0000)
  34 Li     3.289224    6.453795   15.291800    ( 0.0000,  0.0000,  0.0000)
  35 Li     6.426984    6.589256   15.376852    ( 0.0000,  0.0000,  0.0000)
  36 O      9.940966    9.073366   17.566495    ( 0.0000,  0.0000,  0.0000)
  37 C     10.154121    7.953261   18.455304    ( 0.0000,  0.0000,  0.0000)
  38 C     10.386071    8.401800   19.889720    ( 0.0000,  0.0000,  0.0000)
  39 H      9.300084    7.267490   18.384620    ( 0.0000,  0.0000,  0.0000)
  40 H     11.029913    7.442157   18.049305    ( 0.0000,  0.0000,  0.0000)
  41 H     10.623944    7.540939   20.519605    ( 0.0000,  0.0000,  0.0000)
  42 H     11.217284    9.106493   19.942959    ( 0.0000,  0.0000,  0.0000)
  43 H      9.495903    8.884803   20.304483    ( 0.0000,  0.0000,  0.0000)
  44 H      9.193070    9.594659   17.892992    ( 0.0000,  0.0000,  0.0000)
  45 N      8.533801   10.841551   15.615405    ( 0.0000,  0.0000,  0.0000)
  46 N      7.661509   11.747503   15.602232    ( 0.0000,  0.0000,  0.0000)

Unit cell:
           periodic     x           y           z      points  spacing
  1. axis:    yes    9.702222    0.000000    0.000000    60     0.1617
  2. axis:    yes    0.000000    9.702222    0.000000    60     0.1617
  3. axis:    no     0.000000    0.000000   24.851111   156     0.1593

  Lengths:   9.702222   9.702222  24.851111
  Angles:   90.000000  90.000000  90.000000

Effective grid spacing dv^(1/3) = 0.1609

     iter     time        total  log10-change:
                         energy  eigst   dens
iter:   1 09:16:35  -310.238151  -1.35
iter:   2 09:19:13  -310.239084  -2.23  -2.61
iter:   3 09:21:57  -310.239500c -2.73  -2.63
iter:   4 09:24:33  -310.238886c -3.30  -2.60
Writing to output.gpw (mode='')

iter:   5 09:27:17  -310.237215c -2.85  -2.67
iter:   6 09:29:49  -310.237122c -3.25  -2.84
iter:   7 09:32:26  -310.237010c -3.36  -2.97
iter:   8 09:34:58  -310.236909c -3.38  -3.08
iter:   9 09:37:28  -310.237015c -3.76  -3.29
Writing to output.gpw (mode='')

iter:  10 09:40:06  -310.236951c -4.35  -3.25
iter:  11 09:42:45  -310.236916c -4.25  -3.40
iter:  12 09:45:12  -310.236910c -4.77  -3.52
iter:  13 09:47:46  -310.236909c -4.66  -3.66
iter:  14 09:50:18  -310.236904c -5.20  -3.77
Writing to output.gpw (mode='')

iter:  15 09:53:07  -310.236909c -5.56  -3.78
iter:  16 09:55:40  -310.236919c -5.30  -3.93
iter:  17 09:58:14  -310.236921c -5.87  -4.11c
iter:  18 10:00:52  -310.236921c -5.91  -4.20c
iter:  19 10:03:27  -310.236922c -6.20  -4.35c
Writing to output.gpw (mode='')

iter:  20 10:06:12  -310.236918c -6.80  -4.42c
iter:  21 10:08:41  -310.236919c -7.04  -4.56c
iter:  22 10:11:13  -310.236915c -6.87  -4.63c
iter:  23 10:13:55  -310.236917c -7.23  -4.74c
