
  ___ ___ ___ _ _ _  
 |   |   |_  | | | | 
 | | | | | . | | | | 
 |__ |  _|___|_____|  22.8.0
 |___|_|             

User:   vazumah@c08.hercules
Date:   Tue Feb  7 03:44:08 2023
Arch:   x86_64
Pid:    4088
CWD:    /home/vazumah/Python_projects/LiNRR/Li_adsorb_studies/proton_donors/ethanol_N2/CH3CH2OH_x/bridge/8.085_1.617/N2_y
Python: 3.10.8
gpaw:   /home/vazumah/.conda/envs/GPAW/lib/python3.10/site-packages/gpaw
_gpaw:  /home/vazumah/.conda/envs/GPAW/lib/python3.10/site-packages/
        _gpaw.cpython-310-x86_64-linux-gnu.so
ase:    /home/vazumah/.conda/envs/GPAW/lib/python3.10/site-packages/ase (version 3.22.1)
numpy:  /home/vazumah/.conda/envs/GPAW/lib/python3.10/site-packages/numpy (version 1.24.1)
scipy:  /home/vazumah/.conda/envs/GPAW/lib/python3.10/site-packages/scipy (version 1.10.0)
libxc:  5.2.3
units:  Angstrom and eV
cores: 24
OpenMP: True
OMP_NUM_THREADS: 1

Input parameters:
  h: 0.16
  kpts: {size: [4, 4, 1]}
  occupations: {name: fermi-dirac,
                width: 0.05}
  poissonsolver: {dipolelayer: xy}
  xc: BEEF-vdW

System changes: positions, numbers, cell, pbc, initial_charges, initial_magmoms 

Initialize ...

species:
  Li:
    name: Lithium
    id: 830b4218f175192f93f959cfc0aad614
    Z: 3.0
    valence: 1
    core: 2
    charge: 0.0
    file: /home/vazumah/.conda/envs/GPAW/share/gpaw/Li.PBE.gz
    compensation charges: {type: gauss,
                           rc: 0.33,
                           lmax: 2}
    cutoffs: {filter: 1.91,
              core: 2.55}
    valence states:
      #              energy  rcut
      - 2s(1.00)    -2.874   1.058
      - 2p(0.00)    -1.090   1.058
      -  s          24.337   1.058
  
    # Using partial waves for Li as LCAO basis

  O:
    name: Oxygen
    id: 32ecd46bf208036f09c70b0ec9a88b78
    Z: 8.0
    valence: 6
    core: 2
    charge: 0.0
    file: /home/vazumah/.conda/envs/GPAW/share/gpaw/O.PBE.gz
    compensation charges: {type: gauss,
                           rc: 0.21,
                           lmax: 2}
    cutoffs: {filter: 1.17,
              core: 0.83}
    valence states:
      #              energy  rcut
      - 2s(2.00)   -23.961   0.688
      - 2p(4.00)    -9.029   0.598
      -  s           3.251   0.688
      -  p          18.182   0.598
      -  d           0.000   0.619
  
    # Using partial waves for O as LCAO basis

  C:
    name: Carbon
    id: 4aa54d4b901d75f77cc0ea3eec22967b
    Z: 6.0
    valence: 4
    core: 2
    charge: 0.0
    file: /home/vazumah/.conda/envs/GPAW/share/gpaw/C.PBE.gz
    compensation charges: {type: gauss,
                           rc: 0.20,
                           lmax: 2}
    cutoffs: {filter: 1.14,
              core: 1.14}
    valence states:
      #              energy  rcut
      - 2s(2.00)   -13.751   0.635
      - 2p(2.00)    -5.284   0.635
      -  s          13.461   0.635
      -  p          21.927   0.635
      -  d           0.000   0.635
  
    # Using partial waves for C as LCAO basis

  H:
    name: Hydrogen
    id: d65de229564ff8ea4db303e23b6d1ecf
    Z: 1.0
    valence: 1
    core: 0
    charge: 0.0
    file: /home/vazumah/.conda/envs/GPAW/share/gpaw/H.PBE.gz
    compensation charges: {type: gauss,
                           rc: 0.15,
                           lmax: 2}
    cutoffs: {filter: 0.85,
              core: 0.53}
    valence states:
      #              energy  rcut
      - 1s(1.00)    -6.494   0.476
      -  s          20.717   0.476
      -  p           0.000   0.476
  
    # Using partial waves for H as LCAO basis

  N:
    name: Nitrogen
    id: f7500608b86eaa90eef8b1d9a670dc53
    Z: 7.0
    valence: 5
    core: 2
    charge: 0.0
    file: /home/vazumah/.conda/envs/GPAW/share/gpaw/N.PBE.gz
    compensation charges: {type: gauss,
                           rc: 0.18,
                           lmax: 2}
    cutoffs: {filter: 1.11,
              core: 0.96}
    valence states:
      #              energy  rcut
      - 2s(2.00)   -18.583   0.603
      - 2p(3.00)    -7.089   0.529
      -  s           8.629   0.603
      -  p          20.123   0.529
      -  d           0.000   0.577
  
    # Using partial waves for N as LCAO basis

Reference energy: -14434.854043  # eV

Spin-paired calculation

Convergence criteria:
 Maximum [total energy] change in last 3 cyles: 0.0005 eV / electron
 Maximum integral of absolute [dens]ity change: 0.0001 electrons / valence electron
 Maximum integral of absolute [eigenst]ate change: 4e-08 eV^2 / valence electron
 Maximum number of scf [iter]ations: 333
 (Square brackets indicate name in SCF output, whereas a 'c' in
 the SCF output indicates the quantity has converged.)

Symmetries present (total): 1

  ( 1  0  0)
  ( 0  1  0)
  ( 0  0  1)

16 k-points: 4 x 4 x 1 Monkhorst-Pack grid
8 k-points in the irreducible part of the Brillouin zone
       k-points in crystal coordinates                weights
   0:     0.12500000   -0.37500000    0.00000000          2/16
   1:     0.12500000   -0.12500000    0.00000000          2/16
   2:     0.12500000    0.12500000    0.00000000          2/16
   3:     0.12500000    0.37500000    0.00000000          2/16
   4:     0.37500000   -0.37500000    0.00000000          2/16
   5:     0.37500000   -0.12500000    0.00000000          2/16
   6:     0.37500000    0.12500000    0.00000000          2/16
   7:     0.37500000    0.37500000    0.00000000          2/16

Wave functions: Uniform real-space grid
  Kinetic energy operator: 6*3+1=19 point O(h^6) finite-difference Laplacian
  ScaLapack parameters: grid=1x1, blocksize=None
  Wavefunction extrapolation:
    Improved wavefunction reuse through dual PAW basis 

Occupation numbers: Fermi-Dirac:
  width: 0.0500  # eV
 

Eigensolver
   Davidson(niter=2) 

Densities:
  Coarse grid: 60*60*156 grid
  Fine grid: 120*120*312 grid
  Total Charge: 0.000000 

Density mixing:
  Method: separate
  Backend: pulay
  Linear mixing parameter: 0.05
  old densities: 5
  Damping of long wavelength oscillations: 50 

Hamiltonian:
  XC and Coulomb potentials evaluated on a 120*120*312 grid
  Using the BEEF-vdW Exchange-Correlation functional
  Interpolation: tri-quintic (5. degree polynomial)
  Poisson solver: FastPoissonSolver using
    Stencil: 6*3+1=19 point O(h^6) finite-difference Laplacian
    FFT axes: [0, 1]
    FST axes: [2]

Dipole correction along z-axis 

XC parameters: BEEF-vdW with 2 nearest neighbor stencil

Memory estimate:
  Process memory now: 217.25 MiB
  Calculator: 411.72 MiB
    Density: 118.00 MiB
      Arrays: 36.75 MiB
      Localized functions: 67.24 MiB
      Mixer: 14.01 MiB
    Hamiltonian: 29.35 MiB
      Arrays: 24.03 MiB
      XC: 0.00 MiB
      Poisson: 0.00 MiB
      vbar: 5.32 MiB
    Wavefunctions: 264.37 MiB
      Arrays psit_nG: 123.27 MiB
      Eigensolver: 137.57 MiB
      Projections: 0.06 MiB
      Projectors: 3.47 MiB

Total number of cores used: 24
Parallelization over k-points: 8
Domain decomposition: 1 x 1 x 3

Number of atoms: 47
Number of atomic orbitals: 170
Number of bands in calculation: 44
Number of valence electrons: 66
Bands to converge: occupied

... initialized

Initializing position-dependent things.

Density initialized from atomic densities
Creating initial wave functions:
  44 bands from LCAO basis set

       .-----------------------.  
      /|                       |  
     / |                       |  
    /  |                       |  
   /   |                       |  
  /    |                       |  
 *     |                       |  
 |     |                       |  
 |   H |              H        |  
 |  C  |              O H      |  
 |   HH|                C      |  
 |     |                H      |  
 |     |                       |  
 |     |              N        |  
 |   Li|     Li      Ni        |  
 |     |  Li      Li      Li   |  
 | Li  |   Li      Li          |  
 |     |Li      Li      Li     |  
 Li    | Li      Li            |  
 |   LLi     LLi     LLi       |  
 |     |  Li      Li      Li   |  
 | Li  |   Li      Li          |  
 |     |Li      Li      Li     |  
 Li    | Li      Li            |  
 |    Li      Li      Li       |  
 |     |                       |  
 |     |                       |  
 |     |                       |  
 |     |                       |  
 |     |                       |  
 |     |                       |  
 |     .-----------------------.  
 |    /                       /   
 |   /                       /    
 |  /                       /     
 | /                       /      
 |/                       /       
 *-----------------------*        

Positions:
   0 Li     1.617037    1.617037   10.000000    ( 0.0000,  0.0000,  0.0000)
   1 Li     4.851111    1.617037   10.000000    ( 0.0000,  0.0000,  0.0000)
   2 Li     8.085185    1.617037   10.000000    ( 0.0000,  0.0000,  0.0000)
   3 Li     1.617037    4.851111   10.000000    ( 0.0000,  0.0000,  0.0000)
   4 Li     4.851111    4.851111   10.000000    ( 0.0000,  0.0000,  0.0000)
   5 Li     8.085185    4.851111   10.000000    ( 0.0000,  0.0000,  0.0000)
   6 Li     1.617037    8.085185   10.000000    ( 0.0000,  0.0000,  0.0000)
   7 Li     4.851111    8.085185   10.000000    ( 0.0000,  0.0000,  0.0000)
   8 Li     8.085185    8.085185   10.000000    ( 0.0000,  0.0000,  0.0000)
   9 Li     0.000000    0.000000   11.617037    ( 0.0000,  0.0000,  0.0000)
  10 Li     3.234074    0.000000   11.617037    ( 0.0000,  0.0000,  0.0000)
  11 Li     6.468148    0.000000   11.617037    ( 0.0000,  0.0000,  0.0000)
  12 Li     0.000000    3.234074   11.617037    ( 0.0000,  0.0000,  0.0000)
  13 Li     3.234074    3.234074   11.617037    ( 0.0000,  0.0000,  0.0000)
  14 Li     6.468148    3.234074   11.617037    ( 0.0000,  0.0000,  0.0000)
  15 Li     0.000000    6.468148   11.617037    ( 0.0000,  0.0000,  0.0000)
  16 Li     3.234074    6.468148   11.617037    ( 0.0000,  0.0000,  0.0000)
  17 Li     6.468148    6.468148   11.617037    ( 0.0000,  0.0000,  0.0000)
  18 Li     1.617038    1.617038   13.469728    ( 0.0000,  0.0000,  0.0000)
  19 Li     4.851111    1.617038   13.469729    ( 0.0000,  0.0000,  0.0000)
  20 Li     8.085184    1.617038   13.469728    ( 0.0000,  0.0000,  0.0000)
  21 Li     1.617038    4.851111   13.469729    ( 0.0000,  0.0000,  0.0000)
  22 Li     4.851111    4.851111   13.469730    ( 0.0000,  0.0000,  0.0000)
  23 Li     8.085184    4.851111   13.469729    ( 0.0000,  0.0000,  0.0000)
  24 Li     1.617038    8.085184   13.469728    ( 0.0000,  0.0000,  0.0000)
  25 Li     4.851111    8.085184   13.469729    ( 0.0000,  0.0000,  0.0000)
  26 Li     8.085184    8.085184   13.469728    ( 0.0000,  0.0000,  0.0000)
  27 Li    -0.000000   -0.000000   15.445939    ( 0.0000,  0.0000,  0.0000)
  28 Li     3.234074    0.000000   15.445939    ( 0.0000,  0.0000,  0.0000)
  29 Li     6.468148    0.000000   15.445939    ( 0.0000,  0.0000,  0.0000)
  30 Li     0.000000    3.234074   15.445939    ( 0.0000,  0.0000,  0.0000)
  31 Li     3.234076    3.234076   15.445938    ( 0.0000,  0.0000,  0.0000)
  32 Li     6.468146    3.234076   15.445938    ( 0.0000,  0.0000,  0.0000)
  33 Li     0.000000    6.468148   15.445939    ( 0.0000,  0.0000,  0.0000)
  34 Li     3.234076    6.468146   15.445938    ( 0.0000,  0.0000,  0.0000)
  35 Li     6.468146    6.468146   15.445938    ( 0.0000,  0.0000,  0.0000)
  36 O      8.085185    1.617037   21.445939    ( 0.0000,  0.0000,  0.0000)
  37 C      9.267593    0.800279   21.450238    ( 0.0000,  0.0000,  0.0000)
  38 C     10.551807    1.619898   21.435704    ( 0.0000,  0.0000,  0.0000)
  39 H      9.258969    0.116744   22.310398    ( 0.0000,  0.0000,  0.0000)
  40 H      9.192204    0.190554   20.547442    ( 0.0000,  0.0000,  0.0000)
  41 H     11.428734    0.965951   21.420269    ( 0.0000,  0.0000,  0.0000)
  42 H     10.586519    2.268921   20.558886    ( 0.0000,  0.0000,  0.0000)
  43 H     10.621995    2.248385   22.328265    ( 0.0000,  0.0000,  0.0000)
  44 H      8.124352    2.200014   22.214164    ( 0.0000,  0.0000,  0.0000)
  45 N      8.085000    1.617000   18.445939    ( 0.0000,  0.0000,  0.0000)
  46 N      8.085000    0.520378   18.445939    ( 0.0000,  0.0000,  0.0000)

Unit cell:
           periodic     x           y           z      points  spacing
  1. axis:    yes    9.702222    0.000000    0.000000    60     0.1617
  2. axis:    yes    0.000000    9.702222    0.000000    60     0.1617
  3. axis:    no     0.000000    0.000000   24.851111   156     0.1593

  Lengths:   9.702222   9.702222  24.851111
  Angles:   90.000000  90.000000  90.000000

Effective grid spacing dv^(1/3) = 0.1609

     iter     time        total  log10-change:
                         energy  eigst   dens
iter:   1 03:47:31  -671.833894
iter:   2 03:50:02    56.261424  +2.55  +0.03
iter:   3 03:52:35   347.416289  +3.23  -0.07
iter:   4 03:55:09   169.158246  +3.22  -0.10
Writing to output.gpw (mode='')

iter:   5 03:57:57   -48.280171  +3.12  -0.13
iter:   6 04:00:27  -318.215998  +3.19  -0.40
iter:   7 04:03:00  -428.814995  +2.87  -0.37
iter:   8 04:05:36  -437.228378  +2.52  -0.36
iter:   9 04:08:12  -474.699797  +2.36  -0.32
Writing to output.gpw (mode='')

iter:  10 04:10:54  -447.390307  +2.02  -0.26
iter:  11 04:13:32  -550.938602  +2.31  -0.26
iter:  12 04:16:05  -458.251378  +1.72  -0.16
iter:  13 04:18:45  -429.937192  +1.69  -0.17
iter:  14 04:21:21  -331.964534  +2.33  -0.22
Writing to output.gpw (mode='')

iter:  15 04:23:58  -319.089499  +1.61  -0.49
iter:  16 04:26:45  -315.757289  +1.36  -0.59
iter:  17 04:29:21  -314.147133  +0.74  -0.69
iter:  18 04:31:55  -314.811406  +0.51  -0.68
iter:  19 04:34:33  -330.601186  +1.64  -0.70
Writing to output.gpw (mode='')

iter:  20 04:37:07  -330.812478  +1.10  -0.47
iter:  21 04:39:39  -342.624984  +1.16  -0.44
iter:  22 04:42:23  -327.713247  +0.84  -0.37
iter:  23 04:44:58  -323.026661  +0.43  -0.51
iter:  24 04:47:28  -413.354030  +1.22  -0.50
Writing to output.gpw (mode='')

iter:  25 04:50:03  -290.177765  +1.43  -0.26
iter:  26 04:52:33  -286.735823  +2.14  -0.59
iter:  27 04:55:08  -302.292373  +1.72  -0.70
iter:  28 04:57:47  -321.111784  +2.28  -0.64
iter:  29 05:00:26  -326.829642  +1.84  -0.72
Writing to output.gpw (mode='')

iter:  30 05:03:03  -325.716909  +1.45  -0.73
iter:  31 05:05:33  -419.124796  +2.35  -0.78
iter:  32 05:07:57  -335.060349  +1.43  -0.41
iter:  33 05:10:25  -312.869664  +0.83  -0.54
iter:  34 05:12:58  -310.483315  +0.89  -0.73
Writing to output.gpw (mode='')

iter:  35 05:15:31  -311.365094  +0.68  -0.76
iter:  36 05:18:07  -311.049481  +0.14  -0.77
iter:  37 05:20:37  -310.711284  +0.03  -0.79
iter:  38 05:23:21  -313.023227  +0.68  -0.90
iter:  39 05:26:02  -310.053386  +0.35  -0.87
Writing to output.gpw (mode='')

iter:  40 05:28:40  -309.841030  +0.22  -1.05
iter:  41 05:31:10  -309.414852  +0.10  -1.14
iter:  42 05:33:46  -309.037485  +0.23  -1.18
iter:  43 05:36:15  -308.893974  -0.50  -1.29
iter:  44 05:38:56  -308.691836  -0.32  -1.39
Writing to output.gpw (mode='')

iter:  45 05:41:29  -308.649815  -0.87  -1.55
iter:  46 05:43:59  -308.622762  -1.14  -1.65
iter:  47 05:46:32  -308.594623  -0.97  -1.73
iter:  48 05:49:05  -308.587790  -0.91  -1.79
iter:  49 05:51:44  -308.569895c -1.33  -1.92
Writing to output.gpw (mode='')

iter:  50 05:54:28  -308.577423c -1.20  -2.08
iter:  51 05:57:08  -308.569390c -1.35  -2.03
iter:  52 05:59:40  -308.564892c -2.03  -2.17
iter:  53 06:02:16  -308.565605c -2.23  -2.51
iter:  54 06:04:47  -308.565882c -2.34  -2.56
Writing to output.gpw (mode='')

iter:  55 06:07:21  -308.565976c -2.41  -2.64
iter:  56 06:09:53  -308.566539c -2.41  -2.69
iter:  57 06:12:24  -308.566578c -2.75  -2.78
iter:  58 06:14:57  -308.566785c -2.69  -2.86
iter:  59 06:17:35  -308.567206c -2.80  -2.94
Writing to output.gpw (mode='')

iter:  60 06:20:14  -308.567385c -2.83  -2.92
iter:  61 06:22:54  -308.567667c -2.84  -3.09
iter:  62 06:25:30  -308.567826c -3.09  -3.08
iter:  63 06:28:06  -308.567968c -3.10  -3.27
iter:  64 06:30:40  -308.568105c -3.13  -3.42
Writing to output.gpw (mode='')

iter:  65 06:33:14  -308.568210c -3.12  -3.46
iter:  66 06:35:48  -308.568314c -3.25  -3.69
iter:  67 06:38:17  -308.568398c -3.39  -3.80
iter:  68 06:40:45  -308.568489c -3.38  -3.79
iter:  69 06:43:13  -308.568555c -3.56  -3.72
Writing to output.gpw (mode='')

iter:  70 06:45:50  -308.568620c -3.51  -3.67
iter:  71 06:48:20  -308.568681c -3.59  -3.68
iter:  72 06:50:55  -308.568727c -3.76  -3.60
iter:  73 06:53:26  -308.568770c -3.68  -3.61
iter:  74 06:55:52  -308.568805c -3.79  -3.61
Writing to output.gpw (mode='')

iter:  75 06:58:36  -308.568853c -3.83  -3.56
iter:  76 07:01:18  -308.568883c -3.87  -3.70
iter:  77 07:03:55  -308.568907c -4.04  -3.66
iter:  78 07:06:27  -308.568934c -3.95  -3.62
iter:  79 07:09:03  -308.568962c -4.00  -3.69
Writing to output.gpw (mode='')

iter:  80 07:11:39  -308.568993c -3.93  -3.70
iter:  81 07:14:09  -308.569007c -4.00  -3.76
iter:  82 07:16:48  -308.569025c -4.20  -3.68
iter:  83 07:19:19  -308.569044c -4.15  -3.74
iter:  84 07:21:46  -308.569049c -4.18  -3.86
Writing to output.gpw (mode='')

iter:  85 07:24:28  -308.569063c -4.37  -3.82
iter:  86 07:27:00  -308.569073c -4.43  -3.89
iter:  87 07:29:35  -308.569084c -4.44  -3.83
iter:  88 07:32:12  -308.569098c -4.38  -3.96
iter:  89 07:34:52  -308.569112c -4.32  -4.14c
Writing to output.gpw (mode='')

iter:  90 07:37:24  -308.569117c -4.47  -4.23c
iter:  91 07:40:00  -308.569124c -4.56  -4.29c
iter:  92 07:42:38  -308.569128c -4.66  -4.38c
iter:  93 07:45:08  -308.569132c -4.74  -4.54c
iter:  94 07:47:39  -308.569136c -4.86  -4.76c
Writing to output.gpw (mode='')

iter:  95 07:50:14  -308.569140c -4.72  -4.82c
iter:  96 07:52:48  -308.569144c -4.76  -4.88c
iter:  97 07:55:19  -308.569147c -4.86  -4.97c
iter:  98 07:58:03  -308.569149c -4.76  -4.94c
iter:  99 08:00:46  -308.569152c -4.90  -4.90c
Writing to output.gpw (mode='')

iter: 100 08:03:23  -308.569154c -4.93  -4.97c
iter: 101 08:05:57  -308.569156c -4.99  -4.97c
iter: 102 08:08:31  -308.569157c -4.99  -4.95c
iter: 103 08:11:00  -308.569159c -4.97  -4.84c
iter: 104 08:13:28  -308.569160c -5.05  -4.78c
Writing to output.gpw (mode='')

iter: 105 08:16:04  -308.569162c -5.14  -4.75c
iter: 106 08:18:37  -308.569164c -5.20  -4.73c
iter: 107 08:21:19  -308.569165c -5.35  -4.75c
iter: 108 08:23:55  -308.569166c -5.20  -4.72c
iter: 109 08:26:30  -308.569167c -5.36  -4.67c
Writing to output.gpw (mode='')

iter: 110 08:29:19  -308.569168c -5.04  -4.68c
iter: 111 08:31:44  -308.569170c -5.32  -4.66c
iter: 112 08:34:17  -308.569169c -5.23  -4.73c
iter: 113 08:36:50  -308.569173c -5.29  -4.60c
iter: 114 08:39:15  -308.569172c -5.51  -4.73c
Writing to output.gpw (mode='')

iter: 115 08:41:47  -308.569175c -5.38  -4.67c
iter: 116 08:44:14  -308.569175c -5.57  -4.82c
iter: 117 08:46:48  -308.569178c -5.33  -4.75c
iter: 118 08:49:22  -308.569179c -5.51  -4.79c
iter: 119 08:51:54  -308.569179c -5.38  -4.82c
Writing to output.gpw (mode='')

iter: 120 08:54:28  -308.569179c -5.73  -4.97c
iter: 121 08:56:50  -308.569180c -5.64  -5.03c
iter: 122 08:59:23  -308.569180c -5.53  -5.06c
iter: 123 09:01:58  -308.569180c -5.67  -5.10c
iter: 124 09:04:33  -308.569181c -5.76  -5.13c
Writing to output.gpw (mode='')

iter: 125 09:07:01  -308.569181c -5.80  -5.32c
iter: 126 09:09:28  -308.569181c -5.94  -5.39c
iter: 127 09:12:00  -308.569182c -5.84  -5.40c
iter: 128 09:14:28  -308.569182c -5.93  -5.49c
iter: 129 09:17:01  -308.569182c -5.97  -5.71c
Writing to output.gpw (mode='')

iter: 130 09:19:33  -308.569182c -6.04  -5.82c
iter: 131 09:22:01  -308.569182c -6.14  -5.86c
iter: 132 09:24:31  -308.569182c -6.09  -5.84c
iter: 133 09:27:05  -308.569182c -6.08  -5.75c
iter: 134 09:29:35  -308.569182c -6.29  -5.64c
Writing to output.gpw (mode='')

iter: 135 09:32:08  -308.569183c -6.15  -5.66c
iter: 136 09:34:39  -308.569183c -6.22  -5.63c
iter: 137 09:37:11  -308.569183c -6.23  -5.63c
iter: 138 09:39:43  -308.569183c -6.31  -5.59c
iter: 139 09:42:12  -308.569183c -6.39  -5.53c
Writing to output.gpw (mode='')

iter: 140 09:44:44  -308.569183c -6.48  -5.50c
iter: 141 09:47:18  -308.569183c -6.54  -5.50c
iter: 142 09:49:58  -308.569183c -6.49  -5.49c
iter: 143 09:52:29  -308.569183c -6.55  -5.48c
iter: 144 09:54:57  -308.569183c -6.57  -5.25c
Writing to output.gpw (mode='')

iter: 145 09:57:32  -308.569183c -6.33  -5.42c
iter: 146 10:00:03  -308.569183c -6.52  -5.51c
iter: 147 10:02:41  -308.569183c -6.68  -5.41c
iter: 148 10:05:21  -308.569184c -6.48  -5.48c
iter: 149 10:07:58  -308.569184c -6.69  -5.48c
Writing to output.gpw (mode='')

iter: 150 10:10:28  -308.569184c -6.57  -5.51c
iter: 151 10:12:57  -308.569184c -6.61  -5.54c
iter: 152 10:15:31  -308.569184c -6.59  -5.65c
iter: 153 10:18:10  -308.569184c -6.73  -5.72c
iter: 154 10:20:46  -308.569184c -6.78  -5.82c
Writing to output.gpw (mode='')

iter: 155 10:23:19  -308.569184c -6.88  -5.92c
iter: 156 10:25:49  -308.569184c -6.90  -5.96c
iter: 157 10:28:26  -308.569184c -6.90  -6.01c
iter: 158 10:30:58  -308.569185c -6.91  -6.10c
iter: 159 10:33:32  -308.569185c -6.84  -6.21c
Writing to output.gpw (mode='')

iter: 160 10:36:04  -308.569185c -6.93  -6.27c
iter: 161 10:38:42  -308.569185c -7.16  -6.24c
iter: 162 10:41:30  -308.569185c -7.20  -6.18c
iter: 163 10:43:59  -308.569185c -7.27  -6.17c
iter: 164 10:46:39  -308.569185c -7.21  -6.12c
Writing to output.gpw (mode='')

iter: 165 10:49:10  -308.569185c -7.23  -6.13c
iter: 166 10:51:46  -308.569185c -7.16  -6.11c
iter: 167 10:54:23  -308.569185c -7.11  -6.07c
iter: 168 10:56:48  -308.569185c -7.29  -6.05c
iter: 169 10:59:17  -308.569185c -7.28  -6.04c
Writing to output.gpw (mode='')

iter: 170 11:01:49  -308.569185c -7.34  -5.99c
iter: 171 11:04:23  -308.569185c -7.39  -5.96c
iter: 172 11:07:00  -308.569185c -7.07  -5.96c
iter: 173 11:09:26  -308.569185c -7.33  -6.04c
iter: 174 11:12:00  -308.569185c -7.45c -5.99c

Converged after 174 iterations.

Dipole moment: (6.586791, -15.051062, 0.314926) |e|*Ang

Energy contributions relative to reference atoms: (reference = -14434.854043)

Kinetic:       +151.131622
Potential:     -147.191961
External:        +0.000000
XC:            -313.182468
Entropy (-ST):   -0.153956
Local:           +0.750600
--------------------------
Free energy:   -308.646163
Extrapolated:  -308.569185

Dipole-layer corrected work functions: 3.393192, 2.787797 eV

Showing only first 2 kpts
 Kpt  Band  Eigenvalues  Occupancy
  0    31     -3.34267    1.98718
  0    32     -3.26081    1.93580
  0    33     -2.92212    0.06666
  0    34     -2.83688    0.01246

  1    31     -3.11034    1.19593
  1    32     -3.08358    0.93095
  1    33     -3.05269    0.63897
  1    34     -3.04471    0.57164


Fermi level: -3.09049

No gap
Writing to output.gpw (mode='')


Forces in eV/Ang:
  0 Li    0.00438    0.00013   -0.27299
  1 Li   -0.00445    0.00021   -0.27293
  2 Li    0.00007    0.00161   -0.27102
  3 Li   -0.00231   -0.00255   -0.27494
  4 Li    0.00250   -0.00236   -0.27483
  5 Li   -0.00018    0.00380   -0.27328
  6 Li   -0.00166    0.00160   -0.27279
  7 Li    0.00177    0.00133   -0.27272
  8 Li   -0.00010   -0.00494   -0.27144
  9 Li   -0.00041   -0.00099    0.25948
 10 Li   -0.00007    0.00131    0.25671
 11 Li    0.00050   -0.00128    0.25939
 12 Li    0.00201    0.00276    0.25542
 13 Li   -0.00004   -0.00501    0.25967
 14 Li   -0.00197    0.00308    0.25517
 15 Li   -0.00145   -0.00266    0.25731
 16 Li   -0.00009    0.00480    0.26652
 17 Li    0.00154   -0.00269    0.25655
 18 Li   -0.00618   -0.00124    0.04713
 19 Li    0.00650   -0.00128    0.04526
 20 Li   -0.00036    0.00222    0.01742
 21 Li    0.00098    0.00035    0.03447
 22 Li   -0.00083    0.00043    0.03449
 23 Li   -0.00018   -0.00391    0.04010
 24 Li   -0.00322    0.00203    0.03982
 25 Li    0.00336    0.00198    0.03921
 26 Li   -0.00016    0.00178    0.04257
 27 Li    0.03653   -0.02885   -0.07076
 28 Li   -0.00231    0.00586   -0.01828
 29 Li   -0.03477   -0.02942   -0.06922
 30 Li    0.02014    0.02672   -0.04392
 31 Li   -0.00204   -0.00860   -0.01748
 32 Li   -0.01832    0.02733   -0.04273
 33 Li   -0.00303    0.00323   -0.02140
 34 Li   -0.00099    0.00199   -0.01960
 35 Li    0.00401    0.00303   -0.02199
 36 O     0.02467   -0.02009    0.05931
 37 C     0.07480   -0.06214    0.05706
 38 C    -0.00224    0.00033    0.00169
 39 H    -0.01957    0.04027   -0.02454
 40 H     0.07025   -0.01172    0.18849
 41 H    -0.04077    0.00526   -0.01228
 42 H     0.00788    0.00307   -0.02607
 43 H     0.00866   -0.01324   -0.02329
 44 H    -0.00518   -0.02891   -0.01725
 45 N    -0.04499    0.60079   -0.12043
 46 N    -0.06263   -0.57371   -0.05930

System changes: positions 

Initializing position-dependent things.

Density initialized from wave functions
       .-----------------------.  
      /|                       |  
     / |                       |  
    /  |                       |  
   /   |                       |  
  /    |                       |  
 *     |                       |  
 |     |                       |  
 |   H |              H        |  
 |  C  |              O H      |  
 |   HH|                C      |  
 |     |                H      |  
 |     Li              Li      |  
 |     |              N        |  
 |     |     Li      Ni      Li|  
 |     |  Li      Li      Li   |  
 | Li  |   Li      Li          |  
 |     |Li      Li      Li     |  
 |     | Li                    |  
 |   LLi     LLi     LLi       |  
 |     |  Li      Li      Li   |  
 | Li  |   Li      Li          |  
 |     |Li      Li      Li     |  
 Li    | Li      Li            |  
 |    Li      Li      Li       |  
 |     |                       |  
 |     |                       |  
 |     |                       |  
 |     |                       |  
 |     |                       |  
 |     |                       |  
 |     .-----------------------.  
 |    /                       /   
 |   /                       /    
 |  /                       /     
 | /                       /      
 |/                       /       
 *-----------------------*        

Positions:
   0 Li     1.617037    1.617037   10.000000    ( 0.0000,  0.0000,  0.0000)
   1 Li     4.851111    1.617037   10.000000    ( 0.0000,  0.0000,  0.0000)
   2 Li     8.085185    1.617037   10.000000    ( 0.0000,  0.0000,  0.0000)
   3 Li     1.617037    4.851111   10.000000    ( 0.0000,  0.0000,  0.0000)
   4 Li     4.851111    4.851111   10.000000    ( 0.0000,  0.0000,  0.0000)
   5 Li     8.085185    4.851111   10.000000    ( 0.0000,  0.0000,  0.0000)
   6 Li     1.617037    8.085185   10.000000    ( 0.0000,  0.0000,  0.0000)
   7 Li     4.851111    8.085185   10.000000    ( 0.0000,  0.0000,  0.0000)
   8 Li     8.085185    8.085185   10.000000    ( 0.0000,  0.0000,  0.0000)
   9 Li     0.000000    0.000000   11.617037    ( 0.0000,  0.0000,  0.0000)
  10 Li     3.234074    0.000000   11.617037    ( 0.0000,  0.0000,  0.0000)
  11 Li     6.468148    0.000000   11.617037    ( 0.0000,  0.0000,  0.0000)
  12 Li     0.000000    3.234074   11.617037    ( 0.0000,  0.0000,  0.0000)
  13 Li     3.234074    3.234074   11.617037    ( 0.0000,  0.0000,  0.0000)
  14 Li     6.468148    3.234074   11.617037    ( 0.0000,  0.0000,  0.0000)
  15 Li     0.000000    6.468148   11.617037    ( 0.0000,  0.0000,  0.0000)
  16 Li     3.234074    6.468148   11.617037    ( 0.0000,  0.0000,  0.0000)
  17 Li     6.468148    6.468148   11.617037    ( 0.0000,  0.0000,  0.0000)
  18 Li     1.616950    1.617020   13.470401    ( 0.0000,  0.0000,  0.0000)
  19 Li     4.851204    1.617020   13.470376    ( 0.0000,  0.0000,  0.0000)
  20 Li     8.085179    1.617070   13.469977    ( 0.0000,  0.0000,  0.0000)
  21 Li     1.617052    4.851116   13.470222    ( 0.0000,  0.0000,  0.0000)
  22 Li     4.851099    4.851117   13.470223    ( 0.0000,  0.0000,  0.0000)
  23 Li     8.085181    4.851055   13.470302    ( 0.0000,  0.0000,  0.0000)
  24 Li     1.616992    8.085213   13.470297    ( 0.0000,  0.0000,  0.0000)
  25 Li     4.851159    8.085212   13.470290    ( 0.0000,  0.0000,  0.0000)
  26 Li     8.085182    8.085209   13.470336    ( 0.0000,  0.0000,  0.0000)
  27 Li     0.000522   -0.000412   15.444928    ( 0.0000,  0.0000,  0.0000)
  28 Li     3.234041    0.000084   15.445678    ( 0.0000,  0.0000,  0.0000)
  29 Li     6.467652   -0.000420   15.444950    ( 0.0000,  0.0000,  0.0000)
  30 Li     0.000288    3.234455   15.445311    ( 0.0000,  0.0000,  0.0000)
  31 Li     3.234047    3.233954   15.445688    ( 0.0000,  0.0000,  0.0000)
  32 Li     6.467884    3.234467   15.445328    ( 0.0000,  0.0000,  0.0000)
  33 Li    -0.000043    6.468194   15.445633    ( 0.0000,  0.0000,  0.0000)
  34 Li     3.234062    6.468174   15.445658    ( 0.0000,  0.0000,  0.0000)
  35 Li     6.468203    6.468189   15.445624    ( 0.0000,  0.0000,  0.0000)
  36 O      8.085538    1.616750   21.446787    ( 0.0000,  0.0000,  0.0000)
  37 C      9.268661    0.799392   21.451053    ( 0.0000,  0.0000,  0.0000)
  38 C     10.551775    1.619903   21.435728    ( 0.0000,  0.0000,  0.0000)
  39 H      9.258690    0.117319   22.310047    ( 0.0000,  0.0000,  0.0000)
  40 H      9.193208    0.190386   20.550135    ( 0.0000,  0.0000,  0.0000)
  41 H     11.428152    0.966027   21.420094    ( 0.0000,  0.0000,  0.0000)
  42 H     10.586631    2.268964   20.558514    ( 0.0000,  0.0000,  0.0000)
  43 H     10.622119    2.248196   22.327933    ( 0.0000,  0.0000,  0.0000)
  44 H      8.124278    2.199601   22.213918    ( 0.0000,  0.0000,  0.0000)
  45 N      8.084357    1.625583   18.444219    ( 0.0000,  0.0000,  0.0000)
  46 N      8.084105    0.512182   18.445092    ( 0.0000,  0.0000,  0.0000)

Unit cell:
           periodic     x           y           z      points  spacing
  1. axis:    yes    9.702222    0.000000    0.000000    60     0.1617
  2. axis:    yes    0.000000    9.702222    0.000000    60     0.1617
  3. axis:    no     0.000000    0.000000   24.851111   156     0.1593

  Lengths:   9.702222   9.702222  24.851111
  Angles:   90.000000  90.000000  90.000000

Effective grid spacing dv^(1/3) = 0.1609

     iter     time        total  log10-change:
                         energy  eigst   dens
iter:   1 11:15:13  -308.630819  -1.29
iter:   2 11:17:49  -308.595409  -1.32  -1.75
iter:   3 11:20:19  -308.575787  -2.36  -1.88
iter:   4 11:22:43  -308.565211c -1.71  -2.35
Writing to output.gpw (mode='')

iter:   5 11:25:20  -308.563523c -2.07  -2.43
iter:   6 11:27:54  -308.561767c -2.47  -2.50
iter:   7 11:30:26  -308.561595c -2.65  -2.72
iter:   8 11:32:57  -308.561921c -2.74  -2.82
iter:   9 11:35:33  -308.561310c -3.24  -2.78
Writing to output.gpw (mode='')

iter:  10 11:38:12  -308.561294c -3.52  -3.01
iter:  11 11:40:41  -308.561294c -3.39  -3.09
iter:  12 11:43:09  -308.561276c -3.79  -3.25
iter:  13 11:45:36  -308.561275c -4.02  -3.38
iter:  14 11:48:09  -308.561253c -4.22  -3.46
Writing to output.gpw (mode='')

iter:  15 11:50:41  -308.561274c -4.08  -3.61
iter:  16 11:53:27  -308.561271c -4.60  -3.73
iter:  17 11:56:02  -308.561264c -4.79  -3.84
iter:  18 11:58:32  -308.561278c -4.58  -3.96
iter:  19 12:01:00  -308.561279c -4.93  -4.03c
Writing to output.gpw (mode='')

iter:  20 12:03:34  -308.561277c -4.94  -4.10c
iter:  21 12:06:09  -308.561281c -5.19  -4.25c
iter:  22 12:08:37  -308.561283c -5.13  -4.32c
iter:  23 12:11:07  -308.561282c -5.35  -4.37c
iter:  24 12:13:37  -308.561281c -5.36  -4.48c
Writing to output.gpw (mode='')

iter:  25 12:16:16  -308.561285c -5.34  -4.57c
iter:  26 12:18:52  -308.561285c -5.50  -4.55c
iter:  27 12:21:23  -308.561284c -5.54  -4.74c
iter:  28 12:24:10  -308.561283c -5.67  -4.83c
iter:  29 12:26:45  -308.561284c -5.75  -4.90c
Writing to output.gpw (mode='')

iter:  30 12:29:18  -308.561284c -5.82  -5.01c
iter:  31 12:31:59  -308.561284c -5.77  -5.09c
iter:  32 12:34:43  -308.561285c -5.98  -5.09c
iter:  33 12:37:14  -308.561285c -6.11  -5.02c
iter:  34 12:39:47  -308.561285c -6.14  -5.11c
Writing to output.gpw (mode='')

iter:  35 12:42:21  -308.561285c -6.18  -5.02c
iter:  36 12:44:54  -308.561286c -6.16  -5.04c
iter:  37 12:47:23  -308.561286c -6.25  -4.99c
iter:  38 12:49:55  -308.561286c -6.07  -5.00c
iter:  39 12:52:28  -308.561286c -6.20  -4.98c
Writing to output.gpw (mode='')

iter:  40 12:55:06  -308.561285c -6.27  -4.88c
iter:  41 12:57:31  -308.561284c -6.46  -5.09c
iter:  42 13:00:13  -308.561285c -6.55  -5.12c
iter:  43 13:02:55  -308.561285c -6.64  -4.98c
iter:  44 13:05:31  -308.561284c -6.45  -5.04c
Writing to output.gpw (mode='')

iter:  45 13:08:10  -308.561284c -6.55  -5.14c
iter:  46 13:10:44  -308.561284c -6.39  -5.17c
iter:  47 13:13:19  -308.561284c -6.55  -5.29c
iter:  48 13:15:57  -308.561284c -6.64  -5.37c
iter:  49 13:18:24  -308.561284c -6.58  -5.54c
Writing to output.gpw (mode='')

iter:  50 13:20:53  -308.561284c -6.56  -5.55c
iter:  51 13:23:29  -308.561284c -6.68  -5.59c
iter:  52 13:26:02  -308.561284c -7.04  -5.64c
iter:  53 13:28:33  -308.561284c -7.15  -5.65c
iter:  54 13:31:07  -308.561284c -7.19  -5.61c
Writing to output.gpw (mode='')

iter:  55 13:33:38  -308.561284c -7.00  -5.62c
iter:  56 13:36:09  -308.561284c -7.24  -5.70c
iter:  57 13:38:39  -308.561284c -7.20  -5.67c
iter:  58 13:41:10  -308.561284c -7.16  -5.75c
iter:  59 13:43:45  -308.561284c -7.28  -5.68c
Writing to output.gpw (mode='')

iter:  60 13:46:21  -308.561284c -7.34  -5.66c
iter:  61 13:48:48  -308.561284c -6.95  -5.65c
iter:  62 13:51:17  -308.561284c -7.59c -5.58c

Converged after 62 iterations.

Dipole moment: (6.578817, -15.190948, 0.304468) |e|*Ang

Energy contributions relative to reference atoms: (reference = -14434.854043)

Kinetic:       +148.650748
Potential:     -145.181296
External:        +0.000000
XC:            -312.703514
Entropy (-ST):   -0.154199
Local:           +0.749877
--------------------------
Free energy:   -308.638383
Extrapolated:  -308.561284

Dipole-layer corrected work functions: 3.393898, 2.808606 eV

Showing only first 2 kpts
 Kpt  Band  Eigenvalues  Occupancy
  0    31     -3.35328    1.98714
  0    32     -3.27152    1.93575
  0    33     -2.93239    0.06603
  0    34     -2.84783    0.01251

  1    31     -3.12155    1.20022
  1    32     -3.09305    0.91815
  1    33     -3.06429    0.64634
  1    34     -3.05564    0.57312


Fermi level: -3.10125

No gap
Writing to output.gpw (mode='')


Forces in eV/Ang:
  0 Li    0.00470    0.00022   -0.27319
  1 Li   -0.00477    0.00030   -0.27314
  2 Li    0.00007    0.00171   -0.27117
  3 Li   -0.00227   -0.00279   -0.27515
  4 Li    0.00245   -0.00261   -0.27504
  5 Li   -0.00017    0.00394   -0.27334
  6 Li   -0.00172    0.00158   -0.27281
  7 Li    0.00182    0.00133   -0.27273
  8 Li   -0.00010   -0.00512   -0.27137
  9 Li   -0.00044   -0.00107    0.26026
 10 Li   -0.00009    0.00118    0.25701
 11 Li    0.00054   -0.00135    0.26017
 12 Li    0.00227    0.00284    0.25569
 13 Li   -0.00005   -0.00511    0.25994
 14 Li   -0.00223    0.00315    0.25545
 15 Li   -0.00162   -0.00278    0.25789
 16 Li   -0.00007    0.00528    0.26698
 17 Li    0.00169   -0.00282    0.25713
 18 Li   -0.00580   -0.00119    0.04544
 19 Li    0.00611   -0.00122    0.04362
 20 Li   -0.00034    0.00256    0.01491
 21 Li    0.00108    0.00057    0.03341
 22 Li   -0.00094    0.00064    0.03342
 23 Li   -0.00017   -0.00400    0.03865
 24 Li   -0.00305    0.00195    0.03850
 25 Li    0.00319    0.00191    0.03792
 26 Li   -0.00016    0.00158    0.04128
 27 Li    0.03377   -0.02767   -0.06435
 28 Li   -0.00225    0.00566   -0.01799
 29 Li   -0.03207   -0.02824   -0.06273
 30 Li    0.01912    0.02635   -0.04087
 31 Li   -0.00198   -0.00833   -0.01716
 32 Li   -0.01736    0.02696   -0.03962
 33 Li   -0.00323    0.00376   -0.02032
 34 Li   -0.00096    0.00178   -0.01913
 35 Li    0.00419    0.00359   -0.02083
 36 O     0.03092   -0.06052    0.01479
 37 C     0.04850    0.01547    0.06360
 38 C    -0.00154    0.00319   -0.00950
 39 H    -0.01172    0.01079    0.02013
 40 H     0.06185   -0.04101    0.12937
 41 H    -0.02351   -0.00123   -0.01169
 42 H     0.00274   -0.00538   -0.01744
 43 H     0.01046   -0.00561   -0.01393
 44 H     0.00149   -0.00300    0.02163
 45 N    -0.04228   -1.64916   -0.10380
 46 N    -0.05830    1.65474   -0.04929

System changes: positions 

Initializing position-dependent things.

Density initialized from wave functions
       .-----------------------.  
      /|                       |  
     / |                       |  
    /  |                       |  
   /   |                       |  
  /    |                       |  
 *     |                       |  
 |     |                       |  
 |   H |              H        |  
 |  C  |              O H      |  
 |   HH|                C      |  
 |     |                H      |  
 |     Li              Li      |  
 |     |              N        |  
 |     |     Li      Ni      Li|  
 |     |  Li      Li      Li   |  
 | Li  |   Li      Li          |  
 |     |Li      Li      Li     |  
 |     | Li                    |  
 |   LLi     LLi     LLi       |  
 |     |  Li      Li      Li   |  
 | Li  |   Li      Li          |  
 |     |Li      Li      Li     |  
 Li    | Li      Li            |  
 |    Li      Li      Li       |  
 |     |                       |  
 |     |                       |  
 |     |                       |  
 |     |                       |  
 |     |                       |  
 |     |                       |  
 |     .-----------------------.  
 |    /                       /   
 |   /                       /    
 |  /                       /     
 | /                       /      
 |/                       /       
 *-----------------------*        

Positions:
   0 Li     1.617037    1.617037   10.000000    ( 0.0000,  0.0000,  0.0000)
   1 Li     4.851111    1.617037   10.000000    ( 0.0000,  0.0000,  0.0000)
   2 Li     8.085185    1.617037   10.000000    ( 0.0000,  0.0000,  0.0000)
   3 Li     1.617037    4.851111   10.000000    ( 0.0000,  0.0000,  0.0000)
   4 Li     4.851111    4.851111   10.000000    ( 0.0000,  0.0000,  0.0000)
   5 Li     8.085185    4.851111   10.000000    ( 0.0000,  0.0000,  0.0000)
   6 Li     1.617037    8.085185   10.000000    ( 0.0000,  0.0000,  0.0000)
   7 Li     4.851111    8.085185   10.000000    ( 0.0000,  0.0000,  0.0000)
   8 Li     8.085185    8.085185   10.000000    ( 0.0000,  0.0000,  0.0000)
   9 Li     0.000000    0.000000   11.617037    ( 0.0000,  0.0000,  0.0000)
  10 Li     3.234074    0.000000   11.617037    ( 0.0000,  0.0000,  0.0000)
  11 Li     6.468148    0.000000   11.617037    ( 0.0000,  0.0000,  0.0000)
  12 Li     0.000000    3.234074   11.617037    ( 0.0000,  0.0000,  0.0000)
  13 Li     3.234074    3.234074   11.617037    ( 0.0000,  0.0000,  0.0000)
  14 Li     6.468148    3.234074   11.617037    ( 0.0000,  0.0000,  0.0000)
  15 Li     0.000000    6.468148   11.617037    ( 0.0000,  0.0000,  0.0000)
  16 Li     3.234074    6.468148   11.617037    ( 0.0000,  0.0000,  0.0000)
  17 Li     6.468148    6.468148   11.617037    ( 0.0000,  0.0000,  0.0000)
  18 Li     1.616911    1.617012   13.470706    ( 0.0000,  0.0000,  0.0000)
  19 Li     4.851245    1.617012   13.470669    ( 0.0000,  0.0000,  0.0000)
  20 Li     8.085177    1.617086   13.470081    ( 0.0000,  0.0000,  0.0000)
  21 Li     1.617059    4.851119   13.470446    ( 0.0000,  0.0000,  0.0000)
  22 Li     4.851093    4.851121   13.470447    ( 0.0000,  0.0000,  0.0000)
  23 Li     8.085180    4.851029   13.470562    ( 0.0000,  0.0000,  0.0000)
  24 Li     1.616971    8.085226   13.470555    ( 0.0000,  0.0000,  0.0000)
  25 Li     4.851181    8.085225   13.470544    ( 0.0000,  0.0000,  0.0000)
  26 Li     8.085180    8.085220   13.470612    ( 0.0000,  0.0000,  0.0000)
  27 Li     0.000752   -0.000598   15.444488    ( 0.0000,  0.0000,  0.0000)
  28 Li     3.234026    0.000122   15.445558    ( 0.0000,  0.0000,  0.0000)
  29 Li     6.467433   -0.000610   15.444520    ( 0.0000,  0.0000,  0.0000)
  30 Li     0.000417    3.234631   15.445034    ( 0.0000,  0.0000,  0.0000)
  31 Li     3.234034    3.233898   15.445574    ( 0.0000,  0.0000,  0.0000)
  32 Li     6.467767    3.234646   15.445058    ( 0.0000,  0.0000,  0.0000)
  33 Li    -0.000064    6.468218   15.445496    ( 0.0000,  0.0000,  0.0000)
  34 Li     3.234056    6.468186   15.445530    ( 0.0000,  0.0000,  0.0000)
  35 Li     6.468230    6.468211   15.445483    ( 0.0000,  0.0000,  0.0000)
  36 O      8.085728    1.616440   21.446985    ( 0.0000,  0.0000,  0.0000)
  37 C      9.269042    0.799320   21.451459    ( 0.0000,  0.0000,  0.0000)
  38 C     10.551763    1.619917   21.435690    ( 0.0000,  0.0000,  0.0000)
  39 H      9.258595    0.117457   22.310080    ( 0.0000,  0.0000,  0.0000)
  40 H      9.193636    0.190181   20.551124    ( 0.0000,  0.0000,  0.0000)
  41 H     11.427957    0.966033   21.420015    ( 0.0000,  0.0000,  0.0000)
  42 H     10.586661    2.268948   20.558379    ( 0.0000,  0.0000,  0.0000)
  43 H     10.622184    2.248142   22.327819    ( 0.0000,  0.0000,  0.0000)
  44 H      8.124273    2.199523   22.213974    ( 0.0000,  0.0000,  0.0000)
  45 N      8.084071    1.619716   18.443494    ( 0.0000,  0.0000,  0.0000)
  46 N      8.083709    0.518134   18.444743    ( 0.0000,  0.0000,  0.0000)

Unit cell:
           periodic     x           y           z      points  spacing
  1. axis:    yes    9.702222    0.000000    0.000000    60     0.1617
  2. axis:    yes    0.000000    9.702222    0.000000    60     0.1617
  3. axis:    no     0.000000    0.000000   24.851111   156     0.1593

  Lengths:   9.702222   9.702222  24.851111
  Angles:   90.000000  90.000000  90.000000

Effective grid spacing dv^(1/3) = 0.1609

     iter     time        total  log10-change:
                         energy  eigst   dens
iter:   1 13:54:35  -308.616009  -1.90
iter:   2 13:57:05  -308.587206  -1.52  -1.84
iter:   3 13:59:44  -308.580239  -2.53  -2.07
iter:   4 14:02:18  -308.574905c -1.79  -2.41
Writing to output.gpw (mode='')

iter:   5 14:04:52  -308.575418c -2.24  -2.36
iter:   6 14:07:17  -308.574568c -2.32  -2.44
iter:   7 14:09:49  -308.573084c -2.34  -2.57
iter:   8 14:12:18  -308.572610c -3.18  -2.73
iter:   9 14:14:41  -308.572756c -3.01  -2.89
Writing to output.gpw (mode='')

iter:  10 14:17:11  -308.572499c -3.75  -3.13
iter:  11 14:19:40  -308.572503c -3.88  -3.23
iter:  12 14:22:07  -308.572493c -4.07  -3.39
iter:  13 14:24:42  -308.572477c -4.07  -3.50
iter:  14 14:27:17  -308.572486c -4.35  -3.58
Writing to output.gpw (mode='')

iter:  15 14:29:45  -308.572498c -4.44  -3.67
iter:  16 14:32:17  -308.572499c -4.61  -3.87
iter:  17 14:34:54  -308.572500c -4.66  -3.89
iter:  18 14:37:28  -308.572511c -4.66  -4.01c
iter:  19 14:40:00  -308.572508c -4.97  -3.99
Writing to output.gpw (mode='')

iter:  20 14:42:31  -308.572508c -4.96  -4.17c
iter:  21 14:45:09  -308.572511c -5.17  -4.25c
iter:  22 14:47:43  -308.572511c -5.14  -4.35c
iter:  23 14:50:14  -308.572512c -5.25  -4.49c
iter:  24 14:52:54  -308.572514c -5.34  -4.50c
Writing to output.gpw (mode='')

iter:  25 14:55:24  -308.572514c -5.44  -4.65c
iter:  26 14:58:00  -308.572515c -5.50  -4.72c
iter:  27 15:00:28  -308.572516c -5.46  -4.74c
iter:  28 15:02:51  -308.572517c -5.50  -4.80c
iter:  29 15:05:29  -308.572517c -5.54  -4.86c
Writing to output.gpw (mode='')

iter:  30 15:08:12  -308.572518c -5.76  -4.89c
iter:  31 15:10:39  -308.572519c -5.75  -4.84c
iter:  32 15:13:04  -308.572519c -5.88  -5.01c
iter:  33 15:15:33  -308.572519c -5.92  -5.01c
iter:  34 15:18:03  -308.572520c -5.83  -4.99c
Writing to output.gpw (mode='')

iter:  35 15:20:37  -308.572520c -5.78  -4.99c
iter:  36 15:23:13  -308.572520c -5.93  -4.98c
iter:  37 15:25:42  -308.572521c -6.03  -5.00c
iter:  38 15:28:13  -308.572521c -6.10  -4.98c
iter:  39 15:30:49  -308.572521c -5.99  -4.96c
Writing to output.gpw (mode='')

iter:  40 15:33:25  -308.572521c -6.17  -4.94c
iter:  41 15:35:55  -308.572520c -5.96  -4.94c
iter:  42 15:38:25  -308.572521c -6.20  -4.82c
iter:  43 15:40:54  -308.572522c -6.11  -4.86c
iter:  44 15:43:24  -308.572522c -6.43  -4.93c
Writing to output.gpw (mode='')

iter:  45 15:46:00  -308.572522c -6.49  -4.87c
iter:  46 15:48:29  -308.572523c -6.18  -4.88c
iter:  47 15:51:07  -308.572523c -6.38  -4.97c
iter:  48 15:53:37  -308.572523c -6.43  -5.03c
iter:  49 15:56:12  -308.572524c -6.42  -5.15c
Writing to output.gpw (mode='')

iter:  50 15:58:37  -308.572524c -6.57  -5.24c
iter:  51 16:01:08  -308.572524c -6.66  -5.34c
iter:  52 16:03:38  -308.572524c -6.80  -5.38c
iter:  53 16:06:09  -308.572524c -6.80  -5.54c
iter:  54 16:08:45  -308.572524c -6.86  -5.60c
Writing to output.gpw (mode='')

iter:  55 16:11:20  -308.572524c -6.94  -5.65c
iter:  56 16:13:56  -308.572525c -6.85  -5.70c
iter:  57 16:16:24  -308.572525c -7.13  -5.83c
iter:  58 16:18:56  -308.572525c -7.06  -5.88c
iter:  59 16:21:32  -308.572525c -7.10  -6.06c
Writing to output.gpw (mode='')

iter:  60 16:24:04  -308.572525c -7.26  -6.18c
iter:  61 16:26:40  -308.572525c -7.23  -6.16c
iter:  62 16:29:09  -308.572525c -7.24  -6.35c
iter:  63 16:31:43  -308.572525c -7.20  -6.38c
iter:  64 16:34:16  -308.572525c -7.19  -6.39c
Writing to output.gpw (mode='')

iter:  65 16:36:51  -308.572525c -7.44c -6.39c

Converged after 65 iterations.

Dipole moment: (6.593761, -15.079602, 0.312054) |e|*Ang

Energy contributions relative to reference atoms: (reference = -14434.854043)

Kinetic:       +150.564615
Potential:     -146.722225
External:        +0.000000
XC:            -313.088326
Entropy (-ST):   -0.154011
Local:           +0.750417
--------------------------
Free energy:   -308.649530
Extrapolated:  -308.572525

Dipole-layer corrected work functions: 3.393397, 2.793522 eV

Showing only first 2 kpts
 Kpt  Band  Eigenvalues  Occupancy
  0    31     -3.34551    1.98715
  0    32     -3.26382    1.93586
  0    33     -2.92478    0.06626
  0    34     -2.83979    0.01244

  1    31     -3.11330    1.19586
  1    32     -3.08602    0.92577
  1    33     -3.05614    0.64321
  1    34     -3.04788    0.57332


Fermi level: -3.09346

No gap

Forces in eV/Ang:
  0 Li    0.00449    0.00014   -0.27312
  1 Li   -0.00456    0.00023   -0.27306
  2 Li    0.00008    0.00165   -0.27117
  3 Li   -0.00231   -0.00262   -0.27505
  4 Li    0.00250   -0.00244   -0.27494
  5 Li   -0.00018    0.00386   -0.27335
  6 Li   -0.00169    0.00161   -0.27286
  7 Li    0.00180    0.00134   -0.27278
  8 Li   -0.00010   -0.00502   -0.27151
  9 Li   -0.00035   -0.00108    0.26033
 10 Li   -0.00009    0.00133    0.25746
 11 Li    0.00046   -0.00138    0.26023
 12 Li    0.00219    0.00284    0.25606
 13 Li   -0.00005   -0.00513    0.26036
 14 Li   -0.00214    0.00317    0.25580
 15 Li   -0.00152   -0.00268    0.25807
 16 Li   -0.00008    0.00500    0.26721
 17 Li    0.00161   -0.00272    0.25730
 18 Li   -0.00577   -0.00109    0.04489
 19 Li    0.00608   -0.00113    0.04312
 20 Li   -0.00034    0.00232    0.01585
 21 Li    0.00113    0.00054    0.03289
 22 Li   -0.00099    0.00060    0.03292
 23 Li   -0.00017   -0.00371    0.03820
 24 Li   -0.00285    0.00173    0.03787
 25 Li    0.00298    0.00170    0.03731
 26 Li   -0.00016    0.00149    0.04046
 27 Li    0.03504   -0.02795   -0.06756
 28 Li   -0.00225    0.00564   -0.01753
 29 Li   -0.03332   -0.02854   -0.06603
 30 Li    0.01949    0.02612   -0.04202
 31 Li   -0.00199   -0.00836   -0.01675
 32 Li   -0.01773    0.02675   -0.04086
 33 Li   -0.00304    0.00331   -0.02040
 34 Li   -0.00096    0.00193   -0.01879
 35 Li    0.00400    0.00313   -0.02095
 36 O     0.02914   -0.05930    0.01340
 37 C     0.04169    0.02416    0.06154
 38 C     0.00111    0.00579   -0.00998
 39 H    -0.00822    0.00494    0.03145
 40 H     0.06141   -0.04821    0.11678
 41 H    -0.01889   -0.00300   -0.01179
 42 H     0.00177   -0.00691   -0.01563
 43 H     0.01130   -0.00327   -0.01189
 44 H     0.00121   -0.00404    0.02048
 45 N    -0.03511   -0.11098   -0.10584
 46 N    -0.06201    0.10568   -0.05618

System changes: positions 

Initializing position-dependent things.

Density initialized from wave functions
       .-----------------------.  
      /|                       |  
     / |                       |  
    /  |                       |  
   /   |                       |  
  /    |                       |  
 *     |                       |  
 |     |                       |  
 |   H |              H        |  
 |  C  |              O H      |  
 |   HH|                C      |  
 |     |                H      |  
 |     Li              Li      |  
 |     |              N        |  
 |     |     Li      Ni      Li|  
 |     |  Li      Li      Li   |  
 | Li  |   Li      Li          |  
 |     |Li      Li      Li     |  
 |     | Li                    |  
 |   LLi     LLi     LLi       |  
 |     |  Li      Li      Li   |  
 | Li  |   Li      Li          |  
 |     |Li      Li      Li     |  
 Li    | Li      Li            |  
 |    Li      Li      Li       |  
 |     |                       |  
 |     |                       |  
 |     |                       |  
 |     |                       |  
 |     |                       |  
 |     |                       |  
 |     .-----------------------.  
 |    /                       /   
 |   /                       /    
 |  /                       /     
 | /                       /      
 |/                       /       
 *-----------------------*        

Positions:
   0 Li     1.617037    1.617037   10.000000    ( 0.0000,  0.0000,  0.0000)
   1 Li     4.851111    1.617037   10.000000    ( 0.0000,  0.0000,  0.0000)
   2 Li     8.085185    1.617037   10.000000    ( 0.0000,  0.0000,  0.0000)
   3 Li     1.617037    4.851111   10.000000    ( 0.0000,  0.0000,  0.0000)
   4 Li     4.851111    4.851111   10.000000    ( 0.0000,  0.0000,  0.0000)
   5 Li     8.085185    4.851111   10.000000    ( 0.0000,  0.0000,  0.0000)
   6 Li     1.617037    8.085185   10.000000    ( 0.0000,  0.0000,  0.0000)
   7 Li     4.851111    8.085185   10.000000    ( 0.0000,  0.0000,  0.0000)
   8 Li     8.085185    8.085185   10.000000    ( 0.0000,  0.0000,  0.0000)
   9 Li     0.000000    0.000000   11.617037    ( 0.0000,  0.0000,  0.0000)
  10 Li     3.234074    0.000000   11.617037    ( 0.0000,  0.0000,  0.0000)
  11 Li     6.468148    0.000000   11.617037    ( 0.0000,  0.0000,  0.0000)
  12 Li     0.000000    3.234074   11.617037    ( 0.0000,  0.0000,  0.0000)
  13 Li     3.234074    3.234074   11.617037    ( 0.0000,  0.0000,  0.0000)
  14 Li     6.468148    3.234074   11.617037    ( 0.0000,  0.0000,  0.0000)
  15 Li     0.000000    6.468148   11.617037    ( 0.0000,  0.0000,  0.0000)
  16 Li     3.234074    6.468148   11.617037    ( 0.0000,  0.0000,  0.0000)
  17 Li     6.468148    6.468148   11.617037    ( 0.0000,  0.0000,  0.0000)
  18 Li     1.616806    1.616992   13.471522    ( 0.0000,  0.0000,  0.0000)
  19 Li     4.851356    1.616991   13.471452    ( 0.0000,  0.0000,  0.0000)
  20 Li     8.085170    1.617128   13.470371    ( 0.0000,  0.0000,  0.0000)
  21 Li     1.617080    4.851129   13.471043    ( 0.0000,  0.0000,  0.0000)
  22 Li     4.851076    4.851131   13.471045    ( 0.0000,  0.0000,  0.0000)
  23 Li     8.085177    4.850961   13.471256    ( 0.0000,  0.0000,  0.0000)
  24 Li     1.616919    8.085258   13.471243    ( 0.0000,  0.0000,  0.0000)
  25 Li     4.851235    8.085256   13.471222    ( 0.0000,  0.0000,  0.0000)
  26 Li     8.085178    8.085248   13.471348    ( 0.0000,  0.0000,  0.0000)
  27 Li     0.001387   -0.001105   15.443261    ( 0.0000,  0.0000,  0.0000)
  28 Li     3.233985    0.000224   15.445240    ( 0.0000,  0.0000,  0.0000)
  29 Li     6.466828   -0.001127   15.443321    ( 0.0000,  0.0000,  0.0000)
  30 Li     0.000770    3.235104   15.444271    ( 0.0000,  0.0000,  0.0000)
  31 Li     3.233998    3.233746   15.445270    ( 0.0000,  0.0000,  0.0000)
  32 Li     6.467445    3.235131   15.444316    ( 0.0000,  0.0000,  0.0000)
  33 Li    -0.000119    6.468278   15.445126    ( 0.0000,  0.0000,  0.0000)
  34 Li     3.234039    6.468221   15.445189    ( 0.0000,  0.0000,  0.0000)
  35 Li     6.468303    6.468268   15.445103    ( 0.0000,  0.0000,  0.0000)
  36 O      8.086245    1.615455   21.447328    ( 0.0000,  0.0000,  0.0000)
  37 C      9.269868    0.799565   21.452561    ( 0.0000,  0.0000,  0.0000)
  38 C     10.551776    1.620010   21.435536    ( 0.0000,  0.0000,  0.0000)
  39 H      9.258421    0.117625   22.310523    ( 0.0000,  0.0000,  0.0000)
  40 H      9.194764    0.189391   20.553392    ( 0.0000,  0.0000,  0.0000)
  41 H     11.427567    0.965997   21.419801    ( 0.0000,  0.0000,  0.0000)
  42 H     10.586706    2.268845   20.558073    ( 0.0000,  0.0000,  0.0000)
  43 H     10.622382    2.248061   22.327580    ( 0.0000,  0.0000,  0.0000)
  44 H      8.124281    2.199395   22.214260    ( 0.0000,  0.0000,  0.0000)
  45 N      8.083415    1.619106   18.441551    ( 0.0000,  0.0000,  0.0000)
  46 N      8.082589    0.518721   18.443723    ( 0.0000,  0.0000,  0.0000)

Unit cell:
           periodic     x           y           z      points  spacing
  1. axis:    yes    9.702222    0.000000    0.000000    60     0.1617
  2. axis:    yes    0.000000    9.702222    0.000000    60     0.1617
  3. axis:    no     0.000000    0.000000   24.851111   156     0.1593

  Lengths:   9.702222   9.702222  24.851111
  Angles:   90.000000  90.000000  90.000000

Effective grid spacing dv^(1/3) = 0.1609

     iter     time        total  log10-change:
                         energy  eigst   dens
iter:   1 16:40:09  -308.576925  -2.70
iter:   2 16:42:51  -308.574411  -3.13  -2.39
iter:   3 16:45:29  -308.574136c -4.38  -2.78
iter:   4 16:48:04  -308.574073c -3.93  -3.38
Writing to output.gpw (mode='')

iter:   5 16:50:33  -308.574044c -4.27  -3.41
iter:   6 16:53:06  -308.574059c -4.59  -3.55
iter:   7 16:55:41  -308.574046c -4.72  -3.81
iter:   8 16:58:21  -308.574058c -4.98  -3.86
iter:   9 17:00:53  -308.574065c -5.03  -4.07c
Writing to output.gpw (mode='')

iter:  10 17:03:31  -308.574062c -5.65  -4.07c
iter:  11 17:06:02  -308.574059c -5.58  -4.19c
iter:  12 17:08:47  -308.574062c -6.13  -4.31c
iter:  13 17:11:16  -308.574060c -5.97  -4.45c
iter:  14 17:13:45  -308.574059c -6.05  -4.46c
Writing to output.gpw (mode='')

iter:  15 17:16:18  -308.574060c -6.64  -4.46c
iter:  16 17:18:55  -308.574062c -6.53  -4.55c
iter:  17 17:21:29  -308.574062c -6.82  -4.80c
iter:  18 17:23:58  -308.574062c -6.97  -4.86c
iter:  19 17:26:27  -308.574062c -7.17  -5.06c
Writing to output.gpw (mode='')

iter:  20 17:28:59  -308.574061c -7.16  -5.07c
iter:  21 17:31:30  -308.574061c -7.10  -5.25c
iter:  22 17:34:02  -308.574061c -7.31  -5.35c
iter:  23 17:36:32  -308.574061c -7.49c -5.37c

Converged after 23 iterations.

Dipole moment: (6.601435, -15.056443, 0.312726) |e|*Ang

Energy contributions relative to reference atoms: (reference = -14434.854043)

Kinetic:       +150.852416
Potential:     -146.948029
External:        +0.000000
XC:            -313.151888
Entropy (-ST):   -0.153982
Local:           +0.750431
--------------------------
Free energy:   -308.651053
Extrapolated:  -308.574061

Dipole-layer corrected work functions: 3.393383, 2.792216 eV

Showing only first 2 kpts
 Kpt  Band  Eigenvalues  Occupancy
  0    31     -3.34475    1.98712
  0    32     -3.26323    1.93594
  0    33     -2.92397    0.06607
  0    34     -2.83901    0.01241

  1    31     -3.11247    1.19418
  1    32     -3.08527    0.92480
  1    33     -3.05569    0.64505
  1    34     -3.04738    0.57464


Fermi level: -3.09280

No gap
Writing to output.gpw (mode='')


Forces in eV/Ang:
  0 Li    0.00450    0.00013   -0.27320
  1 Li   -0.00457    0.00022   -0.27313
  2 Li    0.00008    0.00165   -0.27125
  3 Li   -0.00232   -0.00261   -0.27511
  4 Li    0.00252   -0.00243   -0.27500
  5 Li   -0.00018    0.00388   -0.27342
  6 Li   -0.00170    0.00163   -0.27295
  7 Li    0.00180    0.00135   -0.27286
  8 Li   -0.00010   -0.00504   -0.27162
  9 Li   -0.00028   -0.00116    0.26099
 10 Li   -0.00010    0.00140    0.25819
 11 Li    0.00040   -0.00145    0.26088
 12 Li    0.00228    0.00291    0.25667
 13 Li   -0.00006   -0.00523    0.26103
 14 Li   -0.00222    0.00324    0.25641
 15 Li   -0.00153   -0.00266    0.25869
 16 Li   -0.00008    0.00502    0.26780
 17 Li    0.00161   -0.00270    0.25791
 18 Li   -0.00547   -0.00095    0.04306
 19 Li    0.00576   -0.00099    0.04137
 20 Li   -0.00033    0.00229    0.01505
 21 Li    0.00126    0.00067    0.03155
 22 Li   -0.00113    0.00071    0.03160
 23 Li   -0.00016   -0.00346    0.03665
 24 Li   -0.00249    0.00143    0.03619
 25 Li    0.00261    0.00142    0.03568
 26 Li   -0.00015    0.00126    0.03859
 27 Li    0.03443   -0.02738   -0.06646
 28 Li   -0.00220    0.00550   -0.01683
 29 Li   -0.03274   -0.02800   -0.06496
 30 Li    0.01916    0.02560   -0.04108
 31 Li   -0.00194   -0.00819   -0.01610
 32 Li   -0.01743    0.02625   -0.03998
 33 Li   -0.00295    0.00316   -0.01974
 34 Li   -0.00093    0.00193   -0.01809
 35 Li    0.00388    0.00298   -0.02029
 36 O     0.02214   -0.03908    0.03102
 37 C     0.02749    0.01372    0.05061
 38 C     0.00831    0.01165   -0.00402
 39 H     0.00057    0.00159    0.04917
 40 H     0.05885   -0.05296    0.09724
 41 H    -0.01058   -0.00609   -0.01170
 42 H    -0.00072   -0.00775   -0.01509
 43 H     0.01474    0.00251   -0.00891
 44 H    -0.00073   -0.01711    0.00251
 45 N    -0.02601    0.05487   -0.09760
 46 N    -0.06299   -0.05282   -0.05744

System changes: positions 

Initializing position-dependent things.

Density initialized from wave functions
       .-----------------------.  
      /|                       |  
     / |                       |  
    /  |                       |  
   /   |                       |  
  /    |                       |  
 *     |                       |  
 |     |                       |  
 |   H |              H        |  
 |  C  |              O H      |  
 |   HH|                C      |  
 |     |                H      |  
 |     Li              Li      |  
 |     |              N        |  
 |     |     Li      Ni      Li|  
 |     |  Li      Li      Li   |  
 | Li  |   Li      Li          |  
 |     |Li      Li      Li     |  
 |     | Li                    |  
 |   LLi     LLi     LLi       |  
 |     |  Li      Li      Li   |  
 | Li  |   Li      Li          |  
 |     |Li      Li      Li     |  
 Li    | Li      Li            |  
 |    Li      Li      Li       |  
 |     |                       |  
 |     |                       |  
 |     |                       |  
 |     |                       |  
 |     |                       |  
 |     |                       |  
 |     .-----------------------.  
 |    /                       /   
 |   /                       /    
 |  /                       /     
 | /                       /      
 |/                       /       
 *-----------------------*        

Positions:
   0 Li     1.617037    1.617037   10.000000    ( 0.0000,  0.0000,  0.0000)
   1 Li     4.851111    1.617037   10.000000    ( 0.0000,  0.0000,  0.0000)
   2 Li     8.085185    1.617037   10.000000    ( 0.0000,  0.0000,  0.0000)
   3 Li     1.617037    4.851111   10.000000    ( 0.0000,  0.0000,  0.0000)
   4 Li     4.851111    4.851111   10.000000    ( 0.0000,  0.0000,  0.0000)
   5 Li     8.085185    4.851111   10.000000    ( 0.0000,  0.0000,  0.0000)
   6 Li     1.617037    8.085185   10.000000    ( 0.0000,  0.0000,  0.0000)
   7 Li     4.851111    8.085185   10.000000    ( 0.0000,  0.0000,  0.0000)
   8 Li     8.085185    8.085185   10.000000    ( 0.0000,  0.0000,  0.0000)
   9 Li     0.000000    0.000000   11.617037    ( 0.0000,  0.0000,  0.0000)
  10 Li     3.234074    0.000000   11.617037    ( 0.0000,  0.0000,  0.0000)
  11 Li     6.468148    0.000000   11.617037    ( 0.0000,  0.0000,  0.0000)
  12 Li     0.000000    3.234074   11.617037    ( 0.0000,  0.0000,  0.0000)
  13 Li     3.234074    3.234074   11.617037    ( 0.0000,  0.0000,  0.0000)
  14 Li     6.468148    3.234074   11.617037    ( 0.0000,  0.0000,  0.0000)
  15 Li     0.000000    6.468148   11.617037    ( 0.0000,  0.0000,  0.0000)
  16 Li     3.234074    6.468148   11.617037    ( 0.0000,  0.0000,  0.0000)
  17 Li     6.468148    6.468148   11.617037    ( 0.0000,  0.0000,  0.0000)
  18 Li     1.615971    1.616839   13.478040    ( 0.0000,  0.0000,  0.0000)
  19 Li     4.852235    1.616832   13.477714    ( 0.0000,  0.0000,  0.0000)
  20 Li     8.085121    1.617467   13.472667    ( 0.0000,  0.0000,  0.0000)
  21 Li     1.617254    4.851215   13.475819    ( 0.0000,  0.0000,  0.0000)
  22 Li     4.850923    4.851225   13.475827    ( 0.0000,  0.0000,  0.0000)
  23 Li     8.085152    4.850428   13.476803    ( 0.0000,  0.0000,  0.0000)
  24 Li     1.616519    8.085497   13.476734    ( 0.0000,  0.0000,  0.0000)
  25 Li     4.851654    8.085491   13.476633    ( 0.0000,  0.0000,  0.0000)
  26 Li     8.085155    8.085455   13.477210    ( 0.0000,  0.0000,  0.0000)
  27 Li     0.006523   -0.005195   15.433353    ( 0.0000,  0.0000,  0.0000)
  28 Li     3.233656    0.001048   15.442694    ( 0.0000,  0.0000,  0.0000)
  29 Li     6.461945   -0.005305   15.433637    ( 0.0000,  0.0000,  0.0000)
  30 Li     0.003626    3.238926   15.438124    ( 0.0000,  0.0000,  0.0000)
  31 Li     3.233708    3.232524   15.442835    ( 0.0000,  0.0000,  0.0000)
  32 Li     6.464847    3.239046   15.438338    ( 0.0000,  0.0000,  0.0000)
  33 Li    -0.000561    6.468756   15.442152    ( 0.0000,  0.0000,  0.0000)
  34 Li     3.233899    6.468506   15.442457    ( 0.0000,  0.0000,  0.0000)
  35 Li     6.468885    6.468719   15.442048    ( 0.0000,  0.0000,  0.0000)
  36 O      8.089951    1.608875   21.451394    ( 0.0000,  0.0000,  0.0000)
  37 C      9.275534    0.800863   21.460748    ( 0.0000,  0.0000,  0.0000)
  38 C     10.552409    1.621197   21.434709    ( 0.0000,  0.0000,  0.0000)
  39 H      9.257661    0.118720   22.315497    ( 0.0000,  0.0000,  0.0000)
  40 H      9.203771    0.182575   20.570396    ( 0.0000,  0.0000,  0.0000)
  41 H     11.425019    0.965470   21.418062    ( 0.0000,  0.0000,  0.0000)
  42 H     10.586887    2.267937   20.555627    ( 0.0000,  0.0000,  0.0000)
  43 H     10.624258    2.247834   22.325851    ( 0.0000,  0.0000,  0.0000)
  44 H      8.124210    2.197413   22.215312    ( 0.0000,  0.0000,  0.0000)
  45 N      8.078717    1.617572   18.426343    ( 0.0000,  0.0000,  0.0000)
  46 N      8.073388    0.520627   18.435338    ( 0.0000,  0.0000,  0.0000)

Unit cell:
           periodic     x           y           z      points  spacing
  1. axis:    yes    9.702222    0.000000    0.000000    60     0.1617
  2. axis:    yes    0.000000    9.702222    0.000000    60     0.1617
  3. axis:    no     0.000000    0.000000   24.851111   156     0.1593

  Lengths:   9.702222   9.702222  24.851111
  Angles:   90.000000  90.000000  90.000000

Effective grid spacing dv^(1/3) = 0.1609

     iter     time        total  log10-change:
                         energy  eigst   dens
iter:   1 17:39:46  -308.687047  -1.08
iter:   2 17:42:27  -308.594087  -1.71  -1.59
iter:   3 17:45:06  -308.582574  -2.79  -2.03
iter:   4 17:47:44  -308.581719c -2.84  -2.57
Writing to output.gpw (mode='')

iter:   5 17:50:14  -308.581569c -2.51  -2.79
iter:   6 17:52:45  -308.581591c -3.31  -2.97
iter:   7 17:55:20  -308.581639c -3.43  -3.10
iter:   8 17:58:07  -308.581654c -3.50  -3.25
iter:   9 18:00:38  -308.581680c -3.85  -3.17
Writing to output.gpw (mode='')

iter:  10 18:03:09  -308.581737c -3.71  -3.43
iter:  11 18:05:44  -308.581724c -4.53  -3.42
iter:  12 18:08:26  -308.581722c -4.33  -3.51
iter:  13 18:11:00  -308.581720c -4.32  -3.60
iter:  14 18:13:26  -308.581729c -4.69  -3.73
Writing to output.gpw (mode='')

iter:  15 18:16:03  -308.581731c -4.99  -3.76
iter:  16 18:18:41  -308.581732c -4.75  -3.76
iter:  17 18:21:25  -308.581746c -5.12  -3.79
iter:  18 18:24:03  -308.581744c -5.53  -3.94
iter:  19 18:26:47  -308.581743c -5.48  -4.07c
Writing to output.gpw (mode='')

iter:  20 18:29:30  -308.581741c -5.47  -4.22c
iter:  21 18:32:19  -308.581740c -5.58  -4.33c
iter:  22 18:35:01  -308.581741c -5.68  -4.43c
iter:  23 18:37:41  -308.581742c -6.08  -4.46c
iter:  24 18:40:14  -308.581741c -6.07  -4.52c
Writing to output.gpw (mode='')

iter:  25 18:43:00  -308.581742c -6.29  -4.69c
iter:  26 18:45:36  -308.581742c -6.27  -4.69c
iter:  27 18:48:04  -308.581742c -6.41  -4.74c
iter:  28 18:50:42  -308.581743c -6.50  -4.81c
iter:  29 18:53:26  -308.581743c -6.60  -4.96c
Writing to output.gpw (mode='')

iter:  30 18:56:05  -308.581743c -6.49  -5.07c
iter:  31 18:58:48  -308.581743c -6.55  -5.10c
iter:  32 19:01:20  -308.581743c -6.75  -5.15c
iter:  33 19:04:01  -308.581743c -7.01  -5.22c
iter:  34 19:06:29  -308.581743c -7.04  -5.44c
Writing to output.gpw (mode='')

iter:  35 19:09:17  -308.581743c -6.92  -5.54c
iter:  36 19:11:54  -308.581743c -7.00  -5.57c
iter:  37 19:14:26  -308.581743c -7.18  -5.61c
iter:  38 19:17:10  -308.581743c -7.29  -5.98c
iter:  39 19:19:52  -308.581743c -7.29  -5.96c
Writing to output.gpw (mode='')

iter:  40 19:22:32  -308.581743c -7.29  -5.98c
iter:  41 19:25:00  -308.581743c -7.39  -5.93c
iter:  42 19:27:34  -308.581743c -7.43c -5.87c

Converged after 42 iterations.

Dipole moment: (6.645821, -14.926703, 0.313549) |e|*Ang

Energy contributions relative to reference atoms: (reference = -14434.854043)

Kinetic:       +152.124131
Potential:     -147.922317
External:        +0.000000
XC:            -313.456698
Entropy (-ST):   -0.153835
Local:           +0.750059
--------------------------
Free energy:   -308.658661
Extrapolated:  -308.581743

Dipole-layer corrected work functions: 3.393176, 2.790427 eV

Showing only first 2 kpts
 Kpt  Band  Eigenvalues  Occupancy
  0    31     -3.34309    1.98695
  0    32     -3.26272    1.93655
  0    33     -2.92168    0.06444
  0    34     -2.83722    0.01222

  1    31     -3.11027    1.18266
  1    32     -3.08313    0.91346
  1    33     -3.05660    0.66182
  1    34     -3.04761    0.58478


Fermi level: -3.09180

No gap
Writing to output.gpw (mode='')


Forces in eV/Ang:
  0 Li    0.00461    0.00002   -0.27380
  1 Li   -0.00471    0.00011   -0.27371
  2 Li    0.00010    0.00171   -0.27214
  3 Li   -0.00242   -0.00262   -0.27557
  4 Li    0.00262   -0.00241   -0.27543
  5 Li   -0.00019    0.00407   -0.27390
  6 Li   -0.00175    0.00174   -0.27352
  7 Li    0.00185    0.00145   -0.27343
  8 Li   -0.00009   -0.00527   -0.27240
  9 Li    0.00032   -0.00176    0.26617
 10 Li   -0.00022    0.00188    0.26370
 11 Li   -0.00009   -0.00209    0.26600
 12 Li    0.00309    0.00346    0.26135
 13 Li   -0.00011   -0.00596    0.26613
 14 Li   -0.00298    0.00384    0.26101
 15 Li   -0.00168   -0.00254    0.26352
 16 Li   -0.00006    0.00536    0.27228
 17 Li    0.00173   -0.00259    0.26266
 18 Li   -0.00293    0.00017    0.02842
 19 Li    0.00313    0.00011    0.02744
 20 Li   -0.00025    0.00220    0.00823
 21 Li    0.00232    0.00172    0.02088
 22 Li   -0.00224    0.00163    0.02113
 23 Li   -0.00011   -0.00151    0.02424
 24 Li    0.00034   -0.00096    0.02295
 25 Li   -0.00028   -0.00082    0.02281
 26 Li   -0.00010   -0.00066    0.02386
 27 Li    0.02871   -0.02257   -0.05520
 28 Li   -0.00182    0.00422   -0.01112
 29 Li   -0.02721   -0.02340   -0.05391
 30 Li    0.01620    0.02136   -0.03243
 31 Li   -0.00158   -0.00673   -0.01076
 32 Li   -0.01483    0.02219   -0.03178
 33 Li   -0.00236    0.00228   -0.01402
 34 Li   -0.00074    0.00187   -0.01231
 35 Li    0.00312    0.00212   -0.01448
 36 O    -0.03579    0.01457    0.03519
 37 C    -0.05342   -0.04080    0.00959
 38 C     0.03903    0.02278    0.02539
 39 H     0.06294   -0.00670    0.15270
 40 H     0.02691   -0.08420   -0.04126
 41 H     0.04441   -0.02076   -0.00939
 42 H    -0.01720   -0.01204   -0.00904
 43 H     0.04067    0.04899    0.01846
 44 H    -0.00302   -0.02545   -0.00852
 45 N    -0.01027    0.53753   -0.06237
 46 N    -0.07138   -0.47758   -0.04064

System changes: positions 

Initializing position-dependent things.

Density initialized from wave functions
       .-----------------------.  
      /|                       |  
     / |                       |  
    /  |                       |  
   /   |                       |  
  /    |                       |  
 *     |                       |  
 |     |                       |  
 |   H |              H        |  
 |  C  |              O H      |  
 |   HH|                C      |  
 |     |                H      |  
 |     Li              Li      |  
 |     |              N        |  
 |     |     Li      Ni      Li|  
 |     |  Li      Li      Li   |  
 | Li  |   Li      Li          |  
 |     |Li      Li      Li     |  
 |     | Li                    |  
 |   LLi     LLi     LLi       |  
 |     |  Li      Li      Li   |  
 | Li  |   Li      Li          |  
 |     |Li      Li      Li     |  
 Li    | Li      Li            |  
 |    Li      Li      Li       |  
 |     |                       |  
 |     |                       |  
 |     |                       |  
 |     |                       |  
 |     |                       |  
 |     |                       |  
 |     .-----------------------.  
 |    /                       /   
 |   /                       /    
 |  /                       /     
 | /                       /      
 |/                       /       
 *-----------------------*        

Positions:
   0 Li     1.617037    1.617037   10.000000    ( 0.0000,  0.0000,  0.0000)
   1 Li     4.851111    1.617037   10.000000    ( 0.0000,  0.0000,  0.0000)
   2 Li     8.085185    1.617037   10.000000    ( 0.0000,  0.0000,  0.0000)
   3 Li     1.617037    4.851111   10.000000    ( 0.0000,  0.0000,  0.0000)
   4 Li     4.851111    4.851111   10.000000    ( 0.0000,  0.0000,  0.0000)
   5 Li     8.085185    4.851111   10.000000    ( 0.0000,  0.0000,  0.0000)
   6 Li     1.617037    8.085185   10.000000    ( 0.0000,  0.0000,  0.0000)
   7 Li     4.851111    8.085185   10.000000    ( 0.0000,  0.0000,  0.0000)
   8 Li     8.085185    8.085185   10.000000    ( 0.0000,  0.0000,  0.0000)
   9 Li     0.000000    0.000000   11.617037    ( 0.0000,  0.0000,  0.0000)
  10 Li     3.234074    0.000000   11.617037    ( 0.0000,  0.0000,  0.0000)
  11 Li     6.468148    0.000000   11.617037    ( 0.0000,  0.0000,  0.0000)
  12 Li     0.000000    3.234074   11.617037    ( 0.0000,  0.0000,  0.0000)
  13 Li     3.234074    3.234074   11.617037    ( 0.0000,  0.0000,  0.0000)
  14 Li     6.468148    3.234074   11.617037    ( 0.0000,  0.0000,  0.0000)
  15 Li     0.000000    6.468148   11.617037    ( 0.0000,  0.0000,  0.0000)
  16 Li     3.234074    6.468148   11.617037    ( 0.0000,  0.0000,  0.0000)
  17 Li     6.468148    6.468148   11.617037    ( 0.0000,  0.0000,  0.0000)
  18 Li     1.615149    1.616701   13.484568    ( 0.0000,  0.0000,  0.0000)
  19 Li     4.853101    1.616688   13.483987    ( 0.0000,  0.0000,  0.0000)
  20 Li     8.085070    1.617821   13.474927    ( 0.0000,  0.0000,  0.0000)
  21 Li     1.617458    4.851327   13.480602    ( 0.0000,  0.0000,  0.0000)
  22 Li     4.850739    4.851343   13.480621    ( 0.0000,  0.0000,  0.0000)
  23 Li     8.085128    4.849908   13.482359    ( 0.0000,  0.0000,  0.0000)
  24 Li     1.616158    8.085698   13.482215    ( 0.0000,  0.0000,  0.0000)
  25 Li     4.852034    8.085692   13.482037    ( 0.0000,  0.0000,  0.0000)
  26 Li     8.085132    8.085633   13.483049    ( 0.0000,  0.0000,  0.0000)
  27 Li     0.011777   -0.009378   15.423225    ( 0.0000,  0.0000,  0.0000)
  28 Li     3.233319    0.001885   15.440144    ( 0.0000,  0.0000,  0.0000)
  29 Li     6.456951   -0.009585   15.423739    ( 0.0000,  0.0000,  0.0000)
  30 Li     0.006554    3.242842   15.431871    ( 0.0000,  0.0000,  0.0000)
  31 Li     3.233411    3.231273   15.440395    ( 0.0000,  0.0000,  0.0000)
  32 Li     6.462182    3.243065   15.432251    ( 0.0000,  0.0000,  0.0000)
  33 Li    -0.001013    6.469241   15.439158    ( 0.0000,  0.0000,  0.0000)
  34 Li     3.233757    6.468802   15.439714    ( 0.0000,  0.0000,  0.0000)
  35 Li     6.469480    6.469176   15.438971    ( 0.0000,  0.0000,  0.0000)
  36 O      8.092661    1.602708   21.455289    ( 0.0000,  0.0000,  0.0000)
  37 C      9.279869    0.801323   21.468628    ( 0.0000,  0.0000,  0.0000)
  38 C     10.553624    1.622574   21.434372    ( 0.0000,  0.0000,  0.0000)
  39 H      9.258124    0.119701   22.322780    ( 0.0000,  0.0000,  0.0000)
  40 H      9.212510    0.174772   20.585340    ( 0.0000,  0.0000,  0.0000)
  41 H     11.423464    0.964636   21.416294    ( 0.0000,  0.0000,  0.0000)
  42 H     10.586741    2.266892   20.553207    ( 0.0000,  0.0000,  0.0000)
  43 H     10.626748    2.248556   22.324622    ( 0.0000,  0.0000,  0.0000)
  44 H      8.124137    2.195476   22.216619    ( 0.0000,  0.0000,  0.0000)
  45 N      8.073962    1.618359   18.411079    ( 0.0000,  0.0000,  0.0000)
  46 N      8.063590    0.521376   18.426995    ( 0.0000,  0.0000,  0.0000)

Unit cell:
           periodic     x           y           z      points  spacing
  1. axis:    yes    9.702222    0.000000    0.000000    60     0.1617
  2. axis:    yes    0.000000    9.702222    0.000000    60     0.1617
  3. axis:    no     0.000000    0.000000   24.851111   156     0.1593

  Lengths:   9.702222   9.702222  24.851111
  Angles:   90.000000  90.000000  90.000000

Effective grid spacing dv^(1/3) = 0.1609

     iter     time        total  log10-change:
                         energy  eigst   dens
iter:   1 19:30:43  -308.652834  -1.25
iter:   2 19:33:17  -308.596667  -1.88  -1.68
iter:   3 19:35:55  -308.589236  -2.85  -2.13
iter:   4 19:38:30  -308.587521c -2.67  -2.52
Writing to output.gpw (mode='')

iter:   5 19:41:02  -308.587498c -2.74  -2.84
iter:   6 19:43:43  -308.587372c -3.38  -2.93
iter:   7 19:46:23  -308.587576c -3.01  -3.16
iter:   8 19:48:58  -308.587383c -3.81  -3.00
iter:   9 19:51:28  -308.587380c -3.75  -3.31
Writing to output.gpw (mode='')

iter:  10 19:54:05  -308.587401c -4.50  -3.37
iter:  11 19:56:43  -308.587399c -4.21  -3.58
iter:  12 19:59:22  -308.587405c -4.76  -3.74
iter:  13 20:01:59  -308.587402c -5.21  -3.73
iter:  14 20:04:28  -308.587396c -4.95  -3.78
Writing to output.gpw (mode='')

iter:  15 20:07:06  -308.587397c -5.23  -4.04c
iter:  16 20:09:37  -308.587397c -5.64  -3.91
iter:  17 20:12:09  -308.587392c -5.19  -3.94
iter:  18 20:14:45  -308.587394c -5.97  -4.33c
iter:  19 20:17:15  -308.587395c -5.85  -4.44c
Writing to output.gpw (mode='')

iter:  20 20:19:53  -308.587395c -5.96  -4.53c
iter:  21 20:22:26  -308.587396c -6.14  -4.61c
iter:  22 20:24:57  -308.587397c -6.17  -4.68c
iter:  23 20:27:29  -308.587397c -6.48  -4.79c
iter:  24 20:29:59  -308.587397c -6.46  -4.95c
Writing to output.gpw (mode='')

iter:  25 20:32:37  -308.587397c -6.71  -5.14c
iter:  26 20:35:13  -308.587397c -6.70  -5.18c
iter:  27 20:37:50  -308.587397c -6.73  -5.22c
iter:  28 20:40:22  -308.587397c -6.92  -5.33c
iter:  29 20:42:55  -308.587397c -6.99  -5.43c
Writing to output.gpw (mode='')

iter:  30 20:45:33  -308.587397c -6.98  -5.45c
iter:  31 20:48:08  -308.587397c -7.05  -5.53c
iter:  32 20:50:47  -308.587397c -7.25  -5.69c
iter:  33 20:53:20  -308.587397c -7.13  -5.75c
iter:  34 20:55:53  -308.587397c -7.24  -5.79c
Writing to output.gpw (mode='')

iter:  35 20:58:32  -308.587397c -7.46c -5.86c

Converged after 35 iterations.

Dipole moment: (6.670949, -14.825264, 0.312266) |e|*Ang

Energy contributions relative to reference atoms: (reference = -14434.854043)

Kinetic:       +152.527890
Potential:     -148.214905
External:        +0.000000
XC:            -313.572202
Entropy (-ST):   -0.153715
Local:           +0.748678
--------------------------
Free energy:   -308.664255
Extrapolated:  -308.587397

Dipole-layer corrected work functions: 3.393104, 2.792821 eV

Showing only first 2 kpts
 Kpt  Band  Eigenvalues  Occupancy
  0    31     -3.34362    1.98679
  0    32     -3.26435    1.93712
  0    33     -2.92148    0.06276
  0    34     -2.83769    0.01205

  1    31     -3.11034    1.17201
  1    32     -3.08301    0.90080
  1    33     -3.05978    0.67987
  1    34     -3.04989    0.59405


Fermi level: -3.09296

No gap

Forces in eV/Ang:
  0 Li    0.00479   -0.00006   -0.27447
  1 Li   -0.00491    0.00003   -0.27435
  2 Li    0.00012    0.00178   -0.27305
  3 Li   -0.00251   -0.00266   -0.27607
  4 Li    0.00271   -0.00244   -0.27590
  5 Li   -0.00019    0.00428   -0.27441
  6 Li   -0.00181    0.00185   -0.27411
  7 Li    0.00190    0.00154   -0.27400
  8 Li   -0.00009   -0.00552   -0.27318
  9 Li    0.00092   -0.00237    0.27144
 10 Li   -0.00034    0.00232    0.26920
 11 Li   -0.00058   -0.00273    0.27123
 12 Li    0.00395    0.00404    0.26604
 13 Li   -0.00017   -0.00664    0.27118
 14 Li   -0.00378    0.00445    0.26562
 15 Li   -0.00183   -0.00246    0.26838
 16 Li   -0.00003    0.00576    0.27672
 17 Li    0.00184   -0.00252    0.26746
 18 Li   -0.00030    0.00135    0.01368
 19 Li    0.00041    0.00125    0.01342
 20 Li   -0.00016    0.00217    0.00118
 21 Li    0.00345    0.00286    0.01018
 22 Li   -0.00343    0.00264    0.01063
 23 Li   -0.00004    0.00043    0.01177
 24 Li    0.00328   -0.00346    0.00961
 25 Li   -0.00329   -0.00315    0.00982
 26 Li   -0.00003   -0.00266    0.00917
 27 Li    0.02220   -0.01736   -0.04248
 28 Li   -0.00142    0.00287   -0.00541
 29 Li   -0.02092   -0.01838   -0.04137
 30 Li    0.01297    0.01698   -0.02317
 31 Li   -0.00122   -0.00520   -0.00540
 32 Li   -0.01198    0.01799   -0.02300
 33 Li   -0.00180    0.00155   -0.00813
 34 Li   -0.00055    0.00179   -0.00646
 35 Li    0.00240    0.00139   -0.00848
 36 O    -0.08559    0.05908    0.04134
 37 C    -0.07461   -0.10168   -0.00765
 38 C     0.04180    0.01369    0.04513
 39 H     0.11058    0.00596    0.19971
 40 H    -0.00297   -0.08998   -0.12130
 41 H     0.08080   -0.02303   -0.00500
 42 H    -0.03006   -0.01776    0.00191
 43 H     0.06270    0.08253    0.03385
 44 H    -0.00639   -0.03881   -0.02735
 45 N    -0.03417    0.51360   -0.10388
 46 N    -0.04261   -0.45013   -0.02299

System changes: positions 

Initializing position-dependent things.

Density initialized from wave functions
       .-----------------------.  
      /|                       |  
     / |                       |  
    /  |                       |  
   /   |                       |  
  /    |                       |  
 *     |                       |  
 |     |                       |  
 |   H |              H        |  
 |  C  |              O H      |  
 |   HH|                C      |  
 |     |                H      |  
 |     Li              Li      |  
 |     |              N        |  
 |     |     Li      Ni      Li|  
 |     |  Li      Li      Li   |  
 | Li  |   Li      Li          |  
 |     |Li      Li      Li     |  
 |     | Li                    |  
 |   LLi     LLi     LLi       |  
 |     |  Li      Li      Li   |  
 | Li  |   Li      Li          |  
 |     |Li      Li      Li     |  
 Li    | Li      Li            |  
 |    Li      Li      Li       |  
 |     |                       |  
 |     |                       |  
 |     |                       |  
 |     |                       |  
 |     |                       |  
 |     |                       |  
 |     .-----------------------.  
 |    /                       /   
 |   /                       /    
 |  /                       /     
 | /                       /      
 |/                       /       
 *-----------------------*        

Positions:
   0 Li     1.617037    1.617037   10.000000    ( 0.0000,  0.0000,  0.0000)
   1 Li     4.851111    1.617037   10.000000    ( 0.0000,  0.0000,  0.0000)
   2 Li     8.085185    1.617037   10.000000    ( 0.0000,  0.0000,  0.0000)
   3 Li     1.617037    4.851111   10.000000    ( 0.0000,  0.0000,  0.0000)
[...]
iter:  14 11:03:23  -308.632979c -6.61  -4.70c
Writing to output.gpw (mode='')

iter:  15 11:06:03  -308.632980c -6.88  -4.76c
iter:  16 11:08:30  -308.632980c -6.86  -4.78c
iter:  17 11:11:05  -308.632980c -7.32  -4.94c
iter:  18 11:13:49  -308.632980c -7.38  -5.00c
iter:  19 11:16:22  -308.632980c -7.04  -5.05c
Writing to output.gpw (mode='')

iter:  20 11:18:55  -308.632980c -7.76c -5.02c

Converged after 20 iterations.

Dipole moment: (8.486754, -13.413467, 0.302096) |e|*Ang

Energy contributions relative to reference atoms: (reference = -14434.854043)

Kinetic:       +151.704053
Potential:     -147.532134
External:        +0.000000
XC:            -313.475054
Entropy (-ST):   -0.151378
Local:           +0.745844
--------------------------
Free energy:   -308.708669
Extrapolated:  -308.632980

Dipole-layer corrected work functions: 3.393852, 2.813119 eV

Showing only first 2 kpts
 Kpt  Band  Eigenvalues  Occupancy
  0    31     -3.36872    1.99011
  0    32     -3.28307    1.94638
  0    33     -2.92525    0.05505
  0    34     -2.86461    0.01669

  1    31     -3.11215    1.08647
  1    32     -3.08797    0.84605
  1    33     -3.07261    0.70069
  1    34     -3.05977    0.58875


Fermi level: -3.10349

No gap

Forces in eV/Ang:
  0 Li    0.00576    0.00018   -0.27573
  1 Li   -0.00646    0.00039   -0.27525
  2 Li    0.00074    0.00192   -0.27570
  3 Li   -0.00173   -0.00247   -0.27644
  4 Li    0.00198   -0.00169   -0.27643
  5 Li   -0.00035    0.00571   -0.27443
  6 Li   -0.00113    0.00111   -0.27483
  7 Li    0.00124    0.00021   -0.27402
  8 Li   -0.00005   -0.00707   -0.27589
  9 Li    0.00988   -0.00611    0.28090
 10 Li   -0.00150    0.00161    0.26004
 11 Li   -0.00840   -0.00617    0.28226
 12 Li    0.01312    0.01495    0.26446
 13 Li   -0.00029    0.00480    0.25471
 14 Li   -0.01277    0.01530    0.26643
 15 Li    0.00657   -0.00866    0.25599
 16 Li    0.00091   -0.00390    0.24834
 17 Li   -0.00743   -0.00910    0.25600
 18 Li   -0.00329    0.00009    0.00128
 19 Li    0.00318    0.00019    0.00076
 20 Li    0.00033   -0.00065   -0.00451
 21 Li   -0.00084   -0.00047   -0.00036
 22 Li    0.00100   -0.00075   -0.00013
 23 Li   -0.00015   -0.00152    0.00109
 24 Li   -0.00012    0.00035   -0.00061
 25 Li    0.00040    0.00064   -0.00081
 26 Li    0.00009    0.00195   -0.00016
 27 Li    0.00432   -0.00288    0.00301
 28 Li    0.00026    0.00360    0.00401
 29 Li   -0.00364   -0.00203    0.00224
 30 Li    0.00191    0.00384    0.00029
 31 Li   -0.00002   -0.00469    0.00040
 32 Li   -0.00170    0.00331    0.00030
 33 Li   -0.00278   -0.00129    0.00351
 34 Li   -0.00023    0.00106   -0.00740
 35 Li    0.00303   -0.00129    0.00282
 36 O    -0.01511   -0.00154    0.02221
 37 C    -0.00987   -0.01165    0.00980
 38 C     0.00238    0.00446   -0.00917
 39 H     0.00329   -0.00783    0.00648
 40 H     0.00521    0.02805    0.00627
 41 H    -0.00337   -0.00897   -0.01352
 42 H     0.00302   -0.01498   -0.01098
 43 H     0.00042    0.01460   -0.01511
 44 H     0.00124   -0.01628    0.00003
 45 N     0.01730   -0.00419    0.02327
 46 N    -0.03253    0.01505   -0.03563

System changes: positions 

Initializing position-dependent things.

Density initialized from wave functions
       .-----------------------.  
      /|                       |  
     / |                       |  
    /  |                       |  
   /   |                       |  
  /    |                       |  
 *     |                       |  
 |     |                       |  
 |   H |              H        |  
 |  C  |              O H      |  
 |  H H|                 C     |  
 |     |                H      |  
 |     Li      Li      Li      |  
 |     |              N        |  
 |   Li|     Li      Ni        |  
 |     |  Li      Li      Li   |  
 | Li  |   Li      Li          |  
 |     |Li      Li      Li     |  
 |     |                       |  
 |   LLi     LLi     LLi       |  
 |     |  Li      Li      Li   |  
 | Li  |   Li      Li          |  
 |     |Li      Li      Li     |  
 Li    | Li      Li            |  
 |    Li      Li      Li       |  
 |     |                       |  
 |     |                       |  
 |     |                       |  
 |     |                       |  
 |     |                       |  
 |     |                       |  
 |     .-----------------------.  
 |    /                       /   
 |   /                       /    
 |  /                       /     
 | /                       /      
 |/                       /       
 *-----------------------*        

Positions:
   0 Li     1.617037    1.617037   10.000000    ( 0.0000,  0.0000,  0.0000)
   1 Li     4.851111    1.617037   10.000000    ( 0.0000,  0.0000,  0.0000)
   2 Li     8.085185    1.617037   10.000000    ( 0.0000,  0.0000,  0.0000)
   3 Li     1.617037    4.851111   10.000000    ( 0.0000,  0.0000,  0.0000)
   4 Li     4.851111    4.851111   10.000000    ( 0.0000,  0.0000,  0.0000)
   5 Li     8.085185    4.851111   10.000000    ( 0.0000,  0.0000,  0.0000)
   6 Li     1.617037    8.085185   10.000000    ( 0.0000,  0.0000,  0.0000)
   7 Li     4.851111    8.085185   10.000000    ( 0.0000,  0.0000,  0.0000)
   8 Li     8.085185    8.085185   10.000000    ( 0.0000,  0.0000,  0.0000)
   9 Li     0.000000    0.000000   11.617037    ( 0.0000,  0.0000,  0.0000)
  10 Li     3.234074    0.000000   11.617037    ( 0.0000,  0.0000,  0.0000)
  11 Li     6.468148    0.000000   11.617037    ( 0.0000,  0.0000,  0.0000)
  12 Li     0.000000    3.234074   11.617037    ( 0.0000,  0.0000,  0.0000)
  13 Li     3.234074    3.234074   11.617037    ( 0.0000,  0.0000,  0.0000)
  14 Li     6.468148    3.234074   11.617037    ( 0.0000,  0.0000,  0.0000)
  15 Li     0.000000    6.468148   11.617037    ( 0.0000,  0.0000,  0.0000)
  16 Li     3.234074    6.468148   11.617037    ( 0.0000,  0.0000,  0.0000)
  17 Li     6.468148    6.468148   11.617037    ( 0.0000,  0.0000,  0.0000)
  18 Li     1.627672    1.626626   13.469521    ( 0.0000,  0.0000,  0.0000)
  19 Li     4.840738    1.624796   13.470055    ( 0.0000,  0.0000,  0.0000)
  20 Li     8.085126    1.629056   13.449361    ( 0.0000,  0.0000,  0.0000)
  21 Li     1.627942    4.859250   13.478908    ( 0.0000,  0.0000,  0.0000)
  22 Li     4.838480    4.859645   13.478151    ( 0.0000,  0.0000,  0.0000)
  23 Li     8.086475    4.856352   13.471766    ( 0.0000,  0.0000,  0.0000)
  24 Li     1.632323    8.069311   13.467093    ( 0.0000,  0.0000,  0.0000)
  25 Li     4.836182    8.070846   13.468884    ( 0.0000,  0.0000,  0.0000)
  26 Li     8.085573    8.069897   13.457700    ( 0.0000,  0.0000,  0.0000)
  27 Li     0.027580   -0.018745   15.332922    ( 0.0000,  0.0000,  0.0000)
  28 Li     3.231526   -0.000564   15.410623    ( 0.0000,  0.0000,  0.0000)
  29 Li     6.446515   -0.024127   15.335644    ( 0.0000,  0.0000,  0.0000)
  30 Li     0.015594    3.249748   15.394139    ( 0.0000,  0.0000,  0.0000)
  31 Li     3.231932    3.232528   15.428505    ( 0.0000,  0.0000,  0.0000)
  32 Li     6.452403    3.257230   15.386726    ( 0.0000,  0.0000,  0.0000)
  33 Li     0.000408    6.476708   15.411234    ( 0.0000,  0.0000,  0.0000)
  34 Li     3.234507    6.468971   15.448741    ( 0.0000,  0.0000,  0.0000)
  35 Li     6.468068    6.475682   15.411447    ( 0.0000,  0.0000,  0.0000)
  36 O      8.123183    1.511032   21.527867    ( 0.0000,  0.0000,  0.0000)
  37 C      9.339473    0.746786   21.580757    ( 0.0000,  0.0000,  0.0000)
  38 C     10.585459    1.605757   21.416866    ( 0.0000,  0.0000,  0.0000)
  39 H      9.386100    0.174569   22.514549    ( 0.0000,  0.0000,  0.0000)
  40 H      9.254942    0.028688   20.762643    ( 0.0000,  0.0000,  0.0000)
  41 H     11.481976    0.980585   21.397677    ( 0.0000,  0.0000,  0.0000)
  42 H     10.540962    2.176438   20.486733    ( 0.0000,  0.0000,  0.0000)
  43 H     10.686399    2.310184   22.247016    ( 0.0000,  0.0000,  0.0000)
  44 H      8.132924    2.140554   22.259129    ( 0.0000,  0.0000,  0.0000)
  45 N      7.968329    1.627674   18.263034    ( 0.0000,  0.0000,  0.0000)
  46 N      7.855751    0.546607   18.435799    ( 0.0000,  0.0000,  0.0000)

Unit cell:
           periodic     x           y           z      points  spacing
  1. axis:    yes    9.702222    0.000000    0.000000    60     0.1617
  2. axis:    yes    0.000000    9.702222    0.000000    60     0.1617
  3. axis:    no     0.000000    0.000000   24.851111   156     0.1593

  Lengths:   9.702222   9.702222  24.851111
  Angles:   90.000000  90.000000  90.000000

Effective grid spacing dv^(1/3) = 0.1609

     iter     time        total  log10-change:
                         energy  eigst   dens
iter:   1 11:22:09  -308.634194  -2.44
iter:   2 11:24:45  -308.633515  -3.21  -2.54
iter:   3 11:27:13  -308.633362c -3.88  -2.87
iter:   4 11:29:46  -308.633242c -4.08  -3.03
Writing to output.gpw (mode='')

iter:   5 11:32:24  -308.633213c -3.95  -3.27
iter:   6 11:34:55  -308.633201c -4.04  -3.41
iter:   7 11:37:25  -308.633200c -4.25  -3.57
iter:   8 11:39:52  -308.633196c -4.85  -3.67
iter:   9 11:42:28  -308.633196c -5.33  -3.86
Writing to output.gpw (mode='')

iter:  10 11:45:08  -308.633197c -5.23  -3.88
iter:  11 11:47:43  -308.633197c -5.60  -4.05c
iter:  12 11:50:15  -308.633196c -6.27  -4.34c
iter:  13 11:52:52  -308.633196c -6.20  -4.30c
iter:  14 11:55:32  -308.633197c -6.37  -4.26c
Writing to output.gpw (mode='')

iter:  15 11:58:08  -308.633196c -6.86  -4.25c
iter:  16 12:00:39  -308.633196c -6.89  -4.30c
iter:  17 12:03:27  -308.633197c -6.26  -4.35c
iter:  18 12:06:05  -308.633197c -6.74  -4.61c
iter:  19 12:08:34  -308.633197c -6.76  -4.63c
Writing to output.gpw (mode='')

iter:  20 12:11:20  -308.633196c -6.84  -4.95c
iter:  21 12:13:54  -308.633197c -7.49c -4.95c

Converged after 21 iterations.

Dipole moment: (8.569320, -13.447566, 0.301364) |e|*Ang

Energy contributions relative to reference atoms: (reference = -14434.854043)

Kinetic:       +151.718811
Potential:     -147.544460
External:        +0.000000
XC:            -313.477871
Entropy (-ST):   -0.151360
Local:           +0.746004
--------------------------
Free energy:   -308.708877
Extrapolated:  -308.633197

Dipole-layer corrected work functions: 3.393833, 2.814508 eV

Showing only first 2 kpts
 Kpt  Band  Eigenvalues  Occupancy
  0    31     -3.36975    1.99018
  0    32     -3.28388    1.94651
  0    33     -2.92583    0.05494
  0    34     -2.86565    0.01681

  1    31     -3.11265    1.08460
  1    32     -3.08857    0.84521
  1    33     -3.07308    0.69872
  1    34     -3.06062    0.59005


Fermi level: -3.10417

No gap
Writing to output.gpw (mode='')


Forces in eV/Ang:
  0 Li    0.00570    0.00018   -0.27569
  1 Li   -0.00641    0.00040   -0.27520
  2 Li    0.00075    0.00190   -0.27565
  3 Li   -0.00170   -0.00244   -0.27644
  4 Li    0.00194   -0.00165   -0.27643
  5 Li   -0.00035    0.00565   -0.27440
  6 Li   -0.00112    0.00108   -0.27485
  7 Li    0.00122    0.00017   -0.27400
  8 Li   -0.00005   -0.00701   -0.27585
  9 Li    0.00999   -0.00610    0.28026
 10 Li   -0.00153    0.00155    0.25974
 11 Li   -0.00846   -0.00616    0.28162
 12 Li    0.01323    0.01509    0.26369
 13 Li   -0.00032    0.00498    0.25431
 14 Li   -0.01284    0.01545    0.26573
 15 Li    0.00664   -0.00874    0.25570
 16 Li    0.00089   -0.00403    0.24845
 17 Li   -0.00746   -0.00920    0.25572
 18 Li   -0.00339   -0.00004    0.00193
 19 Li    0.00327    0.00011    0.00142
 20 Li    0.00034   -0.00079   -0.00351
 21 Li   -0.00071   -0.00033   -0.00015
 22 Li    0.00088   -0.00062    0.00012
 23 Li   -0.00016   -0.00145    0.00158
 24 Li   -0.00014    0.00035   -0.00014
 25 Li    0.00041    0.00061   -0.00037
 26 Li    0.00011    0.00197    0.00063
 27 Li    0.00536   -0.00380    0.00260
 28 Li    0.00023    0.00382    0.00461
 29 Li   -0.00469   -0.00288    0.00184
 30 Li    0.00247    0.00478   -0.00006
 31 Li   -0.00006   -0.00505    0.00054
 32 Li   -0.00214    0.00409    0.00020
 33 Li   -0.00294   -0.00134    0.00389
 34 Li   -0.00028    0.00120   -0.00791
 35 Li    0.00323   -0.00131    0.00315
 36 O    -0.02099    0.01184    0.03076
 37 C    -0.02150   -0.00801    0.00219
 38 C    -0.00961   -0.00599   -0.01069
 39 H     0.01038   -0.00632   -0.00334
 40 H     0.01907    0.01614    0.01511
 41 H    -0.00120   -0.00176   -0.00018
 42 H    -0.00216   -0.00917   -0.00971
 43 H     0.00863    0.00391   -0.02018
 44 H     0.00171   -0.01513   -0.00228
 45 N     0.01781    0.01887    0.02057
 46 N    -0.03004   -0.01766   -0.02394

Timing:                                      incl.     excl.
-------------------------------------------------------------------
Density initialized from wave functions:   120.907   120.905   0.0% |
 Symmetrize density:                         0.002     0.002   0.0% |
Forces:                                    428.960   428.960   0.1% |
Hamiltonian:                              5298.603     0.035   0.0% |
 Atomic:                                     7.959     0.121   0.0% |
  XC Correction:                             7.838     7.838   0.0% |
 Calculate atomic Hamiltonians:             24.777    24.777   0.0% |
 Communicate:                               27.666    27.666   0.0% |
 Hartree integrate/restrict:                 8.975     8.975   0.0% |
 Initialize Hamiltonian:                     0.000     0.000   0.0% |
 Poisson:                                  198.872    90.048   0.0% |
  Communicate from 1D:                      13.523    13.523   0.0% |
  Communicate from 2D:                      23.795    23.795   0.0% |
  Communicate to 1D:                         6.268     6.268   0.0% |
  Communicate to 2D:                        23.176    23.176   0.0% |
  FFT 1D:                                   21.427    21.427   0.0% |
  FFT 2D:                                   20.634    20.634   0.0% |
 XC 3D grid:                              5028.158   479.068   0.2% |
  VdW-DF integral:                        4549.090    10.158   0.0% |
   Convolution:                            282.016   282.016   0.1% |
   FFT:                                     49.333    49.333   0.0% |
   gather:                                3674.859  3674.859   1.3% ||
   hmm1:                                    48.269    48.269   0.0% |
   hmm2:                                    64.171    64.171   0.0% |
   iFFT:                                    49.310    49.310   0.0% |
   potential:                              358.121     4.237   0.0% |
    collect:                                34.622    34.622   0.0% |
    p1:                                    144.207   144.207   0.0% |
    p2:                                     90.940    90.940   0.0% |
    sum:                                    84.114    84.114   0.0% |
   splines:                                 12.855    12.855   0.0% |
 vbar:                                       2.161     2.161   0.0% |
LCAO initialization:                        11.827     0.893   0.0% |
 LCAO eigensolver:                           3.222     0.001   0.0% |
  Calculate projections:                     0.000     0.000   0.0% |
  DenseAtomicCorrection:                     0.000     0.000   0.0% |
  Distribute overlap matrix:                 2.977     2.977   0.0% |
  Orbital Layouts:                           0.122     0.122   0.0% |
  Potential matrix:                          0.098     0.098   0.0% |
  Sum over cells:                            0.025     0.025   0.0% |
 LCAO to grid:                               5.840     5.840   0.0% |
 Set positions (LCAO WFS):                   1.872     1.545   0.0% |
  Basic WFS set positions:                   0.004     0.004   0.0% |
  Basis functions set positions:             0.001     0.001   0.0% |
  P tci:                                     0.000     0.000   0.0% |
  ST tci:                                    0.226     0.226   0.0% |
  mktci:                                     0.096     0.096   0.0% |
Redistribute:                                0.071     0.071   0.0% |
SCF-cycle:                               282554.142  3889.444   1.3% ||
 Davidson:                               86248.334 34683.288  12.0% |----|
  Apply hamiltonian:                      5314.355  5314.355   1.8% ||
  Subspace diag:                         12058.279     0.562   0.0% |
   calc_h_matrix:                         7379.442  2166.844   0.7% |
    Apply hamiltonian:                    5212.597  5212.597   1.8% ||
   diagonalize:                            446.934   446.934   0.2% |
   rotate_psi:                            4231.341  4231.341   1.5% ||
  calc. matrices:                        25830.734 16155.906   5.6% |-|
   Apply hamiltonian:                     9674.828  9674.828   3.3% ||
  diagonalize:                              38.984    38.984   0.0% |
  rotate_psi:                             8322.694  8322.694   2.9% ||
 Density:                                 1822.709     0.099   0.0% |
  Atomic density matrices:                 510.059   510.059   0.2% |
  Mix:                                     530.275   530.275   0.2% |
  Multipole moments:                         7.304     7.304   0.0% |
  Pseudo density:                          774.972   774.893   0.3% |
   Symmetrize density:                       0.079     0.079   0.0% |
 Hamiltonian:                            190418.170     0.541   0.0% |
  Atomic:                                  291.770     3.917   0.0% |
   XC Correction:                          287.853   287.853   0.1% |
  Calculate atomic Hamiltonians:           930.749   930.749   0.3% |
  Communicate:                             937.764   937.764   0.3% |
  Hartree integrate/restrict:              320.991   320.991   0.1% |
  Poisson:                                7139.438  3231.001   1.1% |
   Communicate from 1D:                    518.936   518.936   0.2% |
   Communicate from 2D:                    901.874   901.874   0.3% |
   Communicate to 1D:                      216.859   216.859   0.1% |
   Communicate to 2D:                      821.117   821.117   0.3% |
   FFT 1D:                                 728.067   728.067   0.3% |
   FFT 2D:                                 721.585   721.585   0.2% |
  XC 3D grid:                            180718.279 17299.979   6.0% |-|
   VdW-DF integral:                      163418.300   376.946   0.1% |
    Convolution:                         10243.628 10243.628   3.5% ||
    FFT:                                  1734.595  1734.595   0.6% |
    gather:                              132169.336 132169.336  45.6% |-----------------|
    hmm1:                                 1759.458  1759.458   0.6% |
    hmm2:                                 2352.908  2352.908   0.8% |
    iFFT:                                 1835.600  1835.600   0.6% |
    potential:                           12945.813   146.411   0.1% |
     collect:                             1208.892  1208.892   0.4% |
     p1:                                  5142.500  5142.500   1.8% ||
     p2:                                  3308.514  3308.514   1.1% |
     sum:                                 3139.497  3139.497   1.1% |
    splines:                                 0.017     0.017   0.0% |
  vbar:                                     78.638    78.638   0.0% |
 Orthonormalize:                           175.484     0.013   0.0% |
  calc_s_matrix:                            25.606    25.606   0.0% |
  inverse-cholesky:                          6.637     6.637   0.0% |
  projections:                              82.157    82.157   0.0% |
  rotate_psi_s:                             61.071    61.071   0.0% |
Set symmetry:                                0.003     0.003   0.0% |
Other:                                    1382.125  1382.125   0.5% |
-------------------------------------------------------------------
Total:                                             289796.637 100.0%

Memory usage: 1.57 GiB
Date: Fri Feb 10 12:14:04 2023
