
  ___ ___ ___ _ _ _  
 |   |   |_  | | | | 
 | | | | | . | | | | 
 |__ |  _|___|_____|  22.8.0
 |___|_|             

User:   vazumah@c02.hercules
Date:   Fri Mar 10 15:19:58 2023
Arch:   x86_64
Pid:    24011
CWD:    /home/vazumah/Python_projects/LiNRR/Li_adsorb_studies/proton_donors/on_pure_surface/Li_BCC100/adsorbates/formic_acid_y/bridge/8.085_1.617
Python: 3.10.8
gpaw:   /home/vazumah/.conda/envs/GPAW/lib/python3.10/site-packages/gpaw
_gpaw:  /home/vazumah/.conda/envs/GPAW/lib/python3.10/site-packages/
        _gpaw.cpython-310-x86_64-linux-gnu.so
ase:    /home/vazumah/.conda/envs/GPAW/lib/python3.10/site-packages/ase (version 3.22.1)
numpy:  /home/vazumah/.conda/envs/GPAW/lib/python3.10/site-packages/numpy (version 1.24.1)
scipy:  /home/vazumah/.conda/envs/GPAW/lib/python3.10/site-packages/scipy (version 1.10.0)
libxc:  5.2.3
units:  Angstrom and eV
cores: 24
OpenMP: True
OMP_NUM_THREADS: 1

Input parameters:
  h: 0.16
  kpts: {size: [4, 4, 1]}
  occupations: {name: fermi-dirac,
                width: 0.05}
  poissonsolver: {dipolelayer: xy}
  xc: BEEF-vdW

System changes: positions, numbers, cell, pbc, initial_charges, initial_magmoms 

Initialize ...

species:
  Li:
    name: Lithium
    id: 830b4218f175192f93f959cfc0aad614
    Z: 3.0
    valence: 1
    core: 2
    charge: 0.0
    file: /home/vazumah/.conda/envs/GPAW/share/gpaw/Li.PBE.gz
    compensation charges: {type: gauss,
                           rc: 0.33,
                           lmax: 2}
    cutoffs: {filter: 1.91,
              core: 2.55}
    valence states:
      #              energy  rcut
      - 2s(1.00)    -2.874   1.058
      - 2p(0.00)    -1.090   1.058
      -  s          24.337   1.058
  
    # Using partial waves for Li as LCAO basis

  O:
    name: Oxygen
    id: 32ecd46bf208036f09c70b0ec9a88b78
    Z: 8.0
    valence: 6
    core: 2
    charge: 0.0
    file: /home/vazumah/.conda/envs/GPAW/share/gpaw/O.PBE.gz
    compensation charges: {type: gauss,
                           rc: 0.21,
                           lmax: 2}
    cutoffs: {filter: 1.17,
              core: 0.83}
    valence states:
      #              energy  rcut
      - 2s(2.00)   -23.961   0.688
      - 2p(4.00)    -9.029   0.598
      -  s           3.251   0.688
      -  p          18.182   0.598
      -  d           0.000   0.619
  
    # Using partial waves for O as LCAO basis

  C:
    name: Carbon
    id: 4aa54d4b901d75f77cc0ea3eec22967b
    Z: 6.0
    valence: 4
    core: 2
    charge: 0.0
    file: /home/vazumah/.conda/envs/GPAW/share/gpaw/C.PBE.gz
    compensation charges: {type: gauss,
                           rc: 0.20,
                           lmax: 2}
    cutoffs: {filter: 1.14,
              core: 1.14}
    valence states:
      #              energy  rcut
      - 2s(2.00)   -13.751   0.635
      - 2p(2.00)    -5.284   0.635
      -  s          13.461   0.635
      -  p          21.927   0.635
      -  d           0.000   0.635
  
    # Using partial waves for C as LCAO basis

  H:
    name: Hydrogen
    id: d65de229564ff8ea4db303e23b6d1ecf
    Z: 1.0
    valence: 1
    core: 0
    charge: 0.0
    file: /home/vazumah/.conda/envs/GPAW/share/gpaw/H.PBE.gz
    compensation charges: {type: gauss,
                           rc: 0.15,
                           lmax: 2}
    cutoffs: {filter: 0.85,
              core: 0.53}
    valence states:
      #              energy  rcut
      - 1s(1.00)    -6.494   0.476
      -  s          20.717   0.476
      -  p           0.000   0.476
  
    # Using partial waves for H as LCAO basis

Reference energy: -12434.674571  # eV

Spin-paired calculation

Convergence criteria:
 Maximum [total energy] change in last 3 cyles: 0.0005 eV / electron
 Maximum integral of absolute [dens]ity change: 0.0001 electrons / valence electron
 Maximum integral of absolute [eigenst]ate change: 4e-08 eV^2 / valence electron
 Maximum number of scf [iter]ations: 333
 (Square brackets indicate name in SCF output, whereas a 'c' in
 the SCF output indicates the quantity has converged.)

Symmetries present (total): 1

  ( 1  0  0)
  ( 0  1  0)
  ( 0  0  1)

16 k-points: 4 x 4 x 1 Monkhorst-Pack grid
8 k-points in the irreducible part of the Brillouin zone
       k-points in crystal coordinates                weights
   0:     0.12500000   -0.37500000    0.00000000          2/16
   1:     0.12500000   -0.12500000    0.00000000          2/16
   2:     0.12500000    0.12500000    0.00000000          2/16
   3:     0.12500000    0.37500000    0.00000000          2/16
   4:     0.37500000   -0.37500000    0.00000000          2/16
   5:     0.37500000   -0.12500000    0.00000000          2/16
   6:     0.37500000    0.12500000    0.00000000          2/16
   7:     0.37500000    0.37500000    0.00000000          2/16

Wave functions: Uniform real-space grid
  Kinetic energy operator: 6*3+1=19 point O(h^6) finite-difference Laplacian
  ScaLapack parameters: grid=1x1, blocksize=None
  Wavefunction extrapolation:
    Improved wavefunction reuse through dual PAW basis 

Occupation numbers: Fermi-Dirac:
  width: 0.0500  # eV
 

Eigensolver
   Davidson(niter=2) 

Densities:
  Coarse grid: 60*60*156 grid
  Fine grid: 120*120*312 grid
  Total Charge: 0.000000 

Density mixing:
  Method: separate
  Backend: pulay
  Linear mixing parameter: 0.05
  old densities: 5
  Damping of long wavelength oscillations: 50 

Hamiltonian:
  XC and Coulomb potentials evaluated on a 120*120*312 grid
  Using the BEEF-vdW Exchange-Correlation functional
  Interpolation: tri-quintic (5. degree polynomial)
  Poisson solver: FastPoissonSolver using
    Stencil: 6*3+1=19 point O(h^6) finite-difference Laplacian
    FFT axes: [0, 1]
    FST axes: [2]

Dipole correction along z-axis 

XC parameters: BEEF-vdW with 2 nearest neighbor stencil

Memory estimate:
  Process memory now: 216.27 MiB
  Calculator: 370.98 MiB
    Density: 116.81 MiB
      Arrays: 36.75 MiB
      Localized functions: 66.05 MiB
      Mixer: 14.01 MiB
    Hamiltonian: 29.25 MiB
      Arrays: 24.03 MiB
      XC: 0.00 MiB
      Poisson: 0.00 MiB
      vbar: 5.21 MiB
    Wavefunctions: 224.93 MiB
      Arrays psit_nG: 103.66 MiB
      Eigensolver: 117.87 MiB
      Projections: 0.04 MiB
      Projectors: 3.35 MiB

Total number of cores used: 24
Parallelization over k-points: 8
Domain decomposition: 1 x 1 x 3

Number of atoms: 41
Number of atomic orbitals: 158
Number of bands in calculation: 37
Number of valence electrons: 54
Bands to converge: occupied

... initialized

Initializing position-dependent things.

Density initialized from atomic densities
Creating initial wave functions:
  37 bands from LCAO basis set

       .-----------------------.  
      /|                       |  
     / |                       |  
    /  |                       |  
   /   |                       |  
  /    |                       |  
 *     |                       |  
 |     |                       |  
 |     |                       |  
 |     |                       |  
 |     |                       |  
 |     |                       |  
 |     |                       |  
 |     |            H C  O     |  
 |   Li|     Li      LO        |  
 |     |  Li      LiH     Li   |  
 | Li  |   Li      Li          |  
 |     |Li      Li      Li     |  
 Li    | Li      Li            |  
 |   LLi     LLi     LLi       |  
 |     |  Li      Li      Li   |  
 | Li  |   Li      Li          |  
 |     |Li      Li      Li     |  
 Li    | Li      Li            |  
 |    Li      Li      Li       |  
 |     |                       |  
 |     |                       |  
 |     |                       |  
 |     |                       |  
 |     |                       |  
 |     |                       |  
 |     .-----------------------.  
 |    /                       /   
 |   /                       /    
 |  /                       /     
 | /                       /      
 |/                       /       
 *-----------------------*        

Positions:
   0 Li     1.617037    1.617037   10.000000    ( 0.0000,  0.0000,  0.0000)
   1 Li     4.851111    1.617037   10.000000    ( 0.0000,  0.0000,  0.0000)
   2 Li     8.085185    1.617037   10.000000    ( 0.0000,  0.0000,  0.0000)
   3 Li     1.617037    4.851111   10.000000    ( 0.0000,  0.0000,  0.0000)
   4 Li     4.851111    4.851111   10.000000    ( 0.0000,  0.0000,  0.0000)
   5 Li     8.085185    4.851111   10.000000    ( 0.0000,  0.0000,  0.0000)
   6 Li     1.617037    8.085185   10.000000    ( 0.0000,  0.0000,  0.0000)
   7 Li     4.851111    8.085185   10.000000    ( 0.0000,  0.0000,  0.0000)
   8 Li     8.085185    8.085185   10.000000    ( 0.0000,  0.0000,  0.0000)
   9 Li     0.000000    0.000000   11.617037    ( 0.0000,  0.0000,  0.0000)
  10 Li     3.234074    0.000000   11.617037    ( 0.0000,  0.0000,  0.0000)
  11 Li     6.468148    0.000000   11.617037    ( 0.0000,  0.0000,  0.0000)
  12 Li     0.000000    3.234074   11.617037    ( 0.0000,  0.0000,  0.0000)
  13 Li     3.234074    3.234074   11.617037    ( 0.0000,  0.0000,  0.0000)
  14 Li     6.468148    3.234074   11.617037    ( 0.0000,  0.0000,  0.0000)
  15 Li     0.000000    6.468148   11.617037    ( 0.0000,  0.0000,  0.0000)
  16 Li     3.234074    6.468148   11.617037    ( 0.0000,  0.0000,  0.0000)
  17 Li     6.468148    6.468148   11.617037    ( 0.0000,  0.0000,  0.0000)
  18 Li     1.617038    1.617038   13.469728    ( 0.0000,  0.0000,  0.0000)
  19 Li     4.851111    1.617038   13.469729    ( 0.0000,  0.0000,  0.0000)
  20 Li     8.085184    1.617038   13.469728    ( 0.0000,  0.0000,  0.0000)
  21 Li     1.617038    4.851111   13.469729    ( 0.0000,  0.0000,  0.0000)
  22 Li     4.851111    4.851111   13.469730    ( 0.0000,  0.0000,  0.0000)
  23 Li     8.085184    4.851111   13.469729    ( 0.0000,  0.0000,  0.0000)
  24 Li     1.617038    8.085184   13.469728    ( 0.0000,  0.0000,  0.0000)
  25 Li     4.851111    8.085184   13.469729    ( 0.0000,  0.0000,  0.0000)
  26 Li     8.085184    8.085184   13.469728    ( 0.0000,  0.0000,  0.0000)
  27 Li    -0.000000   -0.000000   15.445939    ( 0.0000,  0.0000,  0.0000)
  28 Li     3.234074    0.000000   15.445939    ( 0.0000,  0.0000,  0.0000)
  29 Li     6.468148    0.000000   15.445939    ( 0.0000,  0.0000,  0.0000)
  30 Li     0.000000    3.234074   15.445939    ( 0.0000,  0.0000,  0.0000)
  31 Li     3.234076    3.234076   15.445938    ( 0.0000,  0.0000,  0.0000)
  32 Li     6.468146    3.234076   15.445938    ( 0.0000,  0.0000,  0.0000)
  33 Li     0.000000    6.468148   15.445939    ( 0.0000,  0.0000,  0.0000)
  34 Li     3.234076    6.468146   15.445938    ( 0.0000,  0.0000,  0.0000)
  35 Li     6.468146    6.468146   15.445938    ( 0.0000,  0.0000,  0.0000)
  36 O      8.085185    1.617037   17.445939    ( 0.0000,  0.0000,  0.0000)
  37 O      8.685512    3.778811   17.445939    ( 0.0000,  0.0000,  0.0000)
  38 C      7.818141    2.952083   17.445939    ( 0.0000,  0.0000,  0.0000)
  39 H      6.739688    3.185042   17.445939    ( 0.0000,  0.0000,  0.0000)
  40 H      7.252158    1.122865   17.445939    ( 0.0000,  0.0000,  0.0000)

Unit cell:
           periodic     x           y           z      points  spacing
  1. axis:    yes    9.702222    0.000000    0.000000    60     0.1617
  2. axis:    yes    0.000000    9.702222    0.000000    60     0.1617
  3. axis:    no     0.000000    0.000000   24.851111   156     0.1593

  Lengths:   9.702222   9.702222  24.851111
  Angles:   90.000000  90.000000  90.000000

Effective grid spacing dv^(1/3) = 0.1609

     iter     time        total  log10-change:
                         energy  eigst   dens
iter:   1 15:23:08  -358.292574
iter:   2 15:25:36  -194.058224  +2.23  -0.14
iter:   3 15:28:00  -202.820538  +3.19  -0.28
iter:   4 15:30:19  -185.894628  +2.42  -0.21
Writing to output.gpw (mode='')

iter:   5 15:32:46  -225.108288  +2.68  -0.52
iter:   6 15:35:05  -236.503642  +2.49  -0.55
iter:   7 15:37:36  -274.049310  +2.52  -0.69
iter:   8 15:40:06  -271.955191  +2.04  -0.55
iter:   9 15:42:29  -270.136341  +1.54  -0.70
Writing to output.gpw (mode='')

iter:  10 15:44:58  -277.781213  +1.47  -0.61
iter:  11 15:47:23  -285.332823  +1.60  -0.54
iter:  12 15:49:43  -275.141383  +1.24  -0.64
iter:  13 15:52:01  -261.217602  +1.15  -0.65
iter:  14 15:54:25  -259.875581  +1.21  -0.75
Writing to output.gpw (mode='')

iter:  15 15:56:54  -258.363670  +0.03  -0.84
iter:  16 15:59:24  -257.898768  +0.70  -0.93
iter:  17 16:01:51  -257.309506  +0.16  -0.98
iter:  18 16:04:15  -258.027988  +0.32  -1.04
iter:  19 16:06:43  -257.253948  -0.01  -1.11
Writing to output.gpw (mode='')

iter:  20 16:09:09  -257.071881  +0.30  -1.12
iter:  21 16:11:36  -257.175502  -0.01  -1.38
iter:  22 16:14:02  -257.236326  -0.49  -1.43
iter:  23 16:16:33  -257.442629  -0.17  -1.39
iter:  24 16:19:11  -257.051531  -0.88  -1.32
Writing to output.gpw (mode='')

iter:  25 16:21:41  -257.095383  -1.24  -1.44
iter:  26 16:24:10  -257.204460  -0.81  -1.41
iter:  27 16:26:39  -257.034523  -0.89  -1.32
iter:  28 16:29:05  -257.043616  -0.05  -1.43
iter:  29 16:31:29  -257.005703  -0.81  -1.50
Writing to output.gpw (mode='')

iter:  30 16:33:56  -256.953467  -1.11  -1.56
iter:  31 16:36:13  -256.951109  -0.66  -1.70
iter:  32 16:38:31  -256.954643c -1.19  -1.85
iter:  33 16:40:59  -256.942205c -1.49  -1.94
iter:  34 16:43:20  -256.952891c -1.06  -2.14
Writing to output.gpw (mode='')

iter:  35 16:45:50  -256.942391c -1.61  -2.00
iter:  36 16:48:16  -256.943708c -2.05  -2.42
iter:  37 16:50:43  -256.943993c -2.36  -2.43
iter:  38 16:53:01  -256.944445c -2.28  -2.46
iter:  39 16:55:28  -256.944699c -2.28  -2.48
Writing to output.gpw (mode='')

iter:  40 16:57:49  -256.944741c -2.64  -2.56
iter:  41 17:00:14  -256.944688c -2.67  -2.62
iter:  42 17:02:38  -256.944841c -2.88  -2.96
iter:  43 17:05:05  -256.945024c -2.95  -3.02
iter:  44 17:07:25  -256.945162c -3.06  -3.05
Writing to output.gpw (mode='')

iter:  45 17:09:50  -256.945405c -2.75  -3.11
iter:  46 17:12:07  -256.945522c -3.08  -3.19
iter:  47 17:14:30  -256.945605c -3.30  -3.33
iter:  48 17:16:53  -256.945712c -3.20  -3.43
iter:  49 17:19:19  -256.945754c -3.58  -3.66
Writing to output.gpw (mode='')

iter:  50 17:21:45  -256.945795c -3.51  -3.70
iter:  51 17:24:07  -256.945837c -3.34  -3.74
iter:  52 17:26:28  -256.945881c -3.57  -3.85
iter:  53 17:28:55  -256.945915c -3.60  -3.92
iter:  54 17:31:26  -256.945945c -3.67  -3.94
Writing to output.gpw (mode='')

iter:  55 17:33:52  -256.945980c -3.76  -3.98
iter:  56 17:36:11  -256.945992c -3.96  -4.16c
iter:  57 17:38:29  -256.946009c -3.81  -4.17c
iter:  58 17:41:01  -256.946019c -3.90  -4.22c
iter:  59 17:43:30  -256.946031c -4.06  -4.21c
Writing to output.gpw (mode='')

iter:  60 17:46:02  -256.946036c -4.25  -4.21c
iter:  61 17:48:24  -256.946043c -4.31  -4.15c
iter:  62 17:50:49  -256.946048c -4.34  -4.20c
iter:  63 17:53:20  -256.946050c -4.07  -4.20c
iter:  64 17:55:54  -256.946054c -4.28  -4.14c
Writing to output.gpw (mode='')

iter:  65 17:58:37  -256.946055c -4.45  -4.12c
iter:  66 18:01:01  -256.946059c -4.61  -4.08c
iter:  67 18:03:27  -256.946074c -4.76  -4.00
iter:  68 18:05:57  -256.946074c -4.86  -4.28c
iter:  69 18:08:27  -256.946072c -4.87  -4.27c
Writing to output.gpw (mode='')

iter:  70 18:10:54  -256.946077c -4.62  -4.18c
iter:  71 18:13:15  -256.946081c -4.74  -4.24c
iter:  72 18:15:43  -256.946078c -4.98  -4.27c
iter:  73 18:18:11  -256.946080c -5.06  -4.18c
iter:  74 18:20:36  -256.946082c -5.12  -4.32c
Writing to output.gpw (mode='')

iter:  75 18:23:13  -256.946083c -5.13  -4.28c
iter:  76 18:25:45  -256.946083c -4.96  -4.33c
iter:  77 18:28:12  -256.946085c -5.15  -4.27c
iter:  78 18:30:40  -256.946085c -5.22  -4.34c
iter:  79 18:33:06  -256.946085c -5.08  -4.36c
Writing to output.gpw (mode='')

iter:  80 18:35:42  -256.946085c -5.20  -4.43c
iter:  81 18:38:14  -256.946086c -5.46  -4.55c
iter:  82 18:40:40  -256.946087c -5.35  -4.59c
iter:  83 18:43:04  -256.946088c -5.43  -4.70c
iter:  84 18:45:27  -256.946087c -5.65  -4.81c
Writing to output.gpw (mode='')

iter:  85 18:47:56  -256.946087c -5.60  -4.84c
iter:  86 18:50:24  -256.946086c -5.79  -4.95c
iter:  87 18:53:00  -256.946086c -5.62  -5.01c
iter:  88 18:55:25  -256.946086c -5.83  -5.14c
iter:  89 18:57:53  -256.946086c -5.58  -5.22c
Writing to output.gpw (mode='')

iter:  90 19:00:18  -256.946086c -5.80  -5.33c
iter:  91 19:02:43  -256.946086c -5.86  -5.33c
iter:  92 19:05:09  -256.946085c -5.95  -5.37c
iter:  93 19:07:34  -256.946085c -6.03  -5.60c
iter:  94 19:10:13  -256.946085c -6.10  -5.69c
Writing to output.gpw (mode='')

iter:  95 19:12:47  -256.946085c -6.13  -5.68c
iter:  96 19:15:13  -256.946085c -6.08  -5.66c
iter:  97 19:17:34  -256.946085c -6.14  -5.58c
iter:  98 19:20:03  -256.946085c -6.41  -5.55c
iter:  99 19:22:32  -256.946085c -6.48  -5.47c
Writing to output.gpw (mode='')

iter: 100 19:24:59  -256.946085c -6.45  -5.51c
iter: 101 19:27:24  -256.946084c -6.39  -5.53c
iter: 102 19:29:53  -256.946084c -6.35  -5.51c
iter: 103 19:32:21  -256.946084c -6.26  -5.49c
iter: 104 19:34:52  -256.946084c -6.49  -5.36c
Writing to output.gpw (mode='')

iter: 105 19:37:19  -256.946084c -6.82  -5.52c
iter: 106 19:39:46  -256.946084c -6.78  -5.44c
iter: 107 19:42:13  -256.946084c -6.68  -5.59c
iter: 108 19:44:37  -256.946084c -6.74  -5.65c
iter: 109 19:46:59  -256.946084c -6.95  -5.60c
Writing to output.gpw (mode='')

iter: 110 19:49:36  -256.946084c -6.91  -5.68c
iter: 111 19:52:13  -256.946084c -6.86  -5.76c
iter: 112 19:54:48  -256.946084c -6.81  -5.77c
iter: 113 19:57:16  -256.946084c -6.69  -5.80c
iter: 114 19:59:56  -256.946084c -7.07  -5.89c
Writing to output.gpw (mode='')

iter: 115 20:02:24  -256.946084c -7.12  -5.92c
iter: 116 20:04:48  -256.946084c -7.19  -6.06c
iter: 117 20:07:10  -256.946084c -7.15  -6.12c
iter: 118 20:09:42  -256.946084c -7.30  -6.26c
iter: 119 20:12:15  -256.946084c -7.11  -6.31c
Writing to output.gpw (mode='')

iter: 120 20:14:45  -256.946084c -7.25  -6.48c
iter: 121 20:17:15  -256.946084c -7.35  -6.58c
iter: 122 20:19:45  -256.946084c -7.34  -6.63c
iter: 123 20:22:22  -256.946084c -7.46c -6.83c

Converged after 123 iterations.

Dipole moment: (-2.223095, -3.444681, 0.097658) |e|*Ang

Energy contributions relative to reference atoms: (reference = -12434.674571)

Kinetic:       +119.279618
Potential:     -108.264373
External:        +0.000000
XC:            -268.436575
Entropy (-ST):   -0.152395
Local:           +0.551444
--------------------------
Free energy:   -257.022281
Extrapolated:  -256.946084

Dipole-layer corrected work functions: 3.388452, 3.200720 eV

Showing only first 2 kpts
 Kpt  Band  Eigenvalues  Occupancy
  0    25     -3.55115    1.98825
  0    26     -3.45901    1.92807
  0    27     -3.13172    0.07412
  0    28     -3.07324    0.02362

  1    25     -3.34612    1.47413
  1    26     -3.29096    0.96375
  1    27     -3.25543    0.62730
  1    28     -3.21837    0.35763


Fermi level: -3.29459

No gap
Writing to output.gpw (mode='')


Forces in eV/Ang:
  0 Li    0.01268   -0.00020   -0.26960
  1 Li   -0.00675    0.00317   -0.27125
  2 Li   -0.00577   -0.01447   -0.27718
  3 Li    0.00904    0.00107   -0.27340
  4 Li   -0.01059   -0.00882   -0.26764
  5 Li   -0.00007    0.01690   -0.27287
  6 Li   -0.01006   -0.00448   -0.27589
  7 Li    0.00712    0.00012   -0.27822
  8 Li    0.00534    0.00067   -0.27429
  9 Li   -0.00600   -0.01155    0.26114
 10 Li    0.00083    0.01222    0.26512
 11 Li    0.00299   -0.01288    0.25778
 12 Li   -0.00303    0.00252    0.29944
 13 Li    0.01071   -0.00055    0.24272
 14 Li   -0.00273   -0.00136    0.27876
 15 Li    0.00304    0.00193    0.25300
 16 Li    0.00007   -0.00455    0.26091
 17 Li   -0.00149    0.00979    0.25991
 18 Li   -0.01693    0.01043    0.03341
 19 Li    0.02379    0.00673    0.08398
 20 Li   -0.00603   -0.00027   -0.08118
 21 Li   -0.00364   -0.00981    0.02783
 22 Li    0.01717    0.00058    0.06776
 23 Li   -0.01165    0.00102   -0.06469
 24 Li   -0.00373    0.00497    0.05077
 25 Li   -0.00415   -0.00050    0.01853
 26 Li    0.00632   -0.00663    0.06518
 27 Li    0.02377   -0.04641   -0.01128
 28 Li    0.03886    0.02513    0.00225
 29 Li   -0.15957   -0.18222   -0.33625
 30 Li    0.04110    0.14407    0.22560
 31 Li    0.04691   -0.01041   -0.01669
 32 Li   -0.36742    0.10376   -0.58730
 33 Li    0.01207    0.05536   -0.01242
 34 Li    0.01201   -0.01866   -0.02001
 35 Li   -0.03846    0.07362   -0.03982
 36 O     0.73015    0.28078    0.42965
 37 O     1.39892    0.97269   -0.18385
 38 C    -1.06641   -1.18814    0.07500
 39 H    -0.14260    0.04153    0.30339
 40 H    -0.55886   -0.28801    0.05665

System changes: positions 

Initializing position-dependent things.

Density initialized from wave functions
       .-----------------------.  
      /|                       |  
     / |                       |  
    /  |                       |  
   /   |                       |  
  /    |                       |  
 *     |                       |  
 |     |                       |  
 |     |                       |  
 |     |                       |  
 |     |                       |  
 |     |                       |  
 |     Li              Li      |  
 |     |            H C  O     |  
 |   Li|     Li      LO        |  
 |     |  Li      LiH     Li   |  
 | Li  |   Li      Li          |  
 |     |Li      Li      Li     |  
 |     | Li                    |  
 |   LLi     LLi     LLi       |  
 |     |  Li      Li      Li   |  
 | Li  |   Li      Li          |  
 |     |Li      Li      Li     |  
 Li    | Li      Li            |  
 |    Li      Li      Li       |  
 |     |                       |  
 |     |                       |  
 |     |                       |  
 |     |                       |  
 |     |                       |  
 |     |                       |  
 |     .-----------------------.  
 |    /                       /   
 |   /                       /    
 |  /                       /     
 | /                       /      
 |/                       /       
 *-----------------------*        

Positions:
   0 Li     1.617037    1.617037   10.000000    ( 0.0000,  0.0000,  0.0000)
   1 Li     4.851111    1.617037   10.000000    ( 0.0000,  0.0000,  0.0000)
   2 Li     8.085185    1.617037   10.000000    ( 0.0000,  0.0000,  0.0000)
   3 Li     1.617037    4.851111   10.000000    ( 0.0000,  0.0000,  0.0000)
   4 Li     4.851111    4.851111   10.000000    ( 0.0000,  0.0000,  0.0000)
   5 Li     8.085185    4.851111   10.000000    ( 0.0000,  0.0000,  0.0000)
   6 Li     1.617037    8.085185   10.000000    ( 0.0000,  0.0000,  0.0000)
   7 Li     4.851111    8.085185   10.000000    ( 0.0000,  0.0000,  0.0000)
   8 Li     8.085185    8.085185   10.000000    ( 0.0000,  0.0000,  0.0000)
   9 Li     0.000000    0.000000   11.617037    ( 0.0000,  0.0000,  0.0000)
  10 Li     3.234074    0.000000   11.617037    ( 0.0000,  0.0000,  0.0000)
  11 Li     6.468148    0.000000   11.617037    ( 0.0000,  0.0000,  0.0000)
  12 Li     0.000000    3.234074   11.617037    ( 0.0000,  0.0000,  0.0000)
  13 Li     3.234074    3.234074   11.617037    ( 0.0000,  0.0000,  0.0000)
  14 Li     6.468148    3.234074   11.617037    ( 0.0000,  0.0000,  0.0000)
  15 Li     0.000000    6.468148   11.617037    ( 0.0000,  0.0000,  0.0000)
  16 Li     3.234074    6.468148   11.617037    ( 0.0000,  0.0000,  0.0000)
  17 Li     6.468148    6.468148   11.617037    ( 0.0000,  0.0000,  0.0000)
  18 Li     1.616796    1.617187   13.470205    ( 0.0000,  0.0000,  0.0000)
  19 Li     4.851451    1.617135   13.470929    ( 0.0000,  0.0000,  0.0000)
  20 Li     8.085098    1.617034   13.468568    ( 0.0000,  0.0000,  0.0000)
  21 Li     1.616986    4.850971   13.470127    ( 0.0000,  0.0000,  0.0000)
  22 Li     4.851356    4.851119   13.470698    ( 0.0000,  0.0000,  0.0000)
  23 Li     8.085017    4.851126   13.468805    ( 0.0000,  0.0000,  0.0000)
  24 Li     1.616985    8.085255   13.470453    ( 0.0000,  0.0000,  0.0000)
  25 Li     4.851052    8.085176   13.469994    ( 0.0000,  0.0000,  0.0000)
  26 Li     8.085274    8.085089   13.470659    ( 0.0000,  0.0000,  0.0000)
  27 Li     0.000340   -0.000663   15.445778    ( 0.0000,  0.0000,  0.0000)
  28 Li     3.234629    0.000359   15.445971    ( 0.0000,  0.0000,  0.0000)
  29 Li     6.465869   -0.002603   15.441135    ( 0.0000,  0.0000,  0.0000)
  30 Li     0.000587    3.236132   15.449162    ( 0.0000,  0.0000,  0.0000)
  31 Li     3.234747    3.233928   15.445700    ( 0.0000,  0.0000,  0.0000)
  32 Li     6.462897    3.235559   15.437548    ( 0.0000,  0.0000,  0.0000)
  33 Li     0.000172    6.468939   15.445761    ( 0.0000,  0.0000,  0.0000)
  34 Li     3.234248    6.467879   15.445652    ( 0.0000,  0.0000,  0.0000)
  35 Li     6.467596    6.469197   15.445369    ( 0.0000,  0.0000,  0.0000)
  36 O      8.095616    1.621048   17.452077    ( 0.0000,  0.0000,  0.0000)
  37 O      8.705497    3.792707   17.443313    ( 0.0000,  0.0000,  0.0000)
  38 C      7.802906    2.935109   17.447011    ( 0.0000,  0.0000,  0.0000)
  39 H      6.737651    3.185635   17.450274    ( 0.0000,  0.0000,  0.0000)
  40 H      7.244174    1.118751   17.446749    ( 0.0000,  0.0000,  0.0000)

Unit cell:
           periodic     x           y           z      points  spacing
  1. axis:    yes    9.702222    0.000000    0.000000    60     0.1617
  2. axis:    yes    0.000000    9.702222    0.000000    60     0.1617
  3. axis:    no     0.000000    0.000000   24.851111   156     0.1593

  Lengths:   9.702222   9.702222  24.851111
  Angles:   90.000000  90.000000  90.000000

Effective grid spacing dv^(1/3) = 0.1609

     iter     time        total  log10-change:
                         energy  eigst   dens
iter:   1 20:25:19  -258.191876  -0.31
iter:   2 20:27:46  -257.552393  +0.17  -1.11
iter:   3 20:30:18  -256.993586  -0.90  -1.17
iter:   4 20:32:40  -256.986505  -1.56  -1.94
Writing to output.gpw (mode='')

iter:   5 20:35:04  -256.970599c -1.53  -2.15
iter:   6 20:37:37  -256.970595c -2.04  -2.33
iter:   7 20:40:10  -256.976357c -1.75  -2.44
iter:   8 20:42:39  -256.969597c -2.27  -2.23
iter:   9 20:45:05  -256.968392c -2.49  -2.57
Writing to output.gpw (mode='')

iter:  10 20:47:31  -256.968426c -2.88  -2.85
iter:  11 20:50:01  -256.968577c -3.14  -2.92
iter:  12 20:52:28  -256.968458c -3.05  -2.98
iter:  13 20:54:58  -256.968855c -3.41  -3.03
iter:  14 20:57:24  -256.968827c -3.71  -3.19
Writing to output.gpw (mode='')

iter:  15 20:59:58  -256.968790c -3.83  -3.26
iter:  16 21:02:25  -256.968782c -3.91  -3.39
iter:  17 21:05:00  -256.968807c -4.23  -3.42
iter:  18 21:07:24  -256.968774c -4.20  -3.51
iter:  19 21:09:46  -256.968808c -4.36  -3.63
Writing to output.gpw (mode='')

iter:  20 21:12:23  -256.968819c -4.31  -3.67
iter:  21 21:15:05  -256.968800c -4.58  -3.85
iter:  22 21:17:28  -256.968812c -4.68  -3.89
iter:  23 21:19:58  -256.968812c -4.71  -3.98
iter:  24 21:22:22  -256.968814c -4.99  -4.03c
Writing to output.gpw (mode='')

iter:  25 21:24:49  -256.968810c -5.04  -4.21c
iter:  26 21:27:13  -256.968815c -5.10  -4.39c
iter:  27 21:29:41  -256.968817c -5.43  -4.40c
iter:  28 21:32:06  -256.968817c -5.31  -4.44c
iter:  29 21:34:22  -256.968817c -5.42  -4.52c
Writing to output.gpw (mode='')

iter:  30 21:36:44  -256.968818c -5.59  -4.60c
iter:  31 21:39:08  -256.968819c -5.72  -4.91c
iter:  32 21:41:34  -256.968818c -5.84  -4.94c
iter:  33 21:44:15  -256.968818c -5.84  -4.93c
iter:  34 21:46:45  -256.968818c -5.93  -5.01c
Writing to output.gpw (mode='')

iter:  35 21:49:08  -256.968819c -6.14  -5.03c
iter:  36 21:51:36  -256.968819c -6.18  -5.21c
iter:  37 21:54:02  -256.968818c -6.16  -5.28c
iter:  38 21:56:30  -256.968818c -6.35  -5.28c
iter:  39 21:58:44  -256.968818c -6.41  -5.43c
Writing to output.gpw (mode='')

iter:  40 22:01:04  -256.968818c -6.49  -5.41c
iter:  41 22:03:22  -256.968818c -6.60  -5.34c
iter:  42 22:05:46  -256.968818c -6.73  -5.24c
iter:  43 22:08:18  -256.968818c -6.79  -5.28c
iter:  44 22:10:40  -256.968819c -6.82  -5.23c
Writing to output.gpw (mode='')

iter:  45 22:12:58  -256.968819c -6.85  -5.26c
iter:  46 22:15:25  -256.968819c -7.04  -5.24c
iter:  47 22:17:49  -256.968819c -7.08  -5.15c
iter:  48 22:20:16  -256.968819c -7.14  -5.10c
iter:  49 22:22:39  -256.968819c -7.22  -5.15c
Writing to output.gpw (mode='')

iter:  50 22:25:09  -256.968819c -7.21  -5.13c
iter:  51 22:27:31  -256.968819c -7.29  -5.29c
iter:  52 22:29:52  -256.968819c -7.42c -5.35c

Converged after 52 iterations.

Dipole moment: (-2.264199, -3.393468, 0.062785) |e|*Ang

Energy contributions relative to reference atoms: (reference = -12434.674571)

Kinetic:       +115.202375
Potential:     -105.017116
External:        +0.000000
XC:            -267.629310
Entropy (-ST):   -0.155053
Local:           +0.552759
--------------------------
Free energy:   -257.046345
Extrapolated:  -256.968819

Dipole-layer corrected work functions: 3.388466, 3.267772 eV

Showing only first 2 kpts
 Kpt  Band  Eigenvalues  Occupancy
  0    25     -3.58467    1.98825
  0    26     -3.49071    1.92547
  0    27     -3.17484    0.08909
  0    28     -3.11675    0.02876

  1    25     -3.38044    1.48014
  1    26     -3.32522    0.97101
  1    27     -3.29020    0.63796
  1    28     -3.24604    0.32448


Fermi level: -3.32812

No gap
Writing to output.gpw (mode='')


Forces in eV/Ang:
  0 Li    0.01260   -0.00062   -0.26968
  1 Li   -0.00615    0.00324   -0.27200
  2 Li   -0.00641   -0.01480   -0.27843
  3 Li    0.00979    0.00152   -0.27361
  4 Li   -0.01095   -0.00887   -0.26800
  5 Li   -0.00037    0.01645   -0.27404
  6 Li   -0.00971   -0.00484   -0.27578
  7 Li    0.00689   -0.00024   -0.27819
  8 Li    0.00556    0.00134   -0.27403
  9 Li   -0.00630   -0.01170    0.26142
 10 Li    0.00138    0.01179    0.26667
 11 Li    0.00264   -0.01305    0.25816
 12 Li   -0.00291    0.00239    0.30204
 13 Li    0.01237   -0.00011    0.24403
 14 Li   -0.00377   -0.00103    0.28023
 15 Li    0.00419    0.00217    0.25501
 16 Li   -0.00110   -0.00389    0.25950
 17 Li   -0.00163    0.00952    0.26261
 18 Li   -0.01650    0.01113    0.03049
 19 Li    0.02120    0.00609    0.07828
 20 Li   -0.00530   -0.00254   -0.08172
 21 Li   -0.00202   -0.00951    0.02286
 22 Li    0.01343    0.00382    0.06245
 23 Li   -0.01055    0.00382   -0.07523
 24 Li   -0.00395    0.00463    0.05027
 25 Li   -0.00535   -0.00270    0.01568
 26 Li    0.00724   -0.00706    0.06228
 27 Li    0.02242   -0.04708   -0.00960
 28 Li    0.03888    0.02273    0.00260
 29 Li   -0.15512   -0.17404   -0.32184
 30 Li   -0.01001    0.15754    0.31861
 31 Li    0.04604   -0.00965   -0.01697
 32 Li   -0.33254    0.10464   -0.54868
 33 Li    0.00990    0.04731    0.00162
 34 Li    0.01354   -0.01734   -0.02092
 35 Li   -0.03862    0.07219   -0.03401
 36 O    -0.10575   -0.37012    0.44692
 37 O    -0.67674   -0.86417   -0.27076
 38 C     1.35190    1.10793   -0.01078
 39 H    -0.27786    0.01765    0.32742
 40 H     0.16186   -0.01896    0.04533

System changes: positions 

Initializing position-dependent things.

Density initialized from wave functions
       .-----------------------.  
      /|                       |  
     / |                       |  
    /  |                       |  
   /   |                       |  
  /    |                       |  
 *     |                       |  
 |     |                       |  
 |     |                       |  
 |     |                       |  
 |     |                       |  
 |     |                       |  
 |     Li              Li      |  
 |     |            H C  O     |  
 |   Li|     Li      LO        |  
 |     |  Li      LiH     Li   |  
 | Li  |   Li      Li          |  
 |     |Li      Li      Li     |  
 |     | Li                    |  
 |   LLi     LLi     LLi       |  
 |     |  Li      Li      Li   |  
 | Li  |   Li      Li          |  
 |     |Li      Li      Li     |  
 Li    | Li      Li            |  
 |    Li      Li      Li       |  
 |     |                       |  
 |     |                       |  
 |     |                       |  
 |     |                       |  
 |     |                       |  
 |     |                       |  
 |     .-----------------------.  
 |    /                       /   
 |   /                       /    
 |  /                       /     
 | /                       /      
 |/                       /       
 *-----------------------*        

Positions:
   0 Li     1.617037    1.617037   10.000000    ( 0.0000,  0.0000,  0.0000)
   1 Li     4.851111    1.617037   10.000000    ( 0.0000,  0.0000,  0.0000)
   2 Li     8.085185    1.617037   10.000000    ( 0.0000,  0.0000,  0.0000)
   3 Li     1.617037    4.851111   10.000000    ( 0.0000,  0.0000,  0.0000)
   4 Li     4.851111    4.851111   10.000000    ( 0.0000,  0.0000,  0.0000)
   5 Li     8.085185    4.851111   10.000000    ( 0.0000,  0.0000,  0.0000)
   6 Li     1.617037    8.085185   10.000000    ( 0.0000,  0.0000,  0.0000)
   7 Li     4.851111    8.085185   10.000000    ( 0.0000,  0.0000,  0.0000)
   8 Li     8.085185    8.085185   10.000000    ( 0.0000,  0.0000,  0.0000)
   9 Li     0.000000    0.000000   11.617037    ( 0.0000,  0.0000,  0.0000)
  10 Li     3.234074    0.000000   11.617037    ( 0.0000,  0.0000,  0.0000)
  11 Li     6.468148    0.000000   11.617037    ( 0.0000,  0.0000,  0.0000)
  12 Li     0.000000    3.234074   11.617037    ( 0.0000,  0.0000,  0.0000)
  13 Li     3.234074    3.234074   11.617037    ( 0.0000,  0.0000,  0.0000)
  14 Li     6.468148    3.234074   11.617037    ( 0.0000,  0.0000,  0.0000)
  15 Li     0.000000    6.468148   11.617037    ( 0.0000,  0.0000,  0.0000)
  16 Li     3.234074    6.468148   11.617037    ( 0.0000,  0.0000,  0.0000)
  17 Li     6.468148    6.468148   11.617037    ( 0.0000,  0.0000,  0.0000)
  18 Li     1.616581    1.617329   13.470610    ( 0.0000,  0.0000,  0.0000)
  19 Li     4.851734    1.617216   13.471963    ( 0.0000,  0.0000,  0.0000)
  20 Li     8.085027    1.617009   13.467511    ( 0.0000,  0.0000,  0.0000)
  21 Li     1.616955    4.850847   13.470440    ( 0.0000,  0.0000,  0.0000)
  22 Li     4.851543    4.851158   13.471525    ( 0.0000,  0.0000,  0.0000)
  23 Li     8.084877    4.851166   13.467865    ( 0.0000,  0.0000,  0.0000)
  24 Li     1.616934    8.085316   13.471106    ( 0.0000,  0.0000,  0.0000)
  25 Li     4.850986    8.085149   13.470207    ( 0.0000,  0.0000,  0.0000)
  26 Li     8.085365    8.084999   13.471476    ( 0.0000,  0.0000,  0.0000)
  27 Li     0.000635   -0.001271   15.445648    ( 0.0000,  0.0000,  0.0000)
  28 Li     3.235133    0.000662   15.446003    ( 0.0000,  0.0000,  0.0000)
  29 Li     6.463843   -0.004886   15.436915    ( 0.0000,  0.0000,  0.0000)
  30 Li     0.000627    3.238129   15.452982    ( 0.0000,  0.0000,  0.0000)
  31 Li     3.235346    3.233800   15.445481    ( 0.0000,  0.0000,  0.0000)
  32 Li     6.458470    3.236912   15.430307    ( 0.0000,  0.0000,  0.0000)
  33 Li     0.000308    6.469579   15.445736    ( 0.0000,  0.0000,  0.0000)
  34 Li     3.234418    6.467650   15.445384    ( 0.0000,  0.0000,  0.0000)
  35 Li     6.467096    6.470138   15.444909    ( 0.0000,  0.0000,  0.0000)
  36 O      8.097026    1.618416   17.457813    ( 0.0000,  0.0000,  0.0000)
  37 O      8.703630    3.787615   17.440092    ( 0.0000,  0.0000,  0.0000)
  38 C      7.812385    2.941833   17.447156    ( 0.0000,  0.0000,  0.0000)
  39 H      6.734499    3.185944   17.454438    ( 0.0000,  0.0000,  0.0000)
  40 H      7.243875    1.117610   17.447374    ( 0.0000,  0.0000,  0.0000)

Unit cell:
           periodic     x           y           z      points  spacing
  1. axis:    yes    9.702222    0.000000    0.000000    60     0.1617
  2. axis:    yes    0.000000    9.702222    0.000000    60     0.1617
  3. axis:    no     0.000000    0.000000   24.851111   156     0.1593

  Lengths:   9.702222   9.702222  24.851111
  Angles:   90.000000  90.000000  90.000000

Effective grid spacing dv^(1/3) = 0.1609

     iter     time        total  log10-change:
                         energy  eigst   dens
iter:   1 22:32:53  -257.020613  -1.65
iter:   2 22:35:17  -257.013170  -2.18  -2.24
iter:   3 22:37:42  -257.007953c -2.32  -2.28
iter:   4 22:40:03  -257.002232c -2.16  -2.32
Writing to output.gpw (mode='')

iter:   5 22:42:26  -257.004825c -2.80  -2.54
iter:   6 22:44:51  -257.003713c -3.05  -2.66
iter:   7 22:47:14  -257.001810c -2.72  -2.72
iter:   8 22:49:35  -257.001453c -3.10  -2.90
iter:   9 22:52:03  -257.001780c -3.37  -2.90
Writing to output.gpw (mode='')

iter:  10 22:54:29  -257.001577c -3.86  -3.08
iter:  11 22:56:50  -257.001585c -4.27  -3.21
iter:  12 22:59:14  -257.001610c -4.39  -3.31
iter:  13 23:01:33  -257.001557c -4.26  -3.43
iter:  14 23:03:53  -257.001527c -5.01  -3.46
Writing to output.gpw (mode='')

iter:  15 23:06:16  -257.001533c -4.84  -3.62
iter:  16 23:08:41  -257.001551c -5.66  -3.71
iter:  17 23:11:01  -257.001538c -5.52  -3.75
iter:  18 23:13:28  -257.001559c -5.66  -3.91
iter:  19 23:15:53  -257.001547c -5.76  -3.92
Writing to output.gpw (mode='')

iter:  20 23:18:23  -257.001553c -5.94  -4.10c
iter:  21 23:20:50  -257.001552c -5.72  -4.20c
iter:  22 23:23:22  -257.001555c -6.32  -4.33c
iter:  23 23:25:54  -257.001555c -6.52  -4.41c
iter:  24 23:28:15  -257.001553c -6.46  -4.42c
Writing to output.gpw (mode='')

iter:  25 23:30:50  -257.001554c -6.61  -4.54c
iter:  26 23:33:29  -257.001554c -6.93  -4.58c
iter:  27 23:35:51  -257.001553c -6.90  -4.59c
iter:  28 23:38:30  -257.001555c -7.03  -4.70c
iter:  29 23:40:57  -257.001555c -7.10  -4.71c
Writing to output.gpw (mode='')

iter:  30 23:43:27  -257.001556c -7.06  -4.78c
iter:  31 23:45:47  -257.001555c -7.41c -4.96c

Converged after 31 iterations.

Dipole moment: (-2.249301, -3.355035, 0.072636) |e|*Ang

Energy contributions relative to reference atoms: (reference = -12434.674571)

Kinetic:       +115.745946
Potential:     -105.520120
External:        +0.000000
XC:            -267.702620
Entropy (-ST):   -0.153814
Local:           +0.552145
--------------------------
Free energy:   -257.078462
Extrapolated:  -257.001555

Dipole-layer corrected work functions: 3.388293, 3.248661 eV

Showing only first 2 kpts
 Kpt  Band  Eigenvalues  Occupancy
  0    25     -3.57516    1.98828
  0    26     -3.48203    1.92685
  0    27     -3.16043    0.08132
  0    28     -3.10363    0.02685

  1    25     -3.37093    1.48118
  1    26     -3.31491    0.96438
  1    27     -3.28070    0.63920
  1    28     -3.23842    0.33563


Fermi level: -3.31848

No gap
Writing to output.gpw (mode='')


Forces in eV/Ang:
  0 Li    0.01256   -0.00054   -0.26946
  1 Li   -0.00615    0.00311   -0.27212
  2 Li   -0.00638   -0.01470   -0.27820
  3 Li    0.00973    0.00143   -0.27347
  4 Li   -0.01083   -0.00876   -0.26810
  5 Li   -0.00040    0.01653   -0.27366
  6 Li   -0.00961   -0.00477   -0.27587
  7 Li    0.00705   -0.00022   -0.27835
  8 Li    0.00545    0.00128   -0.27423
  9 Li   -0.00599   -0.01225    0.26166
 10 Li    0.00134    0.01216    0.26717
 11 Li    0.00242   -0.01345    0.25892
 12 Li   -0.00240    0.00254    0.30082
 13 Li    0.01281   -0.00030    0.24469
 14 Li   -0.00450   -0.00099    0.28019
 15 Li    0.00446    0.00241    0.25449
 16 Li   -0.00118   -0.00409    0.26029
 17 Li   -0.00194    0.00986    0.26250
 18 Li   -0.01684    0.01158    0.03158
 19 Li    0.01887    0.00485    0.07354
 20 Li   -0.00386   -0.00098   -0.07700
 21 Li   -0.00286   -0.00977    0.02444
 22 Li    0.01176    0.00543    0.05870
 23 Li   -0.00915    0.00373   -0.07054
 24 Li   -0.00362    0.00477    0.04916
 25 Li   -0.00681   -0.00326    0.01339
 26 Li    0.00772   -0.00788    0.05937
 27 Li    0.02015   -0.04418   -0.00776
 28 Li    0.03792    0.02256    0.00290
 29 Li   -0.15109   -0.16821   -0.31507
 30 Li    0.00237    0.15032    0.28820
 31 Li    0.04433   -0.00916   -0.01648
 32 Li   -0.33072    0.09682   -0.53252
 33 Li    0.01058    0.05009   -0.00360
 34 Li    0.01302   -0.01769   -0.01996
 35 Li   -0.03808    0.07076   -0.03533
 36 O    -0.10564   -0.20578    0.41136
 37 O    -0.05172   -0.29330   -0.25006
 38 C     0.39714    0.32268    0.03159
 39 H     0.00896   -0.01495    0.29725
 40 H     0.18555    0.04624    0.04999

System changes: positions 

Initializing position-dependent things.

Density initialized from wave functions
       .-----------------------.  
      /|                       |  
     / |                       |  
    /  |                       |  
   /   |                       |  
  /    |                       |  
 *     |                       |  
 |     |                       |  
 |     |                       |  
 |     |                       |  
 |     |                       |  
 |     |                       |  
 |     Li              Li      |  
 |     |            H C  O     |  
 |   Li|     Li      LO        |  
 |     |  Li      LiH     Li   |  
 | Li  |   Li      Li          |  
 |     |Li      Li      Li     |  
 |     | Li                    |  
 |   LLi     LLi     LLi       |  
 |     |  Li      Li      Li   |  
 | Li  |   Li      Li          |  
 |     |Li      Li      Li     |  
 Li    | Li      Li            |  
 |    Li      Li      Li       |  
 |     |                       |  
 |     |                       |  
 |     |                       |  
 |     |                       |  
 |     |                       |  
 |     |                       |  
 |     .-----------------------.  
 |    /                       /   
 |   /                       /    
 |  /                       /     
 | /                       /      
 |/                       /       
 *-----------------------*        

Positions:
   0 Li     1.617037    1.617037   10.000000    ( 0.0000,  0.0000,  0.0000)
   1 Li     4.851111    1.617037   10.000000    ( 0.0000,  0.0000,  0.0000)
   2 Li     8.085185    1.617037   10.000000    ( 0.0000,  0.0000,  0.0000)
   3 Li     1.617037    4.851111   10.000000    ( 0.0000,  0.0000,  0.0000)
   4 Li     4.851111    4.851111   10.000000    ( 0.0000,  0.0000,  0.0000)
   5 Li     8.085185    4.851111   10.000000    ( 0.0000,  0.0000,  0.0000)
   6 Li     1.617037    8.085185   10.000000    ( 0.0000,  0.0000,  0.0000)
   7 Li     4.851111    8.085185   10.000000    ( 0.0000,  0.0000,  0.0000)
   8 Li     8.085185    8.085185   10.000000    ( 0.0000,  0.0000,  0.0000)
   9 Li     0.000000    0.000000   11.617037    ( 0.0000,  0.0000,  0.0000)
  10 Li     3.234074    0.000000   11.617037    ( 0.0000,  0.0000,  0.0000)
  11 Li     6.468148    0.000000   11.617037    ( 0.0000,  0.0000,  0.0000)
  12 Li     0.000000    3.234074   11.617037    ( 0.0000,  0.0000,  0.0000)
  13 Li     3.234074    3.234074   11.617037    ( 0.0000,  0.0000,  0.0000)
  14 Li     6.468148    3.234074   11.617037    ( 0.0000,  0.0000,  0.0000)
  15 Li     0.000000    6.468148   11.617037    ( 0.0000,  0.0000,  0.0000)
  16 Li     3.234074    6.468148   11.617037    ( 0.0000,  0.0000,  0.0000)
  17 Li     6.468148    6.468148   11.617037    ( 0.0000,  0.0000,  0.0000)
  18 Li     1.615842    1.617827   13.472007    ( 0.0000,  0.0000,  0.0000)
  19 Li     4.852619    1.617452   13.475314    ( 0.0000,  0.0000,  0.0000)
  20 Li     8.084830    1.616961   13.464058    ( 0.0000,  0.0000,  0.0000)
  21 Li     1.616828    4.850418   13.471532    ( 0.0000,  0.0000,  0.0000)
  22 Li     4.852115    4.851347   13.474205    ( 0.0000,  0.0000,  0.0000)
  23 Li     8.084445    4.851309   13.464778    ( 0.0000,  0.0000,  0.0000)
  24 Li     1.616772    8.085527   13.473289    ( 0.0000,  0.0000,  0.0000)
  25 Li     4.850717    8.085031   13.470852    ( 0.0000,  0.0000,  0.0000)
  26 Li     8.085690    8.084668   13.474154    ( 0.0000,  0.0000,  0.0000)
  27 Li     0.001565   -0.003252   15.445266    ( 0.0000,  0.0000,  0.0000)
  28 Li     3.236815    0.001676   15.446124    ( 0.0000,  0.0000,  0.0000)
  29 Li     6.457101   -0.012438   15.422838    ( 0.0000,  0.0000,  0.0000)
  30 Li     0.000961    3.244740   15.465360    ( 0.0000,  0.0000,  0.0000)
  31 Li     3.237329    3.233384   15.444751    ( 0.0000,  0.0000,  0.0000)
  32 Li     6.443612    3.241279   15.406331    ( 0.0000,  0.0000,  0.0000)
  33 Li     0.000781    6.471807   15.445541    ( 0.0000,  0.0000,  0.0000)
  34 Li     3.234987    6.466866   15.444499    ( 0.0000,  0.0000,  0.0000)
  35 Li     6.465414    6.473283   15.443327    ( 0.0000,  0.0000,  0.0000)
  36 O      8.099089    1.612187   17.476293    ( 0.0000,  0.0000,  0.0000)
  37 O      8.708886    3.781117   17.429486    ( 0.0000,  0.0000,  0.0000)
  38 C      7.824396    2.949070   17.448616    ( 0.0000,  0.0000,  0.0000)
  39 H      6.731786    3.185954   17.467764    ( 0.0000,  0.0000,  0.0000)
  40 H      7.245904    1.116530   17.449596    ( 0.0000,  0.0000,  0.0000)

Unit cell:
           periodic     x           y           z      points  spacing
  1. axis:    yes    9.702222    0.000000    0.000000    60     0.1617
  2. axis:    yes    0.000000    9.702222    0.000000    60     0.1617
  3. axis:    no     0.000000    0.000000   24.851111   156     0.1593

  Lengths:   9.702222   9.702222  24.851111
  Angles:   90.000000  90.000000  90.000000

Effective grid spacing dv^(1/3) = 0.1609

     iter     time        total  log10-change:
                         energy  eigst   dens
iter:   1 23:48:56  -257.060076  -1.18
iter:   2 23:51:27  -257.057484  -1.89  -2.13
iter:   3 23:53:53  -257.052197c -2.31  -2.15
iter:   4 23:56:21  -257.047588c -1.91  -2.30
Writing to output.gpw (mode='')

iter:   5 23:58:47  -257.046016c -3.00  -2.43
iter:   6 00:01:16  -257.044781c -2.65  -2.61
iter:   7 00:03:39  -257.045744c -2.34  -2.67
iter:   8 00:06:05  -257.044974c -3.21  -2.71
iter:   9 00:08:45  -257.044728c -3.11  -2.94
Writing to output.gpw (mode='')

iter:  10 00:11:24  -257.044760c -4.09  -3.03
iter:  11 00:13:48  -257.044683c -3.81  -3.14
iter:  12 00:16:17  -257.044685c -3.97  -3.23
iter:  13 00:18:36  -257.044695c -4.45  -3.40
iter:  14 00:21:02  -257.044706c -4.61  -3.43
Writing to output.gpw (mode='')

iter:  15 00:23:34  -257.044664c -4.85  -3.46
iter:  16 00:26:02  -257.044682c -4.87  -3.58
iter:  17 00:28:24  -257.044691c -4.95  -3.70
iter:  18 00:30:47  -257.044716c -5.16  -3.79
iter:  19 00:33:16  -257.044714c -5.44  -3.97
Writing to output.gpw (mode='')

iter:  20 00:35:49  -257.044711c -5.82  -4.09c
iter:  21 00:38:14  -257.044700c -5.66  -4.15c
iter:  22 00:40:45  -257.044706c -5.99  -4.47c
iter:  23 00:43:13  -257.044704c -6.20  -4.48c
iter:  24 00:45:40  -257.044704c -6.16  -4.53c
Writing to output.gpw (mode='')

iter:  25 00:48:16  -257.044705c -6.46  -4.68c
iter:  26 00:50:42  -257.044706c -6.57  -4.83c
iter:  27 00:53:09  -257.044705c -6.72  -4.87c
iter:  28 00:55:32  -257.044705c -6.69  -4.92c
iter:  29 00:57:50  -257.044705c -6.71  -5.12c
Writing to output.gpw (mode='')

iter:  30 01:00:27  -257.044705c -6.86  -5.14c
iter:  31 01:02:58  -257.044705c -6.92  -5.19c
iter:  32 01:05:34  -257.044705c -7.07  -5.23c
iter:  33 01:08:01  -257.044705c -7.18  -5.37c
iter:  34 01:10:28  -257.044705c -7.37  -5.57c
Writing to output.gpw (mode='')

iter:  35 01:12:56  -257.044705c -7.48c -5.60c

Converged after 35 iterations.

Dipole moment: (-2.240613, -3.228716, 0.079910) |e|*Ang

Energy contributions relative to reference atoms: (reference = -12434.674571)

Kinetic:       +116.054323
Potential:     -105.836520
External:        +0.000000
XC:            -267.737074
Entropy (-ST):   -0.152746
Local:           +0.550940
--------------------------
Free energy:   -257.121078
Extrapolated:  -257.044705

Dipole-layer corrected work functions: 3.388438, 3.234824 eV

Showing only first 2 kpts
 Kpt  Band  Eigenvalues  Occupancy
  0    25     -3.56854    1.98833
  0    26     -3.47653    1.92872
  0    27     -3.14994    0.07582
  0    28     -3.09336    0.02510

  1    25     -3.36307    1.47335
  1    26     -3.30721    0.95580
  1    27     -3.27519    0.65089
  1    28     -3.23315    0.34455


Fermi level: -3.31163

No gap

Forces in eV/Ang:
  0 Li    0.01236   -0.00050   -0.26921
  1 Li   -0.00585    0.00300   -0.27282
  2 Li   -0.00657   -0.01446   -0.27827
  3 Li    0.00978    0.00118   -0.27333
  4 Li   -0.01050   -0.00872   -0.26882
  5 Li   -0.00068    0.01643   -0.27368
  6 Li   -0.00931   -0.00470   -0.27617
  7 Li    0.00742   -0.00042   -0.27864
  8 Li    0.00530    0.00133   -0.27429
  9 Li   -0.00526   -0.01385    0.26229
 10 Li    0.00139    0.01278    0.26904
 11 Li    0.00175   -0.01439    0.26105
 12 Li   -0.00096    0.00278    0.29884
 13 Li    0.01491   -0.00058    0.24691
 14 Li   -0.00716   -0.00074    0.28069
 15 Li    0.00551    0.00341    0.25430
 16 Li   -0.00185   -0.00404    0.26186
 17 Li   -0.00269    0.01041    0.26350
 18 Li   -0.01756    0.01320    0.03295
 19 Li    0.01104    0.00095    0.05819
 20 Li    0.00015    0.00129   -0.06543
 21 Li   -0.00409   -0.01013    0.02550
 22 Li    0.00477    0.01163    0.04516
 23 Li   -0.00485    0.00521   -0.06452
 24 Li   -0.00293    0.00485    0.04548
 25 Li   -0.01101   -0.00564    0.00689
 26 Li    0.00930   -0.00974    0.05095
 27 Li    0.01387   -0.03749   -0.00290
 28 Li    0.03500    0.02058    0.00273
 29 Li   -0.13789   -0.14981   -0.29373
 30 Li    0.00439    0.13972    0.26445
 31 Li    0.03890   -0.00795   -0.01592
 32 Li   -0.30458    0.08132   -0.47527
 33 Li    0.01044    0.05237   -0.00820
 34 Li    0.01291   -0.01730   -0.01797
 35 Li   -0.03646    0.06637   -0.03527
 36 O    -0.02494    0.09585    0.33874
 37 O     0.53561    0.26449   -0.23352
 38 C    -0.59122   -0.55563    0.08081
 39 H     0.36810   -0.03021    0.23817
 40 H     0.13297    0.06881    0.06932

System changes: positions 

Initializing position-dependent things.

Density initialized from wave functions
       .-----------------------.  
      /|                       |  
     / |                       |  
    /  |                       |  
   /   |                       |  
  /    |                       |  
 *     |                       |  
 |     |                       |  
 |     |                       |  
 |     |                       |  
 |     |                       |  
 |     |                       |  
 |     Li              Li      |  
 |     |            H C  O     |  
 |   Li|     Li      LO        |  
 |     |  Li      LiH     Li   |  
 | Li  |   Li      Li          |  
 |     |Li      Li      Li     |  
 |     | Li                    |  
 |   LLi     LLi     LLi       |  
 |     |  Li      Li      Li   |  
 | Li  |   Li      Li          |  
 |     |Li      Li      Li     |  
 Li    | Li      Li            |  
 |    Li      Li      Li       |  
 |     |                       |  
 |     |                       |  
 |     |                       |  
 |     |                       |  
 |     |                       |  
 |     |                       |  
 |     .-----------------------.  
 |    /                       /   
 |   /                       /    
 |  /                       /     
 | /                       /      
 |/                       /       
 *-----------------------*        

Positions:
   0 Li     1.617037    1.617037   10.000000    ( 0.0000,  0.0000,  0.0000)
   1 Li     4.851111    1.617037   10.000000    ( 0.0000,  0.0000,  0.0000)
   2 Li     8.085185    1.617037   10.000000    ( 0.0000,  0.0000,  0.0000)
   3 Li     1.617037    4.851111   10.000000    ( 0.0000,  0.0000,  0.0000)
   4 Li     4.851111    4.851111   10.000000    ( 0.0000,  0.0000,  0.0000)
   5 Li     8.085185    4.851111   10.000000    ( 0.0000,  0.0000,  0.0000)
   6 Li     1.617037    8.085185   10.000000    ( 0.0000,  0.0000,  0.0000)
   7 Li     4.851111    8.085185   10.000000    ( 0.0000,  0.0000,  0.0000)
   8 Li     8.085185    8.085185   10.000000    ( 0.0000,  0.0000,  0.0000)
   9 Li     0.000000    0.000000   11.617037    ( 0.0000,  0.0000,  0.0000)
  10 Li     3.234074    0.000000   11.617037    ( 0.0000,  0.0000,  0.0000)
  11 Li     6.468148    0.000000   11.617037    ( 0.0000,  0.0000,  0.0000)
  12 Li     0.000000    3.234074   11.617037    ( 0.0000,  0.0000,  0.0000)
  13 Li     3.234074    3.234074   11.617037    ( 0.0000,  0.0000,  0.0000)
  14 Li     6.468148    3.234074   11.617037    ( 0.0000,  0.0000,  0.0000)
  15 Li     0.000000    6.468148   11.617037    ( 0.0000,  0.0000,  0.0000)
  16 Li     3.234074    6.468148   11.617037    ( 0.0000,  0.0000,  0.0000)
  17 Li     6.468148    6.468148   11.617037    ( 0.0000,  0.0000,  0.0000)
  18 Li     1.614766    1.618571   13.474033    ( 0.0000,  0.0000,  0.0000)
  19 Li     4.853765    1.617730   13.479887    ( 0.0000,  0.0000,  0.0000)
  20 Li     8.084611    1.616919   13.459260    ( 0.0000,  0.0000,  0.0000)
  21 Li     1.616632    4.849796   13.473107    ( 0.0000,  0.0000,  0.0000)
  22 Li     4.852818    4.851727   13.477839    ( 0.0000,  0.0000,  0.0000)
  23 Li     8.083893    4.851547   13.460390    ( 0.0000,  0.0000,  0.0000)
  24 Li     1.616548    8.085830   13.476375    ( 0.0000,  0.0000,  0.0000)
  25 Li     4.850262    8.084819   13.471676    ( 0.0000,  0.0000,  0.0000)
  26 Li     8.086185    8.084162   13.477876    ( 0.0000,  0.0000,  0.0000)
  27 Li     0.002806   -0.006006   15.444794    ( 0.0000,  0.0000,  0.0000)
  28 Li     3.239193    0.003099   15.446292    ( 0.0000,  0.0000,  0.0000)
  29 Li     6.447604   -0.023014   15.402915    ( 0.0000,  0.0000,  0.0000)
  30 Li     0.001317    3.254144   15.483113    ( 0.0000,  0.0000,  0.0000)
  31 Li     3.240097    3.232804   15.443705    ( 0.0000,  0.0000,  0.0000)
  32 Li     6.422716    3.247346   15.372767    ( 0.0000,  0.0000,  0.0000)
  33 Li     0.001452    6.475028   15.445234    ( 0.0000,  0.0000,  0.0000)
  34 Li     3.235809    6.465748   15.443252    ( 0.0000,  0.0000,  0.0000)
  35 Li     6.463015    6.477744   15.441067    ( 0.0000,  0.0000,  0.0000)
  36 O      8.102285    1.606595   17.501874    ( 0.0000,  0.0000,  0.0000)
  37 O      8.719756    3.775237   17.414230    ( 0.0000,  0.0000,  0.0000)
  38 C      7.833894    2.952346   17.451195    ( 0.0000,  0.0000,  0.0000)
  39 H      6.732233    3.185880   17.486138    ( 0.0000,  0.0000,  0.0000)
  40 H      7.248782    1.115338   17.453101    ( 0.0000,  0.0000,  0.0000)

Unit cell:
           periodic     x           y           z      points  spacing
  1. axis:    yes    9.702222    0.000000    0.000000    60     0.1617
  2. axis:    yes    0.000000    9.702222    0.000000    60     0.1617
  3. axis:    no     0.000000    0.000000   24.851111   156     0.1593

  Lengths:   9.702222   9.702222  24.851111
  Angles:   90.000000  90.000000  90.000000

Effective grid spacing dv^(1/3) = 0.1609

     iter     time        total  log10-change:
                         energy  eigst   dens
iter:   1 01:15:53  -257.130106  -1.00
iter:   2 01:18:20  -257.119192  -1.34  -1.77
iter:   3 01:20:44  -257.099539  -2.19  -1.80
iter:   4 01:23:12  -257.096079c -2.50  -2.16
Writing to output.gpw (mode='')

iter:   5 01:25:38  -257.093743c -1.84  -2.27
iter:   6 01:28:08  -257.091905c -2.83  -2.47
iter:   7 01:30:29  -257.091446c -2.67  -2.68
iter:   8 01:32:49  -257.092113c -2.59  -2.77
iter:   9 01:35:06  -257.091726c -3.20  -2.78
Writing to output.gpw (mode='')

iter:  10 01:37:28  -257.091650c -3.50  -3.02
iter:  11 01:39:49  -257.091677c -3.95  -3.04
iter:  12 01:42:12  -257.091617c -3.69  -3.19
iter:  13 01:44:30  -257.091564c -4.17  -3.26
iter:  14 01:47:00  -257.091609c -4.25  -3.45
Writing to output.gpw (mode='')

iter:  15 01:49:28  -257.091610c -4.88  -3.54
iter:  16 01:51:55  -257.091624c -4.32  -3.57
iter:  17 01:54:20  -257.091617c -5.13  -3.72
iter:  18 01:56:46  -257.091623c -5.12  -3.96
iter:  19 01:59:06  -257.091623c -5.41  -4.03c
Writing to output.gpw (mode='')

iter:  20 02:01:35  -257.091620c -5.37  -4.05c
iter:  21 02:04:01  -257.091617c -5.42  -4.18c
iter:  22 02:06:39  -257.091618c -5.84  -4.27c
iter:  23 02:09:07  -257.091617c -5.71  -4.33c
iter:  24 02:11:38  -257.091618c -5.97  -4.46c
Writing to output.gpw (mode='')

iter:  25 02:14:05  -257.091620c -5.95  -4.53c
iter:  26 02:16:32  -257.091619c -6.19  -4.71c
iter:  27 02:18:53  -257.091619c -6.31  -4.79c
iter:  28 02:21:23  -257.091619c -6.53  -4.80c
iter:  29 02:23:45  -257.091619c -6.56  -4.85c
Writing to output.gpw (mode='')

iter:  30 02:26:24  -257.091618c -6.74  -5.10c
iter:  31 02:28:58  -257.091618c -6.84  -5.14c
iter:  32 02:31:28  -257.091618c -6.77  -5.15c
iter:  33 02:33:47  -257.091618c -6.89  -5.21c
iter:  34 02:36:11  -257.091618c -6.96  -5.29c
Writing to output.gpw (mode='')

iter:  35 02:38:37  -257.091618c -7.08  -5.37c
iter:  36 02:41:00  -257.091618c -7.07  -5.42c
iter:  37 02:43:25  -257.091618c -7.33  -5.62c
iter:  38 02:45:50  -257.091618c -7.41c -5.67c

Converged after 38 iterations.

Dipole moment: (-2.239331, -3.053033, 0.081004) |e|*Ang

Energy contributions relative to reference atoms: (reference = -12434.674571)

Kinetic:       +115.852168
Potential:     -105.726366
External:        +0.000000
XC:            -267.693037
Entropy (-ST):   -0.152208
Local:           +0.551721
--------------------------
Free energy:   -257.167722
Extrapolated:  -257.091618

Dipole-layer corrected work functions: 3.388581, 3.232864 eV

Showing only first 2 kpts
 Kpt  Band  Eigenvalues  Occupancy
  0    25     -3.56789    1.98839
  0    26     -3.47682    1.93035
  0    27     -3.14727    0.07330
  0    28     -3.09130    0.02453

  1    25     -3.36113    1.46528
  1    26     -3.30504    0.94326
  1    27     -3.27653    0.67078
  1    28     -3.23251    0.34605


Fermi level: -3.31072

No gap
Writing to output.gpw (mode='')


Forces in eV/Ang:
  0 Li    0.01213   -0.00060   -0.26891
  1 Li   -0.00534    0.00284   -0.27400
  2 Li   -0.00702   -0.01426   -0.27875
  3 Li    0.01010    0.00099   -0.27319
  4 Li   -0.01013   -0.00861   -0.26991
  5 Li   -0.00122    0.01616   -0.27411
  6 Li   -0.00874   -0.00463   -0.27651
  7 Li    0.00775   -0.00073   -0.27892
  8 Li    0.00508    0.00155   -0.27426
  9 Li   -0.00424   -0.01596    0.26311
 10 Li    0.00155    0.01339    0.27188
 11 Li    0.00070   -0.01566    0.26384
 12 Li    0.00093    0.00304    0.29688
 13 Li    0.01802   -0.00081    0.25023
 14 Li   -0.01089   -0.00031    0.28166
 15 Li    0.00731    0.00486    0.25472
 16 Li   -0.00315   -0.00379    0.26342
 17 Li   -0.00371    0.01111    0.26560
 18 Li   -0.01842    0.01550    0.03402
 19 Li   -0.00028   -0.00475    0.03624
 20 Li    0.00525    0.00318   -0.05068
 21 Li   -0.00532   -0.01054    0.02560
 22 Li   -0.00606    0.02146    0.02533
 23 Li    0.00103    0.00798   -0.05933
 24 Li   -0.00196    0.00475    0.04042
 25 Li   -0.01717   -0.00973   -0.00282
 26 Li    0.01176   -0.01216    0.03936
 27 Li    0.00615   -0.02994    0.00248
 28 Li    0.03097    0.01727    0.00257
 29 Li   -0.11942   -0.12405   -0.26237
 30 Li   -0.00458    0.12973    0.25759
 31 Li    0.03127   -0.00618   -0.01532
 32 Li   -0.26191    0.06352   -0.39982
 33 Li    0.00957    0.05299   -0.01026
 34 Li    0.01313   -0.01628   -0.01565
 35 Li   -0.03421    0.05988   -0.03351
 36 O    -0.03719    0.29554    0.25961
 37 O     0.76964    0.46681   -0.25754
 38 C    -1.06999   -1.00861    0.13910
 39 H     0.62382   -0.02207    0.17607
 40 H     0.12520    0.08786    0.09271

System changes: positions 

Initializing position-dependent things.

Density initialized from wave functions
       .-----------------------.  
      /|                       |  
     / |                       |  
    /  |                       |  
   /   |                       |  
  /    |                       |  
 *     |                       |  
 |     |                       |  
 |     |                       |  
 |     |                       |  
 |     |                       |  
 |     |                       |  
 |     Li              Li      |  
 |     |            H C  O     |  
 |   Li|     Li      LO        |  
 |     |  Li      LiH     Li   |  
 | Li  |   Li      Li          |  
 |     |Li      Li      Li     |  
 |     | Li                    |  
 |   LLi     LLi     LLi       |  
 |     |  Li      Li      Li   |  
 | Li  |   Li      Li          |  
 |     |Li      Li      Li     |  
 Li    | Li      Li            |  
 |    Li      Li      Li       |  
 |     |                       |  
 |     |                       |  
 |     |                       |  
 |     |                       |  
 |     |                       |  
 |     |                       |  
 |     .-----------------------.  
 |    /                       /   
 |   /                       /    
 |  /                       /     
 | /                       /      
 |/                       /       
 *-----------------------*        

Positions:
   0 Li     1.617037    1.617037   10.000000    ( 0.0000,  0.0000,  0.0000)
   1 Li     4.851111    1.617037   10.000000    ( 0.0000,  0.0000,  0.0000)
   2 Li     8.085185    1.617037   10.000000    ( 0.0000,  0.0000,  0.0000)
   3 Li     1.617037    4.851111   10.000000    ( 0.0000,  0.0000,  0.0000)
   4 Li     4.851111    4.851111   10.000000    ( 0.0000,  0.0000,  0.0000)
   5 Li     8.085185    4.851111   10.000000    ( 0.0000,  0.0000,  0.0000)
   6 Li     1.617037    8.085185   10.000000    ( 0.0000,  0.0000,  0.0000)
   7 Li     4.851111    8.085185   10.000000    ( 0.0000,  0.0000,  0.0000)
   8 Li     8.085185    8.085185   10.000000    ( 0.0000,  0.0000,  0.0000)
   9 Li     0.000000    0.000000   11.617037    ( 0.0000,  0.0000,  0.0000)
  10 Li     3.234074    0.000000   11.617037    ( 0.0000,  0.0000,  0.0000)
  11 Li     6.468148    0.000000   11.617037    ( 0.0000,  0.0000,  0.0000)
  12 Li     0.000000    3.234074   11.617037    ( 0.0000,  0.0000,  0.0000)
  13 Li     3.234074    3.234074   11.617037    ( 0.0000,  0.0000,  0.0000)
  14 Li     6.468148    3.234074   11.617037    ( 0.0000,  0.0000,  0.0000)
  15 Li     0.000000    6.468148   11.617037    ( 0.0000,  0.0000,  0.0000)
  16 Li     3.234074    6.468148   11.617037    ( 0.0000,  0.0000,  0.0000)
  17 Li     6.468148    6.468148   11.617037    ( 0.0000,  0.0000,  0.0000)
  18 Li     1.613648    1.619368   13.476131    ( 0.0000,  0.0000,  0.0000)
  19 Li     4.854794    1.617941   13.484307    ( 0.0000,  0.0000,  0.0000)
  20 Li     8.084452    1.616898   13.454508    ( 0.0000,  0.0000,  0.0000)
  21 Li     1.616416    4.849151   13.474724    ( 0.0000,  0.0000,  0.0000)
  22 Li     4.853396    4.852250   13.481318    ( 0.0000,  0.0000,  0.0000)
  23 Li     8.083401    4.851831   13.455924    ( 0.0000,  0.0000,  0.0000)
  24 Li     1.616330    8.086141   13.479487    ( 0.0000,  0.0000,  0.0000)
  25 Li     4.849711    8.084544   13.472395    ( 0.0000,  0.0000,  0.0000)
  26 Li     8.086729    8.083609   13.481556    ( 0.0000,  0.0000,  0.0000)
  27 Li     0.003983   -0.008746   15.444379    ( 0.0000,  0.0000,  0.0000)
  28 Li     3.241589    0.004519   15.446464    ( 0.0000,  0.0000,  0.0000)
  29 Li     6.438067   -0.033564   15.382816    ( 0.0000,  0.0000,  0.0000)
  30 Li     0.001503    3.263719   15.501430    ( 0.0000,  0.0000,  0.0000)
  31 Li     3.242848    3.232230   15.442635    ( 0.0000,  0.0000,  0.0000)
  32 Li     6.401791    3.253369   15.339213    ( 0.0000,  0.0000,  0.0000)
  33 Li     0.002128    6.478343   15.444909    ( 0.0000,  0.0000,  0.0000)
  34 Li     3.236662    6.464612   15.441996    ( 0.0000,  0.0000,  0.0000)
  35 Li     6.460574    6.482253   15.438769    ( 0.0000,  0.0000,  0.0000)
  36 O      8.104780    1.602737   17.527233    ( 0.0000,  0.0000,  0.0000)
  37 O      8.731420    3.769495   17.398089    ( 0.0000,  0.0000,  0.0000)
  38 C      7.840767    2.952759   17.454498    ( 0.0000,  0.0000,  0.0000)
  39 H      6.735517    3.185956   17.504298    ( 0.0000,  0.0000,  0.0000)
  40 H      7.252142    1.114451   17.457009    ( 0.0000,  0.0000,  0.0000)

Unit cell:
           periodic     x           y           z      points  spacing
  1. axis:    yes    9.702222    0.000000    0.000000    60     0.1617
  2. axis:    yes    0.000000    9.702222    0.000000    60     0.1617
  3. axis:    no     0.000000    0.000000   24.851111   156     0.1593

  Lengths:   9.702222   9.702222  24.851111
  Angles:   90.000000  90.000000  90.000000

Effective grid spacing dv^(1/3) = 0.1609

     iter     time        total  log10-change:
                         energy  eigst   dens
iter:   1 02:48:51  -257.177791  -1.01
iter:   2 02:51:22  -257.165168  -1.30  -1.74
iter:   3 02:53:54  -257.142545  -2.17  -1.78
iter:   4 02:56:15  -257.139726c -2.54  -2.16
Writing to output.gpw (mode='')

iter:   5 02:58:42  -257.138659c -1.91  -2.29
iter:   6 03:01:11  -257.136883c -2.77  -2.49
iter:   7 03:03:35  -257.136522c -2.67  -2.71
iter:   8 03:06:04  -257.136966c -2.78  -2.84
iter:   9 03:08:33  -257.136812c -3.32  -2.85
Writing to output.gpw (mode='')

iter:  10 03:11:06  -257.136745c -3.47  -3.08
iter:  11 03:13:28  -257.136776c -3.97  -3.08
iter:  12 03:15:59  -257.136724c -3.76  -3.23
iter:  13 03:18:23  -257.136738c -4.31  -3.31
iter:  14 03:20:57  -257.136740c -4.35  -3.50
Writing to output.gpw (mode='')

iter:  15 03:23:33  -257.136731c -4.73  -3.58
iter:  16 03:26:02  -257.136723c -4.95  -3.63
iter:  17 03:28:25  -257.136729c -4.78  -3.78
iter:  18 03:30:46  -257.136741c -5.05  -4.05c
iter:  19 03:33:21  -257.136740c -5.26  -4.13c
Writing to output.gpw (mode='')

iter:  20 03:35:47  -257.136739c -5.43  -4.15c
iter:  21 03:38:14  -257.136735c -5.59  -4.23c
iter:  22 03:40:36  -257.136737c -5.51  -4.39c
iter:  23 03:43:00  -257.136739c -5.72  -4.39c
iter:  24 03:45:34  -257.136736c -5.88  -4.43c
Writing to output.gpw (mode='')

iter:  25 03:47:55  -257.136737c -6.13  -4.73c
iter:  26 03:50:24  -257.136738c -6.15  -4.76c
iter:  27 03:52:43  -257.136737c -6.20  -4.81c
iter:  28 03:55:04  -257.136738c -6.42  -5.01c
iter:  29 03:57:33  -257.136738c -6.43  -5.09c
Writing to output.gpw (mode='')

iter:  30 03:59:59  -257.136738c -6.58  -5.19c
iter:  31 04:02:19  -257.136737c -6.64  -5.23c
iter:  32 04:04:48  -257.136737c -6.66  -5.32c
iter:  33 04:07:09  -257.136737c -6.85  -5.51c
iter:  34 04:09:30  -257.136737c -6.77  -5.59c
Writing to output.gpw (mode='')

iter:  35 04:11:59  -257.136737c -7.00  -5.62c
iter:  36 04:14:16  -257.136737c -7.01  -5.75c
iter:  37 04:16:30  -257.136737c -7.13  -5.75c
iter:  38 04:19:02  -257.136737c -7.20  -5.77c
iter:  39 04:21:31  -257.136737c -7.26  -5.69c
Writing to output.gpw (mode='')

iter:  40 04:24:06  -257.136737c -7.30  -5.60c
iter:  41 04:26:29  -257.136737c -7.43c -5.57c

Converged after 41 iterations.

Dipole moment: (-2.236823, -2.880153, 0.080075) |e|*Ang

Energy contributions relative to reference atoms: (reference = -12434.674571)

Kinetic:       +115.572512
Potential:     -105.529998
External:        +0.000000
XC:            -267.654455
Entropy (-ST):   -0.151978
Local:           +0.551192
--------------------------
Free energy:   -257.212726
Extrapolated:  -257.136737

Dipole-layer corrected work functions: 3.388566, 3.234635 eV

Showing only first 2 kpts
 Kpt  Band  Eigenvalues  Occupancy
  0    25     -3.56900    1.98844
  0    26     -3.47861    1.93156
  0    27     -3.14734    0.07216
  0    28     -3.09229    0.02459

  1    25     -3.36140    1.46057
  1    26     -3.30435    0.92761
  1    27     -3.27984    0.69268
  1    28     -3.23295    0.34356


Fermi level: -3.31160

No gap
Writing to output.gpw (mode='')


Forces in eV/Ang:
  0 Li    0.01187   -0.00072   -0.26864
  1 Li   -0.00479    0.00274   -0.27528
  2 Li   -0.00751   -0.01408   -0.27942
  3 Li    0.01042    0.00084   -0.27307
  4 Li   -0.00976   -0.00850   -0.27102
  5 Li   -0.00176    0.01584   -0.27474
  6 Li   -0.00820   -0.00457   -0.27679
  7 Li    0.00801   -0.00104   -0.27911
  8 Li    0.00489    0.00181   -0.27420
  9 Li   -0.00317   -0.01800    0.26387
 10 Li    0.00171    0.01388    0.27490
 11 Li   -0.00040   -0.01688    0.26661
 12 Li    0.00276    0.00326    0.29499
 13 Li    0.02112   -0.00095    0.25367
 14 Li   -0.01459    0.00013    0.28268
 15 Li    0.00933    0.00643    0.25532
 16 Li   -0.00467   -0.00353    0.26470
 17 Li   -0.00471    0.01181    0.26801
 18 Li   -0.01919    0.01774    0.03486
 19 Li   -0.01207   -0.01094    0.01377
 20 Li    0.00989    0.00438   -0.03684
 21 Li   -0.00640   -0.01093    0.02530
 22 Li   -0.01777    0.03236    0.00462
 23 Li    0.00681    0.01098   -0.05503
 24 Li   -0.00089    0.00457    0.03541
 25 Li   -0.02369   -0.01436   -0.01306
 26 Li    0.01439   -0.01442    0.02795
 27 Li   -0.00069   -0.02357    0.00668
 28 Li    0.02694    0.01377    0.00253
 29 Li   -0.10156   -0.09914   -0.23129
 30 Li   -0.01441    0.12022    0.25520
 31 Li    0.02357   -0.00447   -0.01466
 32 Li   -0.21879    0.04694   -0.33085
 33 Li    0.00847    0.05287   -0.01096
 34 Li    0.01339   -0.01499   -0.01349
 35 Li   -0.03191    0.05309   -0.03112
 36 O    -0.04941    0.42669    0.19587
 37 O     0.74805    0.49283   -0.25012
 38 C    -1.22472   -1.15998    0.18624
 39 H     0.75504   -0.00823    0.11920
 40 H     0.11716    0.08930    0.11487

System changes: positions 

Initializing position-dependent things.

Density initialized from wave functions
       .-----------------------.  
      /|                       |  
     / |                       |  
    /  |                       |  
   /   |                       |  
  /    |                       |  
 *     |                       |  
 |     |                       |  
 |     |                       |  
 |     |                       |  
 |     |                       |  
 |     |                       |  
 |     Li              Li      |  
 |     |            H C  O     |  
 |   Li|     Li      LO        |  
 |     |  Li      LiH     Li   |  
 | Li  |   Li      Li          |  
 |     |Li      Li      Li     |  
 |     | Li                    |  
 |   LLi     LLi     LLi       |  
 |     |  Li      Li      Li   |  
 | Li  |   Li      Li          |  
 |     |Li      Li      Li     |  
 Li    | Li      Li            |  
 |    Li      Li      Li       |  
 |     |                       |  
 |     |                       |  
 |     |                       |  
 |     |                       |  
 |     |                       |  
 |     |                       |  
 |     .-----------------------.  
 |    /                       /   
 |   /                       /    
 |  /                       /     
 | /                       /      
 |/                       /       
 *-----------------------*        

Positions:
   0 Li     1.617037    1.617037   10.000000    ( 0.0000,  0.0000,  0.0000)
   1 Li     4.851111    1.617037   10.000000    ( 0.0000,  0.0000,  0.0000)
   2 Li     8.085185    1.617037   10.000000    ( 0.0000,  0.0000,  0.0000)
   3 Li     1.617037    4.851111   10.000000    ( 0.0000,  0.0000,  0.0000)
   4 Li     4.851111    4.851111   10.000000    ( 0.0000,  0.0000,  0.0000)
   5 Li     8.085185    4.851111   10.000000    ( 0.0000,  0.0000,  0.0000)
   6 Li     1.617037    8.085185   10.000000    ( 0.0000,  0.0000,  0.0000)
   7 Li     4.851111    8.085185   10.000000    ( 0.0000,  0.0000,  0.0000)
   8 Li     8.085185    8.085185   10.000000    ( 0.0000,  0.0000,  0.0000)
   9 Li     0.000000    0.000000   11.617037    ( 0.0000,  0.0000,  0.0000)
  10 Li     3.234074    0.000000   11.617037    ( 0.0000,  0.0000,  0.0000)
  11 Li     6.468148    0.000000   11.617037    ( 0.0000,  0.0000,  0.0000)
  12 Li     0.000000    3.234074   11.617037    ( 0.0000,  0.0000,  0.0000)
  13 Li     3.234074    3.234074   11.617037    ( 0.0000,  0.0000,  0.0000)
  14 Li     6.468148    3.234074   11.617037    ( 0.0000,  0.0000,  0.0000)
  15 Li     0.000000    6.468148   11.617037    ( 0.0000,  0.0000,  0.0000)
  16 Li     3.234074    6.468148   11.617037    ( 0.0000,  0.0000,  0.0000)
  17 Li     6.468148    6.468148   11.617037    ( 0.0000,  0.0000,  0.0000)
  18 Li     1.612479    1.620229   13.478313    ( 0.0000,  0.0000,  0.0000)
  19 Li     4.855667    1.618059   13.488512    ( 0.0000,  0.0000,  0.0000)
  20 Li     8.084363    1.616894   13.449817    ( 0.0000,  0.0000,  0.0000)
  21 Li     1.616175    4.848478   13.476389    ( 0.0000,  0.0000,  0.0000)
  22 Li     4.853804    4.852967   13.484579    ( 0.0000,  0.0000,  0.0000)
  23 Li     8.082988    4.852175   13.451371    ( 0.0000,  0.0000,  0.0000)
  24 Li     1.616121    8.086459   13.482625    ( 0.0000,  0.0000,  0.0000)
  25 Li     4.849037    8.084185   13.472973    ( 0.0000,  0.0000,  0.0000)
  26 Li     8.087333    8.083000   13.485177    ( 0.0000,  0.0000,  0.0000)
  27 Li     0.005088   -0.011477   15.444019    ( 0.0000,  0.0000,  0.0000)
  28 Li     3.244003    0.005930   15.446640    ( 0.0000,  0.0000,  0.0000)
  29 Li     6.428494   -0.044069   15.362536    ( 0.0000,  0.0000,  0.0000)
  30 Li     0.001513    3.273474   15.520376    ( 0.0000,  0.0000,  0.0000)
  31 Li     3.245569    3.231665   15.441539    ( 0.0000,  0.0000,  0.0000)
  32 Li     6.380860    3.259329   15.305652    ( 0.0000,  0.0000,  0.0000)
  33 Li     0.002810    6.481766   15.444567    ( 0.0000,  0.0000,  0.0000)
  34 Li     3.237548    6.463458   15.440732    ( 0.0000,  0.0000,  0.0000)
  35 Li     6.458086    6.486807   15.436432    ( 0.0000,  0.0000,  0.0000)
  36 O      8.106731    1.600660   17.552419    ( 0.0000,  0.0000,  0.0000)
  37 O      8.742427    3.763344   17.381462    ( 0.0000,  0.0000,  0.0000)
  38 C      7.846049    2.951432   17.458636    ( 0.0000,  0.0000,  0.0000)
  39 H      6.741203    3.186220   17.522162    ( 0.0000,  0.0000,  0.0000)
  40 H      7.255887    1.113742   17.461406    ( 0.0000,  0.0000,  0.0000)

Unit cell:
           periodic     x           y           z      points  spacing
  1. axis:    yes    9.702222    0.000000    0.000000    60     0.1617
  2. axis:    yes    0.000000    9.702222    0.000000    60     0.1617
  3. axis:    no     0.000000    0.000000   24.851111   156     0.1593

  Lengths:   9.702222   9.702222  24.851111
  Angles:   90.000000  90.000000  90.000000

Effective grid spacing dv^(1/3) = 0.1609

     iter     time        total  log10-change:
                         energy  eigst   dens
iter:   1 04:29:26  -257.212273  -1.02
iter:   2 04:31:50  -257.200766  -1.42  -1.79
iter:   3 04:34:22  -257.184938  -2.22  -1.84
iter:   4 04:36:46  -257.182269c -2.55  -2.17
Writing to output.gpw (mode='')

iter:   5 04:39:15  -257.181764c -1.93  -2.31
iter:   6 04:41:34  -257.179916c -2.75  -2.49
iter:   7 04:43:55  -257.179625c -2.60  -2.74
iter:   8 04:46:21  -257.180035c -2.84  -2.85
iter:   9 04:48:52  -257.179858c -3.42  -2.84
Writing to output.gpw (mode='')

iter:  10 04:51:21  -257.179777c -3.56  -3.07
iter:  11 04:53:42  -257.179824c -4.08  -3.08
iter:  12 04:56:13  -257.179778c -3.82  -3.28
iter:  13 04:58:33  -257.179787c -4.39  -3.33
iter:  14 05:00:55  -257.179788c -4.45  -3.50
Writing to output.gpw (mode='')

iter:  15 05:03:21  -257.179780c -4.76  -3.62
iter:  16 05:05:40  -257.179772c -4.99  -3.75
iter:  17 05:08:01  -257.179780c -5.10  -3.89
iter:  18 05:10:26  -257.179778c -5.09  -4.01c
iter:  19 05:12:57  -257.179788c -5.28  -4.14c
Writing to output.gpw (mode='')

iter:  20 05:15:32  -257.179787c -5.56  -4.20c
iter:  21 05:17:59  -257.179779c -5.67  -4.23c
iter:  22 05:20:30  -257.179781c -5.71  -4.46c
iter:  23 05:23:04  -257.179781c -5.99  -4.54c
iter:  24 05:25:32  -257.179781c -5.97  -4.58c
Writing to output.gpw (mode='')

iter:  25 05:28:05  -257.179783c -5.94  -4.65c
iter:  26 05:30:32  -257.179783c -6.36  -4.79c
iter:  27 05:32:57  -257.179783c -6.42  -4.85c
iter:  28 05:35:16  -257.179782c -6.44  -4.96c
iter:  29 05:37:40  -257.179782c -6.54  -5.06c
Writing to output.gpw (mode='')

iter:  30 05:40:14  -257.179782c -6.68  -5.16c
iter:  31 05:42:36  -257.179782c -6.52  -5.20c
iter:  32 05:45:01  -257.179782c -6.89  -5.24c
iter:  33 05:47:29  -257.179782c -6.87  -5.32c
iter:  34 05:49:59  -257.179782c -7.11  -5.44c
Writing to output.gpw (mode='')

iter:  35 05:52:27  -257.179782c -7.07  -5.55c
iter:  36 05:54:49  -257.179782c -7.10  -5.54c
iter:  37 05:57:10  -257.179782c -7.10  -5.58c
iter:  38 05:59:34  -257.179782c -7.24  -5.72c
iter:  39 06:02:04  -257.179782c -7.32  -5.76c
Writing to output.gpw (mode='')

iter:  40 06:04:38  -257.179782c -7.49c -5.75c

Converged after 40 iterations.

Dipole moment: (-2.232219, -2.711010, 0.079072) |e|*Ang

Energy contributions relative to reference atoms: (reference = -12434.674571)

Kinetic:       +115.383001
Potential:     -105.390333
External:        +0.000000
XC:            -267.648129
Entropy (-ST):   -0.151844
Local:           +0.551601
--------------------------
Free energy:   -257.255704
Extrapolated:  -257.179782

Dipole-layer corrected work functions: 3.388279, 3.236275 eV

Showing only first 2 kpts
 Kpt  Band  Eigenvalues  Occupancy
  0    25     -3.56988    1.98849
  0    26     -3.48001    1.93251
  0    27     -3.14745    0.07139
  0    28     -3.09348    0.02484

  1    25     -3.36201    1.46001
  1    26     -3.30301    0.90761
  1    27     -3.28298    0.71512
  1    28     -3.23290    0.33943


Fermi level: -3.31228

No gap

Forces in eV/Ang:
  0 Li    0.01157   -0.00082   -0.26837
  1 Li   -0.00421    0.00266   -0.27660
  2 Li   -0.00801   -0.01390   -0.28018
  3 Li    0.01071    0.00071   -0.27294
  4 Li   -0.00938   -0.00838   -0.27209
  5 Li   -0.00231    0.01549   -0.27545
  6 Li   -0.00768   -0.00450   -0.27701
  7 Li    0.00820   -0.00133   -0.27919
  8 Li    0.00471    0.00207   -0.27410
  9 Li   -0.00203   -0.01998    0.26456
 10 Li    0.00185    0.01428    0.27807
 11 Li   -0.00153   -0.01807    0.26939
 12 Li    0.00451    0.00344    0.29300
 13 Li    0.02412   -0.00103    0.25722
 14 Li   -0.01823    0.00056    0.28375
 15 Li    0.01153    0.00809    0.25597
 16 Li   -0.00640   -0.00332    0.26574
 17 Li   -0.00567    0.01256    0.27061
 18 Li   -0.01987    0.01987    0.03561
 19 Li   -0.02428   -0.01765   -0.00911
 20 Li    0.01408    0.00509   -0.02369
 21 Li   -0.00740   -0.01129    0.02493
 22 Li   -0.03028    0.04427   -0.01686
 23 Li    0.01243    0.01404   -0.05087
 24 Li    0.00034    0.00433    0.03042
 25 Li   -0.03058   -0.01946   -0.02381
 26 Li    0.01712   -0.01651    0.01665
 27 Li   -0.00672   -0.01817    0.00976
 28 Li    0.02291    0.01023    0.00270
 29 Li   -0.08422   -0.07509   -0.20007
 30 Li   -0.02114    0.11034    0.25024
 31 Li    0.01580   -0.00279   -0.01381
 32 Li   -0.17503    0.03052   -0.26550
 33 Li    0.00730    0.05246   -0.01116
 34 Li    0.01360   -0.01355   -0.01140
 35 Li   -0.02946    0.04592   -0.02837
 36 O    -0.02487    0.47996    0.13148
 37 O     0.66014    0.42563   -0.21762
 38 C    -1.21495   -1.15879    0.22178
 39 H     0.80455    0.00950    0.07797
 40 H     0.11414    0.08712    0.13508

System changes: positions 

Initializing position-dependent things.

Density initialized from wave functions
       .-----------------------.  
      /|                       |  
     / |                       |  
    /  |                       |  
   /   |                       |  
  /    |                       |  
 *     |                       |  
 |     |                       |  
 |     |                       |  
 |     |                       |  
 |     |                       |  
 |     |                       |  
 |     Li              Li      |  
 |     |            H C  O     |  
 |   Li|     Li      LO        |  
 |     |  Li      LiH     Li   |  
 | Li  |   Li      Li          |  
 |     |Li      Li      Li     |  
 |     | Li                    |  
 |   LLi     LLi     LLi       |  
 |     |  Li      Li      Li   |  
 | Li  |   Li      Li          |  
 |     |Li      Li      Li     |  
 Li    | Li      Li            |  
 |    Li      Li      Li       |  
 |     |                       |  
 |     |                       |  
 |     |                       |  
 |     |                       |  
 |     |                       |  
[...]
  1. axis:    yes    9.702222    0.000000    0.000000    60     0.1617
  2. axis:    yes    0.000000    9.702222    0.000000    60     0.1617
  3. axis:    no     0.000000    0.000000   24.851111   156     0.1593

  Lengths:   9.702222   9.702222  24.851111
  Angles:   90.000000  90.000000  90.000000

Effective grid spacing dv^(1/3) = 0.1609

     iter     time        total  log10-change:
                         energy  eigst   dens
iter:   1 12:56:13  -258.425032  -0.53
iter:   2 12:58:29  -258.314007  -1.24  -1.48
iter:   3 13:00:53  -258.309105  -1.80  -1.88
iter:   4 13:03:14  -258.300462c -1.93  -1.99
Writing to output.gpw (mode='')

iter:   5 13:06:15  -258.299985c -2.10  -2.29
iter:   6 13:08:39  -258.299740c -2.19  -2.42
iter:   7 13:11:00  -258.302068c -1.67  -2.52
iter:   8 13:13:33  -258.299134c -2.71  -2.42
iter:   9 13:16:05  -258.299255c -3.13  -2.89
Writing to output.gpw (mode='')

iter:  10 13:19:02  -258.299760c -3.12  -2.91
iter:  11 13:21:28  -258.299663c -3.48  -2.95
iter:  12 13:23:51  -258.299476c -3.53  -3.07
iter:  13 13:26:21  -258.299531c -3.87  -3.14
iter:  14 13:28:46  -258.299545c -3.84  -3.36
Writing to output.gpw (mode='')

iter:  15 13:31:39  -258.299546c -4.33  -3.52
iter:  16 13:34:10  -258.299543c -4.60  -3.55
iter:  17 13:36:38  -258.299551c -4.67  -3.66
iter:  18 13:39:04  -258.299546c -4.91  -3.75
iter:  19 13:41:30  -258.299515c -4.97  -3.79
Writing to output.gpw (mode='')

iter:  20 13:44:00  -258.299516c -5.30  -3.99
iter:  21 13:46:23  -258.299534c -5.06  -4.10c
iter:  22 13:48:51  -258.299535c -5.39  -4.18c
iter:  23 13:51:06  -258.299531c -5.60  -4.21c
iter:  24 13:53:24  -258.299533c -5.68  -4.32c
Writing to output.gpw (mode='')

iter:  25 13:56:01  -258.299532c -5.89  -4.43c
iter:  26 13:58:20  -258.299532c -5.98  -4.57c
iter:  27 14:00:38  -258.299532c -6.15  -4.69c
iter:  28 14:02:59  -258.299532c -6.28  -4.77c
iter:  29 14:05:31  -258.299531c -6.44  -4.89c
Writing to output.gpw (mode='')

iter:  30 14:08:06  -258.299531c -6.70  -5.04c
iter:  31 14:10:37  -258.299531c -6.67  -5.07c
iter:  32 14:12:57  -258.299531c -6.68  -5.13c
iter:  33 14:15:30  -258.299531c -6.87  -5.16c
iter:  34 14:17:52  -258.299531c -7.07  -5.31c
Writing to output.gpw (mode='')

iter:  35 14:20:31  -258.299531c -7.04  -5.36c
iter:  36 14:22:59  -258.299531c -7.18  -5.39c
iter:  37 14:25:19  -258.299531c -7.30  -5.52c
iter:  38 14:27:47  -258.299531c -7.41c -5.68c

Converged after 38 iterations.

Dipole moment: (-1.866347, -5.194940, 0.092339) |e|*Ang

Energy contributions relative to reference atoms: (reference = -12434.674571)

Kinetic:       +110.507679
Potential:     -100.261224
External:        +0.000000
XC:            -269.046793
Entropy (-ST):   -0.146700
Local:           +0.574157
--------------------------
Free energy:   -258.372881
Extrapolated:  -258.299531

Dipole-layer corrected work functions: 3.398946, 3.221439 eV

Showing only first 2 kpts
 Kpt  Band  Eigenvalues  Occupancy
  0    25     -3.49063    1.94726
  0    26     -3.44338    1.86970
  0    27     -3.31052    1.00325
  0    28     -3.04452    0.00980

  1    25     -3.60552    1.99457
  1    26     -3.27813    0.68997
  1    27     -3.22853    0.32675
  1    28     -3.09055    0.02443


Fermi level: -3.31019

No gap
Writing to output.gpw (mode='')


Forces in eV/Ang:
  0 Li    0.00820    0.00303   -0.27147
  1 Li   -0.01185    0.00113   -0.28192
  2 Li   -0.00225   -0.00387   -0.27687
  3 Li    0.01834    0.00387   -0.28868
  4 Li   -0.01546    0.00233   -0.29236
  5 Li   -0.00657    0.00666   -0.29213
  6 Li    0.00569   -0.01188   -0.28525
  7 Li   -0.00705   -0.01119   -0.28959
  8 Li   -0.00555   -0.00748   -0.25835
  9 Li    0.00441    0.02558    0.25706
 10 Li    0.02870    0.06029    0.31934
 11 Li   -0.00258    0.04702    0.23721
 12 Li    0.00482    0.02260    0.31976
 13 Li    0.03013   -0.03430    0.29406
 14 Li   -0.01754   -0.00998    0.27955
 15 Li   -0.02187   -0.02312    0.36985
 16 Li    0.05795    0.00045    0.39958
 17 Li   -0.01145    0.01222    0.34353
 18 Li    0.00775    0.00475    0.04100
 19 Li   -0.00078   -0.14582   -0.04034
 20 Li    0.01154   -0.00612    0.03262
 21 Li   -0.00417   -0.01910    0.01154
 22 Li   -0.16614    0.26020   -0.24239
 23 Li    0.13742    0.09001   -0.10954
 24 Li   -0.08630    0.00762    0.09561
 25 Li   -0.02721   -0.02058    0.03331
 26 Li    0.06376   -0.02257    0.07726
 27 Li   -0.22507    0.14899    0.20727
 28 Li   -0.01176    0.02868   -0.00551
 29 Li    0.13720    0.31315   -0.08372
 30 Li    0.31248    0.08801   -0.14006
 31 Li   -0.15294   -0.00236   -0.03201
 32 Li    0.47397   -0.18839    0.27949
 33 Li   -0.01819    0.10181   -0.06213
 34 Li    0.06849   -0.05865   -0.05020
 35 Li   -0.02828    0.03742    0.02015
 36 O    -0.37205   -0.33711   -0.28586
 37 O    -0.63034   -0.43613   -0.26095
 38 C    -0.10702    0.76303   -0.19483
 39 H    -0.07900   -0.20536    0.26152
 40 H     0.63447   -0.45875    0.18507

System changes: positions 

Initializing position-dependent things.

Density initialized from wave functions
       .-----------------------.  
      /|                       |  
     / |                       |  
    /  |                       |  
   /   |                       |  
  /    |                       |  
 *     |                       |  
 |     |                       |  
 |     |                       |  
 |     |                       |  
 |     |                       |  
 |     |                       |  
 |     |       Li              |  
 |     |            H          |  
 |   Li|     Li      HiO       |  
 |     |  Li      Li  O   LLi  |  
 |     |   Li      Li          |  
 |     |Li      LiLi    LLi    |  
 |     |                       |  
 |   LLi     LLi     LLi       |  
 |     |  Li      Li      Li   |  
 | Li  |   Li      Li          |  
 |     |Li      Li      Li     |  
 Li    | Li      Li            |  
 |    Li      Li      Li       |  
 |     |                       |  
 |     |                       |  
 |     |                       |  
 |     |                       |  
 |     |                       |  
 |     |                       |  
 |     .-----------------------.  
 |    /                       /   
 |   /                       /    
 |  /                       /     
 | /                       /      
 |/                       /       
 *-----------------------*        

Positions:
   0 Li     1.617037    1.617037   10.000000    ( 0.0000,  0.0000,  0.0000)
   1 Li     4.851111    1.617037   10.000000    ( 0.0000,  0.0000,  0.0000)
   2 Li     8.085185    1.617037   10.000000    ( 0.0000,  0.0000,  0.0000)
   3 Li     1.617037    4.851111   10.000000    ( 0.0000,  0.0000,  0.0000)
   4 Li     4.851111    4.851111   10.000000    ( 0.0000,  0.0000,  0.0000)
   5 Li     8.085185    4.851111   10.000000    ( 0.0000,  0.0000,  0.0000)
   6 Li     1.617037    8.085185   10.000000    ( 0.0000,  0.0000,  0.0000)
   7 Li     4.851111    8.085185   10.000000    ( 0.0000,  0.0000,  0.0000)
   8 Li     8.085185    8.085185   10.000000    ( 0.0000,  0.0000,  0.0000)
   9 Li     0.000000    0.000000   11.617037    ( 0.0000,  0.0000,  0.0000)
  10 Li     3.234074    0.000000   11.617037    ( 0.0000,  0.0000,  0.0000)
  11 Li     6.468148    0.000000   11.617037    ( 0.0000,  0.0000,  0.0000)
  12 Li     0.000000    3.234074   11.617037    ( 0.0000,  0.0000,  0.0000)
  13 Li     3.234074    3.234074   11.617037    ( 0.0000,  0.0000,  0.0000)
  14 Li     6.468148    3.234074   11.617037    ( 0.0000,  0.0000,  0.0000)
  15 Li     0.000000    6.468148   11.617037    ( 0.0000,  0.0000,  0.0000)
  16 Li     3.234074    6.468148   11.617037    ( 0.0000,  0.0000,  0.0000)
  17 Li     6.468148    6.468148   11.617037    ( 0.0000,  0.0000,  0.0000)
  18 Li     1.594914    1.622846   13.581410    ( 0.0000,  0.0000,  0.0000)
  19 Li     4.882752    1.704164   13.561234    ( 0.0000,  0.0000,  0.0000)
  20 Li     8.083044    1.628552   13.434871    ( 0.0000,  0.0000,  0.0000)
  21 Li     1.649042    4.774838   13.543956    ( 0.0000,  0.0000,  0.0000)
  22 Li     4.931775    4.741609   13.611323    ( 0.0000,  0.0000,  0.0000)
  23 Li     7.989187    4.821109   13.527708    ( 0.0000,  0.0000,  0.0000)
  24 Li     1.618265    8.142804   13.495549    ( 0.0000,  0.0000,  0.0000)
  25 Li     4.916990    8.203083   13.514050    ( 0.0000,  0.0000,  0.0000)
  26 Li     8.066035    8.176209   13.521078    ( 0.0000,  0.0000,  0.0000)
  27 Li    -0.151116    0.008140   15.992396    ( 0.0000,  0.0000,  0.0000)
  28 Li     3.224592   -0.069495   15.467253    ( 0.0000,  0.0000,  0.0000)
  29 Li     6.562955    0.447069   16.050532    ( 0.0000,  0.0000,  0.0000)
  30 Li    -0.049114    3.295363   15.717990    ( 0.0000,  0.0000,  0.0000)
  31 Li     3.367317    3.245342   15.608698    ( 0.0000,  0.0000,  0.0000)
  32 Li     6.454800    3.413293   15.540946    ( 0.0000,  0.0000,  0.0000)
  33 Li     0.072409    6.451215   15.440745    ( 0.0000,  0.0000,  0.0000)
  34 Li     3.212702    6.498643   15.470324    ( 0.0000,  0.0000,  0.0000)
  35 Li     6.428693    6.655295   15.456454    ( 0.0000,  0.0000,  0.0000)
  36 O      8.229665    0.920385   17.230183    ( 0.0000,  0.0000,  0.0000)
  37 O      8.154619    3.304053   16.643256    ( 0.0000,  0.0000,  0.0000)
  38 C      7.372106    2.276469   17.031423    ( 0.0000,  0.0000,  0.0000)
  39 H      7.051697    2.448560   18.070540    ( 0.0000,  0.0000,  0.0000)
  40 H      7.750552    0.616400   18.015151    ( 0.0000,  0.0000,  0.0000)

Unit cell:
           periodic     x           y           z      points  spacing
  1. axis:    yes    9.702222    0.000000    0.000000    60     0.1617
  2. axis:    yes    0.000000    9.702222    0.000000    60     0.1617
  3. axis:    no     0.000000    0.000000   24.851111   156     0.1593

  Lengths:   9.702222   9.702222  24.851111
  Angles:   90.000000  90.000000  90.000000

Effective grid spacing dv^(1/3) = 0.1609

     iter     time        total  log10-change:
                         energy  eigst   dens
iter:   1 14:31:04  -258.462108  -0.54
iter:   2 14:33:23  -258.364672  -1.27  -1.50
iter:   3 14:35:45  -258.360245  -1.83  -1.90
iter:   4 14:38:13  -258.352633c -1.98  -2.01
Writing to output.gpw (mode='')

iter:   5 14:40:43  -258.351745c -2.14  -2.29
iter:   6 14:43:05  -258.350990c -2.05  -2.42
iter:   7 14:45:27  -258.352137c -1.85  -2.56
iter:   8 14:47:51  -258.350310c -2.85  -2.52
iter:   9 14:50:15  -258.350421c -3.19  -2.84
Writing to output.gpw (mode='')

iter:  10 14:53:02  -258.351157c -2.88  -2.88
iter:  11 14:55:23  -258.350628c -3.22  -2.90
iter:  12 14:57:43  -258.350853c -3.70  -2.99
iter:  13 15:00:14  -258.350842c -3.95  -3.32
iter:  14 15:02:40  -258.350746c -4.11  -3.37
Writing to output.gpw (mode='')

iter:  15 15:05:21  -258.350756c -4.14  -3.47
iter:  16 15:07:48  -258.350693c -4.41  -3.54
iter:  17 15:10:21  -258.350677c -4.51  -3.65
iter:  18 15:12:41  -258.350703c -4.60  -3.79
iter:  19 15:15:00  -258.350714c -4.97  -3.84
Writing to output.gpw (mode='')

iter:  20 15:17:37  -258.350724c -5.02  -4.01c
iter:  21 15:20:00  -258.350725c -5.46  -4.09c
iter:  22 15:22:34  -258.350722c -5.51  -4.12c
iter:  23 15:25:04  -258.350718c -5.78  -4.34c
iter:  24 15:27:28  -258.350717c -5.82  -4.38c
Writing to output.gpw (mode='')

iter:  25 15:30:15  -258.350715c -5.84  -4.41c
iter:  26 15:32:44  -258.350717c -6.07  -4.47c
iter:  27 15:35:04  -258.350721c -6.06  -4.64c
iter:  28 15:37:29  -258.350721c -6.20  -4.80c
iter:  29 15:39:59  -258.350720c -6.23  -4.89c
Writing to output.gpw (mode='')

iter:  30 15:42:49  -258.350719c -6.48  -5.03c
iter:  31 15:45:13  -258.350719c -6.65  -5.18c
iter:  32 15:47:46  -258.350719c -6.68  -5.19c
iter:  33 15:50:13  -258.350717c -6.49  -5.16c
iter:  34 15:52:32  -258.350718c -6.92  -4.97c
Writing to output.gpw (mode='')

iter:  35 15:55:24  -258.350718c -7.22  -4.88c
iter:  36 15:57:57  -258.350718c -7.15  -4.90c
iter:  37 16:00:27  -258.350718c -7.16  -5.03c
iter:  38 16:02:50  -258.350718c -7.21  -5.17c
iter:  39 16:05:15  -258.350719c -7.39  -5.22c
Writing to output.gpw (mode='')

iter:  40 16:07:48  -258.350719c -7.58c -5.26c

Converged after 40 iterations.

Dipole moment: (-1.723485, -5.287603, 0.102232) |e|*Ang

Energy contributions relative to reference atoms: (reference = -12434.674571)

Kinetic:       +110.932712
Potential:     -100.588018
External:        +0.000000
XC:            -269.195819
Entropy (-ST):   -0.146214
Local:           +0.573513
--------------------------
Free energy:   -258.423826
Extrapolated:  -258.350719

Dipole-layer corrected work functions: 3.397948, 3.201423 eV

Showing only first 2 kpts
 Kpt  Band  Eigenvalues  Occupancy
  0    25     -3.47961    1.94672
  0    26     -3.43204    1.86767
  0    27     -3.30061    1.00920
  0    28     -3.03307    0.00962

  1    25     -3.59647    1.99473
  1    26     -3.26608    0.67607
  1    27     -3.21804    0.32687
  1    28     -3.07716    0.02308


Fermi level: -3.29969

No gap

Forces in eV/Ang:
  0 Li    0.00874    0.00340   -0.27153
  1 Li   -0.01178    0.00037   -0.28158
  2 Li   -0.00186   -0.00368   -0.27688
  3 Li    0.01916    0.00293   -0.28830
  4 Li   -0.01536    0.00262   -0.29020
  5 Li   -0.00586    0.00633   -0.29234
  6 Li    0.00666   -0.01105   -0.28550
  7 Li   -0.00704   -0.01130   -0.28687
  8 Li   -0.00500   -0.00705   -0.25709
  9 Li    0.00603    0.02898    0.25674
 10 Li    0.01643    0.06026    0.30861
 11 Li    0.00256    0.04745    0.23422
 12 Li    0.00190    0.01925    0.32453
 13 Li    0.01943   -0.03320    0.28529
 14 Li   -0.01427   -0.00978    0.28690
 15 Li   -0.01690   -0.02528    0.36759
 16 Li    0.04428    0.00087    0.38873
 17 Li   -0.00868    0.01289    0.33437
 18 Li    0.00978   -0.00189    0.03355
 19 Li    0.00887   -0.12626   -0.00912
 20 Li    0.00582   -0.00506    0.01294
 21 Li   -0.00449   -0.01002    0.00447
 22 Li   -0.14379    0.22931   -0.20530
 23 Li    0.13365    0.09133   -0.11123
 24 Li   -0.08833    0.00612    0.09651
 25 Li   -0.01189   -0.02234    0.05786
 26 Li    0.05443   -0.02351    0.09056
 27 Li   -0.18861    0.11951    0.16528
 28 Li   -0.01237    0.02572   -0.01111
 29 Li    0.08952    0.25506   -0.15632
 30 Li    0.29933    0.09002   -0.12301
 31 Li   -0.13836    0.00125   -0.04895
 32 Li    0.45932   -0.17988    0.26990
 33 Li   -0.01371    0.10329   -0.06273
 34 Li    0.06043   -0.05705   -0.04923
 35 Li   -0.03201    0.04254   -0.00004
 36 O    -0.31878   -0.32891   -0.21281
 37 O    -0.57286   -0.49904   -0.29328
 38 C    -0.20972    0.81812   -0.15795
 39 H    -0.08673   -0.19342    0.27247
 40 H     0.65070   -0.42583    0.15595

System changes: positions 

Initializing position-dependent things.

Density initialized from wave functions
       .-----------------------.  
      /|                       |  
     / |                       |  
    /  |                       |  
   /   |                       |  
  /    |                       |  
 *     |                       |  
 |     |                       |  
 |     |                       |  
 |     |                       |  
 |     |                       |  
 |     |                       |  
 |     |       Li              |  
 |     |            H          |  
 |   Li|     Li      HiO       |  
 |     |  Li      Li  O   LLi  |  
 |     |   Li      Li          |  
 |     |Li      LiLi    LLi    |  
 |     |                       |  
 |   LLi     LLi     LLi       |  
 |     |  Li      Li      Li   |  
 | Li  |   Li      Li          |  
 |     |Li      Li      Li     |  
 Li    | Li      Li            |  
 |    Li      Li      Li       |  
 |     |                       |  
 |     |                       |  
 |     |                       |  
 |     |                       |  
 |     |                       |  
 |     |                       |  
 |     .-----------------------.  
 |    /                       /   
 |   /                       /    
 |  /                       /     
 | /                       /      
 |/                       /       
 *-----------------------*        

Positions:
   0 Li     1.617037    1.617037   10.000000    ( 0.0000,  0.0000,  0.0000)
   1 Li     4.851111    1.617037   10.000000    ( 0.0000,  0.0000,  0.0000)
   2 Li     8.085185    1.617037   10.000000    ( 0.0000,  0.0000,  0.0000)
   3 Li     1.617037    4.851111   10.000000    ( 0.0000,  0.0000,  0.0000)
   4 Li     4.851111    4.851111   10.000000    ( 0.0000,  0.0000,  0.0000)
   5 Li     8.085185    4.851111   10.000000    ( 0.0000,  0.0000,  0.0000)
   6 Li     1.617037    8.085185   10.000000    ( 0.0000,  0.0000,  0.0000)
   7 Li     4.851111    8.085185   10.000000    ( 0.0000,  0.0000,  0.0000)
   8 Li     8.085185    8.085185   10.000000    ( 0.0000,  0.0000,  0.0000)
   9 Li     0.000000    0.000000   11.617037    ( 0.0000,  0.0000,  0.0000)
  10 Li     3.234074    0.000000   11.617037    ( 0.0000,  0.0000,  0.0000)
  11 Li     6.468148    0.000000   11.617037    ( 0.0000,  0.0000,  0.0000)
  12 Li     0.000000    3.234074   11.617037    ( 0.0000,  0.0000,  0.0000)
  13 Li     3.234074    3.234074   11.617037    ( 0.0000,  0.0000,  0.0000)
  14 Li     6.468148    3.234074   11.617037    ( 0.0000,  0.0000,  0.0000)
  15 Li     0.000000    6.468148   11.617037    ( 0.0000,  0.0000,  0.0000)
  16 Li     3.234074    6.468148   11.617037    ( 0.0000,  0.0000,  0.0000)
  17 Li     6.468148    6.468148   11.617037    ( 0.0000,  0.0000,  0.0000)
  18 Li     1.591044    1.626839   13.590916    ( 0.0000,  0.0000,  0.0000)
  19 Li     4.870628    1.693613   13.538809    ( 0.0000,  0.0000,  0.0000)
  20 Li     8.084051    1.624261   13.447260    ( 0.0000,  0.0000,  0.0000)
  21 Li     1.645831    4.766476   13.550797    ( 0.0000,  0.0000,  0.0000)
  22 Li     4.912287    4.766949   13.587280    ( 0.0000,  0.0000,  0.0000)
  23 Li     7.992054    4.827108   13.519992    ( 0.0000,  0.0000,  0.0000)
  24 Li     1.618774    8.142155   13.498740    ( 0.0000,  0.0000,  0.0000)
  25 Li     4.902659    8.194129   13.495843    ( 0.0000,  0.0000,  0.0000)
  26 Li     8.071899    8.170065   13.514779    ( 0.0000,  0.0000,  0.0000)
  27 Li    -0.158428    0.011249   16.006839    ( 0.0000,  0.0000,  0.0000)
  28 Li     3.227674   -0.068698   15.471662    ( 0.0000,  0.0000,  0.0000)
  29 Li     6.567957    0.456001   16.058053    ( 0.0000,  0.0000,  0.0000)
  30 Li    -0.046938    3.299350   15.708716    ( 0.0000,  0.0000,  0.0000)
  31 Li     3.350384    3.244889   15.613547    ( 0.0000,  0.0000,  0.0000)
  32 Li     6.451873    3.416457   15.520506    ( 0.0000,  0.0000,  0.0000)
  33 Li     0.072950    6.451865   15.440666    ( 0.0000,  0.0000,  0.0000)
  34 Li     3.221666    6.496659   15.467595    ( 0.0000,  0.0000,  0.0000)
  35 Li     6.428709    6.657321   15.469560    ( 0.0000,  0.0000,  0.0000)
  36 O      8.223544    0.903810   17.204748    ( 0.0000,  0.0000,  0.0000)
  37 O      8.150424    3.314243   16.638186    ( 0.0000,  0.0000,  0.0000)
  38 C      7.371653    2.281481   17.006388    ( 0.0000,  0.0000,  0.0000)
  39 H      7.046042    2.430988   18.048162    ( 0.0000,  0.0000,  0.0000)
  40 H      7.772440    0.621252   18.011320    ( 0.0000,  0.0000,  0.0000)

Unit cell:
           periodic     x           y           z      points  spacing
  1. axis:    yes    9.702222    0.000000    0.000000    60     0.1617
  2. axis:    yes    0.000000    9.702222    0.000000    60     0.1617
  3. axis:    no     0.000000    0.000000   24.851111   156     0.1593

  Lengths:   9.702222   9.702222  24.851111
  Angles:   90.000000  90.000000  90.000000

Effective grid spacing dv^(1/3) = 0.1609

     iter     time        total  log10-change:
                         energy  eigst   dens
iter:   1 16:10:53  -258.475105  -0.70
iter:   2 16:13:12  -258.406171  -1.41  -1.57
iter:   3 16:15:36  -258.402290  -1.97  -1.93
iter:   4 16:17:56  -258.394856c -2.08  -2.04
