
  ___ ___ ___ _ _ _  
 |   |   |_  | | | | 
 | | | | | . | | | | 
 |__ |  _|___|_____|  22.8.0
 |___|_|             

User:   vazumah@c06.hercules
Date:   Mon Mar  6 10:26:51 2023
Arch:   x86_64
Pid:    22775
CWD:    /home/vazumah/Python_projects/LiNRR/Li_adsorb_studies/proton_donors/N2_with_proton_donor/Li_BCC_100/adsorbates/methanol_z/bridge/8.085_1.617/N2_y
Python: 3.10.8
gpaw:   /home/vazumah/.conda/envs/GPAW/lib/python3.10/site-packages/gpaw
_gpaw:  /home/vazumah/.conda/envs/GPAW/lib/python3.10/site-packages/
        _gpaw.cpython-310-x86_64-linux-gnu.so
ase:    /home/vazumah/.conda/envs/GPAW/lib/python3.10/site-packages/ase (version 3.22.1)
numpy:  /home/vazumah/.conda/envs/GPAW/lib/python3.10/site-packages/numpy (version 1.24.1)
scipy:  /home/vazumah/.conda/envs/GPAW/lib/python3.10/site-packages/scipy (version 1.10.0)
libxc:  5.2.3
units:  Angstrom and eV
cores: 24
OpenMP: True
OMP_NUM_THREADS: 1

Input parameters:
  h: 0.16
  kpts: {size: [4, 4, 1]}
  occupations: {name: fermi-dirac,
                width: 0.05}
  poissonsolver: {dipolelayer: xy}
  xc: BEEF-vdW

System changes: positions, numbers, cell, pbc, initial_charges, initial_magmoms 

Initialize ...

species:
  Li:
    name: Lithium
    id: 830b4218f175192f93f959cfc0aad614
    Z: 3.0
    valence: 1
    core: 2
    charge: 0.0
    file: /home/vazumah/.conda/envs/GPAW/share/gpaw/Li.PBE.gz
    compensation charges: {type: gauss,
                           rc: 0.33,
                           lmax: 2}
    cutoffs: {filter: 1.91,
              core: 2.55}
    valence states:
      #              energy  rcut
      - 2s(1.00)    -2.874   1.058
      - 2p(0.00)    -1.090   1.058
      -  s          24.337   1.058
  
    # Using partial waves for Li as LCAO basis

  O:
    name: Oxygen
    id: 32ecd46bf208036f09c70b0ec9a88b78
    Z: 8.0
    valence: 6
    core: 2
    charge: 0.0
    file: /home/vazumah/.conda/envs/GPAW/share/gpaw/O.PBE.gz
    compensation charges: {type: gauss,
                           rc: 0.21,
                           lmax: 2}
    cutoffs: {filter: 1.17,
              core: 0.83}
    valence states:
      #              energy  rcut
      - 2s(2.00)   -23.961   0.688
      - 2p(4.00)    -9.029   0.598
      -  s           3.251   0.688
      -  p          18.182   0.598
      -  d           0.000   0.619
  
    # Using partial waves for O as LCAO basis

  C:
    name: Carbon
    id: 4aa54d4b901d75f77cc0ea3eec22967b
    Z: 6.0
    valence: 4
    core: 2
    charge: 0.0
    file: /home/vazumah/.conda/envs/GPAW/share/gpaw/C.PBE.gz
    compensation charges: {type: gauss,
                           rc: 0.20,
                           lmax: 2}
    cutoffs: {filter: 1.14,
              core: 1.14}
    valence states:
      #              energy  rcut
      - 2s(2.00)   -13.751   0.635
      - 2p(2.00)    -5.284   0.635
      -  s          13.461   0.635
      -  p          21.927   0.635
      -  d           0.000   0.635
  
    # Using partial waves for C as LCAO basis

  H:
    name: Hydrogen
    id: d65de229564ff8ea4db303e23b6d1ecf
    Z: 1.0
    valence: 1
    core: 0
    charge: 0.0
    file: /home/vazumah/.conda/envs/GPAW/share/gpaw/H.PBE.gz
    compensation charges: {type: gauss,
                           rc: 0.15,
                           lmax: 2}
    cutoffs: {filter: 0.85,
              core: 0.53}
    valence states:
      #              energy  rcut
      - 1s(1.00)    -6.494   0.476
      -  s          20.717   0.476
      -  p           0.000   0.476
  
    # Using partial waves for H as LCAO basis

  N:
    name: Nitrogen
    id: f7500608b86eaa90eef8b1d9a670dc53
    Z: 7.0
    valence: 5
    core: 2
    charge: 0.0
    file: /home/vazumah/.conda/envs/GPAW/share/gpaw/N.PBE.gz
    compensation charges: {type: gauss,
                           rc: 0.18,
                           lmax: 2}
    cutoffs: {filter: 1.11,
              core: 0.96}
    valence states:
      #              energy  rcut
      - 2s(2.00)   -18.583   0.603
      - 2p(3.00)    -7.089   0.529
      -  s           8.629   0.603
      -  p          20.123   0.529
      -  d           0.000   0.577
  
    # Using partial waves for N as LCAO basis

Reference energy: -13382.245603  # eV

Spin-paired calculation

Convergence criteria:
 Maximum [total energy] change in last 3 cyles: 0.0005 eV / electron
 Maximum integral of absolute [dens]ity change: 0.0001 electrons / valence electron
 Maximum integral of absolute [eigenst]ate change: 4e-08 eV^2 / valence electron
 Maximum number of scf [iter]ations: 333
 (Square brackets indicate name in SCF output, whereas a 'c' in
 the SCF output indicates the quantity has converged.)

Symmetries present (total): 1

  ( 1  0  0)
  ( 0  1  0)
  ( 0  0  1)

16 k-points: 4 x 4 x 1 Monkhorst-Pack grid
8 k-points in the irreducible part of the Brillouin zone
       k-points in crystal coordinates                weights
   0:     0.12500000   -0.37500000    0.00000000          2/16
   1:     0.12500000   -0.12500000    0.00000000          2/16
   2:     0.12500000    0.12500000    0.00000000          2/16
   3:     0.12500000    0.37500000    0.00000000          2/16
   4:     0.37500000   -0.37500000    0.00000000          2/16
   5:     0.37500000   -0.12500000    0.00000000          2/16
   6:     0.37500000    0.12500000    0.00000000          2/16
   7:     0.37500000    0.37500000    0.00000000          2/16

Wave functions: Uniform real-space grid
  Kinetic energy operator: 6*3+1=19 point O(h^6) finite-difference Laplacian
  ScaLapack parameters: grid=1x1, blocksize=None
  Wavefunction extrapolation:
    Improved wavefunction reuse through dual PAW basis 

Occupation numbers: Fermi-Dirac:
  width: 0.0500  # eV
 

Eigensolver
   Davidson(niter=2) 

Densities:
  Coarse grid: 60*60*168 grid
  Fine grid: 120*120*336 grid
  Total Charge: 0.000000 

Density mixing:
  Method: separate
  Backend: pulay
  Linear mixing parameter: 0.05
  old densities: 5
  Damping of long wavelength oscillations: 50 

Hamiltonian:
  XC and Coulomb potentials evaluated on a 120*120*336 grid
  Using the BEEF-vdW Exchange-Correlation functional
  Interpolation: tri-quintic (5. degree polynomial)
  Poisson solver: FastPoissonSolver using
    Stencil: 6*3+1=19 point O(h^6) finite-difference Laplacian
    FFT axes: [0, 1]
    FST axes: [2]

Dipole correction along z-axis 

XC parameters: BEEF-vdW with 2 nearest neighbor stencil

Memory estimate:
  Process memory now: 229.67 MiB
  Calculator: 413.38 MiB
    Density: 121.66 MiB
      Arrays: 39.61 MiB
      Localized functions: 66.95 MiB
      Mixer: 15.11 MiB
    Hamiltonian: 31.19 MiB
      Arrays: 25.90 MiB
      XC: 0.00 MiB
      Poisson: 0.00 MiB
      vbar: 5.29 MiB
    Wavefunctions: 260.53 MiB
      Arrays psit_nG: 120.85 MiB
      Eigensolver: 136.20 MiB
      Projections: 0.05 MiB
      Projectors: 3.43 MiB

Total number of cores used: 24
Parallelization over k-points: 8
Domain decomposition: 1 x 1 x 3

Number of atoms: 44
Number of atomic orbitals: 164
Number of bands in calculation: 40
Number of valence electrons: 60
Bands to converge: occupied

... initialized

Initializing position-dependent things.

Density initialized from atomic densities
Creating initial wave functions:
  40 bands from LCAO basis set

       .-----------------------.  
      /|                       |  
     / |                       |  
    /  |                       |  
   /   |                       |  
  /    |                       |  
 *     |                       |  
 |     |                       |  
 |     |                       |  
 |     |                       |  
 |     |                       |  
 |     |                       |  
 |     |               H       |  
 |     |           H  CH       |  
 |     |                       |  
 |     |              O        |  
 |   Li|     Li      HiN       |  
 |     |  Li      Li  N   Li   |  
 | Li  |   Li      Li          |  
 |     |Li      Li      Li     |  
 Li    | Li      Li            |  
 |   LLi     LLi     LLi       |  
 |     |  Li      Li      Li   |  
 | Li  |   Li      Li          |  
 |     |Li      Li      Li     |  
 Li    | Li      Li            |  
 |    Li      Li      Li       |  
 |     |                       |  
 |     |                       |  
 |     |                       |  
 |     |                       |  
 |     |                       |  
 |     |                       |  
 |     .-----------------------.  
 |    /                       /   
 |   /                       /    
 |  /                       /     
 | /                       /      
 |/                       /       
 *-----------------------*        

Positions:
   0 Li     1.617037    1.617037   10.000000    ( 0.0000,  0.0000,  0.0000)
   1 Li     4.851111    1.617037   10.000000    ( 0.0000,  0.0000,  0.0000)
   2 Li     8.085185    1.617037   10.000000    ( 0.0000,  0.0000,  0.0000)
   3 Li     1.617037    4.851111   10.000000    ( 0.0000,  0.0000,  0.0000)
   4 Li     4.851111    4.851111   10.000000    ( 0.0000,  0.0000,  0.0000)
   5 Li     8.085185    4.851111   10.000000    ( 0.0000,  0.0000,  0.0000)
   6 Li     1.617037    8.085185   10.000000    ( 0.0000,  0.0000,  0.0000)
   7 Li     4.851111    8.085185   10.000000    ( 0.0000,  0.0000,  0.0000)
   8 Li     8.085185    8.085185   10.000000    ( 0.0000,  0.0000,  0.0000)
   9 Li     0.000000    0.000000   11.617037    ( 0.0000,  0.0000,  0.0000)
  10 Li     3.234074    0.000000   11.617037    ( 0.0000,  0.0000,  0.0000)
  11 Li     6.468148    0.000000   11.617037    ( 0.0000,  0.0000,  0.0000)
  12 Li     0.000000    3.234074   11.617037    ( 0.0000,  0.0000,  0.0000)
  13 Li     3.234074    3.234074   11.617037    ( 0.0000,  0.0000,  0.0000)
  14 Li     6.468148    3.234074   11.617037    ( 0.0000,  0.0000,  0.0000)
  15 Li     0.000000    6.468148   11.617037    ( 0.0000,  0.0000,  0.0000)
  16 Li     3.234074    6.468148   11.617037    ( 0.0000,  0.0000,  0.0000)
  17 Li     6.468148    6.468148   11.617037    ( 0.0000,  0.0000,  0.0000)
  18 Li     1.617038    1.617038   13.469728    ( 0.0000,  0.0000,  0.0000)
  19 Li     4.851111    1.617038   13.469729    ( 0.0000,  0.0000,  0.0000)
  20 Li     8.085184    1.617038   13.469728    ( 0.0000,  0.0000,  0.0000)
  21 Li     1.617038    4.851111   13.469729    ( 0.0000,  0.0000,  0.0000)
  22 Li     4.851111    4.851111   13.469730    ( 0.0000,  0.0000,  0.0000)
  23 Li     8.085184    4.851111   13.469729    ( 0.0000,  0.0000,  0.0000)
  24 Li     1.617038    8.085184   13.469728    ( 0.0000,  0.0000,  0.0000)
  25 Li     4.851111    8.085184   13.469729    ( 0.0000,  0.0000,  0.0000)
  26 Li     8.085184    8.085184   13.469728    ( 0.0000,  0.0000,  0.0000)
  27 Li    -0.000000   -0.000000   15.445939    ( 0.0000,  0.0000,  0.0000)
  28 Li     3.234074    0.000000   15.445939    ( 0.0000,  0.0000,  0.0000)
  29 Li     6.468148    0.000000   15.445939    ( 0.0000,  0.0000,  0.0000)
  30 Li     0.000000    3.234074   15.445939    ( 0.0000,  0.0000,  0.0000)
  31 Li     3.234076    3.234076   15.445938    ( 0.0000,  0.0000,  0.0000)
  32 Li     6.468146    3.234076   15.445938    ( 0.0000,  0.0000,  0.0000)
  33 Li     0.000000    6.468148   15.445939    ( 0.0000,  0.0000,  0.0000)
  34 Li     3.234076    6.468146   15.445938    ( 0.0000,  0.0000,  0.0000)
  35 Li     6.468146    6.468146   15.445938    ( 0.0000,  0.0000,  0.0000)
  36 O      8.085185    1.617037   18.445939    ( 0.0000,  0.0000,  0.0000)
  37 C      8.079686    1.601963   19.875902    ( 0.0000,  0.0000,  0.0000)
  38 H      8.766835    0.852010   20.280173    ( 0.0000,  0.0000,  0.0000)
  39 H      7.077897    1.423554   20.279414    ( 0.0000,  0.0000,  0.0000)
  40 H      8.412614    2.587678   20.195346    ( 0.0000,  0.0000,  0.0000)
  41 H      7.794180    0.753908   18.134284    ( 0.0000,  0.0000,  0.0000)
  42 N      8.085000    1.617000   17.195939    ( 0.0000,  0.0000,  0.0000)
  43 N      8.085000    2.713622   17.195939    ( 0.0000,  0.0000,  0.0000)

Unit cell:
           periodic     x           y           z      points  spacing
  1. axis:    yes    9.702222    0.000000    0.000000    60     0.1617
  2. axis:    yes    0.000000    9.702222    0.000000    60     0.1617
  3. axis:    no     0.000000    0.000000   26.601111   168     0.1583

  Lengths:   9.702222   9.702222  26.601111
  Angles:   90.000000  90.000000  90.000000

Effective grid spacing dv^(1/3) = 0.1606

     iter     time        total  log10-change:
                         energy  eigst   dens
iter:   1 10:30:11  -458.249946
iter:   2 10:32:41  -134.284602  +2.48  -0.04
iter:   3 10:35:16  -113.749318  +3.31  -0.22
iter:   4 10:37:50  -203.132677  +3.06  -0.22
Writing to output.gpw (mode='')

iter:   5 10:40:32  -189.711336  +2.54  -0.27
iter:   6 10:43:05  -217.566217  +2.30  -0.64
iter:   7 10:45:42  -253.757737  +2.26  -0.67
iter:   8 10:48:10  -263.406865  +2.01  -0.57
iter:   9 10:50:49  -273.553338  +1.97  -0.64
Writing to output.gpw (mode='')

iter:  10 10:53:27  -272.920026  +1.79  -0.68
iter:  11 10:56:12  -285.256335  +1.67  -0.67
iter:  12 10:59:05  -315.465233  +1.93  -0.73
iter:  13 11:01:48  -289.457960  +1.20  -0.60
iter:  14 11:04:19  -276.749726  +0.93  -0.66
Writing to output.gpw (mode='')

iter:  15 11:06:59  -278.955482  +0.66  -0.77
iter:  16 11:09:32  -278.682035  +0.48  -0.78
iter:  17 11:12:04  -275.835269  +0.47  -0.78
iter:  18 11:14:38  -272.823549  +0.77  -0.81
iter:  19 11:17:08  -271.432463  +0.76  -0.84
Writing to output.gpw (mode='')

iter:  20 11:19:44  -271.388532  +0.12  -1.04
iter:  21 11:22:22  -271.284913  +0.18  -1.07
iter:  22 11:24:54  -274.052849  +0.98  -1.11
iter:  23 11:27:30  -271.015824  +0.06  -0.90
iter:  24 11:29:54  -271.103894  -0.34  -1.23
Writing to output.gpw (mode='')

iter:  25 11:32:29  -270.989651  -0.34  -1.27
iter:  26 11:35:11  -270.819073  -0.22  -1.29
iter:  27 11:37:44  -270.812337  -0.27  -1.47
iter:  28 11:40:21  -270.866316  -0.36  -1.64
iter:  29 11:42:55  -270.875506  -0.83  -1.61
Writing to output.gpw (mode='')

iter:  30 11:45:25  -270.867663c -0.79  -1.59
iter:  31 11:47:58  -270.868333c -0.90  -1.57
iter:  32 11:50:32  -270.843353c -1.17  -1.54
iter:  33 11:53:04  -270.814758  -1.22  -1.58
iter:  34 11:55:47  -270.817187c -0.88  -1.71
Writing to output.gpw (mode='')

iter:  35 11:58:26  -270.822603c -1.40  -1.84
iter:  36 12:01:08  -270.813878c -1.19  -1.89
iter:  37 12:03:52  -270.814260c -1.10  -1.99
iter:  38 12:06:22  -270.816867c -1.63  -2.27
iter:  39 12:08:51  -270.816284c -1.58  -2.27
Writing to output.gpw (mode='')

iter:  40 12:11:25  -270.819822c -1.82  -2.48
iter:  41 12:14:03  -270.821954c -1.78  -2.54
iter:  42 12:16:41  -270.823483c -1.93  -2.62
iter:  43 12:19:15  -270.824562c -2.11  -2.67
iter:  44 12:21:43  -270.825912c -2.05  -2.71
Writing to output.gpw (mode='')

iter:  45 12:24:14  -270.826982c -2.12  -2.90
iter:  46 12:26:50  -270.827828c -2.41  -3.03
iter:  47 12:29:35  -270.828721c -2.24  -3.05
iter:  48 12:32:12  -270.829557c -2.36  -3.18
iter:  49 12:34:55  -270.830036c -2.35  -3.25
Writing to output.gpw (mode='')

iter:  50 12:37:43  -270.830519c -2.54  -3.24
iter:  51 12:40:18  -270.831152c -2.45  -3.30
iter:  52 12:42:56  -270.831508c -2.84  -3.41
iter:  53 12:45:27  -270.831928c -2.59  -3.42
iter:  54 12:48:00  -270.832315c -2.74  -3.53
Writing to output.gpw (mode='')

iter:  55 12:50:48  -270.832531c -2.80  -3.60
iter:  56 12:53:28  -270.832667c -3.02  -3.59
iter:  57 12:55:57  -270.832835c -2.94  -3.66
iter:  58 12:58:27  -270.832962c -3.14  -3.66
iter:  59 13:01:08  -270.833092c -3.16  -3.60
Writing to output.gpw (mode='')

iter:  60 13:03:50  -270.833244c -3.12  -3.52
iter:  61 13:06:31  -270.833316c -3.40  -3.49
iter:  62 13:09:12  -270.833394c -3.42  -3.55
iter:  63 13:11:48  -270.833464c -3.21  -3.71
iter:  64 13:14:23  -270.833501c -3.52  -3.78
Writing to output.gpw (mode='')

iter:  65 13:17:05  -270.833543c -3.53  -3.82
iter:  66 13:19:45  -270.833591c -3.39  -3.83
iter:  67 13:22:11  -270.833615c -3.68  -3.83
iter:  68 13:24:42  -270.833620c -3.77  -3.87
iter:  69 13:27:24  -270.833672c -3.96  -4.14c
Writing to output.gpw (mode='')

iter:  70 13:30:07  -270.833692c -3.92  -3.98
iter:  71 13:32:45  -270.833702c -3.99  -4.05c
iter:  72 13:35:18  -270.833709c -3.99  -4.24c
iter:  73 13:38:00  -270.833722c -3.97  -4.37c
iter:  74 13:40:38  -270.833738c -4.24  -4.48c
Writing to output.gpw (mode='')

iter:  75 13:43:13  -270.833739c -4.29  -4.48c
iter:  76 13:45:40  -270.833749c -4.32  -4.65c
iter:  77 13:48:11  -270.833755c -4.35  -4.68c
iter:  78 13:50:47  -270.833759c -4.28  -4.72c
iter:  79 13:53:20  -270.833768c -4.37  -4.77c
Writing to output.gpw (mode='')

iter:  80 13:55:56  -270.833770c -4.43  -4.88c
iter:  81 13:58:29  -270.833773c -4.49  -5.03c
iter:  82 14:01:04  -270.833777c -4.45  -5.12c
iter:  83 14:03:46  -270.833780c -4.64  -5.07c
iter:  84 14:06:21  -270.833783c -4.68  -4.87c
Writing to output.gpw (mode='')

iter:  85 14:08:51  -270.833784c -4.70  -4.96c
iter:  86 14:11:18  -270.833786c -4.78  -4.97c
iter:  87 14:13:49  -270.833787c -4.88  -4.85c
iter:  88 14:16:22  -270.833788c -4.84  -4.81c
iter:  89 14:18:52  -270.833789c -4.87  -4.74c
Writing to output.gpw (mode='')

iter:  90 14:21:26  -270.833790c -5.01  -4.80c
iter:  91 14:23:59  -270.833791c -4.98  -4.71c
iter:  92 14:26:34  -270.833792c -4.99  -4.68c
iter:  93 14:29:08  -270.833792c -5.03  -4.67c
iter:  94 14:31:41  -270.833793c -4.99  -4.57c
Writing to output.gpw (mode='')

iter:  95 14:34:23  -270.833793c -5.19  -4.59c
iter:  96 14:36:58  -270.833793c -5.22  -4.53c
iter:  97 14:39:27  -270.833792c -5.10  -4.59c
iter:  98 14:42:02  -270.833791c -5.27  -4.57c
iter:  99 14:44:32  -270.833791c -5.21  -4.59c
Writing to output.gpw (mode='')

iter: 100 14:47:17  -270.833792c -5.16  -4.69c
iter: 101 14:49:49  -270.833791c -5.39  -4.89c
iter: 102 14:52:23  -270.833791c -5.31  -4.95c
iter: 103 14:54:55  -270.833791c -5.43  -4.98c
iter: 104 14:57:32  -270.833791c -5.54  -5.01c
Writing to output.gpw (mode='')

iter: 105 15:00:12  -270.833790c -5.56  -5.15c
iter: 106 15:02:56  -270.833790c -5.65  -5.21c
iter: 107 15:05:40  -270.833790c -5.63  -5.27c
iter: 108 15:08:12  -270.833790c -5.64  -5.32c
iter: 109 15:10:44  -270.833790c -5.81  -5.44c
Writing to output.gpw (mode='')

iter: 110 15:13:12  -270.833790c -5.80  -5.46c
iter: 111 15:15:44  -270.833790c -5.91  -5.42c
iter: 112 15:18:15  -270.833790c -5.89  -5.40c
iter: 113 15:20:45  -270.833790c -5.83  -5.33c
iter: 114 15:23:23  -270.833789c -6.02  -5.23c
Writing to output.gpw (mode='')

iter: 115 15:26:03  -270.833790c -6.09  -5.31c
iter: 116 15:28:34  -270.833789c -6.07  -5.25c
iter: 117 15:31:11  -270.833789c -5.98  -5.31c
iter: 118 15:33:40  -270.833789c -6.07  -5.37c
iter: 119 15:36:19  -270.833789c -6.19  -5.63c
Writing to output.gpw (mode='')

iter: 120 15:38:57  -270.833789c -6.20  -5.62c
iter: 121 15:41:26  -270.833789c -6.07  -5.73c
iter: 122 15:43:57  -270.833788c -6.24  -5.84c
iter: 123 15:46:29  -270.833788c -6.28  -5.86c
iter: 124 15:49:02  -270.833788c -6.38  -6.12c
Writing to output.gpw (mode='')

iter: 125 15:51:39  -270.833788c -6.44  -6.17c
iter: 126 15:54:08  -270.833788c -6.26  -6.20c
iter: 127 15:56:41  -270.833788c -6.16  -6.24c
iter: 128 15:59:18  -270.833788c -6.19  -6.23c
iter: 129 16:01:59  -270.833788c -6.42  -6.17c
Writing to output.gpw (mode='')

iter: 130 16:04:43  -270.833788c -6.44  -6.01c
iter: 131 16:07:17  -270.833788c -6.57  -5.96c
iter: 132 16:09:58  -270.833788c -6.56  -5.88c
iter: 133 16:12:32  -270.833787c -6.67  -5.76c
iter: 134 16:15:01  -270.833787c -6.63  -5.81c
Writing to output.gpw (mode='')

iter: 135 16:17:39  -270.833787c -6.74  -5.82c
iter: 136 16:20:00  -270.833787c -6.72  -5.77c
iter: 137 16:22:35  -270.833787c -6.76  -5.85c
iter: 138 16:25:04  -270.833787c -6.78  -5.97c
iter: 139 16:27:39  -270.833787c -6.78  -5.81c
Writing to output.gpw (mode='')

iter: 140 16:30:15  -270.833787c -6.93  -5.92c
iter: 141 16:32:44  -270.833787c -6.91  -5.65c
iter: 142 16:35:28  -270.833787c -7.07  -6.18c
iter: 143 16:38:06  -270.833787c -7.04  -6.26c
iter: 144 16:40:44  -270.833787c -6.95  -6.30c
Writing to output.gpw (mode='')

iter: 145 16:43:14  -270.833787c -6.90  -6.37c
iter: 146 16:45:53  -270.833787c -6.97  -6.44c
iter: 147 16:48:32  -270.833787c -7.05  -6.62c
iter: 148 16:51:12  -270.833787c -7.12  -6.64c
iter: 149 16:53:42  -270.833786c -7.13  -6.66c
Writing to output.gpw (mode='')

iter: 150 16:56:16  -270.833786c -7.19  -6.75c
iter: 151 16:58:49  -270.833786c -7.20  -6.78c
iter: 152 17:01:31  -270.833786c -7.25  -6.88c
iter: 153 17:04:11  -270.833786c -7.20  -6.84c
iter: 154 17:06:43  -270.833786c -7.17  -6.96c
Writing to output.gpw (mode='')

iter: 155 17:09:10  -270.833786c -7.11  -6.98c
iter: 156 17:11:42  -270.833786c -7.34  -6.92c
iter: 157 17:14:08  -270.833786c -7.33  -6.83c
iter: 158 17:16:37  -270.833786c -7.44c -6.70c

Converged after 158 iterations.

Dipole moment: (-1.223446, -5.105593, 0.562403) |e|*Ang

Energy contributions relative to reference atoms: (reference = -13382.245603)

Kinetic:       +183.018837
Potential:     -156.808042
External:        +0.000000
XC:            -297.620100
Entropy (-ST):   -0.163559
Local:           +0.657299
--------------------------
Free energy:   -270.915566
Extrapolated:  -270.833786

Dipole-layer corrected work functions: 3.366079, 2.284947 eV

Showing only first 2 kpts
 Kpt  Band  Eigenvalues  Occupancy
  0    28     -3.07001    1.98507
  0    29     -2.98227    1.91664
  0    30     -2.70754    0.17265
  0    31     -2.58262    0.01542

  1    28     -2.87563    1.46301
  1    29     -2.83040    1.04881
  1    30     -2.77594    0.54128
  1    31     -2.74117    0.31235


Fermi level: -2.82551

Gap: 0.015 eV
Transition (v -> c):
  (s=0, k=2, n=29, [0.12, 0.12, 0.00]) -> (s=0, k=7, n=30, [0.38, 0.38, 0.00])
Writing to output.gpw (mode='')


Forces in eV/Ang:
  0 Li    0.01771    0.00624   -0.27287
  1 Li   -0.01702    0.00618   -0.27522
  2 Li   -0.00113   -0.00927   -0.28045
  3 Li    0.01184   -0.00525   -0.27503
  4 Li   -0.01197   -0.00638   -0.27261
  5 Li    0.00139    0.01444   -0.27309
  6 Li   -0.00322   -0.00079   -0.27023
  7 Li    0.00266    0.00086   -0.27497
  8 Li    0.00063   -0.00632   -0.26706
  9 Li   -0.00426   -0.00857    0.28636
 10 Li    0.00327    0.01699    0.25689
 11 Li    0.00165   -0.01173    0.28402
 12 Li   -0.00754   -0.00108    0.30968
 13 Li    0.00034   -0.00279    0.22974
 14 Li    0.00713   -0.00059    0.30850
 15 Li    0.00114    0.01119    0.25303
 16 Li   -0.00474   -0.01217    0.27763
 17 Li    0.00308    0.01268    0.26054
 18 Li   -0.01206    0.00837    0.04863
 19 Li    0.01443    0.01101    0.04546
 20 Li   -0.00083   -0.01290   -0.17392
 21 Li   -0.02598   -0.02093    0.05534
 22 Li    0.02466   -0.01846    0.05769
 23 Li   -0.00024    0.04282   -0.07554
 24 Li    0.00351    0.01189    0.03989
 25 Li   -0.00650    0.00686    0.02535
 26 Li    0.00232   -0.00251    0.05998
 27 Li    0.05022   -0.12079   -0.06595
 28 Li    0.00249    0.02808   -0.00223
 29 Li   -0.06298   -0.12878   -0.06550
 30 Li   -0.21513    0.04029    0.15117
 31 Li   -0.00045   -0.00830   -0.02390
 32 Li    0.23699    0.04174    0.17954
 33 Li    0.02507    0.06256   -0.02685
 34 Li   -0.00185   -0.01998   -0.01211
 35 Li   -0.02224    0.06663   -0.01580
 36 O    -0.29326   -9.98414   20.62615
 37 C     0.52669    0.38660    4.39800
 38 H    -0.03514    0.03611   -0.24258
 39 H    -0.02390   -0.01130   -0.40229
 40 H     0.00595    0.06585   -0.15510
 41 H    -1.72147   -5.37185    2.71931
 42 N     1.45823   -3.13137  -14.19748
 43 N     0.05589   18.00043  -12.96089

System changes: positions 

Initializing position-dependent things.

Density initialized from wave functions
       .-----------------------.  
      /|                       |  
     / |                       |  
    /  |                       |  
   /   |                       |  
  /    |                       |  
 *     |                       |  
 |     |                       |  
 |     |                       |  
 |     |                       |  
 |     |                       |  
 |     |                       |  
 |     |               H       |  
 |     |           H  CH       |  
 |     Li              Li      |  
 |     |              O        |  
 |   Li|     Li      HiN       |  
 |     |  Li      Li  N   Li   |  
 |     |   Li      Li      Li  |  
 |     |Li      Li      Li     |  
 |     | Li                    |  
 |   LLi     LLi     LLi       |  
 |     |  Li      Li      Li   |  
 | Li  |   Li      Li          |  
 |     |Li      Li      Li     |  
 Li    | Li      Li            |  
 |    Li      Li      Li       |  
 |     |                       |  
 |     |                       |  
 |     |                       |  
 |     |                       |  
 |     |                       |  
 |     |                       |  
 |     .-----------------------.  
 |    /                       /   
 |   /                       /    
 |  /                       /     
 | /                       /      
 |/                       /       
 *-----------------------*        

Positions:
   0 Li     1.617037    1.617037   10.000000    ( 0.0000,  0.0000,  0.0000)
   1 Li     4.851111    1.617037   10.000000    ( 0.0000,  0.0000,  0.0000)
   2 Li     8.085185    1.617037   10.000000    ( 0.0000,  0.0000,  0.0000)
   3 Li     1.617037    4.851111   10.000000    ( 0.0000,  0.0000,  0.0000)
   4 Li     4.851111    4.851111   10.000000    ( 0.0000,  0.0000,  0.0000)
   5 Li     8.085185    4.851111   10.000000    ( 0.0000,  0.0000,  0.0000)
   6 Li     1.617037    8.085185   10.000000    ( 0.0000,  0.0000,  0.0000)
   7 Li     4.851111    8.085185   10.000000    ( 0.0000,  0.0000,  0.0000)
   8 Li     8.085185    8.085185   10.000000    ( 0.0000,  0.0000,  0.0000)
   9 Li     0.000000    0.000000   11.617037    ( 0.0000,  0.0000,  0.0000)
  10 Li     3.234074    0.000000   11.617037    ( 0.0000,  0.0000,  0.0000)
  11 Li     6.468148    0.000000   11.617037    ( 0.0000,  0.0000,  0.0000)
  12 Li     0.000000    3.234074   11.617037    ( 0.0000,  0.0000,  0.0000)
  13 Li     3.234074    3.234074   11.617037    ( 0.0000,  0.0000,  0.0000)
  14 Li     6.468148    3.234074   11.617037    ( 0.0000,  0.0000,  0.0000)
  15 Li     0.000000    6.468148   11.617037    ( 0.0000,  0.0000,  0.0000)
  16 Li     3.234074    6.468148   11.617037    ( 0.0000,  0.0000,  0.0000)
  17 Li     6.468148    6.468148   11.617037    ( 0.0000,  0.0000,  0.0000)
  18 Li     1.617017    1.617053   13.469813    ( 0.0000,  0.0000,  0.0000)
  19 Li     4.851136    1.617058   13.469809    ( 0.0000,  0.0000,  0.0000)
  20 Li     8.085182    1.617016   13.469424    ( 0.0000,  0.0000,  0.0000)
  21 Li     1.616993    4.851074   13.469826    ( 0.0000,  0.0000,  0.0000)
  22 Li     4.851154    4.851079   13.469831    ( 0.0000,  0.0000,  0.0000)
  23 Li     8.085183    4.851186   13.469598    ( 0.0000,  0.0000,  0.0000)
  24 Li     1.617044    8.085205   13.469797    ( 0.0000,  0.0000,  0.0000)
  25 Li     4.851100    8.085196   13.469774    ( 0.0000,  0.0000,  0.0000)
  26 Li     8.085188    8.085180   13.469833    ( 0.0000,  0.0000,  0.0000)
  27 Li     0.000088   -0.000211   15.445824    ( 0.0000,  0.0000,  0.0000)
  28 Li     3.234078    0.000049   15.445935    ( 0.0000,  0.0000,  0.0000)
  29 Li     6.468038   -0.000225   15.445824    ( 0.0000,  0.0000,  0.0000)
  30 Li    -0.000375    3.234144   15.446203    ( 0.0000,  0.0000,  0.0000)
  31 Li     3.234076    3.234062   15.445896    ( 0.0000,  0.0000,  0.0000)
  32 Li     6.468559    3.234149   15.446251    ( 0.0000,  0.0000,  0.0000)
  33 Li     0.000044    6.468257   15.445892    ( 0.0000,  0.0000,  0.0000)
  34 Li     3.234073    6.468111   15.445917    ( 0.0000,  0.0000,  0.0000)
  35 Li     6.468107    6.468262   15.445910    ( 0.0000,  0.0000,  0.0000)
  36 O      8.084673    1.599611   18.481940    ( 0.0000,  0.0000,  0.0000)
  37 C      8.080605    1.602638   19.883578    ( 0.0000,  0.0000,  0.0000)
  38 H      8.766774    0.852073   20.279750    ( 0.0000,  0.0000,  0.0000)
  39 H      7.077855    1.423534   20.278712    ( 0.0000,  0.0000,  0.0000)
  40 H      8.412625    2.587793   20.195075    ( 0.0000,  0.0000,  0.0000)
  41 H      7.791176    0.744532   18.139030    ( 0.0000,  0.0000,  0.0000)
  42 N      8.087545    1.611535   17.171159    ( 0.0000,  0.0000,  0.0000)
  43 N      8.085098    2.745040   17.173317    ( 0.0000,  0.0000,  0.0000)

Unit cell:
           periodic     x           y           z      points  spacing
  1. axis:    yes    9.702222    0.000000    0.000000    60     0.1617
  2. axis:    yes    0.000000    9.702222    0.000000    60     0.1617
  3. axis:    no     0.000000    0.000000   26.601111   168     0.1583

  Lengths:   9.702222   9.702222  26.601111
  Angles:   90.000000  90.000000  90.000000

Effective grid spacing dv^(1/3) = 0.1606

     iter     time        total  log10-change:
                         energy  eigst   dens
iter:   1 17:19:50  -273.781813  -0.22
iter:   2 17:22:32  -273.383492  -0.17  -1.23
iter:   3 17:25:12  -272.884752  -0.55  -1.20
iter:   4 17:27:48  -272.840253  -1.01  -1.57
Writing to output.gpw (mode='')

iter:   5 17:30:24  -272.832065  -0.98  -1.83
iter:   6 17:32:58  -272.812601c -0.91  -1.82
iter:   7 17:35:32  -272.834402c -1.26  -1.95
iter:   8 17:38:09  -272.830199c -1.85  -2.06
iter:   9 17:40:47  -272.808245c -2.08  -2.09
Writing to output.gpw (mode='')

iter:  10 17:43:31  -272.804042c -2.15  -2.37
iter:  11 17:46:11  -272.805035c -2.59  -2.47
iter:  12 17:48:50  -272.804324c -2.70  -2.50
iter:  13 17:51:33  -272.804628c -2.66  -2.57
iter:  14 17:54:11  -272.804167c -2.56  -2.87
Writing to output.gpw (mode='')

iter:  15 17:56:46  -272.804789c -3.39  -2.88
iter:  16 17:59:18  -272.804157c -3.13  -2.94
iter:  17 18:01:49  -272.804659c -3.70  -3.00
iter:  18 18:04:23  -272.804496c -3.72  -3.25
iter:  19 18:06:56  -272.804653c -3.51  -3.35
Writing to output.gpw (mode='')

iter:  20 18:09:25  -272.804510c -4.02  -3.23
iter:  21 18:11:53  -272.804536c -4.05  -3.50
iter:  22 18:14:26  -272.804541c -4.49  -3.62
iter:  23 18:17:05  -272.804541c -4.26  -3.66
iter:  24 18:19:42  -272.804560c -4.37  -3.86
Writing to output.gpw (mode='')

iter:  25 18:22:22  -272.804562c -4.72  -3.95
iter:  26 18:24:55  -272.804567c -4.75  -4.03c
iter:  27 18:27:27  -272.804571c -4.67  -4.12c
iter:  28 18:29:57  -272.804570c -5.15  -3.95
iter:  29 18:32:34  -272.804588c -5.01  -4.12c
Writing to output.gpw (mode='')

iter:  30 18:35:01  -272.804585c -5.29  -4.29c
iter:  31 18:37:29  -272.804586c -5.44  -4.29c
iter:  32 18:40:01  -272.804573c -5.36  -4.28c
iter:  33 18:42:37  -272.804580c -5.26  -4.26c
iter:  34 18:45:14  -272.804580c -5.65  -4.23c
Writing to output.gpw (mode='')

iter:  35 18:47:46  -272.804579c -5.67  -4.21c
iter:  36 18:50:23  -272.804582c -5.52  -4.18c
iter:  37 18:53:09  -272.804582c -5.96  -4.17c
iter:  38 18:55:44  -272.804582c -5.69  -4.17c
iter:  39 18:58:21  -272.804591c -5.96  -4.11c
Writing to output.gpw (mode='')

iter:  40 19:01:02  -272.804593c -6.13  -4.10c
iter:  41 19:03:30  -272.804597c -6.11  -4.12c
iter:  42 19:06:02  -272.804591c -5.85  -4.16c
iter:  43 19:08:40  -272.804593c -6.13  -4.33c
iter:  44 19:11:14  -272.804590c -6.30  -4.34c
Writing to output.gpw (mode='')

iter:  45 19:13:47  -272.804587c -6.30  -4.40c
iter:  46 19:16:18  -272.804587c -6.18  -4.49c
iter:  47 19:18:52  -272.804586c -6.46  -4.58c
iter:  48 19:21:34  -272.804586c -6.54  -4.65c
iter:  49 19:24:12  -272.804590c -6.40  -4.87c
Writing to output.gpw (mode='')

iter:  50 19:26:47  -272.804588c -6.82  -4.90c
iter:  51 19:29:20  -272.804590c -6.67  -4.97c
iter:  52 19:32:02  -272.804587c -6.99  -5.18c
iter:  53 19:34:41  -272.804588c -6.94  -5.13c
iter:  54 19:37:17  -272.804588c -7.14  -5.19c
Writing to output.gpw (mode='')

iter:  55 19:39:51  -272.804588c -7.01  -5.21c
iter:  56 19:42:36  -272.804589c -7.17  -5.30c
iter:  57 19:45:08  -272.804588c -7.02  -5.33c
iter:  58 19:47:42  -272.804588c -7.18  -5.33c
iter:  59 19:50:15  -272.804589c -7.12  -5.36c
Writing to output.gpw (mode='')

iter:  60 19:52:48  -272.804589c -7.45c -5.40c

Converged after 60 iterations.

Dipole moment: (-1.362372, -4.972073, 0.525689) |e|*Ang

Energy contributions relative to reference atoms: (reference = -13382.245603)

Kinetic:       +172.871270
Potential:     -150.007436
External:        +0.000000
XC:            -296.244932
Entropy (-ST):   -0.169464
Local:           +0.661241
--------------------------
Free energy:   -272.889321
Extrapolated:  -272.804589

Dipole-layer corrected work functions: 3.369944, 2.359389 eV

Showing only first 2 kpts
 Kpt  Band  Eigenvalues  Occupancy
  0    28     -3.10787    1.98468
  0    29     -3.01826    1.91143
  0    30     -2.77027    0.26296
  0    31     -2.62087    0.01514

  1    28     -2.90716    1.40107
  1    29     -2.87450    1.09798
  1    30     -2.81045    0.50539
  1    31     -2.78185    0.32052


Fermi level: -2.86467

Gap: 0.025 eV
Transition (v -> c):
  (s=0, k=2, n=29, [0.12, 0.12, 0.00]) -> (s=0, k=7, n=30, [0.38, 0.38, 0.00])

Forces in eV/Ang:
  0 Li    0.01927    0.00628   -0.27366
  1 Li   -0.01857    0.00624   -0.27576
  2 Li   -0.00104   -0.00976   -0.28113
  3 Li    0.01238   -0.00533   -0.27537
  4 Li   -0.01264   -0.00640   -0.27345
  5 Li    0.00128    0.01572   -0.27422
  6 Li   -0.00334   -0.00071   -0.27104
  7 Li    0.00284    0.00095   -0.27526
  8 Li    0.00053   -0.00707   -0.26682
  9 Li   -0.00462   -0.00860    0.28775
 10 Li    0.00285    0.01649    0.25420
 11 Li    0.00227   -0.01105    0.28516
 12 Li   -0.00681   -0.00133    0.31267
 13 Li    0.00016   -0.00345    0.22839
 14 Li    0.00654   -0.00128    0.31217
 15 Li   -0.00007    0.01172    0.25202
 16 Li   -0.00387   -0.01094    0.27893
 17 Li    0.00347    0.01268    0.25903
 18 Li   -0.00899    0.00830    0.04374
 19 Li    0.01092    0.01102    0.04205
 20 Li   -0.00045   -0.01382   -0.17879
 21 Li   -0.02666   -0.02196    0.05502
 22 Li    0.02557   -0.02013    0.05642
 23 Li   -0.00021    0.04525   -0.08339
 24 Li    0.00213    0.01244    0.04013
 25 Li   -0.00458    0.00824    0.02830
 26 Li    0.00200   -0.00393    0.06215
 27 Li    0.04153   -0.10421   -0.04448
 28 Li    0.00388    0.02460   -0.00652
 29 Li   -0.05699   -0.11461   -0.06017
 30 Li   -0.23111    0.01700    0.19449
 31 Li    0.00057   -0.00552   -0.02816
 32 Li    0.25068    0.02361    0.21834
 33 Li    0.02599    0.06223   -0.02655
 34 Li   -0.00167   -0.01909   -0.01195
 35 Li   -0.02354    0.06766   -0.01586
 36 O    -0.39248   -8.70567   16.22483
 37 C     0.44259    0.28321    4.21583
 38 H     0.02262   -0.00479   -0.00758
 39 H    -0.05674   -0.00129   -0.18886
 40 H     0.03145    0.14064   -0.01787
 41 H    -1.42849   -4.17755    2.48276
 42 N     1.38596    1.34934  -12.28414
 43 N    -0.02854   11.03933  -10.68176

System changes: positions 

Initializing position-dependent things.

Density initialized from wave functions
       .-----------------------.  
      /|                       |  
     / |                       |  
    /  |                       |  
   /   |                       |  
  /    |                       |  
 *     |                       |  
 |     |                       |  
 |     |                       |  
 |     |                       |  
 |     |                       |  
 |     |                       |  
 |     |               H       |  
 |     |           H  CH       |  
 |     Li              Li      |  
 |     |              O        |  
 |   Li|     Li      HiN       |  
 |     |  Li      Li  N   Li   |  
 |     |   Li      Li      Li  |  
 |     |Li      Li      Li     |  
 |     | Li                    |  
 |   LLi     LLi     LLi       |  
 |     |  Li      Li      Li   |  
 | Li  |   Li      Li          |  
 |     |Li      Li      Li     |  
 Li    | Li      Li            |  
 |    Li      Li      Li       |  
 |     |                       |  
 |     |                       |  
 |     |                       |  
 |     |                       |  
 |     |                       |  
 |     |                       |  
 |     .-----------------------.  
 |    /                       /   
 |   /                       /    
 |  /                       /     
 | /                       /      
 |/                       /       
 *-----------------------*        

Positions:
   0 Li     1.617037    1.617037   10.000000    ( 0.0000,  0.0000,  0.0000)
   1 Li     4.851111    1.617037   10.000000    ( 0.0000,  0.0000,  0.0000)
   2 Li     8.085185    1.617037   10.000000    ( 0.0000,  0.0000,  0.0000)
   3 Li     1.617037    4.851111   10.000000    ( 0.0000,  0.0000,  0.0000)
   4 Li     4.851111    4.851111   10.000000    ( 0.0000,  0.0000,  0.0000)
   5 Li     8.085185    4.851111   10.000000    ( 0.0000,  0.0000,  0.0000)
   6 Li     1.617037    8.085185   10.000000    ( 0.0000,  0.0000,  0.0000)
   7 Li     4.851111    8.085185   10.000000    ( 0.0000,  0.0000,  0.0000)
   8 Li     8.085185    8.085185   10.000000    ( 0.0000,  0.0000,  0.0000)
   9 Li     0.000000    0.000000   11.617037    ( 0.0000,  0.0000,  0.0000)
  10 Li     3.234074    0.000000   11.617037    ( 0.0000,  0.0000,  0.0000)
  11 Li     6.468148    0.000000   11.617037    ( 0.0000,  0.0000,  0.0000)
  12 Li     0.000000    3.234074   11.617037    ( 0.0000,  0.0000,  0.0000)
  13 Li     3.234074    3.234074   11.617037    ( 0.0000,  0.0000,  0.0000)
  14 Li     6.468148    3.234074   11.617037    ( 0.0000,  0.0000,  0.0000)
  15 Li     0.000000    6.468148   11.617037    ( 0.0000,  0.0000,  0.0000)
  16 Li     3.234074    6.468148   11.617037    ( 0.0000,  0.0000,  0.0000)
  17 Li     6.468148    6.468148   11.617037    ( 0.0000,  0.0000,  0.0000)
  18 Li     1.617002    1.617079   13.469933    ( 0.0000,  0.0000,  0.0000)
  19 Li     4.851156    1.617093   13.469930    ( 0.0000,  0.0000,  0.0000)
  20 Li     8.085183    1.616967   13.468822    ( 0.0000,  0.0000,  0.0000)
  21 Li     1.616903    4.850999   13.470003    ( 0.0000,  0.0000,  0.0000)
  22 Li     4.851241    4.851006   13.470008    ( 0.0000,  0.0000,  0.0000)
  23 Li     8.085183    4.851344   13.469291    ( 0.0000,  0.0000,  0.0000)
  24 Li     1.617045    8.085248   13.469929    ( 0.0000,  0.0000,  0.0000)
  25 Li     4.851093    8.085229   13.469879    ( 0.0000,  0.0000,  0.0000)
  26 Li     8.085193    8.085160   13.470044    ( 0.0000,  0.0000,  0.0000)
  27 Li     0.000183   -0.000474   15.445777    ( 0.0000,  0.0000,  0.0000)
  28 Li     3.234097    0.000113   15.445894    ( 0.0000,  0.0000,  0.0000)
  29 Li     6.467880   -0.000533   15.445653    ( 0.0000,  0.0000,  0.0000)
  30 Li    -0.001198    3.234094   15.447030    ( 0.0000,  0.0000,  0.0000)
  31 Li     3.234082    3.234057   15.445786    ( 0.0000,  0.0000,  0.0000)
  32 Li     6.469435    3.234144   15.447136    ( 0.0000,  0.0000,  0.0000)
  33 Li     0.000132    6.468458   15.445807    ( 0.0000,  0.0000,  0.0000)
  34 Li     3.234069    6.468053   15.445879    ( 0.0000,  0.0000,  0.0000)
  35 Li     6.468024    6.468486   15.445859    ( 0.0000,  0.0000,  0.0000)
  36 O      8.082950    1.577126   18.514717    ( 0.0000,  0.0000,  0.0000)
  37 C      8.081662    1.603090   19.896442    ( 0.0000,  0.0000,  0.0000)
  38 H      8.767109    0.851872   20.280788    ( 0.0000,  0.0000,  0.0000)
  39 H      7.077523    1.423576   20.279064    ( 0.0000,  0.0000,  0.0000)
  40 H      8.412842    2.588588   20.195637    ( 0.0000,  0.0000,  0.0000)
  41 H      7.787862    0.736369   18.146022    ( 0.0000,  0.0000,  0.0000)
  42 N      8.091718    1.636175   17.139927    ( 0.0000,  0.0000,  0.0000)
  43 N      8.084623    2.749407   17.148942    ( 0.0000,  0.0000,  0.0000)

Unit cell:
           periodic     x           y           z      points  spacing
  1. axis:    yes    9.702222    0.000000    0.000000    60     0.1617
  2. axis:    yes    0.000000    9.702222    0.000000    60     0.1617
  3. axis:    no     0.000000    0.000000   26.601111   168     0.1583

  Lengths:   9.702222   9.702222  26.601111
  Angles:   90.000000  90.000000  90.000000

Effective grid spacing dv^(1/3) = 0.1606

     iter     time        total  log10-change:
                         energy  eigst   dens
iter:   1 19:56:02  -274.625384  -0.38
iter:   2 19:58:40  -274.403831  -0.42  -1.36
iter:   3 20:01:11  -274.343790  -1.07  -1.51
iter:   4 20:03:42  -274.329146  -0.61  -1.84
Writing to output.gpw (mode='')

iter:   5 20:06:16  -274.317476c -1.20  -1.66
iter:   6 20:08:46  -274.544847  -0.49  -2.02
iter:   7 20:11:21  -274.430396  -1.32  -1.57
iter:   8 20:13:47  -274.275014  -0.75  -1.71
iter:   9 20:16:18  -274.294614  -1.71  -2.21
Writing to output.gpw (mode='')

iter:  10 20:18:51  -274.287543c -1.69  -2.18
iter:  11 20:21:29  -274.278959c -1.67  -2.23
iter:  12 20:24:04  -274.280388c -2.01  -2.38
iter:  13 20:26:36  -274.279065c -2.07  -2.46
iter:  14 20:29:14  -274.281584c -2.62  -2.43
Writing to output.gpw (mode='')

iter:  15 20:31:51  -274.279692c -2.80  -2.64
iter:  16 20:34:34  -274.278905c -2.49  -2.81
iter:  17 20:37:15  -274.280437c -2.69  -2.76
iter:  18 20:39:50  -274.279856c -3.28  -2.82
iter:  19 20:42:28  -274.279400c -3.27  -3.10
Writing to output.gpw (mode='')

iter:  20 20:45:01  -274.279588c -3.61  -3.21
iter:  21 20:47:41  -274.279644c -3.69  -3.29
iter:  22 20:50:18  -274.279669c -3.52  -3.33
iter:  23 20:52:52  -274.279711c -4.13  -3.51
iter:  24 20:55:27  -274.279946c -3.95  -3.53
Writing to output.gpw (mode='')

iter:  25 20:58:10  -274.279758c -3.97  -3.49
iter:  26 21:00:52  -274.279792c -4.08  -3.66
iter:  27 21:03:25  -274.279892c -4.16  -3.77
iter:  28 21:06:01  -274.279927c -4.46  -3.83
iter:  29 21:08:40  -274.279877c -4.53  -3.97
Writing to output.gpw (mode='')

iter:  30 21:11:17  -274.279894c -4.80  -4.08c
iter:  31 21:13:49  -274.279913c -4.72  -4.11c
iter:  32 21:16:36  -274.279921c -4.79  -4.25c
iter:  33 21:19:06  -274.279912c -5.08  -4.34c
iter:  34 21:21:34  -274.279928c -4.98  -4.41c
Writing to output.gpw (mode='')

iter:  35 21:24:10  -274.279926c -5.08  -4.45c
iter:  36 21:26:47  -274.279932c -5.24  -4.63c
iter:  37 21:29:23  -274.279936c -5.35  -4.70c
iter:  38 21:32:01  -274.279938c -5.37  -4.79c
iter:  39 21:34:31  -274.279942c -5.38  -4.83c
Writing to output.gpw (mode='')

iter:  40 21:37:14  -274.279942c -5.55  -4.84c
iter:  41 21:39:44  -274.279946c -5.65  -4.89c
iter:  42 21:42:14  -274.279946c -5.81  -5.08c
iter:  43 21:44:42  -274.279946c -5.79  -5.14c
iter:  44 21:47:10  -274.279947c -5.84  -5.15c
Writing to output.gpw (mode='')

iter:  45 21:49:45  -274.279947c -5.95  -5.14c
iter:  46 21:52:18  -274.279947c -5.97  -5.08c
iter:  47 21:54:47  -274.279945c -6.13  -5.09c
iter:  48 21:57:17  -274.279948c -6.17  -4.97c
iter:  49 21:59:48  -274.279951c -6.02  -5.08c
Writing to output.gpw (mode='')

iter:  50 22:02:31  -274.279950c -6.23  -5.18c
iter:  51 22:05:13  -274.279949c -6.29  -5.11c
iter:  52 22:07:47  -274.279950c -6.31  -5.01c
iter:  53 22:10:20  -274.279952c -6.28  -5.05c
iter:  54 22:13:00  -274.279954c -6.28  -5.10c
Writing to output.gpw (mode='')

iter:  55 22:15:47  -274.279956c -6.61  -5.16c
iter:  56 22:18:18  -274.279957c -6.56  -5.25c
iter:  57 22:20:50  -274.279957c -6.56  -5.33c
iter:  58 22:23:22  -274.279957c -6.73  -5.33c
iter:  59 22:25:55  -274.279957c -6.81  -5.33c
Writing to output.gpw (mode='')

iter:  60 22:28:42  -274.279959c -6.80  -5.35c
iter:  61 22:31:20  -274.279958c -6.95  -5.47c
iter:  62 22:33:56  -274.279958c -6.98  -5.54c
iter:  63 22:36:31  -274.279958c -7.08  -5.55c
iter:  64 22:39:05  -274.279959c -6.98  -5.64c
Writing to output.gpw (mode='')

iter:  65 22:41:42  -274.279958c -7.33  -5.71c
iter:  66 22:44:21  -274.279959c -7.03  -5.76c
iter:  67 22:46:53  -274.279959c -7.09  -5.90c
iter:  68 22:49:23  -274.279959c -7.34  -5.94c
iter:  69 22:51:54  -274.279959c -7.49c -6.03c

Converged after 69 iterations.

Dipole moment: (-1.344451, -4.887621, 0.489219) |e|*Ang

Energy contributions relative to reference atoms: (reference = -13382.245603)

Kinetic:       +173.067449
Potential:     -151.481503
External:        +0.000000
XC:            -296.449680
Entropy (-ST):   -0.164167
Local:           +0.665858
--------------------------
Free energy:   -274.362043
Extrapolated:  -274.279959

Dipole-layer corrected work functions: 3.370145, 2.429697 eV

Showing only first 2 kpts
 Kpt  Band  Eigenvalues  Occupancy
  0    28     -3.14741    1.98593
  0    29     -3.05928    1.92070
  0    30     -2.78728    0.19022
  0    31     -2.65430    0.01460

  1    28     -2.94565    1.42790
  1    29     -2.91047    1.10506
  1    30     -2.85193    0.55387
  1    31     -2.81883    0.32992


Fermi level: -2.89992

Gap: 0.019 eV
Transition (v -> c):
  (s=0, k=2, n=29, [0.12, 0.12, 0.00]) -> (s=0, k=7, n=30, [0.38, 0.38, 0.00])
Writing to output.gpw (mode='')


Forces in eV/Ang:
  0 Li    0.02071    0.00653   -0.27271
  1 Li   -0.02008    0.00622   -0.27503
  2 Li   -0.00084   -0.01081   -0.28019
  3 Li    0.01163   -0.00529   -0.27483
  4 Li   -0.01222   -0.00620   -0.27307
  5 Li    0.00142    0.01830   -0.27342
  6 Li   -0.00399   -0.00064   -0.27170
  7 Li    0.00354    0.00115   -0.27550
  8 Li    0.00040   -0.00901   -0.26666
  9 Li   -0.00364   -0.00969    0.28577
 10 Li    0.00252    0.01707    0.25448
 11 Li    0.00151   -0.01128    0.28295
 12 Li   -0.00715   -0.00112    0.31302
 13 Li   -0.00028   -0.00409    0.22791
 14 Li    0.00725   -0.00174    0.31350
 15 Li   -0.00050    0.01337    0.25010
 16 Li   -0.00297   -0.01187    0.27845
 17 Li    0.00318    0.01423    0.25621
 18 Li   -0.01333    0.00892    0.04897
 19 Li    0.01411    0.01171    0.04738
 20 Li    0.00038   -0.01915   -0.18772
 21 Li   -0.02864   -0.02251    0.05854
 22 Li    0.02795   -0.02098    0.05910
 23 Li   -0.00030    0.04432   -0.07642
 24 Li    0.00360    0.01169    0.03841
 25 Li   -0.00571    0.00755    0.02900
 26 Li    0.00173   -0.00095    0.06451
 27 Li    0.05190   -0.11573   -0.06013
 28 Li    0.00458    0.02708   -0.00495
 29 Li   -0.07143   -0.12778   -0.09166
 30 Li   -0.16419    0.03090    0.12771
 31 Li    0.00102   -0.00791   -0.02595
 32 Li    0.17957    0.03883    0.14672
 33 Li    0.02021    0.05806   -0.02715
 34 Li   -0.00154   -0.01866   -0.01157
 35 Li   -0.01815    0.06508   -0.01742
 36 O    -0.45728   -7.84911   13.67990
 37 C     0.29956    0.04629    4.02216
 38 H     0.10025   -0.06075    0.27667
 39 H    -0.10678    0.01350    0.07030
 40 H     0.06693    0.23421    0.09772
 41 H    -1.11593   -3.26125    2.37373
 42 N     1.24418    0.49094  -11.49889
 43 N    -0.05841   10.42287   -9.18181

System changes: positions 

Initializing position-dependent things.

Density initialized from wave functions
       .-----------------------.  
      /|                       |  
     / |                       |  
    /  |                       |  
   /   |                       |  
  /    |                       |  
 *     |                       |  
 |     |                       |  
 |     |                       |  
 |     |                       |  
 |     |                       |  
 |     |                       |  
 |     |               H       |  
 |     |           H  CH       |  
 |     Li              Li      |  
 |     |              O        |  
 |   Li|     Li      HiN       |  
 |     |  Li      Li  N   Li   |  
 |     |   Li      Li      Li  |  
 |     |Li      Li      Li     |  
 |     | Li                    |  
 |   LLi     LLi     LLi       |  
 |     |  Li      Li      Li   |  
 | Li  |   Li      Li          |  
 |     |Li      Li      Li     |  
 Li    | Li      Li            |  
 |    Li      Li      Li       |  
 |     |                       |  
 |     |                       |  
 |     |                       |  
 |     |                       |  
 |     |                       |  
 |     |                       |  
 |     .-----------------------.  
 |    /                       /   
 |   /                       /    
 |  /                       /     
 | /                       /      
 |/                       /       
 *-----------------------*        

Positions:
   0 Li     1.617037    1.617037   10.000000    ( 0.0000,  0.0000,  0.0000)
   1 Li     4.851111    1.617037   10.000000    ( 0.0000,  0.0000,  0.0000)
   2 Li     8.085185    1.617037   10.000000    ( 0.0000,  0.0000,  0.0000)
   3 Li     1.617037    4.851111   10.000000    ( 0.0000,  0.0000,  0.0000)
   4 Li     4.851111    4.851111   10.000000    ( 0.0000,  0.0000,  0.0000)
   5 Li     8.085185    4.851111   10.000000    ( 0.0000,  0.0000,  0.0000)
   6 Li     1.617037    8.085185   10.000000    ( 0.0000,  0.0000,  0.0000)
   7 Li     4.851111    8.085185   10.000000    ( 0.0000,  0.0000,  0.0000)
   8 Li     8.085185    8.085185   10.000000    ( 0.0000,  0.0000,  0.0000)
   9 Li     0.000000    0.000000   11.617037    ( 0.0000,  0.0000,  0.0000)
  10 Li     3.234074    0.000000   11.617037    ( 0.0000,  0.0000,  0.0000)
  11 Li     6.468148    0.000000   11.617037    ( 0.0000,  0.0000,  0.0000)
  12 Li     0.000000    3.234074   11.617037    ( 0.0000,  0.0000,  0.0000)
  13 Li     3.234074    3.234074   11.617037    ( 0.0000,  0.0000,  0.0000)
  14 Li     6.468148    3.234074   11.617037    ( 0.0000,  0.0000,  0.0000)
  15 Li     0.000000    6.468148   11.617037    ( 0.0000,  0.0000,  0.0000)
  16 Li     3.234074    6.468148   11.617037    ( 0.0000,  0.0000,  0.0000)
  17 Li     6.468148    6.468148   11.617037    ( 0.0000,  0.0000,  0.0000)
  18 Li     1.616923    1.617124   13.470169    ( 0.0000,  0.0000,  0.0000)
  19 Li     4.851227    1.617151   13.470167    ( 0.0000,  0.0000,  0.0000)
  20 Li     8.085193    1.616835   13.467891    ( 0.0000,  0.0000,  0.0000)
  21 Li     1.616757    4.850889   13.470291    ( 0.0000,  0.0000,  0.0000)
  22 Li     4.851389    4.850898   13.470287    ( 0.0000,  0.0000,  0.0000)
  23 Li     8.085181    4.851546   13.468968    ( 0.0000,  0.0000,  0.0000)
  24 Li     1.617066    8.085296   13.470088    ( 0.0000,  0.0000,  0.0000)
  25 Li     4.851068    8.085263   13.470028    ( 0.0000,  0.0000,  0.0000)
  26 Li     8.085197    8.085173   13.470361    ( 0.0000,  0.0000,  0.0000)
  27 Li     0.000456   -0.001004   15.445486    ( 0.0000,  0.0000,  0.0000)
  28 Li     3.234129    0.000237   15.445864    ( 0.0000,  0.0000,  0.0000)
  29 Li     6.467476   -0.001140   15.445022    ( 0.0000,  0.0000,  0.0000)
  30 Li    -0.001482    3.234232   15.447280    ( 0.0000,  0.0000,  0.0000)
  31 Li     3.234095    3.234016   15.445667    ( 0.0000,  0.0000,  0.0000)
  32 Li     6.469743    3.234352   15.447411    ( 0.0000,  0.0000,  0.0000)
  33 Li     0.000182    6.468683   15.445683    ( 0.0000,  0.0000,  0.0000)
  34 Li     3.234064    6.467977   15.445831    ( 0.0000,  0.0000,  0.0000)
  35 Li     6.467980    6.468761   15.445768    ( 0.0000,  0.0000,  0.0000)
  36 O      8.079935    1.554792   18.535197    ( 0.0000,  0.0000,  0.0000)
  37 C      8.081483    1.600954   19.912029    ( 0.0000,  0.0000,  0.0000)
  38 H      8.768436    0.850970   20.285355    ( 0.0000,  0.0000,  0.0000)
  39 H      7.076499    1.423799   20.282411    ( 0.0000,  0.0000,  0.0000)
  40 H      8.413539    2.590718   20.197624    ( 0.0000,  0.0000,  0.0000)
  41 H      7.786705    0.734595   18.154657    ( 0.0000,  0.0000,  0.0000)
  42 N      8.095823    1.652661   17.103715    ( 0.0000,  0.0000,  0.0000)
  43 N      8.083732    2.758452   17.130397    ( 0.0000,  0.0000,  0.0000)

Unit cell:
           periodic     x           y           z      points  spacing
  1. axis:    yes    9.702222    0.000000    0.000000    60     0.1617
  2. axis:    yes    0.000000    9.702222    0.000000    60     0.1617
  3. axis:    no     0.000000    0.000000   26.601111   168     0.1583

  Lengths:   9.702222   9.702222  26.601111
  Angles:   90.000000  90.000000  90.000000

Effective grid spacing dv^(1/3) = 0.1606

     iter     time        total  log10-change:
                         energy  eigst   dens
iter:   1 22:55:17  -275.634768  -0.63
iter:   2 22:57:52  -275.513013  -0.65  -1.46
iter:   3 23:00:24  -275.479697  -1.41  -1.64
iter:   4 23:03:06  -275.460056  -1.19  -2.00
Writing to output.gpw (mode='')

iter:   5 23:05:47  -275.471820c -1.87  -2.25
iter:   6 23:08:25  -275.541731  -1.28  -2.12
iter:   7 23:11:09  -275.466810  -1.47  -1.74
iter:   8 23:13:55  -275.450552  -1.16  -2.09
iter:   9 23:16:31  -275.455089c -1.95  -2.43
Writing to output.gpw (mode='')

iter:  10 23:19:16  -275.466025c -2.43  -2.53
iter:  11 23:21:51  -275.453625c -1.59  -2.29
iter:  12 23:24:24  -275.454262c -2.46  -2.56
iter:  13 23:26:54  -275.454587c -2.84  -2.72
iter:  14 23:29:35  -275.453781c -2.70  -2.79
Writing to output.gpw (mode='')

iter:  15 23:32:12  -275.454404c -3.04  -2.96
iter:  16 23:34:52  -275.454200c -3.14  -3.07
iter:  17 23:37:29  -275.454384c -3.40  -3.20
iter:  18 23:40:05  -275.454673c -3.40  -3.20
iter:  19 23:42:33  -275.454520c -3.67  -3.15
Writing to output.gpw (mode='')

iter:  20 23:45:17  -275.454662c -3.91  -3.51
iter:  21 23:47:53  -275.454631c -3.90  -3.54
iter:  22 23:50:25  -275.454663c -3.93  -3.60
iter:  23 23:53:00  -275.454688c -4.08  -3.68
iter:  24 23:55:32  -275.454700c -4.26  -3.77
Writing to output.gpw (mode='')

iter:  25 23:58:08  -275.454702c -4.32  -3.78
iter:  26 00:00:44  -275.454722c -4.34  -3.80
iter:  27 00:03:24  -275.454732c -4.32  -3.85
iter:  28 00:06:04  -275.454757c -4.57  -3.92
iter:  29 00:08:35  -275.454758c -4.84  -4.00
Writing to output.gpw (mode='')

iter:  30 00:11:13  -275.454727c -4.79  -4.09c
iter:  31 00:13:43  -275.454737c -4.94  -4.16c
iter:  32 00:16:15  -275.454737c -4.95  -4.17c
iter:  33 00:18:53  -275.454756c -4.89  -4.16c
iter:  34 00:21:38  -275.454741c -5.32  -4.17c
Writing to output.gpw (mode='')

iter:  35 00:24:18  -275.454753c -5.43  -4.10c
iter:  36 00:26:44  -275.454770c -5.44  -4.23c
iter:  37 00:29:20  -275.454779c -5.25  -4.39c
iter:  38 00:31:58  -275.454781c -5.44  -4.55c
iter:  39 00:34:33  -275.454785c -5.60  -4.62c
Writing to output.gpw (mode='')

iter:  40 00:37:13  -275.454784c -5.59  -4.75c
iter:  41 00:39:53  -275.454785c -5.65  -4.78c
iter:  42 00:42:31  -275.454786c -5.90  -4.80c
iter:  43 00:45:10  -275.454788c -5.89  -4.81c
iter:  44 00:47:48  -275.454790c -5.95  -4.84c
Writing to output.gpw (mode='')

iter:  45 00:50:29  -275.454790c -5.99  -4.96c
iter:  46 00:52:56  -275.454791c -6.24  -5.07c
iter:  47 00:55:29  -275.454789c -6.05  -5.07c
iter:  48 00:58:01  -275.454789c -6.39  -4.95c
iter:  49 01:00:40  -275.454791c -6.50  -5.07c
Writing to output.gpw (mode='')

iter:  50 01:03:19  -275.454792c -6.45  -5.11c
iter:  51 01:05:54  -275.454796c -6.36  -5.21c
iter:  52 01:08:36  -275.454795c -6.71  -5.38c
iter:  53 01:11:08  -275.454796c -6.58  -5.41c
iter:  54 01:13:43  -275.454797c -6.55  -5.46c
Writing to output.gpw (mode='')

iter:  55 01:16:23  -275.454796c -6.56  -5.50c
iter:  56 01:18:51  -275.454797c -6.86  -5.56c
iter:  57 01:21:32  -275.454797c -6.82  -5.62c
iter:  58 01:24:15  -275.454797c -6.81  -5.67c
iter:  59 01:26:51  -275.454798c -7.01  -5.65c
Writing to output.gpw (mode='')

iter:  60 01:29:24  -275.454798c -7.09  -5.73c
iter:  61 01:32:00  -275.454798c -7.11  -5.80c
iter:  62 01:34:36  -275.454798c -7.27  -5.87c
iter:  63 01:37:18  -275.454798c -7.36  -5.95c
iter:  64 01:39:49  -275.454798c -7.30  -6.02c
Writing to output.gpw (mode='')

iter:  65 01:42:22  -275.454798c -7.32  -6.04c
iter:  66 01:44:42  -275.454798c -7.36  -6.04c
iter:  67 01:47:22  -275.454798c -7.41c -5.91c

Converged after 67 iterations.

Dipole moment: (-1.376868, -4.767364, 0.457400) |e|*Ang

Energy contributions relative to reference atoms: (reference = -13382.245603)

Kinetic:       +171.802014
Potential:     -151.444056
External:        +0.000000
XC:            -296.400334
Entropy (-ST):   -0.162150
Local:           +0.668653
--------------------------
Free energy:   -275.535873
Extrapolated:  -275.454798

Dipole-layer corrected work functions: 3.372308, 2.493029 eV

Showing only first 2 kpts
 Kpt  Band  Eigenvalues  Occupancy
  0    28     -3.18184    1.98639
  0    29     -3.09573    1.92615
  0    30     -2.81250    0.16584
  0    31     -2.68845    0.01501

  1    28     -2.97575    1.40600
  1    29     -2.94487    1.12141
  1    30     -2.88850    0.58499
  1    31     -2.85107    0.32715


Fermi level: -2.93267

Gap: 0.019 eV
Transition (v -> c):
  (s=0, k=2, n=29, [0.12, 0.12, 0.00]) -> (s=0, k=7, n=30, [0.38, 0.38, 0.00])
Writing to output.gpw (mode='')


Forces in eV/Ang:
  0 Li    0.02159    0.00640   -0.27234
  1 Li   -0.02112    0.00608   -0.27440
  2 Li   -0.00068   -0.01136   -0.27949
  3 Li    0.01098   -0.00482   -0.27452
  4 Li   -0.01167   -0.00559   -0.27330
  5 Li    0.00140    0.02009   -0.27325
  6 Li   -0.00427   -0.00044   -0.27261
  7 Li    0.00392    0.00131   -0.27574
  8 Li    0.00033   -0.01066   -0.26653
  9 Li   -0.00322   -0.01023    0.28431
 10 Li    0.00237    0.01720    0.25405
 11 Li    0.00124   -0.01119    0.28131
 12 Li   -0.00725   -0.00090    0.31346
 13 Li   -0.00047   -0.00518    0.22818
 14 Li    0.00759   -0.00184    0.31463
 15 Li   -0.00096    0.01462    0.24830
 16 Li   -0.00233   -0.01212    0.27777
 17 Li    0.00296    0.01505    0.25360
 18 Li   -0.01545    0.00901    0.05090
 19 Li    0.01589    0.01159    0.05028
 20 Li    0.00080   -0.02120   -0.19025
 21 Li   -0.02926   -0.02278    0.05986
 22 Li    0.02850   -0.02168    0.05952
 23 Li    0.00006    0.04255   -0.06986
 24 Li    0.00390    0.01083    0.03749
 25 Li   -0.00561    0.00735    0.03094
 26 Li    0.00137    0.00009    0.06455
 27 Li    0.05448   -0.11551   -0.06301
 28 Li    0.00491    0.02772   -0.00552
 29 Li   -0.07638   -0.12975   -0.10717
 30 Li   -0.11559    0.03633    0.08923
 31 Li    0.00164   -0.00886   -0.02546
 32 Li    0.12902    0.04855    0.10489
 33 Li    0.01659    0.05264   -0.02841
 34 Li   -0.00124   -0.01757   -0.01152
 35 Li   -0.01496    0.06095   -0.02019
 36 O    -0.27406   -6.36410   12.13457
 37 C     0.23674   -0.10768    3.43584
 38 H     0.15778   -0.11470    0.49866
 39 H    -0.18057    0.00462    0.28385
 40 H     0.06268    0.21373    0.11770
 41 H    -1.10158   -3.17232    2.09108
 42 N     1.12700    0.21977  -10.73890
 43 N    -0.08243    9.33735   -7.78764

System changes: positions 

Initializing position-dependent things.

Density initialized from wave functions
       .-----------------------.  
      /|                       |  
     / |                       |  
    /  |                       |  
   /   |                       |  
  /    |                       |  
 *     |                       |  
 |     |                       |  
 |     |                       |  
 |     |                       |  
 |     |                       |  
 |     |                       |  
 |     |               H       |  
 |     |           H  CH       |  
 |     Li              Li      |  
 |     |              O        |  
 |   Li|     Li      HiN       |  
 |     |  Li      Li  N   Li   |  
 |     |   Li      Li      Li  |  
 |     |Li      Li      Li     |  
 |     | Li                    |  
 |   LLi     LLi     LLi       |  
 |     |  Li      Li      Li   |  
 | Li  |   Li      Li          |  
 |     |Li      Li      Li     |  
 Li    | Li      Li            |  
 |    Li      Li      Li       |  
 |     |                       |  
 |     |                       |  
 |     |                       |  
 |     |                       |  
 |     |                       |  
 |     |                       |  
 |     .-----------------------.  
 |    /                       /   
 |   /                       /    
 |  /                       /     
 | /                       /      
 |/                       /       
 *-----------------------*        

Positions:
   0 Li     1.617037    1.617037   10.000000    ( 0.0000,  0.0000,  0.0000)
   1 Li     4.851111    1.617037   10.000000    ( 0.0000,  0.0000,  0.0000)
   2 Li     8.085185    1.617037   10.000000    ( 0.0000,  0.0000,  0.0000)
   3 Li     1.617037    4.851111   10.000000    ( 0.0000,  0.0000,  0.0000)
   4 Li     4.851111    4.851111   10.000000    ( 0.0000,  0.0000,  0.0000)
   5 Li     8.085185    4.851111   10.000000    ( 0.0000,  0.0000,  0.0000)
   6 Li     1.617037    8.085185   10.000000    ( 0.0000,  0.0000,  0.0000)
   7 Li     4.851111    8.085185   10.000000    ( 0.0000,  0.0000,  0.0000)
   8 Li     8.085185    8.085185   10.000000    ( 0.0000,  0.0000,  0.0000)
   9 Li     0.000000    0.000000   11.617037    ( 0.0000,  0.0000,  0.0000)
  10 Li     3.234074    0.000000   11.617037    ( 0.0000,  0.0000,  0.0000)
  11 Li     6.468148    0.000000   11.617037    ( 0.0000,  0.0000,  0.0000)
  12 Li     0.000000    3.234074   11.617037    ( 0.0000,  0.0000,  0.0000)
  13 Li     3.234074    3.234074   11.617037    ( 0.0000,  0.0000,  0.0000)
  14 Li     6.468148    3.234074   11.617037    ( 0.0000,  0.0000,  0.0000)
  15 Li     0.000000    6.468148   11.617037    ( 0.0000,  0.0000,  0.0000)
  16 Li     3.234074    6.468148   11.617037    ( 0.0000,  0.0000,  0.0000)
  17 Li     6.468148    6.468148   11.617037    ( 0.0000,  0.0000,  0.0000)
  18 Li     1.616812    1.617175   13.470461    ( 0.0000,  0.0000,  0.0000)
  19 Li     4.851328    1.617215   13.470470    ( 0.0000,  0.0000,  0.0000)
  20 Li     8.085207    1.616672   13.466802    ( 0.0000,  0.0000,  0.0000)
  21 Li     1.616584    4.850760   13.470634    ( 0.0000,  0.0000,  0.0000)
  22 Li     4.851561    4.850767   13.470613    ( 0.0000,  0.0000,  0.0000)
  23 Li     8.085183    4.851760   13.468660    ( 0.0000,  0.0000,  0.0000)
  24 Li     1.617092    8.085344   13.470268    ( 0.0000,  0.0000,  0.0000)
  25 Li     4.851040    8.085302   13.470220    ( 0.0000,  0.0000,  0.0000)
  26 Li     8.085199    8.085193   13.470723    ( 0.0000,  0.0000,  0.0000)
  27 Li     0.000787   -0.001608   15.445128    ( 0.0000,  0.0000,  0.0000)
  28 Li     3.234168    0.000388   15.445823    ( 0.0000,  0.0000,  0.0000)
  29 Li     6.466976   -0.001856   15.444176    ( 0.0000,  0.0000,  0.0000)
  30 Li    -0.001387    3.234450   15.447235    ( 0.0000,  0.0000,  0.0000)
  31 Li     3.234115    3.233959   15.445534    ( 0.0000,  0.0000,  0.0000)
  32 Li     6.469669    3.234694   15.447375    ( 0.0000,  0.0000,  0.0000)
  33 Li     0.000210    6.468892   15.445523    ( 0.0000,  0.0000,  0.0000)
  34 Li     3.234061    6.467899   15.445774    ( 0.0000,  0.0000,  0.0000)
  35 Li     6.467952    6.469039   15.445633    ( 0.0000,  0.0000,  0.0000)
  36 O      8.078974    1.542823   18.553117    ( 0.0000,  0.0000,  0.0000)
  37 C      8.081020    1.597372   19.923848    ( 0.0000,  0.0000,  0.0000)
  38 H      8.770401    0.849464   20.292313    ( 0.0000,  0.0000,  0.0000)
  39 H      7.074579    1.423895   20.287938    ( 0.0000,  0.0000,  0.0000)
  40 H      8.414167    2.592595   20.199687    ( 0.0000,  0.0000,  0.0000)
  41 H      7.784252    0.729446   18.161902    ( 0.0000,  0.0000,  0.0000)
  42 N      8.099686    1.665322   17.065968    ( 0.0000,  0.0000,  0.0000)
  43 N      8.082588    2.766403   17.118610    ( 0.0000,  0.0000,  0.0000)

Unit cell:
           periodic     x           y           z      points  spacing
  1. axis:    yes    9.702222    0.000000    0.000000    60     0.1617
  2. axis:    yes    0.000000    9.702222    0.000000    60     0.1617
  3. axis:    no     0.000000    0.000000   26.601111   168     0.1583

  Lengths:   9.702222   9.702222  26.601111
  Angles:   90.000000  90.000000  90.000000

Effective grid spacing dv^(1/3) = 0.1606

     iter     time        total  log10-change:
                         energy  eigst   dens
iter:   1 01:50:36  -276.432444  -0.73
iter:   2 01:53:14  -276.395175  -1.00  -1.67
iter:   3 01:55:51  -276.383370  -1.63  -1.83
iter:   4 01:58:22  -276.371625c -1.60  -2.19
Writing to output.gpw (mode='')

iter:   5 02:01:00  -276.376021c -2.03  -2.34
iter:   6 02:03:44  -276.389948c -1.78  -2.20
iter:   7 02:06:17  -276.367348c -1.88  -2.01
iter:   8 02:08:52  -276.366620c -1.48  -2.46
iter:   9 02:11:24  -276.368524c -2.48  -2.23
Writing to output.gpw (mode='')

iter:  10 02:14:05  -276.366479c -3.09  -2.61
iter:  11 02:16:37  -276.364608c -2.45  -2.80
iter:  12 02:19:07  -276.364464c -3.10  -2.64
iter:  13 02:21:40  -276.365260c -3.07  -2.89
iter:  14 02:24:21  -276.365090c -3.49  -3.12
Writing to output.gpw (mode='')

iter:  15 02:27:06  -276.365207c -3.66  -3.17
iter:  16 02:29:48  -276.365285c -3.89  -3.38
iter:  17 02:32:22  -276.365231c -4.02  -3.38
iter:  18 02:34:54  -276.365200c -4.11  -3.57
iter:  19 02:37:36  -276.365244c -4.46  -3.72
Writing to output.gpw (mode='')

iter:  20 02:40:10  -276.365222c -4.29  -3.73
iter:  21 02:42:41  -276.365292c -4.47  -3.79
iter:  22 02:45:10  -276.365247c -4.59  -3.88
iter:  23 02:47:40  -276.365261c -4.66  -3.83
iter:  24 02:50:13  -276.365279c -4.69  -3.93
Writing to output.gpw (mode='')

iter:  25 02:52:43  -276.365326c -5.00  -4.05c
iter:  26 02:55:09  -276.365309c -5.28  -4.14c
iter:  27 02:57:34  -276.365308c -4.98  -4.26c
iter:  28 03:00:11  -276.365302c -4.84  -4.26c
iter:  29 03:02:46  -276.365309c -5.28  -4.31c
Writing to output.gpw (mode='')

iter:  30 03:05:18  -276.365311c -5.28  -4.46c
iter:  31 03:07:55  -276.365304c -5.38  -4.55c
iter:  32 03:10:19  -276.365305c -5.59  -4.63c
iter:  33 03:12:43  -276.365308c -5.77  -4.73c
iter:  34 03:15:18  -276.365307c -5.79  -4.71c
Writing to output.gpw (mode='')

iter:  35 03:17:52  -276.365307c -5.76  -4.68c
iter:  36 03:20:21  -276.365310c -5.89  -4.85c
iter:  37 03:22:52  -276.365309c -6.00  -4.90c
iter:  38 03:25:26  -276.365310c -5.96  -4.81c
iter:  39 03:28:08  -276.365312c -5.94  -4.81c
Writing to output.gpw (mode='')

iter:  40 03:30:56  -276.365314c -6.20  -4.79c
iter:  41 03:33:30  -276.365313c -6.23  -4.83c
iter:  42 03:35:57  -276.365314c -6.27  -4.77c
iter:  43 03:38:30  -276.365318c -6.31  -4.87c
iter:  44 03:41:03  -276.365318c -6.34  -5.02c
Writing to output.gpw (mode='')

iter:  45 03:43:43  -276.365320c -6.47  -5.06c
iter:  46 03:46:22  -276.365322c -6.32  -5.11c
iter:  47 03:48:52  -276.365321c -6.51  -5.28c
iter:  48 03:51:26  -276.365322c -6.56  -5.32c
iter:  49 03:53:51  -276.365322c -6.77  -5.37c
Writing to output.gpw (mode='')

iter:  50 03:56:32  -276.365323c -6.82  -5.50c
iter:  51 03:59:02  -276.365323c -6.99  -5.61c
iter:  52 04:01:30  -276.365323c -7.06  -5.71c
iter:  53 04:04:14  -276.365323c -7.15  -5.83c
iter:  54 04:06:49  -276.365322c -7.14  -5.80c
Writing to output.gpw (mode='')

iter:  55 04:09:23  -276.365323c -7.25  -5.58c
iter:  56 04:11:57  -276.365323c -7.18  -5.65c
iter:  57 04:14:33  -276.365323c -7.20  -5.65c
iter:  58 04:17:09  -276.365323c -7.22  -5.62c
iter:  59 04:19:52  -276.365323c -7.34  -5.62c
Writing to output.gpw (mode='')

iter:  60 04:22:32  -276.365323c -7.45c -5.52c

Converged after 60 iterations.

Dipole moment: (-1.442346, -4.644010, 0.411998) |e|*Ang

Energy contributions relative to reference atoms: (reference = -13382.245603)

Kinetic:       +169.978934
Potential:     -150.751109
External:        +0.000000
XC:            -296.182187
Entropy (-ST):   -0.161278
Local:           +0.669678
--------------------------
Free energy:   -276.445962
Extrapolated:  -276.365323

Dipole-layer corrected work functions: 3.375392, 2.583390 eV

Showing only first 2 kpts
 Kpt  Band  Eigenvalues  Occupancy
  0    28     -3.22925    1.98658
  0    29     -3.14515    1.92990
  0    30     -2.85485    0.15300
  0    31     -2.73782    0.01582

  1    28     -3.01922    1.37850
  1    29     -2.99337    1.13888
  1    30     -2.93821    0.61000
  1    31     -2.89531    0.31378


Fermi level: -2.97939

Gap: 0.020 eV
Transition (v -> c):
  (s=0, k=2, n=29, [0.12, 0.12, 0.00]) -> (s=0, k=7, n=30, [0.38, 0.38, 0.00])

Forces in eV/Ang:
  0 Li    0.02232    0.00622   -0.27211
  1 Li   -0.02197    0.00595   -0.27410
  2 Li   -0.00061   -0.01154   -0.27898
  3 Li    0.01046   -0.00420   -0.27451
  4 Li   -0.01112   -0.00493   -0.27360
  5 Li    0.00142    0.02136   -0.27316
  6 Li   -0.00426   -0.00020   -0.27345
  7 Li    0.00399    0.00155   -0.27625
  8 Li    0.00032   -0.01218   -0.26647
  9 Li   -0.00302   -0.01040    0.28334
 10 Li    0.00241    0.01719    0.25350
 11 Li    0.00111   -0.01101    0.28019
 12 Li   -0.00731   -0.00071    0.31390
 13 Li   -0.00058   -0.00620    0.22850
 14 Li    0.00783   -0.00180    0.31545
 15 Li   -0.00127    0.01563    0.24663
 16 Li   -0.00205   -0.01245    0.27677
 17 Li    0.00286    0.01573    0.25155
 18 Li   -0.01652    0.00876    0.05168
 19 Li    0.01674    0.01126    0.05137
 20 Li    0.00117   -0.02150   -0.18907
 21 Li   -0.02934   -0.02305    0.06017
 22 Li    0.02837   -0.02221    0.05948
 23 Li    0.00034    0.04067   -0.06306
 24 Li    0.00369    0.01016    0.03726
 25 Li   -0.00529    0.00706    0.03230
 26 Li    0.00118    0.00035    0.06273
 27 Li    0.05222   -0.10999   -0.05952
 28 Li    0.00483    0.02770   -0.00662
 29 Li   -0.07656   -0.12683   -0.11182
 30 Li   -0.07744    0.03691    0.06314
 31 Li    0.00196   -0.00910   -0.02590
 32 Li    0.09016    0.05341    0.07725
 33 Li    0.01355    0.04660   -0.02953
 34 Li   -0.00104   -0.01639   -0.01182
 35 Li   -0.01208    0.05586   -0.02219
 36 O    -0.15487   -5.41232   10.74075
 37 C     0.18992   -0.20615    3.07302
 38 H     0.17792   -0.14125    0.65250
 39 H    -0.20416   -0.00846    0.42425
 40 H     0.03958    0.13118    0.13299
 41 H    -0.97741   -2.72888    1.88637
 42 N     1.04424   -0.09160  -10.10774
 43 N    -0.13556    8.50729   -6.71638

System changes: positions 

Initializing position-dependent things.

Density initialized from wave functions
       .-----------------------.  
      /|                       |  
     / |                       |  
    /  |                       |  
   /   |                       |  
  /    |                       |  
 *     |                       |  
 |     |                       |  
 |     |                       |  
 |     |                       |  
 |     |                       |  
 |     |                       |  
 |     |               H       |  
 |     |           H  CH       |  
 |     Li              Li      |  
 |     |              O        |  
 |   Li|     Li      HiN       |  
 |     |  Li      Li  N   Li   |  
 |     |   Li      Li      Li  |  
 |     |Li      Li      Li     |  
 |     | Li                    |  
 |   LLi     LLi     LLi       |  
 |     |  Li      Li      Li   |  
 | Li  |   Li      Li          |  
 |     |Li      Li      Li     |  
 Li    | Li      Li            |  
 |    Li      Li      Li       |  
 |     |                       |  
 |     |                       |  
 |     |                       |  
 |     |                       |  
 |     |                       |  
 |     |                       |  
 |     .-----------------------.  
 |    /                       /   
 |   /                       /    
 |  /                       /     
 | /                       /      
 |/                       /       
 *-----------------------*        

Positions:
   0 Li     1.617037    1.617037   10.000000    ( 0.0000,  0.0000,  0.0000)
   1 Li     4.851111    1.617037   10.000000    ( 0.0000,  0.0000,  0.0000)
   2 Li     8.085185    1.617037   10.000000    ( 0.0000,  0.0000,  0.0000)
   3 Li     1.617037    4.851111   10.000000    ( 0.0000,  0.0000,  0.0000)
   4 Li     4.851111    4.851111   10.000000    ( 0.0000,  0.0000,  0.0000)
   5 Li     8.085185    4.851111   10.000000    ( 0.0000,  0.0000,  0.0000)
   6 Li     1.617037    8.085185   10.000000    ( 0.0000,  0.0000,  0.0000)
   7 Li     4.851111    8.085185   10.000000    ( 0.0000,  0.0000,  0.0000)
   8 Li     8.085185    8.085185   10.000000    ( 0.0000,  0.0000,  0.0000)
   9 Li     0.000000    0.000000   11.617037    ( 0.0000,  0.0000,  0.0000)
  10 Li     3.234074    0.000000   11.617037    ( 0.0000,  0.0000,  0.0000)
  11 Li     6.468148    0.000000   11.617037    ( 0.0000,  0.0000,  0.0000)
  12 Li     0.000000    3.234074   11.617037    ( 0.0000,  0.0000,  0.0000)
  13 Li     3.234074    3.234074   11.617037    ( 0.0000,  0.0000,  0.0000)
  14 Li     6.468148    3.234074   11.617037    ( 0.0000,  0.0000,  0.0000)
  15 Li     0.000000    6.468148   11.617037    ( 0.0000,  0.0000,  0.0000)
  16 Li     3.234074    6.468148   11.617037    ( 0.0000,  0.0000,  0.0000)
  17 Li     6.468148    6.468148   11.617037    ( 0.0000,  0.0000,  0.0000)
  18 Li     1.616688    1.617227   13.470784    ( 0.0000,  0.0000,  0.0000)
  19 Li     4.851443    1.617281   13.470804    ( 0.0000,  0.0000,  0.0000)
  20 Li     8.085224    1.616505   13.465637    ( 0.0000,  0.0000,  0.0000)
  21 Li     1.616398    4.850616   13.471008    ( 0.0000,  0.0000,  0.0000)
  22 Li     4.851743    4.850620   13.470968    ( 0.0000,  0.0000,  0.0000)
  23 Li     8.085189    4.851978   13.468382    ( 0.0000,  0.0000,  0.0000)
  24 Li     1.617115    8.085392   13.470470    ( 0.0000,  0.0000,  0.0000)
  25 Li     4.851015    8.085341   13.470443    ( 0.0000,  0.0000,  0.0000)
  26 Li     8.085200    8.085212   13.471094    ( 0.0000,  0.0000,  0.0000)
  27 Li     0.001106   -0.002199   15.444799    ( 0.0000,  0.0000,  0.0000)
  28 Li     3.234206    0.000550   15.445765    ( 0.0000,  0.0000,  0.0000)
  29 Li     6.466456   -0.002591   15.443276    ( 0.0000,  0.0000,  0.0000)
  30 Li    -0.001036    3.234675   15.447048    ( 0.0000,  0.0000,  0.0000)
  31 Li     3.234138    3.233899   15.445377    ( 0.0000,  0.0000,  0.0000)
  32 Li     6.469347    3.235096   15.447200    ( 0.0000,  0.0000,  0.0000)
  33 Li     0.000223    6.469068   15.445335    ( 0.0000,  0.0000,  0.0000)
  34 Li     3.234059    6.467824   15.445706    ( 0.0000,  0.0000,  0.0000)
  35 Li     6.467941    6.469296   15.445467    ( 0.0000,  0.0000,  0.0000)
  36 O      8.079222    1.535409   18.567682    ( 0.0000,  0.0000,  0.0000)
  37 C      8.080425    1.593081   19.934252    ( 0.0000,  0.0000,  0.0000)
  38 H      8.772493    0.847730   20.300699    ( 0.0000,  0.0000,  0.0000)
  39 H      7.072452    1.423816   20.294652    ( 0.0000,  0.0000,  0.0000)
  40 H      8.414482    2.593408   20.201771    ( 0.0000,  0.0000,  0.0000)
  41 H      7.782192    0.726314   18.168405    ( 0.0000,  0.0000,  0.0000)
  42 N      8.103547    1.674279   17.027176    ( 0.0000,  0.0000,  0.0000)
  43 N      8.080822    2.773989   17.110982    ( 0.0000,  0.0000,  0.0000)

Unit cell:
           periodic     x           y           z      points  spacing
  1. axis:    yes    9.702222    0.000000    0.000000    60     0.1617
  2. axis:    yes    0.000000    9.702222    0.000000    60     0.1617
  3. axis:    no     0.000000    0.000000   26.601111   168     0.1583

  Lengths:   9.702222   9.702222  26.601111
  Angles:   90.000000  90.000000  90.000000

Effective grid spacing dv^(1/3) = 0.1606

     iter     time        total  log10-change:
                         energy  eigst   dens
iter:   1 04:25:50  -277.129471  -0.83
iter:   2 04:28:31  -277.119851  -1.29  -1.87
iter:   3 04:31:05  -277.116956c -1.80  -2.04
iter:   4 04:33:33  -277.115216c -1.96  -2.32
Writing to output.gpw (mode='')

iter:   5 04:36:15  -277.107707c -1.87  -2.37
iter:   6 04:38:43  -277.109442c -2.48  -2.33
iter:   7 04:41:10  -277.109181c -2.38  -2.49
iter:   8 04:44:02  -277.106823c -2.44  -2.52
iter:   9 04:46:39  -277.106521c -3.02  -2.85
Writing to output.gpw (mode='')

iter:  10 04:49:26  -277.106946c -3.38  -2.96
iter:  11 04:52:08  -277.107103c -3.24  -3.05
iter:  12 04:54:54  -277.106848c -3.39  -3.15
iter:  13 04:57:35  -277.106856c -3.66  -3.36
iter:  14 05:00:08  -277.106879c -3.68  -3.41
Writing to output.gpw (mode='')

iter:  15 05:02:44  -277.106919c -4.05  -3.64
iter:  16 05:05:24  -277.106879c -3.96  -3.66
iter:  17 05:08:01  -277.106904c -4.29  -3.77
iter:  18 05:10:37  -277.106944c -4.25  -3.81
iter:  19 05:13:14  -277.106954c -4.56  -3.87
Writing to output.gpw (mode='')

iter:  20 05:15:44  -277.106964c -4.64  -3.87
iter:  21 05:18:19  -277.106963c -4.84  -3.89
iter:  22 05:21:03  -277.107002c -5.00  -3.99
iter:  23 05:23:37  -277.106997c -4.99  -4.05c
iter:  24 05:26:20  -277.106991c -4.96  -4.11c
Writing to output.gpw (mode='')

iter:  25 05:28:51  -277.107002c -5.18  -4.11c
iter:  26 05:31:24  -277.106995c -5.26  -4.10c
iter:  27 05:34:08  -277.107000c -5.57  -4.08c
iter:  28 05:36:54  -277.106993c -5.40  -4.12c
iter:  29 05:39:34  -277.106991c -5.79  -4.08c
Writing to output.gpw (mode='')

iter:  30 05:42:11  -277.106997c -5.62  -4.06c
iter:  31 05:44:51  -277.107013c -5.57  -4.14c
iter:  32 05:47:29  -277.107007c -6.04  -4.18c
iter:  33 05:49:54  -277.107002c -5.67  -4.31c
iter:  34 05:52:23  -277.107003c -5.85  -4.50c
Writing to output.gpw (mode='')

iter:  35 05:55:01  -277.107009c -5.85  -4.50c
iter:  36 05:57:40  -277.107002c -6.06  -4.63c
iter:  37 06:00:18  -277.107008c -6.12  -4.52c
iter:  38 06:03:04  -277.107009c -6.31  -4.64c
iter:  39 06:05:35  -277.107010c -6.40  -4.67c
Writing to output.gpw (mode='')

iter:  40 06:08:02  -277.107008c -6.26  -4.86c
iter:  41 06:10:35  -277.107009c -6.69  -5.05c
iter:  42 06:12:58  -277.107009c -6.86  -5.11c
iter:  43 06:15:27  -277.107012c -6.72  -5.15c
iter:  44 06:17:56  -277.107011c -6.62  -5.25c
Writing to output.gpw (mode='')

iter:  45 06:20:26  -277.107011c -7.08  -5.57c
iter:  46 06:22:57  -277.107011c -6.95  -5.57c
iter:  47 06:25:31  -277.107011c -7.20  -5.61c
iter:  48 06:28:09  -277.107011c -7.08  -5.61c
iter:  49 06:30:39  -277.107011c -6.99  -5.62c
Writing to output.gpw (mode='')

iter:  50 06:33:13  -277.107012c -7.42c -5.58c

Converged after 50 iterations.

Dipole moment: (-1.526043, -4.520563, 0.363996) |e|*Ang

Energy contributions relative to reference atoms: (reference = -13382.245603)

Kinetic:       +167.718663
Potential:     -149.534797
External:        +0.000000
XC:            -295.881934
Entropy (-ST):   -0.161154
Local:           +0.671634
--------------------------
Free energy:   -277.187589
Extrapolated:  -277.107012

Dipole-layer corrected work functions: 3.378802, 2.679077 eV

Showing only first 2 kpts
 Kpt  Band  Eigenvalues  Occupancy
  0    28     -3.27873    1.98656
  0    29     -3.19690    1.93281
  0    30     -2.90261    0.14802
  0    31     -2.79086    0.01696

  1    28     -3.06531    1.34846
  1    29     -3.04461    1.15539
  1    30     -2.99032    0.63196
  1    31     -2.94111    0.29446


Fermi level: -3.02894

Gap: 0.022 eV
Transition (v -> c):
  (s=0, k=2, n=29, [0.12, 0.12, 0.00]) -> (s=0, k=7, n=30, [0.38, 0.38, 0.00])

Forces in eV/Ang:
  0 Li    0.02294    0.00600   -0.27201
  1 Li   -0.02270    0.00580   -0.27400
  2 Li   -0.00056   -0.01142   -0.27859
  3 Li    0.01002   -0.00342   -0.27467
  4 Li   -0.01059   -0.00418   -0.27403
  5 Li    0.00145    0.02224   -0.27319
  6 Li   -0.00396    0.00005   -0.27429
  7 Li    0.00379    0.00181   -0.27687
  8 Li    0.00033   -0.01366   -0.26636
  9 Li   -0.00295   -0.01033    0.28290
 10 Li    0.00251    0.01708    0.25282
 11 Li    0.00110   -0.01070    0.27963
 12 Li   -0.00735   -0.00053    0.31450
 13 Li   -0.00061   -0.00726    0.22883
 14 Li    0.00800   -0.00167    0.31633
 15 Li   -0.00153    0.01650    0.24508
 16 Li   -0.00193   -0.01282    0.27568
 17 Li    0.00279    0.01628    0.24979
 18 Li   -0.01679    0.00831    0.05137
 19 Li    0.01688    0.01077    0.05116
 20 Li    0.00156   -0.02085   -0.18532
 21 Li   -0.02906   -0.02341    0.05974
 22 Li    0.02779   -0.02276    0.05893
 23 Li    0.00062    0.03921   -0.05694
 24 Li    0.00301    0.00960    0.03733
 25 Li   -0.00462    0.00686    0.03358
 26 Li    0.00104   -0.00006    0.05972
 27 Li    0.04581   -0.09949   -0.05106
 28 Li    0.00456    0.02712   -0.00804
 29 Li   -0.07289   -0.11981   -0.11001
 30 Li   -0.05286    0.03146    0.05078
[...]
iter:   7 00:11:37  -284.382313c -4.48  -3.45
iter:   8 00:14:21  -284.382338c -4.88  -3.73
iter:   9 00:16:57  -284.382319c -5.25  -3.77
Writing to output.gpw (mode='')

iter:  10 00:19:36  -284.382326c -5.41  -4.00
iter:  11 00:22:12  -284.382321c -5.86  -4.07c
iter:  12 00:24:48  -284.382313c -5.74  -4.15c
iter:  13 00:27:14  -284.382321c -6.07  -4.32c
iter:  14 00:29:52  -284.382321c -6.44  -4.39c
Writing to output.gpw (mode='')

iter:  15 00:32:27  -284.382322c -6.55  -4.41c
iter:  16 00:35:07  -284.382322c -6.40  -4.36c
iter:  17 00:37:40  -284.382319c -6.78  -4.56c
iter:  18 00:40:16  -284.382320c -7.08  -4.79c
iter:  19 00:42:54  -284.382317c -6.57  -4.76c
Writing to output.gpw (mode='')

iter:  20 00:45:33  -284.382316c -6.95  -4.76c
iter:  21 00:48:04  -284.382316c -7.32  -4.74c
iter:  22 00:50:39  -284.382316c -7.55c -4.73c

Converged after 22 iterations.

Dipole moment: (-0.571190, -4.036122, 0.148566) |e|*Ang

Energy contributions relative to reference atoms: (reference = -13382.245603)

Kinetic:       +129.453320
Potential:     -120.857533
External:        +0.000000
XC:            -293.627952
Entropy (-ST):   -0.161454
Local:           +0.730576
--------------------------
Free energy:   -284.463043
Extrapolated:  -284.382316

Dipole-layer corrected work functions: 3.400632, 3.115038 eV

Showing only first 2 kpts
 Kpt  Band  Eigenvalues  Occupancy
  0    28     -3.45198    1.95965
  0    29     -3.27538    1.17371
  0    30     -3.24527    0.87496
  0    31     -3.14743    0.19807

  1    28     -3.57148    1.99623
  1    29     -3.20942    0.55043
  1    30     -3.14803    0.20021
  1    31     -3.13978    0.17238


Fermi level: -3.25783

No gap
Writing to output.gpw (mode='')


Forces in eV/Ang:
  0 Li   -0.00600   -0.01059   -0.29161
  1 Li    0.00755    0.00965   -0.29490
  2 Li    0.00050    0.00010   -0.25158
  3 Li    0.01615    0.01299   -0.28558
  4 Li   -0.00750    0.00543   -0.29097
  5 Li   -0.00888   -0.00898   -0.29455
  6 Li    0.00805   -0.00887   -0.29098
  7 Li   -0.01281   -0.01634   -0.28586
  8 Li    0.01168    0.00521   -0.29294
  9 Li   -0.03367    0.04193    0.31641
 10 Li    0.00172    0.02553    0.29154
 11 Li    0.04336    0.05268    0.28441
 12 Li   -0.03177   -0.02627    0.25590
 13 Li   -0.02576   -0.01306    0.28708
 14 Li    0.03233   -0.02348    0.32480
 15 Li   -0.01749   -0.01283    0.28913
 16 Li   -0.01923    0.01073    0.29114
 17 Li    0.02441    0.01563    0.29600
 18 Li   -0.00760    0.00826    0.00236
 19 Li    0.00168    0.00087    0.00097
 20 Li   -0.00793   -0.00586    0.01603
 21 Li   -0.00717    0.00059   -0.00092
 22 Li    0.00795   -0.00738    0.00046
 23 Li   -0.00005   -0.00254    0.00840
 24 Li    0.00636   -0.00738    0.00175
 25 Li   -0.01056   -0.00191    0.00364
 26 Li   -0.00778    0.00389    0.00211
 27 Li    0.00421   -0.00676   -0.02479
 28 Li   -0.01007   -0.00140    0.00422
 29 Li    0.02575   -0.01246   -0.00703
 30 Li    0.00617   -0.02303    0.01042
 31 Li    0.01014   -0.00120   -0.00133
 32 Li    0.00463   -0.01365   -0.00194
 33 Li   -0.00045    0.00282   -0.00216
 34 Li   -0.00220    0.00422    0.00426
 35 Li    0.00172   -0.01767    0.00362
 36 O     0.04077    0.06314   -0.03813
 37 C    -0.01313   -0.00681    0.00146
 38 H     0.02345   -0.02441    0.01136
 39 H    -0.04365   -0.00412   -0.01951
 40 H     0.01639    0.01409    0.02146
 41 H    -0.01569   -0.02989   -0.03935
 42 N    -0.02454    0.02438   -0.00045
 43 N     0.00754   -0.03450   -0.01039

System changes: positions 

Initializing position-dependent things.

Density initialized from wave functions
       .-----------------------.  
      /|                       |  
     / |                       |  
    /  |                       |  
   /   |                       |  
  /    |                       |  
 *     |                       |  
 |     |                       |  
 |     |                       |  
 |     |                       |  
 |     |                       |  
 |     |                       |  
 |     |               H       |  
 |     |           H  CH       |  
 |     Li      Li      O       |  
 |     |              H        |  
 |   Li|     Li      Li        |  
 |     |  Li      Li      Li   |  
 |     |   Li      LiN    Li   |  
 |     |Li      Li     NLi     |  
 |     |          Li           |  
 |   LLi     LLi     LLi       |  
 |     |  Li      Li      Li   |  
 | Li  |   Li      Li          |  
 |     |Li      Li      Li     |  
 Li    | Li      Li            |  
 |    Li      Li      Li       |  
 |     |                       |  
 |     |                       |  
 |     |                       |  
 |     |                       |  
 |     |                       |  
 |     |                       |  
 |     .-----------------------.  
 |    /                       /   
 |   /                       /    
 |  /                       /     
 | /                       /      
 |/                       /       
 *-----------------------*        

Positions:
   0 Li     1.617037    1.617037   10.000000    ( 0.0000,  0.0000,  0.0000)
   1 Li     4.851111    1.617037   10.000000    ( 0.0000,  0.0000,  0.0000)
   2 Li     8.085185    1.617037   10.000000    ( 0.0000,  0.0000,  0.0000)
   3 Li     1.617037    4.851111   10.000000    ( 0.0000,  0.0000,  0.0000)
   4 Li     4.851111    4.851111   10.000000    ( 0.0000,  0.0000,  0.0000)
   5 Li     8.085185    4.851111   10.000000    ( 0.0000,  0.0000,  0.0000)
   6 Li     1.617037    8.085185   10.000000    ( 0.0000,  0.0000,  0.0000)
   7 Li     4.851111    8.085185   10.000000    ( 0.0000,  0.0000,  0.0000)
   8 Li     8.085185    8.085185   10.000000    ( 0.0000,  0.0000,  0.0000)
   9 Li     0.000000    0.000000   11.617037    ( 0.0000,  0.0000,  0.0000)
  10 Li     3.234074    0.000000   11.617037    ( 0.0000,  0.0000,  0.0000)
  11 Li     6.468148    0.000000   11.617037    ( 0.0000,  0.0000,  0.0000)
  12 Li     0.000000    3.234074   11.617037    ( 0.0000,  0.0000,  0.0000)
  13 Li     3.234074    3.234074   11.617037    ( 0.0000,  0.0000,  0.0000)
  14 Li     6.468148    3.234074   11.617037    ( 0.0000,  0.0000,  0.0000)
  15 Li     0.000000    6.468148   11.617037    ( 0.0000,  0.0000,  0.0000)
  16 Li     3.234074    6.468148   11.617037    ( 0.0000,  0.0000,  0.0000)
  17 Li     6.468148    6.468148   11.617037    ( 0.0000,  0.0000,  0.0000)
  18 Li     1.589421    1.572043   13.520148    ( 0.0000,  0.0000,  0.0000)
  19 Li     4.846138    1.683719   13.503533    ( 0.0000,  0.0000,  0.0000)
  20 Li     8.112029    1.652177   13.588896    ( 0.0000,  0.0000,  0.0000)
  21 Li     1.543619    4.782441   13.505908    ( 0.0000,  0.0000,  0.0000)
  22 Li     4.799959    4.904541   13.487360    ( 0.0000,  0.0000,  0.0000)
  23 Li     8.042163    4.846320   13.518207    ( 0.0000,  0.0000,  0.0000)
  24 Li     1.636836    8.059051   13.497370    ( 0.0000,  0.0000,  0.0000)
  25 Li     4.911984    8.160624   13.478148    ( 0.0000,  0.0000,  0.0000)
  26 Li     8.141243    8.111646   13.505710    ( 0.0000,  0.0000,  0.0000)
  27 Li     0.078071   -0.103180   15.531297    ( 0.0000,  0.0000,  0.0000)
  28 Li     3.370834   -0.056139   15.428349    ( 0.0000,  0.0000,  0.0000)
  29 Li     6.649602    0.288043   15.528467    ( 0.0000,  0.0000,  0.0000)
  30 Li    -0.298146    3.005651   15.730047    ( 0.0000,  0.0000,  0.0000)
  31 Li     3.048458    3.281952   15.456241    ( 0.0000,  0.0000,  0.0000)
  32 Li     6.313147    3.399804   15.510561    ( 0.0000,  0.0000,  0.0000)
  33 Li     0.056878    6.335641   15.454996    ( 0.0000,  0.0000,  0.0000)
  34 Li     3.245593    6.465630   15.433682    ( 0.0000,  0.0000,  0.0000)
  35 Li     6.422434    6.680539   15.432208    ( 0.0000,  0.0000,  0.0000)
  36 O      8.514968    1.754956   18.992096    ( 0.0000,  0.0000,  0.0000)
  37 C      8.135501    1.513154   20.349191    ( 0.0000,  0.0000,  0.0000)
  38 H      8.598509    0.606725   20.752011    ( 0.0000,  0.0000,  0.0000)
  39 H      7.049216    1.441426   20.465441    ( 0.0000,  0.0000,  0.0000)
  40 H      8.487887    2.367895   20.922943    ( 0.0000,  0.0000,  0.0000)
  41 H      8.268623    0.990480   18.457474    ( 0.0000,  0.0000,  0.0000)
  42 N      8.475911    1.189836   15.623810    ( 0.0000,  0.0000,  0.0000)
  43 N      7.593049    2.088641   15.597670    ( 0.0000,  0.0000,  0.0000)

Unit cell:
           periodic     x           y           z      points  spacing
  1. axis:    yes    9.702222    0.000000    0.000000    60     0.1617
  2. axis:    yes    0.000000    9.702222    0.000000    60     0.1617
  3. axis:    no     0.000000    0.000000   26.601111   168     0.1583

  Lengths:   9.702222   9.702222  26.601111
  Angles:   90.000000  90.000000  90.000000

Effective grid spacing dv^(1/3) = 0.1606

     iter     time        total  log10-change:
                         energy  eigst   dens
iter:   1 00:53:59  -284.382878  -2.57
iter:   2 00:56:38  -284.382849  -3.26  -2.76
iter:   3 00:59:19  -284.382719c -3.83  -2.96
iter:   4 01:01:57  -284.382684c -4.05  -3.18
Writing to output.gpw (mode='')

iter:   5 01:04:33  -284.382580c -3.98  -3.31
iter:   6 01:07:10  -284.382548c -3.88  -3.50
iter:   7 01:09:42  -284.382605c -4.74  -3.47
iter:   8 01:12:19  -284.382641c -4.32  -3.73
iter:   9 01:14:48  -284.382607c -5.17  -3.61
Writing to output.gpw (mode='')

iter:  10 01:17:35  -284.382572c -4.88  -3.84
iter:  11 01:20:05  -284.382596c -5.38  -3.91
iter:  12 01:22:46  -284.382582c -5.87  -4.14c
iter:  13 01:25:32  -284.382570c -5.33  -4.24c
iter:  14 01:28:09  -284.382576c -6.30  -4.07c
Writing to output.gpw (mode='')

iter:  15 01:30:53  -284.382593c -5.66  -4.20c
iter:  16 01:33:30  -284.382583c -5.90  -4.33c
iter:  17 01:36:03  -284.382589c -6.78  -4.55c
iter:  18 01:38:41  -284.382588c -6.95  -4.73c
iter:  19 01:41:20  -284.382588c -7.07  -4.92c
Writing to output.gpw (mode='')

iter:  20 01:44:05  -284.382587c -7.47c -4.98c

Converged after 20 iterations.

Dipole moment: (-0.571517, -4.022603, 0.148984) |e|*Ang

Energy contributions relative to reference atoms: (reference = -13382.245603)

Kinetic:       +129.386555
Potential:     -120.812472
External:        +0.000000
XC:            -293.605910
Entropy (-ST):   -0.161458
Local:           +0.729968
--------------------------
Free energy:   -284.463316
Extrapolated:  -284.382587

Dipole-layer corrected work functions: 3.400575, 3.114176 eV

Showing only first 2 kpts
 Kpt  Band  Eigenvalues  Occupancy
  0    28     -3.45138    1.95953
  0    29     -3.27498    1.17424
  0    30     -3.24480    0.87494
  0    31     -3.14695    0.19797

  1    28     -3.57092    1.99623
  1    29     -3.20899    0.55067
  1    30     -3.14760    0.20030
  1    31     -3.13936    0.17251


Fermi level: -3.25738

No gap

Forces in eV/Ang:
  0 Li   -0.00605   -0.01050   -0.29165
  1 Li    0.00755    0.00971   -0.29491
  2 Li    0.00048    0.00015   -0.25164
  3 Li    0.01610    0.01304   -0.28559
  4 Li   -0.00754    0.00543   -0.29097
  5 Li   -0.00882   -0.00889   -0.29457
  6 Li    0.00807   -0.00887   -0.29110
  7 Li   -0.01283   -0.01624   -0.28592
  8 Li    0.01173    0.00537   -0.29299
  9 Li   -0.03343    0.04147    0.31660
 10 Li    0.00157    0.02549    0.29156
 11 Li    0.04340    0.05234    0.28439
 12 Li   -0.03176   -0.02681    0.25623
 13 Li   -0.02572   -0.01315    0.28696
 14 Li    0.03270   -0.02413    0.32506
 15 Li   -0.01753   -0.01325    0.28907
 16 Li   -0.01914    0.01027    0.29119
 17 Li    0.02438    0.01524    0.29612
 18 Li   -0.00733    0.00825    0.00203
 19 Li    0.00200    0.00059    0.00138
 20 Li   -0.00891   -0.00394    0.01620
 21 Li   -0.00694    0.00025   -0.00054
 22 Li    0.00768   -0.00711    0.00065
 23 Li    0.00015   -0.00251    0.00847
 24 Li    0.00600   -0.00697    0.00165
 25 Li   -0.00995   -0.00205    0.00397
 26 Li   -0.00758    0.00370    0.00188
 27 Li    0.00292   -0.00496   -0.02469
 28 Li   -0.01050   -0.00109    0.00422
 29 Li    0.01963   -0.01738   -0.00707
 30 Li   -0.00100   -0.02786    0.00989
 31 Li    0.01026   -0.00078   -0.00178
 32 Li   -0.00432   -0.00451   -0.00207
 33 Li   -0.00058    0.00354   -0.00238
 34 Li   -0.00208    0.00368    0.00428
 35 Li    0.00146   -0.01776    0.00356
 36 O     0.03029    0.01866   -0.03353
 37 C    -0.00467    0.00586   -0.00487
 38 H     0.00926   -0.02028   -0.00326
 39 H    -0.03413   -0.01253   -0.01923
 40 H     0.01388    0.02015    0.02362
 41 H    -0.00904   -0.00363   -0.02561
 42 N    -0.00452    0.02621   -0.00542
 43 N     0.01958   -0.02370   -0.01530

Timing:                                      incl.     excl.
-------------------------------------------------------------------
Density initialized from wave functions:   241.662   241.659   0.0% |
 Symmetrize density:                         0.003     0.003   0.0% |
Forces:                                    823.902   823.902   0.1% |
Hamiltonian:                             10025.875     0.020   0.0% |
 Atomic:                                    16.552     0.175   0.0% |
  XC Correction:                            16.377    16.377   0.0% |
 Calculate atomic Hamiltonians:             52.667    52.667   0.0% |
 Communicate:                               51.955    51.955   0.0% |
 Hartree integrate/restrict:                20.216    20.216   0.0% |
 Initialize Hamiltonian:                     0.000     0.000   0.0% |
 Poisson:                                  420.588   187.938   0.0% |
  Communicate from 1D:                      30.993    30.993   0.0% |
  Communicate from 2D:                      54.164    54.164   0.0% |
  Communicate to 1D:                        12.456    12.456   0.0% |
  Communicate to 2D:                        49.132    49.132   0.0% |
  FFT 1D:                                   41.729    41.729   0.0% |
  FFT 2D:                                   44.176    44.176   0.0% |
 XC 3D grid:                              9458.944  1026.995   0.2% |
  VdW-DF integral:                        8431.949    20.658   0.0% |
   Convolution:                            565.893   565.893   0.1% |
   FFT:                                     98.241    98.241   0.0% |
   gather:                                6612.749  6612.749   1.2% |
   hmm1:                                   108.090   108.090   0.0% |
   hmm2:                                   141.550   141.550   0.0% |
   iFFT:                                   106.892   106.892   0.0% |
   potential:                              763.399     9.205   0.0% |
    collect:                                68.600    68.600   0.0% |
    p1:                                    308.329   308.329   0.1% |
    p2:                                    203.048   203.048   0.0% |
    sum:                                   174.217   174.217   0.0% |
   splines:                                 14.478    14.478   0.0% |
 vbar:                                       4.934     4.934   0.0% |
LCAO initialization:                        12.967     0.820   0.0% |
 LCAO eigensolver:                           3.535     0.001   0.0% |
  Calculate projections:                     0.000     0.000   0.0% |
  DenseAtomicCorrection:                     0.000     0.000   0.0% |
  Distribute overlap matrix:                 3.354     3.354   0.0% |
  Orbital Layouts:                           0.073     0.073   0.0% |
  Potential matrix:                          0.103     0.103   0.0% |
  Sum over cells:                            0.004     0.004   0.0% |
 LCAO to grid:                               6.615     6.615   0.0% |
 Set positions (LCAO WFS):                   1.996     1.608   0.0% |
  Basic WFS set positions:                   0.004     0.004   0.0% |
  Basis functions set positions:             0.001     0.001   0.0% |
  P tci:                                     0.001     0.001   0.0% |
  ST tci:                                    0.288     0.288   0.0% |
  mktci:                                     0.094     0.094   0.0% |
Redistribute:                                0.125     0.125   0.0% |
SCF-cycle:                               555890.955  8011.485   1.4% ||
 Davidson:                               169331.350 69225.363  12.1% |----|
  Apply hamiltonian:                     10661.775 10661.775   1.9% ||
  Subspace diag:                         23693.772     1.203   0.0% |
   calc_h_matrix:                        14626.013  4150.641   0.7% |
    Apply hamiltonian:                   10475.372 10475.372   1.8% ||
   diagonalize:                            813.371   813.371   0.1% |
   rotate_psi:                            8253.185  8253.185   1.4% ||
  calc. matrices:                        49823.829 30545.691   5.4% |-|
   Apply hamiltonian:                    19278.138 19278.138   3.4% ||
  diagonalize:                              65.042    65.042   0.0% |
  rotate_psi:                            15861.568 15861.568   2.8% ||
 Density:                                 3763.501     0.191   0.0% |
  Atomic density matrices:                 908.485   908.485   0.2% |
  Mix:                                    1282.496  1282.496   0.2% |
  Multipole moments:                        14.698    14.698   0.0% |
  Pseudo density:                         1557.630  1557.505   0.3% |
   Symmetrize density:                       0.125     0.125   0.0% |
 Hamiltonian:                            374463.394     1.001   0.0% |
  Atomic:                                  599.548     8.028   0.0% |
   XC Correction:                          591.520   591.520   0.1% |
  Calculate atomic Hamiltonians:          1957.831  1957.831   0.3% |
  Communicate:                            1928.175  1928.175   0.3% |
  Hartree integrate/restrict:              729.287   729.287   0.1% |
  Poisson:                               15912.164  7211.079   1.3% ||
   Communicate from 1D:                   1167.887  1167.887   0.2% |
   Communicate from 2D:                   1957.108  1957.108   0.3% |
   Communicate to 1D:                      484.514   484.514   0.1% |
   Communicate to 2D:                     1822.840  1822.840   0.3% |
   FFT 1D:                                1598.898  1598.898   0.3% |
   FFT 2D:                                1669.837  1669.837   0.3% |
  XC 3D grid:                            353155.732 38660.300   6.8% |--|
   VdW-DF integral:                      314495.432   787.811   0.1% |
    Convolution:                         21459.465 21459.465   3.8% |-|
    FFT:                                  3745.892  3745.892   0.7% |
    gather:                              246435.232 246435.232  43.2% |----------------|
    hmm1:                                 4038.650  4038.650   0.7% |
    hmm2:                                 5341.305  5341.305   0.9% |
    iFFT:                                 4018.818  4018.818   0.7% |
    potential:                           28668.220   350.887   0.1% |
     collect:                             2538.440  2538.440   0.4% |
     p1:                                 11540.655 11540.655   2.0% ||
     p2:                                  7695.424  7695.424   1.4% ||
     sum:                                 6542.815  6542.815   1.1% |
    splines:                                 0.039     0.039   0.0% |
  vbar:                                    179.657   179.657   0.0% |
 Orthonormalize:                           321.225     0.028   0.0% |
  calc_s_matrix:                            51.595    51.595   0.0% |
  inverse-cholesky:                          7.088     7.088   0.0% |
  projections:                             151.318   151.318   0.0% |
  rotate_psi_s:                            111.196   111.196   0.0% |
Set symmetry:                                0.003     0.003   0.0% |
Other:                                    2847.684  2847.684   0.5% |
-------------------------------------------------------------------
Total:                                             569843.173 100.0%

Memory usage: 1.64 GiB
Date: Mon Mar 13 01:44:14 2023
