
  ___ ___ ___ _ _ _  
 |   |   |_  | | | | 
 | | | | | . | | | | 
 |__ |  _|___|_____|  22.8.0
 |___|_|             

User:   vazumah@c07.hercules
Date:   Fri Feb 24 17:09:20 2023
Arch:   x86_64
Pid:    10610
CWD:    /home/vazumah/Python_projects/LiNRR/Li_adsorb_studies/proton_donors/N2_with_proton_donor/Li_BCC_100/adsorbates/BH3/bridge/8.085_1.617/N2_z
Python: 3.10.8
gpaw:   /home/vazumah/.conda/envs/GPAW/lib/python3.10/site-packages/gpaw
_gpaw:  /home/vazumah/.conda/envs/GPAW/lib/python3.10/site-packages/
        _gpaw.cpython-310-x86_64-linux-gnu.so
ase:    /home/vazumah/.conda/envs/GPAW/lib/python3.10/site-packages/ase (version 3.22.1)
numpy:  /home/vazumah/.conda/envs/GPAW/lib/python3.10/site-packages/numpy (version 1.24.1)
scipy:  /home/vazumah/.conda/envs/GPAW/lib/python3.10/site-packages/scipy (version 1.10.0)
libxc:  5.2.3
units:  Angstrom and eV
cores: 24
OpenMP: True
OMP_NUM_THREADS: 1

Input parameters:
  h: 0.16
  kpts: {size: [4, 4, 1]}
  occupations: {name: fermi-dirac,
                width: 0.05}
  poissonsolver: {dipolelayer: xy}
  xc: BEEF-vdW

System changes: positions, numbers, cell, pbc, initial_charges, initial_magmoms 

Initialize ...

species:
  Li:
    name: Lithium
    id: 830b4218f175192f93f959cfc0aad614
    Z: 3.0
    valence: 1
    core: 2
    charge: 0.0
    file: /home/vazumah/.conda/envs/GPAW/share/gpaw/Li.PBE.gz
    compensation charges: {type: gauss,
                           rc: 0.33,
                           lmax: 2}
    cutoffs: {filter: 1.91,
              core: 2.55}
    valence states:
      #              energy  rcut
      - 2s(1.00)    -2.874   1.058
      - 2p(0.00)    -1.090   1.058
      -  s          24.337   1.058
  
    # Using partial waves for Li as LCAO basis

  B:
    name: Boron
    id: 6e91439235a05fd7549e31636e8f777c
    Z: 5.0
    valence: 3
    core: 2
    charge: 0.0
    file: /home/vazumah/.conda/envs/GPAW/share/gpaw/B.PBE.gz
    compensation charges: {type: gauss,
                           rc: 0.20,
                           lmax: 2}
    cutoffs: {filter: 1.14,
              core: 1.38}
    valence states:
      #              energy  rcut
      - 2s(2.00)    -9.443   0.635
      - 2p(1.00)    -3.606   0.635
      -  s          17.768   0.635
      -  p          23.605   0.635
      -  d           0.000   0.635
  
    # Using partial waves for B as LCAO basis

  H:
    name: Hydrogen
    id: d65de229564ff8ea4db303e23b6d1ecf
    Z: 1.0
    valence: 1
    core: 0
    charge: 0.0
    file: /home/vazumah/.conda/envs/GPAW/share/gpaw/H.PBE.gz
    compensation charges: {type: gauss,
                           rc: 0.15,
                           lmax: 2}
    cutoffs: {filter: 0.85,
              core: 0.53}
    valence states:
      #              energy  rcut
      - 1s(1.00)    -6.494   0.476
      -  s          20.717   0.476
      -  p           0.000   0.476
  
    # Using partial waves for H as LCAO basis

  N:
    name: Nitrogen
    id: f7500608b86eaa90eef8b1d9a670dc53
    Z: 7.0
    valence: 5
    core: 2
    charge: 0.0
    file: /home/vazumah/.conda/envs/GPAW/share/gpaw/N.PBE.gz
    compensation charges: {type: gauss,
                           rc: 0.18,
                           lmax: 2}
    cutoffs: {filter: 1.11,
              core: 0.96}
    valence states:
      #              energy  rcut
      - 2s(2.00)   -18.583   0.603
      - 2p(3.00)    -7.089   0.529
      -  s           8.629   0.603
      -  p          20.123   0.529
      -  d           0.000   0.577
  
    # Using partial waves for N as LCAO basis

Reference energy: -10970.764591  # eV

Spin-paired calculation

Convergence criteria:
 Maximum [total energy] change in last 3 cyles: 0.0005 eV / electron
 Maximum integral of absolute [dens]ity change: 0.0001 electrons / valence electron
 Maximum integral of absolute [eigenst]ate change: 4e-08 eV^2 / valence electron
 Maximum number of scf [iter]ations: 333
 (Square brackets indicate name in SCF output, whereas a 'c' in
 the SCF output indicates the quantity has converged.)

Symmetries present (total): 1

  ( 1  0  0)
  ( 0  1  0)
  ( 0  0  1)

16 k-points: 4 x 4 x 1 Monkhorst-Pack grid
8 k-points in the irreducible part of the Brillouin zone
       k-points in crystal coordinates                weights
   0:     0.12500000   -0.37500000    0.00000000          2/16
   1:     0.12500000   -0.12500000    0.00000000          2/16
   2:     0.12500000    0.12500000    0.00000000          2/16
   3:     0.12500000    0.37500000    0.00000000          2/16
   4:     0.37500000   -0.37500000    0.00000000          2/16
   5:     0.37500000   -0.12500000    0.00000000          2/16
   6:     0.37500000    0.12500000    0.00000000          2/16
   7:     0.37500000    0.37500000    0.00000000          2/16

Wave functions: Uniform real-space grid
  Kinetic energy operator: 6*3+1=19 point O(h^6) finite-difference Laplacian
  ScaLapack parameters: grid=1x1, blocksize=None
  Wavefunction extrapolation:
    Improved wavefunction reuse through dual PAW basis 

Occupation numbers: Fermi-Dirac:
  width: 0.0500  # eV
 

Eigensolver
   Davidson(niter=2) 

Densities:
  Coarse grid: 60*60*156 grid
  Fine grid: 120*120*312 grid
  Total Charge: 0.000000 

Density mixing:
  Method: separate
  Backend: pulay
  Linear mixing parameter: 0.05
  old densities: 5
  Damping of long wavelength oscillations: 50 

Hamiltonian:
  XC and Coulomb potentials evaluated on a 120*120*312 grid
  Using the BEEF-vdW Exchange-Correlation functional
  Interpolation: tri-quintic (5. degree polynomial)
  Poisson solver: FastPoissonSolver using
    Stencil: 6*3+1=19 point O(h^6) finite-difference Laplacian
    FFT axes: [0, 1]
    FST axes: [2]

Dipole correction along z-axis 

XC parameters: BEEF-vdW with 2 nearest neighbor stencil

Memory estimate:
  Process memory now: 216.32 MiB
  Calculator: 365.21 MiB
    Density: 116.66 MiB
      Arrays: 36.75 MiB
      Localized functions: 65.90 MiB
      Mixer: 14.01 MiB
    Hamiltonian: 29.25 MiB
      Arrays: 24.03 MiB
      XC: 0.00 MiB
      Poisson: 0.00 MiB
      vbar: 5.22 MiB
    Wavefunctions: 219.30 MiB
      Arrays psit_nG: 100.85 MiB
      Eigensolver: 115.06 MiB
      Projections: 0.04 MiB
      Projectors: 3.35 MiB

Total number of cores used: 24
Parallelization over k-points: 8
Domain decomposition: 1 x 1 x 3

Number of atoms: 42
Number of atomic orbitals: 159
Number of bands in calculation: 36
Number of valence electrons: 52
Bands to converge: occupied

... initialized

Initializing position-dependent things.

Density initialized from atomic densities
Creating initial wave functions:
  36 bands from LCAO basis set

       .-----------------------.  
      /|                       |  
     / |                       |  
    /  |                       |  
   /   |                       |  
  /    |                       |  
 *     |                       |  
 |     |                       |  
 |     |                       |  
 |     |            H B  H     |  
 |     |             H         |  
 |     |                       |  
 |     |              N        |  
 |     |              N        |  
 |   Li|     Li      Li        |  
 |     |  Li      Li      Li   |  
 | Li  |   Li      Li          |  
 |     |Li      Li      Li     |  
 Li    | Li      Li            |  
 |   LLi     LLi     LLi       |  
 |     |  Li      Li      Li   |  
 | Li  |   Li      Li          |  
 |     |Li      Li      Li     |  
 Li    | Li      Li            |  
 |    Li      Li      Li       |  
 |     |                       |  
 |     |                       |  
 |     |                       |  
 |     |                       |  
 |     |                       |  
 |     |                       |  
 |     .-----------------------.  
 |    /                       /   
 |   /                       /    
 |  /                       /     
 | /                       /      
 |/                       /       
 *-----------------------*        

Positions:
   0 Li     1.617037    1.617037   10.000000    ( 0.0000,  0.0000,  0.0000)
   1 Li     4.851111    1.617037   10.000000    ( 0.0000,  0.0000,  0.0000)
   2 Li     8.085185    1.617037   10.000000    ( 0.0000,  0.0000,  0.0000)
   3 Li     1.617037    4.851111   10.000000    ( 0.0000,  0.0000,  0.0000)
   4 Li     4.851111    4.851111   10.000000    ( 0.0000,  0.0000,  0.0000)
   5 Li     8.085185    4.851111   10.000000    ( 0.0000,  0.0000,  0.0000)
   6 Li     1.617037    8.085185   10.000000    ( 0.0000,  0.0000,  0.0000)
   7 Li     4.851111    8.085185   10.000000    ( 0.0000,  0.0000,  0.0000)
   8 Li     8.085185    8.085185   10.000000    ( 0.0000,  0.0000,  0.0000)
   9 Li     0.000000    0.000000   11.617037    ( 0.0000,  0.0000,  0.0000)
  10 Li     3.234074    0.000000   11.617037    ( 0.0000,  0.0000,  0.0000)
  11 Li     6.468148    0.000000   11.617037    ( 0.0000,  0.0000,  0.0000)
  12 Li     0.000000    3.234074   11.617037    ( 0.0000,  0.0000,  0.0000)
  13 Li     3.234074    3.234074   11.617037    ( 0.0000,  0.0000,  0.0000)
  14 Li     6.468148    3.234074   11.617037    ( 0.0000,  0.0000,  0.0000)
  15 Li     0.000000    6.468148   11.617037    ( 0.0000,  0.0000,  0.0000)
  16 Li     3.234074    6.468148   11.617037    ( 0.0000,  0.0000,  0.0000)
  17 Li     6.468148    6.468148   11.617037    ( 0.0000,  0.0000,  0.0000)
  18 Li     1.617038    1.617038   13.469728    ( 0.0000,  0.0000,  0.0000)
  19 Li     4.851111    1.617038   13.469729    ( 0.0000,  0.0000,  0.0000)
  20 Li     8.085184    1.617038   13.469728    ( 0.0000,  0.0000,  0.0000)
  21 Li     1.617038    4.851111   13.469729    ( 0.0000,  0.0000,  0.0000)
  22 Li     4.851111    4.851111   13.469730    ( 0.0000,  0.0000,  0.0000)
  23 Li     8.085184    4.851111   13.469729    ( 0.0000,  0.0000,  0.0000)
  24 Li     1.617038    8.085184   13.469728    ( 0.0000,  0.0000,  0.0000)
  25 Li     4.851111    8.085184   13.469729    ( 0.0000,  0.0000,  0.0000)
  26 Li     8.085184    8.085184   13.469728    ( 0.0000,  0.0000,  0.0000)
  27 Li    -0.000000   -0.000000   15.445939    ( 0.0000,  0.0000,  0.0000)
  28 Li     3.234074    0.000000   15.445939    ( 0.0000,  0.0000,  0.0000)
  29 Li     6.468148    0.000000   15.445939    ( 0.0000,  0.0000,  0.0000)
  30 Li     0.000000    3.234074   15.445939    ( 0.0000,  0.0000,  0.0000)
  31 Li     3.234076    3.234076   15.445938    ( 0.0000,  0.0000,  0.0000)
  32 Li     6.468146    3.234076   15.445938    ( 0.0000,  0.0000,  0.0000)
  33 Li     0.000000    6.468148   15.445939    ( 0.0000,  0.0000,  0.0000)
  34 Li     3.234076    6.468146   15.445938    ( 0.0000,  0.0000,  0.0000)
  35 Li     6.468146    6.468146   15.445938    ( 0.0000,  0.0000,  0.0000)
  36 B      8.085185    1.617037   21.445939    ( 0.0000,  0.0000,  0.0000)
  37 H      9.117754    2.209323   21.445939    ( 0.0000,  0.0000,  0.0000)
  38 H      7.055276    2.213996   21.445939    ( 0.0000,  0.0000,  0.0000)
  39 H      8.085271    0.428437   21.445939    ( 0.0000,  0.0000,  0.0000)
  40 N      8.085000    1.617000   18.445939    ( 0.0000,  0.0000,  0.0000)
  41 N      8.085000    1.617000   19.542561    ( 0.0000,  0.0000,  0.0000)

Unit cell:
           periodic     x           y           z      points  spacing
  1. axis:    yes    9.702222    0.000000    0.000000    60     0.1617
  2. axis:    yes    0.000000    9.702222    0.000000    60     0.1617
  3. axis:    no     0.000000    0.000000   24.851111   156     0.1593

  Lengths:   9.702222   9.702222  24.851111
  Angles:   90.000000  90.000000  90.000000

Effective grid spacing dv^(1/3) = 0.1609

     iter     time        total  log10-change:
                         energy  eigst   dens
iter:   1 17:12:29  -389.191512
iter:   2 17:15:00  -145.004339  +2.37  -0.07
iter:   3 17:17:27   -69.147432  +3.28  -0.21
iter:   4 17:19:47   -89.375181  +2.87  -0.14
Writing to output.gpw (mode='')

iter:   5 17:22:17  -119.418700  +2.90  -0.23
iter:   6 17:24:50  -260.075051  +3.16  -0.42
iter:   7 17:27:13  -249.383475  +2.37  -0.32
iter:   8 17:29:39  -252.235443  +2.13  -0.39
iter:   9 17:32:02  -276.987187  +2.39  -0.44
Writing to output.gpw (mode='')

iter:  10 17:34:18  -301.054905  +2.00  -0.53
iter:  11 17:36:52  -292.490747  +1.22  -0.47
iter:  12 17:39:26  -260.700217  +1.59  -0.50
iter:  13 17:41:44  -259.023595  +0.90  -0.56
iter:  14 17:44:03  -259.215408  +0.99  -0.63
Writing to output.gpw (mode='')

iter:  15 17:46:30  -258.333221  +0.28  -0.77
iter:  16 17:48:54  -288.841561  +0.87  -0.76
iter:  17 17:51:15  -256.236229  +1.31  -0.47
iter:  18 17:53:39  -256.254410  +0.91  -0.89
iter:  19 17:55:54  -257.131561  +0.53  -1.00
Writing to output.gpw (mode='')

iter:  20 17:58:14  -257.714169  +0.48  -0.98
iter:  21 18:00:41  -255.347309  +0.46  -0.99
iter:  22 18:03:00  -255.161491  +0.76  -1.11
iter:  23 18:05:16  -254.962068  -0.00  -1.19
iter:  24 18:07:34  -254.969058  -0.18  -1.28
Writing to output.gpw (mode='')

iter:  25 18:09:56  -254.973572c -0.52  -1.34
iter:  26 18:12:17  -255.009127  -0.54  -1.38
iter:  27 18:14:38  -255.048003  -0.87  -1.43
iter:  28 18:17:04  -255.080414  -0.79  -1.46
iter:  29 18:19:27  -255.099704  -0.84  -1.44
Writing to output.gpw (mode='')

iter:  30 18:21:52  -255.048102  -0.92  -1.46
iter:  31 18:24:16  -255.046740  -0.57  -1.52
iter:  32 18:26:37  -255.063360c -1.11  -1.84
iter:  33 18:29:02  -255.069328c -1.28  -1.91
iter:  34 18:31:31  -255.071777c -1.09  -1.94
Writing to output.gpw (mode='')

iter:  35 18:33:55  -255.082511c -1.41  -1.97
iter:  36 18:36:19  -255.081969c -1.25  -2.09
iter:  37 18:38:39  -255.082999c -1.46  -2.16
iter:  38 18:41:07  -255.082576c -1.82  -2.22
iter:  39 18:43:31  -255.084148c -1.77  -2.49
Writing to output.gpw (mode='')

iter:  40 18:45:52  -255.086039c -1.81  -2.55
iter:  41 18:48:10  -255.087404c -1.91  -2.56
iter:  42 18:50:46  -255.088156c -2.25  -2.67
iter:  43 18:53:01  -255.088802c -2.34  -2.72
iter:  44 18:55:22  -255.089625c -2.33  -2.79
Writing to output.gpw (mode='')

iter:  45 18:57:58  -255.090137c -2.31  -2.86
iter:  46 19:00:26  -255.090670c -2.32  -3.04
iter:  47 19:02:53  -255.091123c -2.42  -3.06
iter:  48 19:05:14  -255.091615c -2.36  -3.24
iter:  49 19:07:38  -255.091928c -2.75  -3.34
Writing to output.gpw (mode='')

iter:  50 19:10:03  -255.092258c -2.55  -3.38
iter:  51 19:12:24  -255.092537c -2.76  -3.38
iter:  52 19:14:56  -255.092746c -3.02  -3.39
iter:  53 19:17:21  -255.092904c -3.12  -3.51
iter:  54 19:19:50  -255.093103c -2.97  -3.52
Writing to output.gpw (mode='')

iter:  55 19:22:12  -255.093258c -2.96  -3.61
iter:  56 19:24:34  -255.093355c -3.35  -3.63
iter:  57 19:27:00  -255.093489c -3.03  -3.65
iter:  58 19:29:33  -255.093572c -3.41  -3.72
iter:  59 19:31:54  -255.093636c -3.46  -3.80
Writing to output.gpw (mode='')

iter:  60 19:34:19  -255.093696c -3.47  -3.84
iter:  61 19:36:42  -255.093752c -3.53  -3.86
iter:  62 19:38:56  -255.093796c -3.68  -4.07c
iter:  63 19:41:28  -255.093830c -3.72  -4.03c
iter:  64 19:44:10  -255.093858c -3.82  -4.11c
Writing to output.gpw (mode='')

iter:  65 19:46:40  -255.093889c -3.65  -4.02c
iter:  66 19:49:06  -255.093914c -3.75  -4.05c
iter:  67 19:51:31  -255.093935c -3.91  -4.03c
iter:  68 19:54:06  -255.093953c -3.96  -3.94
iter:  69 19:56:34  -255.093974c -4.00  -3.93
Writing to output.gpw (mode='')

iter:  70 19:59:00  -255.093987c -4.06  -4.05c
iter:  71 20:01:23  -255.094005c -3.89  -3.99
iter:  72 20:03:48  -255.094022c -3.97  -4.06c
iter:  73 20:06:15  -255.094032c -4.24  -4.08c
iter:  74 20:08:38  -255.094040c -4.38  -4.22c
Writing to output.gpw (mode='')

iter:  75 20:10:59  -255.094049c -4.32  -4.19c
iter:  76 20:13:29  -255.094055c -4.48  -4.16c
iter:  77 20:15:55  -255.094060c -4.38  -4.10c
iter:  78 20:18:23  -255.094069c -4.47  -4.01c
iter:  79 20:20:52  -255.094076c -4.36  -4.26c
Writing to output.gpw (mode='')

iter:  80 20:23:25  -255.094081c -4.30  -4.37c
iter:  81 20:25:49  -255.094085c -4.49  -4.42c
iter:  82 20:28:06  -255.094092c -4.49  -4.50c
iter:  83 20:30:33  -255.094094c -4.84  -4.77c
iter:  84 20:33:05  -255.094096c -4.86  -4.84c
Writing to output.gpw (mode='')

iter:  85 20:35:26  -255.094099c -4.72  -4.83c
iter:  86 20:37:42  -255.094101c -4.73  -4.93c
iter:  87 20:40:06  -255.094102c -4.83  -5.07c
iter:  88 20:42:32  -255.094104c -5.00  -5.09c
iter:  89 20:45:00  -255.094104c -4.83  -5.04c
Writing to output.gpw (mode='')

iter:  90 20:47:26  -255.094106c -5.10  -4.86c
iter:  91 20:49:51  -255.094107c -5.15  -4.90c
iter:  92 20:52:18  -255.094107c -4.99  -4.80c
iter:  93 20:54:54  -255.094108c -5.14  -4.74c
iter:  94 20:57:30  -255.094109c -5.20  -4.76c
Writing to output.gpw (mode='')

iter:  95 20:59:50  -255.094111c -5.06  -4.74c
iter:  96 21:02:09  -255.094112c -5.24  -4.83c
iter:  97 21:04:39  -255.094114c -5.18  -4.70c
iter:  98 21:07:06  -255.094115c -5.40  -4.83c
iter:  99 21:09:44  -255.094115c -5.38  -4.80c
Writing to output.gpw (mode='')

iter: 100 21:12:09  -255.094115c -5.50  -4.85c
iter: 101 21:14:29  -255.094116c -5.38  -4.79c
iter: 102 21:16:47  -255.094116c -5.54  -4.84c
iter: 103 21:19:15  -255.094115c -5.45  -4.81c
iter: 104 21:21:41  -255.094115c -5.66  -4.77c
Writing to output.gpw (mode='')

iter: 105 21:24:02  -255.094115c -5.46  -4.74c
iter: 106 21:26:26  -255.094115c -5.58  -4.74c
iter: 107 21:28:45  -255.094115c -5.49  -4.79c
iter: 108 21:31:19  -255.094116c -5.60  -4.73c
iter: 109 21:33:45  -255.094118c -5.25  -4.81c
Writing to output.gpw (mode='')

iter: 110 21:36:18  -255.094118c -5.91  -4.79c
iter: 111 21:38:43  -255.094118c -5.98  -4.78c
iter: 112 21:41:14  -255.094119c -5.84  -4.75c
iter: 113 21:43:36  -255.094119c -5.67  -4.78c
iter: 114 21:46:12  -255.094120c -5.80  -4.76c
Writing to output.gpw (mode='')

iter: 115 21:48:35  -255.094120c -5.85  -4.79c
iter: 116 21:50:58  -255.094120c -5.83  -4.81c
iter: 117 21:53:20  -255.094120c -6.01  -4.90c
iter: 118 21:55:44  -255.094120c -6.05  -5.06c
iter: 119 21:58:20  -255.094120c -5.89  -5.12c
Writing to output.gpw (mode='')

iter: 120 22:00:40  -255.094121c -5.84  -5.19c
iter: 121 22:03:01  -255.094121c -6.30  -5.36c
iter: 122 22:05:26  -255.094121c -6.34  -5.39c
iter: 123 22:07:49  -255.094121c -6.25  -5.46c
iter: 124 22:10:18  -255.094121c -6.37  -5.58c
Writing to output.gpw (mode='')

iter: 125 22:12:46  -255.094121c -6.20  -5.61c
iter: 126 22:15:03  -255.094121c -6.28  -5.71c
iter: 127 22:17:28  -255.094121c -6.47  -5.87c
iter: 128 22:20:04  -255.094121c -6.48  -5.88c
iter: 129 22:22:23  -255.094120c -6.51  -5.84c
Writing to output.gpw (mode='')

iter: 130 22:24:53  -255.094120c -6.49  -5.82c
iter: 131 22:27:23  -255.094120c -6.19  -5.79c
iter: 132 22:29:47  -255.094120c -6.42  -5.78c
iter: 133 22:32:20  -255.094120c -6.54  -5.72c
iter: 134 22:34:47  -255.094120c -6.61  -5.69c
Writing to output.gpw (mode='')

iter: 135 22:37:23  -255.094120c -6.65  -5.73c
iter: 136 22:39:44  -255.094120c -6.58  -5.71c
iter: 137 22:42:11  -255.094120c -6.61  -5.72c
iter: 138 22:44:43  -255.094120c -6.68  -5.65c
iter: 139 22:47:11  -255.094120c -6.79  -5.60c
Writing to output.gpw (mode='')

iter: 140 22:49:38  -255.094120c -6.77  -5.62c
iter: 141 22:52:01  -255.094120c -6.91  -5.63c
iter: 142 22:54:31  -255.094120c -6.67  -5.60c
iter: 143 22:56:58  -255.094120c -6.68  -5.38c
iter: 144 22:59:26  -255.094120c -6.87  -5.45c
Writing to output.gpw (mode='')

iter: 145 23:01:51  -255.094120c -6.78  -5.42c
iter: 146 23:04:20  -255.094120c -6.56  -5.45c
iter: 147 23:06:55  -255.094121c -6.64  -5.54c
iter: 148 23:09:10  -255.094121c -6.83  -5.57c
iter: 149 23:11:36  -255.094121c -6.71  -5.70c
Writing to output.gpw (mode='')

iter: 150 23:13:55  -255.094121c -6.88  -5.78c
iter: 151 23:16:21  -255.094121c -7.04  -5.80c
iter: 152 23:18:39  -255.094121c -7.08  -5.84c
iter: 153 23:21:00  -255.094121c -7.18  -5.93c
iter: 154 23:23:26  -255.094121c -7.25  -5.96c
Writing to output.gpw (mode='')

iter: 155 23:25:57  -255.094121c -7.18  -6.00c
iter: 156 23:28:25  -255.094121c -7.24  -6.05c
iter: 157 23:30:52  -255.094121c -7.19  -6.12c
iter: 158 23:33:11  -255.094121c -7.34  -6.25c
iter: 159 23:35:34  -255.094121c -7.20  -6.28c
Writing to output.gpw (mode='')

iter: 160 23:38:08  -255.094121c -7.36  -6.54c
iter: 161 23:40:36  -255.094121c -7.39  -6.69c
iter: 162 23:42:52  -255.094120c -7.41c -6.77c

Converged after 162 iterations.

Dipole moment: (-1.342709, -4.387705, -0.199346) |e|*Ang

Energy contributions relative to reference atoms: (reference = -10970.764591)

Kinetic:       +113.739254
Potential:     -106.874955
External:        +0.000000
XC:            -262.185418
Entropy (-ST):   -0.154356
Local:           +0.304177
--------------------------
Free energy:   -255.171299
Extrapolated:  -255.094120

Dipole-layer corrected work functions: 3.392132, 3.775343 eV

Showing only first 2 kpts
 Kpt  Band  Eigenvalues  Occupancy
  0    24     -3.83556    1.98709
  0    25     -3.74846    1.92848
  0    26     -3.42457    0.07959
  0    27     -3.33017    0.01247

  1    24     -3.60747    1.23294
  1    25     -3.58083    0.97093
  1    26     -3.54761    0.65367
  1    27     -3.53085    0.51548


Fermi level: -3.58374

No gap
Writing to output.gpw (mode='')


Forces in eV/Ang:
  0 Li    0.00547    0.00001   -0.27368
  1 Li   -0.00547    0.00001   -0.27368
  2 Li    0.00000   -0.00001   -0.27344
  3 Li   -0.00341   -0.00344   -0.27312
  4 Li    0.00341   -0.00344   -0.27312
  5 Li   -0.00000    0.00548   -0.27370
  6 Li   -0.00344    0.00342   -0.27309
  7 Li    0.00344    0.00341   -0.27309
  8 Li    0.00000   -0.00547   -0.27367
  9 Li    0.00120   -0.00122    0.25754
 10 Li   -0.00000    0.00187    0.25943
 11 Li   -0.00120   -0.00121    0.25755
 12 Li    0.00120    0.00119    0.25754
 13 Li   -0.00000   -0.00185    0.25944
 14 Li   -0.00120    0.00118    0.25754
 15 Li   -0.00186    0.00002    0.25944
 16 Li    0.00000   -0.00001    0.26595
 17 Li    0.00185    0.00002    0.25944
 18 Li   -0.00477    0.00001    0.04385
 19 Li    0.00477    0.00001    0.04385
 20 Li    0.00000   -0.00002    0.00302
 21 Li   -0.00041   -0.00040    0.03516
 22 Li    0.00041   -0.00040    0.03516
 23 Li    0.00000   -0.00476    0.04377
 24 Li   -0.00039    0.00040    0.03518
 25 Li    0.00039    0.00040    0.03518
 26 Li    0.00000    0.00478    0.04393
 27 Li    0.02135   -0.02143   -0.04144
 28 Li    0.00000    0.00962   -0.01489
 29 Li   -0.02134   -0.02143   -0.04143
 30 Li    0.02150    0.02141   -0.04144
 31 Li   -0.00000   -0.00961   -0.01464
 32 Li   -0.02149    0.02141   -0.04145
 33 Li   -0.00962    0.00008   -0.01477
 34 Li   -0.00000   -0.00001   -0.01904
 35 Li    0.00962    0.00009   -0.01477
 36 B     0.00765    0.03551   -1.76294
 37 H     0.10495    0.06528    0.62177
 38 H    -0.10355    0.05820    0.62830
 39 H    -0.00795   -0.17061    0.61952
 40 N     0.00136    0.00035   -0.94948
 41 N     0.00230    0.00035    0.89394

System changes: positions 

Initializing position-dependent things.

Density initialized from wave functions
       .-----------------------.  
      /|                       |  
     / |                       |  
    /  |                       |  
   /   |                       |  
  /    |                       |  
 *     |                       |  
 |     |                       |  
 |     |                       |  
 |     |            H B  H     |  
 |     |             H         |  
 |     |                       |  
 |     Li             NLi      |  
 |     |              N        |  
 |     |     Li      Li      Li|  
 |     |  Li      Li      Li   |  
 | Li  |   Li      Li          |  
 |     |Li      Li      Li     |  
 |     | Li                    |  
 |   LLi     LLi     LLi       |  
 |     |  Li      Li      Li   |  
 | Li  |   Li      Li          |  
 |     |Li      Li      Li     |  
 Li    | Li      Li            |  
 |    Li      Li      Li       |  
 |     |                       |  
 |     |                       |  
 |     |                       |  
 |     |                       |  
 |     |                       |  
 |     |                       |  
 |     .-----------------------.  
 |    /                       /   
 |   /                       /    
 |  /                       /     
 | /                       /      
 |/                       /       
 *-----------------------*        

Positions:
   0 Li     1.617037    1.617037   10.000000    ( 0.0000,  0.0000,  0.0000)
   1 Li     4.851111    1.617037   10.000000    ( 0.0000,  0.0000,  0.0000)
   2 Li     8.085185    1.617037   10.000000    ( 0.0000,  0.0000,  0.0000)
   3 Li     1.617037    4.851111   10.000000    ( 0.0000,  0.0000,  0.0000)
   4 Li     4.851111    4.851111   10.000000    ( 0.0000,  0.0000,  0.0000)
   5 Li     8.085185    4.851111   10.000000    ( 0.0000,  0.0000,  0.0000)
   6 Li     1.617037    8.085185   10.000000    ( 0.0000,  0.0000,  0.0000)
   7 Li     4.851111    8.085185   10.000000    ( 0.0000,  0.0000,  0.0000)
   8 Li     8.085185    8.085185   10.000000    ( 0.0000,  0.0000,  0.0000)
   9 Li     0.000000    0.000000   11.617037    ( 0.0000,  0.0000,  0.0000)
  10 Li     3.234074    0.000000   11.617037    ( 0.0000,  0.0000,  0.0000)
  11 Li     6.468148    0.000000   11.617037    ( 0.0000,  0.0000,  0.0000)
  12 Li     0.000000    3.234074   11.617037    ( 0.0000,  0.0000,  0.0000)
  13 Li     3.234074    3.234074   11.617037    ( 0.0000,  0.0000,  0.0000)
  14 Li     6.468148    3.234074   11.617037    ( 0.0000,  0.0000,  0.0000)
  15 Li     0.000000    6.468148   11.617037    ( 0.0000,  0.0000,  0.0000)
  16 Li     3.234074    6.468148   11.617037    ( 0.0000,  0.0000,  0.0000)
  17 Li     6.468148    6.468148   11.617037    ( 0.0000,  0.0000,  0.0000)
  18 Li     1.616970    1.617038   13.470354    ( 0.0000,  0.0000,  0.0000)
  19 Li     4.851179    1.617039   13.470356    ( 0.0000,  0.0000,  0.0000)
  20 Li     8.085184    1.617038   13.469771    ( 0.0000,  0.0000,  0.0000)
  21 Li     1.617033    4.851105   13.470232    ( 0.0000,  0.0000,  0.0000)
  22 Li     4.851117    4.851105   13.470233    ( 0.0000,  0.0000,  0.0000)
  23 Li     8.085184    4.851043   13.470355    ( 0.0000,  0.0000,  0.0000)
  24 Li     1.617032    8.085190   13.470230    ( 0.0000,  0.0000,  0.0000)
  25 Li     4.851117    8.085189   13.470232    ( 0.0000,  0.0000,  0.0000)
  26 Li     8.085184    8.085252   13.470355    ( 0.0000,  0.0000,  0.0000)
  27 Li     0.000305   -0.000306   15.445347    ( 0.0000,  0.0000,  0.0000)
  28 Li     3.234074    0.000137   15.445726    ( 0.0000,  0.0000,  0.0000)
  29 Li     6.467843   -0.000306   15.445347    ( 0.0000,  0.0000,  0.0000)
  30 Li     0.000307    3.234380   15.445347    ( 0.0000,  0.0000,  0.0000)
  31 Li     3.234076    3.233939   15.445729    ( 0.0000,  0.0000,  0.0000)
  32 Li     6.467838    3.234382   15.445346    ( 0.0000,  0.0000,  0.0000)
  33 Li    -0.000137    6.468149   15.445728    ( 0.0000,  0.0000,  0.0000)
  34 Li     3.234076    6.468145   15.445666    ( 0.0000,  0.0000,  0.0000)
  35 Li     6.468283    6.468147   15.445727    ( 0.0000,  0.0000,  0.0000)
  36 B      8.085294    1.617544   21.420754    ( 0.0000,  0.0000,  0.0000)
  37 H      9.119254    2.210255   21.454822    ( 0.0000,  0.0000,  0.0000)
  38 H      7.053797    2.214827   21.454915    ( 0.0000,  0.0000,  0.0000)
  39 H      8.085157    0.426000   21.454790    ( 0.0000,  0.0000,  0.0000)
  40 N      8.085019    1.617005   18.432375    ( 0.0000,  0.0000,  0.0000)
  41 N      8.085033    1.617005   19.555332    ( 0.0000,  0.0000,  0.0000)

Unit cell:
           periodic     x           y           z      points  spacing
  1. axis:    yes    9.702222    0.000000    0.000000    60     0.1617
  2. axis:    yes    0.000000    9.702222    0.000000    60     0.1617
  3. axis:    no     0.000000    0.000000   24.851111   156     0.1593

  Lengths:   9.702222   9.702222  24.851111
  Angles:   90.000000  90.000000  90.000000

Effective grid spacing dv^(1/3) = 0.1609

     iter     time        total  log10-change:
                         energy  eigst   dens
iter:   1 23:45:43  -256.352739  +0.14
iter:   2 23:48:10  -256.972099  +0.47  -0.89
iter:   3 23:50:37  -255.290653  -0.20  -0.95
iter:   4 23:52:59  -255.261372  -0.79  -1.55
Writing to output.gpw (mode='')

iter:   5 23:55:27  -255.142481  -0.35  -1.67
iter:   6 23:57:53  -255.163781  -1.51  -1.99
iter:   7 00:00:11  -255.140004c -1.28  -2.01
iter:   8 00:02:35  -255.136343  -0.86  -2.05
iter:   9 00:04:59  -255.132570c -1.85  -2.16
Writing to output.gpw (mode='')

iter:  10 00:07:27  -255.133121c -2.09  -2.34
iter:  11 00:09:58  -255.132898c -2.05  -2.35
iter:  12 00:12:31  -255.132977c -2.34  -2.49
iter:  13 00:15:04  -255.133255c -2.29  -2.57
iter:  14 00:17:32  -255.133633c -2.40  -2.69
Writing to output.gpw (mode='')

iter:  15 00:19:52  -255.133943c -2.50  -2.78
iter:  16 00:22:16  -255.134124c -2.91  -2.92
iter:  17 00:24:41  -255.134391c -2.89  -2.97
iter:  18 00:27:08  -255.134519c -2.91  -3.13
iter:  19 00:29:31  -255.134647c -3.03  -3.35
Writing to output.gpw (mode='')

iter:  20 00:32:03  -255.134743c -3.28  -3.36
iter:  21 00:34:36  -255.134949c -2.87  -3.36
iter:  22 00:37:07  -255.135017c -3.31  -3.38
iter:  23 00:39:32  -255.135099c -3.40  -3.41
iter:  24 00:41:51  -255.135152c -3.49  -3.44
Writing to output.gpw (mode='')

iter:  25 00:44:13  -255.135199c -3.65  -3.49
iter:  26 00:46:41  -255.135234c -3.65  -3.64
iter:  27 00:49:13  -255.135255c -3.71  -3.70
iter:  28 00:51:49  -255.135280c -3.78  -3.75
iter:  29 00:54:11  -255.135296c -3.60  -3.92
Writing to output.gpw (mode='')

iter:  30 00:56:38  -255.135307c -4.02  -4.00c
iter:  31 00:58:54  -255.135326c -3.93  -4.03c
iter:  32 01:01:14  -255.135339c -4.16  -4.14c
iter:  33 01:03:41  -255.135346c -3.94  -4.28c
iter:  34 01:05:57  -255.135351c -4.28  -4.31c
Writing to output.gpw (mode='')

iter:  35 01:08:19  -255.135363c -4.40  -4.31c
iter:  36 01:10:36  -255.135370c -4.45  -4.49c
iter:  37 01:13:06  -255.135373c -4.44  -4.65c
iter:  38 01:15:37  -255.135373c -4.44  -4.75c
iter:  39 01:17:58  -255.135377c -4.69  -4.64c
Writing to output.gpw (mode='')

iter:  40 01:20:27  -255.135380c -4.65  -4.74c
iter:  41 01:22:57  -255.135382c -4.61  -4.78c
iter:  42 01:25:16  -255.135383c -4.67  -4.77c
iter:  43 01:27:31  -255.135382c -4.92  -4.73c
iter:  44 01:29:55  -255.135383c -4.79  -4.60c
Writing to output.gpw (mode='')

iter:  45 01:32:14  -255.135384c -4.60  -4.61c
iter:  46 01:34:35  -255.135383c -4.82  -4.56c
iter:  47 01:37:02  -255.135386c -5.15  -4.50c
iter:  48 01:39:30  -255.135384c -5.24  -4.56c
iter:  49 01:41:53  -255.135385c -5.21  -4.43c
Writing to output.gpw (mode='')

iter:  50 01:44:21  -255.135386c -5.26  -4.47c
iter:  51 01:46:43  -255.135388c -5.37  -4.48c
iter:  52 01:49:14  -255.135388c -5.39  -4.60c
iter:  53 01:51:42  -255.135393c -5.54  -4.52c
iter:  54 01:54:10  -255.135393c -5.67  -4.77c
Writing to output.gpw (mode='')

iter:  55 01:56:33  -255.135392c -5.64  -4.82c
iter:  56 01:58:59  -255.135392c -5.77  -4.97c
iter:  57 02:01:28  -255.135392c -5.74  -5.03c
iter:  58 02:03:49  -255.135392c -5.59  -5.12c
iter:  59 02:06:04  -255.135392c -5.20  -5.21c
Writing to output.gpw (mode='')

iter:  60 02:08:29  -255.135391c -5.85  -5.22c
iter:  61 02:10:47  -255.135392c -5.99  -5.09c
iter:  62 02:13:04  -255.135392c -6.01  -5.16c
iter:  63 02:15:29  -255.135392c -6.15  -5.15c
iter:  64 02:17:54  -255.135392c -5.88  -5.13c
Writing to output.gpw (mode='')

iter:  65 02:20:20  -255.135391c -6.20  -5.11c
iter:  66 02:22:49  -255.135391c -6.34  -5.09c
iter:  67 02:25:10  -255.135391c -6.04  -5.05c
iter:  68 02:27:39  -255.135391c -6.40  -5.03c
iter:  69 02:30:00  -255.135392c -6.53  -5.08c
Writing to output.gpw (mode='')

iter:  70 02:32:18  -255.135393c -6.59  -5.20c
iter:  71 02:34:42  -255.135392c -6.58  -5.26c
iter:  72 02:37:08  -255.135392c -6.77  -5.32c
iter:  73 02:39:27  -255.135392c -6.77  -5.51c
iter:  74 02:41:48  -255.135392c -6.73  -5.57c
Writing to output.gpw (mode='')

iter:  75 02:44:14  -255.135392c -6.66  -5.71c
iter:  76 02:46:31  -255.135392c -6.90  -5.90c
iter:  77 02:48:53  -255.135392c -6.84  -5.98c
iter:  78 02:51:18  -255.135392c -6.96  -6.08c
iter:  79 02:53:38  -255.135392c -6.82  -6.16c
Writing to output.gpw (mode='')

iter:  80 02:56:08  -255.135392c -7.13  -6.21c
iter:  81 02:58:30  -255.135392c -7.16  -6.33c
iter:  82 03:00:52  -255.135392c -7.16  -6.41c
iter:  83 03:03:25  -255.135392c -7.01  -6.47c
iter:  84 03:05:58  -255.135392c -7.19  -6.60c
Writing to output.gpw (mode='')

iter:  85 03:08:33  -255.135392c -7.23  -6.66c
iter:  86 03:10:58  -255.135392c -7.20  -6.69c
iter:  87 03:13:18  -255.135392c -7.25  -6.66c
iter:  88 03:15:40  -255.135392c -7.33  -6.60c
iter:  89 03:18:06  -255.135392c -7.27  -6.51c
Writing to output.gpw (mode='')

iter:  90 03:20:36  -255.135392c -7.50c -6.47c

Converged after 90 iterations.

Dipole moment: (-1.402620, -4.333307, -0.258976) |e|*Ang

Energy contributions relative to reference atoms: (reference = -10970.764591)

Kinetic:       +109.394782
Potential:     -103.339843
External:        +0.000000
XC:            -261.416969
Entropy (-ST):   -0.155275
Local:           +0.304275
--------------------------
Free energy:   -255.213029
Extrapolated:  -255.135392

Dipole-layer corrected work functions: 3.394189, 3.892030 eV

Showing only first 2 kpts
 Kpt  Band  Eigenvalues  Occupancy
  0    24     -3.89460    1.98700
  0    25     -3.80698    1.92730
  0    26     -3.48719    0.08471
  0    27     -3.39027    0.01265

  1    24     -3.66814    1.24520
  1    25     -3.63895    0.95842
  1    26     -3.60794    0.66211
  1    27     -3.58918    0.50751


Fermi level: -3.64311

No gap

Forces in eV/Ang:
  0 Li    0.00570    0.00002   -0.27391
  1 Li   -0.00570    0.00002   -0.27391
  2 Li    0.00000   -0.00002   -0.27393
  3 Li   -0.00365   -0.00368   -0.27323
  4 Li    0.00365   -0.00368   -0.27323
  5 Li   -0.00000    0.00570   -0.27393
  6 Li   -0.00368    0.00365   -0.27320
  7 Li    0.00368    0.00365   -0.27320
  8 Li    0.00000   -0.00569   -0.27390
  9 Li    0.00136   -0.00137    0.25779
 10 Li   -0.00000    0.00183    0.26000
 11 Li   -0.00136   -0.00137    0.25780
 12 Li    0.00135    0.00133    0.25778
 13 Li    0.00000   -0.00181    0.26000
 14 Li   -0.00135    0.00133    0.25778
 15 Li   -0.00182    0.00003    0.26000
 16 Li    0.00000   -0.00001    0.26602
 17 Li    0.00182    0.00003    0.26000
 18 Li   -0.00478    0.00001    0.04214
 19 Li    0.00478    0.00001    0.04214
 20 Li    0.00000   -0.00002   -0.00053
 21 Li   -0.00030   -0.00029    0.03398
 22 Li    0.00030   -0.00029    0.03397
 23 Li    0.00000   -0.00476    0.04205
 24 Li   -0.00028    0.00029    0.03399
 25 Li    0.00028    0.00030    0.03399
 26 Li    0.00000    0.00479    0.04223
 27 Li    0.01985   -0.01994   -0.03358
 28 Li    0.00000    0.00952   -0.01383
 29 Li   -0.01984   -0.01994   -0.03358
 30 Li    0.02002    0.01992   -0.03361
 31 Li   -0.00000   -0.00952   -0.01356
 32 Li   -0.02002    0.01992   -0.03361
 33 Li   -0.00952    0.00010   -0.01370
 34 Li   -0.00000   -0.00001   -0.01847
 35 Li    0.00952    0.00010   -0.01369
 36 B     0.00439    0.00191   -1.69806
 37 H     0.06523    0.04809    0.53617
 38 H    -0.06154    0.03951    0.54011
 39 H    -0.00694   -0.10271    0.53611
 40 N     0.00115   -0.00027    2.26923
 41 N     0.00297    0.00198   -2.14271

System changes: positions 

Initializing position-dependent things.

Density initialized from wave functions
       .-----------------------.  
      /|                       |  
     / |                       |  
    /  |                       |  
   /   |                       |  
  /    |                       |  
 *     |                       |  
 |     |                       |  
 |     |                       |  
 |     |            H B  H     |  
 |     |             H         |  
 |     |                       |  
 |     Li             NLi      |  
 |     |              N        |  
 |     |     Li      Li      Li|  
 |     |  Li      Li      Li   |  
 | Li  |   Li      Li          |  
 |     |Li      Li      Li     |  
 |     | Li                    |  
 |   LLi     LLi     LLi       |  
 |     |  Li      Li      Li   |  
 | Li  |   Li      Li          |  
 |     |Li      Li      Li     |  
 Li    | Li      Li            |  
 |    Li      Li      Li       |  
 |     |                       |  
 |     |                       |  
 |     |                       |  
 |     |                       |  
 |     |                       |  
 |     |                       |  
 |     .-----------------------.  
 |    /                       /   
 |   /                       /    
 |  /                       /     
 | /                       /      
 |/                       /       
 *-----------------------*        

Positions:
   0 Li     1.617037    1.617037   10.000000    ( 0.0000,  0.0000,  0.0000)
   1 Li     4.851111    1.617037   10.000000    ( 0.0000,  0.0000,  0.0000)
   2 Li     8.085185    1.617037   10.000000    ( 0.0000,  0.0000,  0.0000)
   3 Li     1.617037    4.851111   10.000000    ( 0.0000,  0.0000,  0.0000)
   4 Li     4.851111    4.851111   10.000000    ( 0.0000,  0.0000,  0.0000)
   5 Li     8.085185    4.851111   10.000000    ( 0.0000,  0.0000,  0.0000)
   6 Li     1.617037    8.085185   10.000000    ( 0.0000,  0.0000,  0.0000)
   7 Li     4.851111    8.085185   10.000000    ( 0.0000,  0.0000,  0.0000)
   8 Li     8.085185    8.085185   10.000000    ( 0.0000,  0.0000,  0.0000)
   9 Li     0.000000    0.000000   11.617037    ( 0.0000,  0.0000,  0.0000)
  10 Li     3.234074    0.000000   11.617037    ( 0.0000,  0.0000,  0.0000)
  11 Li     6.468148    0.000000   11.617037    ( 0.0000,  0.0000,  0.0000)
  12 Li     0.000000    3.234074   11.617037    ( 0.0000,  0.0000,  0.0000)
  13 Li     3.234074    3.234074   11.617037    ( 0.0000,  0.0000,  0.0000)
  14 Li     6.468148    3.234074   11.617037    ( 0.0000,  0.0000,  0.0000)
  15 Li     0.000000    6.468148   11.617037    ( 0.0000,  0.0000,  0.0000)
  16 Li     3.234074    6.468148   11.617037    ( 0.0000,  0.0000,  0.0000)
  17 Li     6.468148    6.468148   11.617037    ( 0.0000,  0.0000,  0.0000)
  18 Li     1.616860    1.617038   13.471348    ( 0.0000,  0.0000,  0.0000)
  19 Li     4.851289    1.617039   13.471350    ( 0.0000,  0.0000,  0.0000)
  20 Li     8.085184    1.617037   13.469815    ( 0.0000,  0.0000,  0.0000)
  21 Li     1.617024    4.851097   13.471030    ( 0.0000,  0.0000,  0.0000)
  22 Li     4.851125    4.851097   13.471031    ( 0.0000,  0.0000,  0.0000)
  23 Li     8.085184    4.850934   13.471347    ( 0.0000,  0.0000,  0.0000)
  24 Li     1.617024    8.085198   13.471029    ( 0.0000,  0.0000,  0.0000)
  25 Li     4.851125    8.085198   13.471031    ( 0.0000,  0.0000,  0.0000)
  26 Li     8.085184    8.085362   13.471351    ( 0.0000,  0.0000,  0.0000)
  27 Li     0.000784   -0.000787   15.444452    ( 0.0000,  0.0000,  0.0000)
  28 Li     3.234074    0.000357   15.445392    ( 0.0000,  0.0000,  0.0000)
  29 Li     6.467364   -0.000787   15.444452    ( 0.0000,  0.0000,  0.0000)
  30 Li     0.000790    3.234860   15.444452    ( 0.0000,  0.0000,  0.0000)
  31 Li     3.234076    3.233719   15.445400    ( 0.0000,  0.0000,  0.0000)
  32 Li     6.467356    3.234863   15.444451    ( 0.0000,  0.0000,  0.0000)
  33 Li    -0.000357    6.468152   15.445396    ( 0.0000,  0.0000,  0.0000)
  34 Li     3.234076    6.468145   15.445233    ( 0.0000,  0.0000,  0.0000)
  35 Li     6.468503    6.468149   15.445396    ( 0.0000,  0.0000,  0.0000)
  36 B      8.085447    1.618120   21.380759    ( 0.0000,  0.0000,  0.0000)
  37 H      9.121380    2.211631   21.468482    ( 0.0000,  0.0000,  0.0000)
  38 H      7.051719    2.216030   21.468707    ( 0.0000,  0.0000,  0.0000)
  39 H      8.084982    0.422568   21.468414    ( 0.0000,  0.0000,  0.0000)
  40 N      8.085049    1.617009   18.433459    ( 0.0000,  0.0000,  0.0000)
  41 N      8.085090    1.617025   19.554267    ( 0.0000,  0.0000,  0.0000)

Unit cell:
           periodic     x           y           z      points  spacing
  1. axis:    yes    9.702222    0.000000    0.000000    60     0.1617
  2. axis:    yes    0.000000    9.702222    0.000000    60     0.1617
  3. axis:    no     0.000000    0.000000   24.851111   156     0.1593

  Lengths:   9.702222   9.702222  24.851111
  Angles:   90.000000  90.000000  90.000000

Effective grid spacing dv^(1/3) = 0.1609

     iter     time        total  log10-change:
                         energy  eigst   dens
iter:   1 03:23:42  -255.255516  -1.15
iter:   2 03:26:00  -255.231664  -1.42  -1.79
iter:   3 03:28:34  -255.227551  -2.43  -2.07
iter:   4 03:31:02  -255.222970c -2.09  -2.41
Writing to output.gpw (mode='')

iter:   5 03:33:30  -255.223923c -2.85  -2.60
iter:   6 03:35:55  -255.223173c -2.61  -2.59
iter:   7 03:38:16  -255.222105c -2.79  -2.56
iter:   8 03:40:39  -255.221872c -3.17  -2.75
iter:   9 03:43:07  -255.221917c -3.08  -3.01
Writing to output.gpw (mode='')

iter:  10 03:45:41  -255.221912c -3.74  -3.12
iter:  11 03:48:11  -255.221951c -4.43  -3.19
iter:  12 03:50:43  -255.221967c -4.53  -3.38
iter:  13 03:53:15  -255.221984c -4.45  -3.45
iter:  14 03:55:44  -255.221954c -4.53  -3.62
Writing to output.gpw (mode='')

iter:  15 03:58:07  -255.221952c -4.54  -3.77
iter:  16 04:00:32  -255.221950c -4.97  -3.71
iter:  17 04:02:54  -255.221954c -5.13  -3.73
iter:  18 04:05:19  -255.221957c -5.05  -3.83
iter:  19 04:07:42  -255.221962c -5.42  -4.08c
Writing to output.gpw (mode='')

iter:  20 04:10:12  -255.221961c -5.89  -4.14c
iter:  21 04:12:37  -255.221961c -5.88  -4.20c
iter:  22 04:15:02  -255.221962c -6.07  -4.24c
iter:  23 04:17:24  -255.221961c -6.20  -4.34c
iter:  24 04:19:43  -255.221961c -6.25  -4.40c
Writing to output.gpw (mode='')

iter:  25 04:22:06  -255.221961c -6.16  -4.53c
iter:  26 04:24:30  -255.221962c -6.39  -4.81c
iter:  27 04:26:52  -255.221963c -6.59  -4.83c
iter:  28 04:29:15  -255.221963c -6.40  -4.87c
iter:  29 04:31:19  -255.221964c -6.66  -4.96c
Writing to output.gpw (mode='')

iter:  30 04:32:08  -255.221964c -6.91  -5.04c
iter:  31 04:32:55  -255.221963c -6.96  -5.06c
iter:  32 04:33:42  -255.221963c -7.03  -5.16c
iter:  33 04:34:30  -255.221963c -6.87  -5.40c
iter:  34 04:35:18  -255.221963c -6.99  -5.47c
Writing to output.gpw (mode='')

iter:  35 04:36:07  -255.221964c -7.25  -5.54c
iter:  36 04:36:54  -255.221964c -7.39  -5.67c
iter:  37 04:37:41  -255.221964c -7.50c -5.69c

Converged after 37 iterations.

Dipole moment: (-1.416656, -4.327370, -0.298680) |e|*Ang

Energy contributions relative to reference atoms: (reference = -10970.764591)

Kinetic:       +109.011526
Potential:     -103.044263
External:        +0.000000
XC:            -261.416470
Entropy (-ST):   -0.155441
Local:           +0.304964
--------------------------
Free energy:   -255.299684
Extrapolated:  -255.221964

Dipole-layer corrected work functions: 3.394543, 3.968708 eV

Showing only first 2 kpts
 Kpt  Band  Eigenvalues  Occupancy
  0    24     -3.93291    1.98695
  0    25     -3.84542    1.92718
  0    26     -3.52612    0.08538
  0    27     -3.42877    0.01265

  1    24     -3.70672    1.24579
  1    25     -3.67719    0.95569
  1    26     -3.64665    0.66385
  1    27     -3.62775    0.50796


Fermi level: -3.68163

No gap
Writing to output.gpw (mode='')


Forces in eV/Ang:
  0 Li    0.00567    0.00002   -0.27403
  1 Li   -0.00567    0.00002   -0.27403
  2 Li    0.00000   -0.00001   -0.27412
  3 Li   -0.00369   -0.00372   -0.27331
  4 Li    0.00369   -0.00372   -0.27331
  5 Li   -0.00000    0.00568   -0.27405
  6 Li   -0.00372    0.00369   -0.27328
  7 Li    0.00372    0.00369   -0.27328
  8 Li    0.00000   -0.00567   -0.27401
  9 Li    0.00149   -0.00151    0.25837
 10 Li   -0.00000    0.00189    0.26088
 11 Li   -0.00149   -0.00151    0.25838
 12 Li    0.00148    0.00147    0.25836
 13 Li   -0.00000   -0.00187    0.26088
 14 Li   -0.00148    0.00147    0.25836
 15 Li   -0.00188    0.00003    0.26087
 16 Li    0.00000   -0.00000    0.26660
 17 Li    0.00187    0.00003    0.26087
 18 Li   -0.00450    0.00001    0.03996
 19 Li    0.00450    0.00001    0.03995
 20 Li    0.00000   -0.00002   -0.00066
 21 Li   -0.00008   -0.00006    0.03218
 22 Li    0.00008   -0.00007    0.03218
 23 Li    0.00000   -0.00448    0.03986
 24 Li   -0.00006    0.00007    0.03220
 25 Li    0.00006    0.00007    0.03220
 26 Li    0.00000    0.00451    0.04004
 27 Li    0.01903   -0.01912   -0.03193
 28 Li    0.00000    0.00933   -0.01260
 29 Li   -0.01903   -0.01912   -0.03193
 30 Li    0.01921    0.01910   -0.03196
 31 Li   -0.00000   -0.00933   -0.01231
 32 Li   -0.01921    0.01910   -0.03197
 33 Li   -0.00933    0.00010   -0.01246
 34 Li   -0.00000   -0.00001   -0.01732
 35 Li    0.00933    0.00010   -0.01245
 36 B    -0.00036   -0.04111   -1.42589
 37 H    -0.03113   -0.00660    0.37450
 38 H     0.03886   -0.01397    0.37722
 39 H    -0.00545    0.05049    0.37217
 40 N     0.00099   -0.00101    1.94744
 41 N     0.00231    0.00377   -1.58966

System changes: positions 

Initializing position-dependent things.

Density initialized from wave functions
       .-----------------------.  
      /|                       |  
     / |                       |  
    /  |                       |  
   /   |                       |  
  /    |                       |  
 *     |                       |  
 |     |                       |  
 |     |                       |  
 |     |            H B  H     |  
 |     |             H         |  
 |     |                       |  
 |     Li             NLi      |  
 |     |              N        |  
 |     |     Li      Li      Li|  
 |     |  Li      Li      Li   |  
 | Li  |   Li      Li          |  
 |     |Li      Li      Li     |  
 |     | Li                    |  
 |   LLi     LLi     LLi       |  
 |     |  Li      Li      Li   |  
 | Li  |   Li      Li          |  
 |     |Li      Li      Li     |  
 Li    | Li      Li            |  
 |    Li      Li      Li       |  
 |     |                       |  
 |     |                       |  
 |     |                       |  
 |     |                       |  
 |     |                       |  
 |     |                       |  
 |     .-----------------------.  
 |    /                       /   
 |   /                       /    
 |  /                       /     
 | /                       /      
 |/                       /       
 *-----------------------*        

Positions:
   0 Li     1.617037    1.617037   10.000000    ( 0.0000,  0.0000,  0.0000)
   1 Li     4.851111    1.617037   10.000000    ( 0.0000,  0.0000,  0.0000)
   2 Li     8.085185    1.617037   10.000000    ( 0.0000,  0.0000,  0.0000)
   3 Li     1.617037    4.851111   10.000000    ( 0.0000,  0.0000,  0.0000)
   4 Li     4.851111    4.851111   10.000000    ( 0.0000,  0.0000,  0.0000)
   5 Li     8.085185    4.851111   10.000000    ( 0.0000,  0.0000,  0.0000)
   6 Li     1.617037    8.085185   10.000000    ( 0.0000,  0.0000,  0.0000)
   7 Li     4.851111    8.085185   10.000000    ( 0.0000,  0.0000,  0.0000)
   8 Li     8.085185    8.085185   10.000000    ( 0.0000,  0.0000,  0.0000)
   9 Li     0.000000    0.000000   11.617037    ( 0.0000,  0.0000,  0.0000)
  10 Li     3.234074    0.000000   11.617037    ( 0.0000,  0.0000,  0.0000)
  11 Li     6.468148    0.000000   11.617037    ( 0.0000,  0.0000,  0.0000)
  12 Li     0.000000    3.234074   11.617037    ( 0.0000,  0.0000,  0.0000)
  13 Li     3.234074    3.234074   11.617037    ( 0.0000,  0.0000,  0.0000)
  14 Li     6.468148    3.234074   11.617037    ( 0.0000,  0.0000,  0.0000)
  15 Li     0.000000    6.468148   11.617037    ( 0.0000,  0.0000,  0.0000)
  16 Li     3.234074    6.468148   11.617037    ( 0.0000,  0.0000,  0.0000)
  17 Li     6.468148    6.468148   11.617037    ( 0.0000,  0.0000,  0.0000)
  18 Li     1.616743    1.617039   13.472417    ( 0.0000,  0.0000,  0.0000)
  19 Li     4.851406    1.617039   13.472418    ( 0.0000,  0.0000,  0.0000)
  20 Li     8.085184    1.617037   13.469854    ( 0.0000,  0.0000,  0.0000)
  21 Li     1.617018    4.851092   13.471888    ( 0.0000,  0.0000,  0.0000)
  22 Li     4.851131    4.851091   13.471889    ( 0.0000,  0.0000,  0.0000)
  23 Li     8.085184    4.850817   13.472413    ( 0.0000,  0.0000,  0.0000)
  24 Li     1.617019    8.085204   13.471888    ( 0.0000,  0.0000,  0.0000)
  25 Li     4.851130    8.085203   13.471889    ( 0.0000,  0.0000,  0.0000)
  26 Li     8.085184    8.085480   13.472422    ( 0.0000,  0.0000,  0.0000)
  27 Li     0.001302   -0.001307   15.443499    ( 0.0000,  0.0000,  0.0000)
  28 Li     3.234074    0.000599   15.445042    ( 0.0000,  0.0000,  0.0000)
  29 Li     6.466847   -0.001307   15.443499    ( 0.0000,  0.0000,  0.0000)
  30 Li     0.001312    3.235379   15.443498    ( 0.0000,  0.0000,  0.0000)
  31 Li     3.234076    3.233477   15.445057    ( 0.0000,  0.0000,  0.0000)
  32 Li     6.466834    3.235382   15.443497    ( 0.0000,  0.0000,  0.0000)
  33 Li    -0.000599    6.468154   15.445050    ( 0.0000,  0.0000,  0.0000)
  34 Li     3.234076    6.468145   15.444771    ( 0.0000,  0.0000,  0.0000)
  35 Li     6.468745    6.468151   15.445049    ( 0.0000,  0.0000,  0.0000)
  36 B      8.085532    1.617989   21.340759    ( 0.0000,  0.0000,  0.0000)
  37 H      9.122096    2.212238   21.480888    ( 0.0000,  0.0000,  0.0000)
  38 H      7.051127    2.216461   21.481234    ( 0.0000,  0.0000,  0.0000)
  39 H      8.084813    0.421381   21.480747    ( 0.0000,  0.0000,  0.0000)
  40 N      8.085079    1.616999   18.436571    ( 0.0000,  0.0000,  0.0000)
  41 N      8.085145    1.617079   19.555335    ( 0.0000,  0.0000,  0.0000)

Unit cell:
           periodic     x           y           z      points  spacing
  1. axis:    yes    9.702222    0.000000    0.000000    60     0.1617
  2. axis:    yes    0.000000    9.702222    0.000000    60     0.1617
  3. axis:    no     0.000000    0.000000   24.851111   156     0.1593

  Lengths:   9.702222   9.702222  24.851111
  Angles:   90.000000  90.000000  90.000000

Effective grid spacing dv^(1/3) = 0.1609

     iter     time        total  log10-change:
                         energy  eigst   dens
iter:   1 04:38:49  -255.324022  -1.11
iter:   2 04:39:37  -255.299490  -1.44  -1.79
iter:   3 04:40:24  -255.295174  -2.43  -2.07
iter:   4 04:41:11  -255.289970c -2.07  -2.41
Writing to output.gpw (mode='')

iter:   5 04:42:00  -255.291069c -2.86  -2.56
iter:   6 04:42:47  -255.290385c -2.58  -2.63
iter:   7 04:43:35  -255.289120c -2.82  -2.55
iter:   8 04:44:22  -255.288830c -3.20  -2.73
iter:   9 04:45:09  -255.288850c -3.02  -2.99
Writing to output.gpw (mode='')

iter:  10 04:45:58  -255.288848c -3.73  -3.08
iter:  11 04:46:45  -255.288890c -4.51  -3.24
iter:  12 04:47:33  -255.288901c -4.61  -3.38
iter:  13 04:48:20  -255.288917c -4.56  -3.45
iter:  14 04:49:08  -255.288881c -4.45  -3.60
Writing to output.gpw (mode='')

iter:  15 04:49:56  -255.288883c -4.57  -3.76
iter:  16 04:50:44  -255.288878c -5.13  -3.67
iter:  17 04:51:31  -255.288882c -4.98  -3.74
iter:  18 04:52:19  -255.288883c -5.57  -3.98
iter:  19 04:53:06  -255.288890c -5.50  -4.08c
Writing to output.gpw (mode='')

iter:  20 04:53:54  -255.288890c -5.32  -4.16c
iter:  21 04:54:42  -255.288890c -6.04  -4.25c
iter:  22 04:55:29  -255.288890c -6.00  -4.31c
iter:  23 04:56:17  -255.288890c -6.14  -4.37c
iter:  24 04:57:05  -255.288892c -6.23  -4.50c
Writing to output.gpw (mode='')

iter:  25 04:57:54  -255.288893c -6.39  -4.57c
iter:  26 04:58:41  -255.288892c -6.64  -4.68c
iter:  27 04:59:29  -255.288892c -6.60  -4.77c
iter:  28 05:00:16  -255.288891c -6.32  -4.89c
iter:  29 05:01:04  -255.288892c -6.72  -5.01c
Writing to output.gpw (mode='')

iter:  30 05:01:52  -255.288892c -6.95  -5.03c
iter:  31 05:02:40  -255.288892c -7.11  -5.12c
iter:  32 05:03:27  -255.288892c -7.02  -5.34c
iter:  33 05:04:15  -255.288892c -7.01  -5.46c
iter:  34 05:05:02  -255.288892c -7.17  -5.45c
Writing to output.gpw (mode='')

iter:  35 05:05:52  -255.288892c -7.25  -5.45c
iter:  36 05:06:40  -255.288892c -7.34  -5.43c
iter:  37 05:07:27  -255.288892c -7.54c -5.40c

Converged after 37 iterations.

Dipole moment: (-1.433178, -4.314145, -0.334320) |e|*Ang

Energy contributions relative to reference atoms: (reference = -10970.764591)

Kinetic:       +108.645873
Potential:     -102.741665
External:        +0.000000
XC:            -261.420990
Entropy (-ST):   -0.155616
Local:           +0.305698
--------------------------
Free energy:   -255.366700
Extrapolated:  -255.288892

Dipole-layer corrected work functions: 3.394856, 4.037533 eV

Showing only first 2 kpts
 Kpt  Band  Eigenvalues  Occupancy
  0    24     -3.96727    1.98690
  0    25     -3.87991    1.92707
  0    26     -3.56108    0.08603
  0    27     -3.46331    0.01264

  1    24     -3.74131    1.24598
  1    25     -3.71151    0.95314
  1    26     -3.68139    0.66536
  1    27     -3.66241    0.50867


Fermi level: -3.71619

No gap
Writing to output.gpw (mode='')


Forces in eV/Ang:
  0 Li    0.00563    0.00002   -0.27416
  1 Li   -0.00563    0.00002   -0.27416
  2 Li    0.00000   -0.00001   -0.27434
  3 Li   -0.00373   -0.00376   -0.27340
  4 Li    0.00373   -0.00376   -0.27340
  5 Li   -0.00000    0.00564   -0.27419
  6 Li   -0.00376    0.00373   -0.27337
  7 Li    0.00376    0.00373   -0.27337
  8 Li   -0.00000   -0.00562   -0.27414
  9 Li    0.00165   -0.00166    0.25901
 10 Li   -0.00000    0.00195    0.26180
 11 Li   -0.00164   -0.00166    0.25901
 12 Li    0.00163    0.00162    0.25899
 13 Li   -0.00000   -0.00194    0.26181
 14 Li   -0.00163    0.00162    0.25899
 15 Li   -0.00194    0.00003    0.26180
 16 Li    0.00000   -0.00000    0.26723
 17 Li    0.00194    0.00003    0.26180
 18 Li   -0.00419    0.00001    0.03757
 19 Li    0.00419    0.00001    0.03757
 20 Li    0.00000   -0.00002   -0.00077
 21 Li    0.00015    0.00016    0.03026
 22 Li   -0.00015    0.00016    0.03026
 23 Li    0.00000   -0.00417    0.03747
 24 Li    0.00016   -0.00015    0.03028
 25 Li   -0.00016   -0.00015    0.03028
 26 Li    0.00000    0.00420    0.03766
 27 Li    0.01808   -0.01817   -0.03004
 28 Li    0.00000    0.00907   -0.01136
 29 Li   -0.01807   -0.01817   -0.03004
 30 Li    0.01826    0.01815   -0.03008
 31 Li   -0.00000   -0.00908   -0.01105
 32 Li   -0.01826    0.01815   -0.03008
 33 Li   -0.00907    0.00011   -0.01121
 34 Li   -0.00000   -0.00000   -0.01613
 35 Li    0.00907    0.00011   -0.01121
 36 B     0.00032   -0.03746   -1.15734
 37 H    -0.12149   -0.06077    0.21671
 38 H     0.12759   -0.06790    0.21521
 39 H    -0.00425    0.16387    0.20835
 40 N     0.00091   -0.00078    1.61170
 41 N     0.00152    0.00301   -1.04451

System changes: positions 

Initializing position-dependent things.

Density initialized from wave functions
       .-----------------------.  
      /|                       |  
     / |                       |  
    /  |                       |  
   /   |                       |  
  /    |                       |  
 *     |                       |  
 |     |                       |  
 |     |                       |  
 |     |            H B  H     |  
 |     |             H         |  
 |     |                       |  
 |     Li             NLi      |  
 |     |              N        |  
 |     |     Li      Li      Li|  
 |     |  Li      Li      Li   |  
 | Li  |   Li      Li          |  
 |     |Li      Li      Li     |  
 |     | Li                    |  
 |   LLi     LLi     LLi       |  
 |     |  Li      Li      Li   |  
 | Li  |   Li      Li          |  
 |     |Li      Li      Li     |  
 Li    | Li      Li            |  
 |    Li      Li      Li       |  
 |     |                       |  
 |     |                       |  
 |     |                       |  
 |     |                       |  
 |     |                       |  
 |     |                       |  
 |     .-----------------------.  
 |    /                       /   
 |   /                       /    
 |  /                       /     
 | /                       /      
 |/                       /       
 *-----------------------*        

Positions:
   0 Li     1.617037    1.617037   10.000000    ( 0.0000,  0.0000,  0.0000)
   1 Li     4.851111    1.617037   10.000000    ( 0.0000,  0.0000,  0.0000)
   2 Li     8.085185    1.617037   10.000000    ( 0.0000,  0.0000,  0.0000)
   3 Li     1.617037    4.851111   10.000000    ( 0.0000,  0.0000,  0.0000)
   4 Li     4.851111    4.851111   10.000000    ( 0.0000,  0.0000,  0.0000)
   5 Li     8.085185    4.851111   10.000000    ( 0.0000,  0.0000,  0.0000)
   6 Li     1.617037    8.085185   10.000000    ( 0.0000,  0.0000,  0.0000)
   7 Li     4.851111    8.085185   10.000000    ( 0.0000,  0.0000,  0.0000)
   8 Li     8.085185    8.085185   10.000000    ( 0.0000,  0.0000,  0.0000)
   9 Li     0.000000    0.000000   11.617037    ( 0.0000,  0.0000,  0.0000)
  10 Li     3.234074    0.000000   11.617037    ( 0.0000,  0.0000,  0.0000)
  11 Li     6.468148    0.000000   11.617037    ( 0.0000,  0.0000,  0.0000)
  12 Li     0.000000    3.234074   11.617037    ( 0.0000,  0.0000,  0.0000)
  13 Li     3.234074    3.234074   11.617037    ( 0.0000,  0.0000,  0.0000)
  14 Li     6.468148    3.234074   11.617037    ( 0.0000,  0.0000,  0.0000)
  15 Li     0.000000    6.468148   11.617037    ( 0.0000,  0.0000,  0.0000)
  16 Li     3.234074    6.468148   11.617037    ( 0.0000,  0.0000,  0.0000)
  17 Li     6.468148    6.468148   11.617037    ( 0.0000,  0.0000,  0.0000)
  18 Li     1.616617    1.617039   13.473567    ( 0.0000,  0.0000,  0.0000)
  19 Li     4.851532    1.617039   13.473568    ( 0.0000,  0.0000,  0.0000)
  20 Li     8.085184    1.617036   13.469888    ( 0.0000,  0.0000,  0.0000)
  21 Li     1.617016    4.851090   13.472812    ( 0.0000,  0.0000,  0.0000)
  22 Li     4.851133    4.851089   13.472813    ( 0.0000,  0.0000,  0.0000)
  23 Li     8.085184    4.850691   13.473561    ( 0.0000,  0.0000,  0.0000)
  24 Li     1.617017    8.085206   13.472812    ( 0.0000,  0.0000,  0.0000)
  25 Li     4.851132    8.085206   13.472814    ( 0.0000,  0.0000,  0.0000)
  26 Li     8.085184    8.085606   13.473574    ( 0.0000,  0.0000,  0.0000)
  27 Li     0.001860   -0.001868   15.442484    ( 0.0000,  0.0000,  0.0000)
  28 Li     3.234074    0.000865   15.444674    ( 0.0000,  0.0000,  0.0000)
  29 Li     6.466288   -0.001868   15.442484    ( 0.0000,  0.0000,  0.0000)
  30 Li     0.001875    3.235940   15.442482    ( 0.0000,  0.0000,  0.0000)
  31 Li     3.234076    3.233211   15.444698    ( 0.0000,  0.0000,  0.0000)
  32 Li     6.466271    3.235943   15.442481    ( 0.0000,  0.0000,  0.0000)
  33 Li    -0.000865    6.468157   15.444686    ( 0.0000,  0.0000,  0.0000)
  34 Li     3.234076    6.468145   15.444276    ( 0.0000,  0.0000,  0.0000)
  35 Li     6.469011    6.468154   15.444685    ( 0.0000,  0.0000,  0.0000)
  36 B      8.085629    1.617808   21.300760    ( 0.0000,  0.0000,  0.0000)
  37 H      9.121266    2.211955   21.491873    ( 0.0000,  0.0000,  0.0000)
  38 H      7.052076    2.215981   21.492277    ( 0.0000,  0.0000,  0.0000)
  39 H      8.084648    0.422156   21.491556    ( 0.0000,  0.0000,  0.0000)
  40 N      8.085111    1.616991   18.441814    ( 0.0000,  0.0000,  0.0000)
  41 N      8.085195    1.617132   19.558757    ( 0.0000,  0.0000,  0.0000)

Unit cell:
           periodic     x           y           z      points  spacing
  1. axis:    yes    9.702222    0.000000    0.000000    60     0.1617
  2. axis:    yes    0.000000    9.702222    0.000000    60     0.1617
  3. axis:    no     0.000000    0.000000   24.851111   156     0.1593

  Lengths:   9.702222   9.702222  24.851111
  Angles:   90.000000  90.000000  90.000000

Effective grid spacing dv^(1/3) = 0.1609

     iter     time        total  log10-change:
                         energy  eigst   dens
iter:   1 05:08:35  -255.380143  -1.08
iter:   2 05:09:22  -255.352511  -1.42  -1.76
iter:   3 05:10:10  -255.347602  -2.40  -2.04
iter:   4 05:10:57  -255.341650c -1.99  -2.39
Writing to output.gpw (mode='')

iter:   5 05:11:46  -255.342856c -2.83  -2.51
iter:   6 05:12:33  -255.342447c -2.51  -2.65
iter:   7 05:13:20  -255.340847c -2.83  -2.52
iter:   8 05:14:08  -255.340489c -3.15  -2.70
iter:   9 05:14:55  -255.340489c -3.05  -3.00
Writing to output.gpw (mode='')

iter:  10 05:15:44  -255.340483c -3.86  -3.12
iter:  11 05:16:32  -255.340544c -4.39  -3.28
iter:  12 05:17:19  -255.340553c -4.62  -3.39
iter:  13 05:18:06  -255.340564c -4.38  -3.44
iter:  14 05:18:54  -255.340530c -4.48  -3.52
Writing to output.gpw (mode='')

iter:  15 05:19:42  -255.340534c -4.77  -3.67
iter:  16 05:20:30  -255.340541c -4.69  -3.70
iter:  17 05:21:17  -255.340527c -5.41  -3.88
iter:  18 05:22:05  -255.340541c -5.39  -3.96
iter:  19 05:22:52  -255.340536c -5.73  -4.12c
Writing to output.gpw (mode='')

iter:  20 05:23:41  -255.340540c -5.90  -4.34c
iter:  21 05:24:28  -255.340541c -5.90  -4.39c
iter:  22 05:25:16  -255.340540c -5.99  -4.46c
iter:  23 05:26:03  -255.340543c -6.13  -4.55c
iter:  24 05:26:51  -255.340542c -6.51  -4.72c
Writing to output.gpw (mode='')

iter:  25 05:27:40  -255.340543c -6.54  -4.75c
iter:  26 05:28:27  -255.340543c -6.50  -4.85c
iter:  27 05:29:15  -255.340543c -6.61  -4.99c
iter:  28 05:30:02  -255.340543c -6.50  -5.14c
iter:  29 05:30:50  -255.340543c -6.70  -5.29c
Writing to output.gpw (mode='')

iter:  30 05:31:38  -255.340543c -6.92  -5.32c
iter:  31 05:32:26  -255.340543c -6.90  -5.39c
iter:  32 05:33:13  -255.340543c -6.93  -5.47c
iter:  33 05:34:01  -255.340543c -7.07  -5.56c
iter:  34 05:34:48  -255.340543c -6.98  -5.51c
Writing to output.gpw (mode='')

iter:  35 05:35:37  -255.340543c -6.90  -5.40c
iter:  36 05:36:24  -255.340543c -7.44c -5.29c

Converged after 36 iterations.

Dipole moment: (-1.453311, -4.294570, -0.364490) |e|*Ang

Energy contributions relative to reference atoms: (reference = -10970.764591)

Kinetic:       +108.335350
Potential:     -102.464602
External:        +0.000000
XC:            -261.439870
Entropy (-ST):   -0.155798
Local:           +0.306477
--------------------------
Free energy:   -255.418442
Extrapolated:  -255.340543

Dipole-layer corrected work functions: 3.395126, 4.095801 eV

Showing only first 2 kpts
 Kpt  Band  Eigenvalues  Occupancy
  0    24     -3.99632    1.98684
  0    25     -3.90912    1.92699
  0    26     -3.59074    0.08667
  0    27     -3.49254    0.01263

  1    24     -3.77054    1.24566
  1    25     -3.74054    0.95079
  1    26     -3.71081    0.66668
  1    27     -3.69182    0.50970


Fermi level: -3.74546

No gap
Writing to output.gpw (mode='')


Forces in eV/Ang:
  0 Li    0.00557    0.00002   -0.27429
  1 Li   -0.00558    0.00002   -0.27429
  2 Li    0.00000   -0.00001   -0.27454
  3 Li   -0.00375   -0.00378   -0.27349
  4 Li    0.00375   -0.00378   -0.27349
  5 Li   -0.00000    0.00558   -0.27431
  6 Li   -0.00378    0.00375   -0.27346
  7 Li    0.00378    0.00375   -0.27345
  8 Li    0.00000   -0.00557   -0.27427
  9 Li    0.00181   -0.00182    0.25973
 10 Li   -0.00000    0.00203    0.26279
 11 Li   -0.00181   -0.00182    0.25973
 12 Li    0.00180    0.00178    0.25970
 13 Li   -0.00000   -0.00201    0.26280
 14 Li   -0.00180    0.00178    0.25970
 15 Li   -0.00202    0.00004    0.26279
 16 Li    0.00000   -0.00000    0.26793
 17 Li    0.00201    0.00003    0.26279
 18 Li   -0.00384    0.00001    0.03499
 19 Li    0.00384    0.00001    0.03499
 20 Li    0.00000   -0.00002   -0.00085
 21 Li    0.00037    0.00038    0.02821
 22 Li   -0.00037    0.00038    0.02821
 23 Li    0.00000   -0.00382    0.03489
 24 Li    0.00039   -0.00038    0.02823
 25 Li   -0.00039   -0.00037    0.02823
 26 Li    0.00000    0.00385    0.03508
 27 Li    0.01698   -0.01708   -0.02784
 28 Li    0.00000    0.00875   -0.01010
 29 Li   -0.01698   -0.01708   -0.02783
 30 Li    0.01718    0.01706   -0.02787
 31 Li   -0.00000   -0.00876   -0.00978
 32 Li   -0.01717    0.01706   -0.02787
 33 Li   -0.00875    0.00011   -0.00994
 34 Li   -0.00000   -0.00000   -0.01486
 35 Li    0.00875    0.00012   -0.00994
 36 B    -0.00186   -0.03493   -0.88330
 37 H    -0.19618   -0.11283    0.05810
 38 H     0.20068   -0.11868    0.05599
 39 H    -0.00344    0.25635    0.05118
 40 N     0.00053   -0.00055    1.26223
 41 N     0.00105    0.00227   -0.53422

System changes: positions 

Initializing position-dependent things.

Density initialized from wave functions
       .-----------------------.  
      /|                       |  
     / |                       |  
    /  |                       |  
   /   |                       |  
  /    |                       |  
 *     |                       |  
 |     |                       |  
 |     |                       |  
 |     |            H B  H     |  
 |     |             H         |  
 |     |                       |  
 |     Li             NLi      |  
 |     |              N        |  
 |     |     Li      Li      Li|  
 |     |  Li      Li      Li   |  
 | Li  |   Li      Li          |  
 |     |Li      Li      Li     |  
 |     | Li                    |  
 |   LLi     LLi     LLi       |  
 |     |  Li      Li      Li   |  
 | Li  |   Li      Li          |  
 |     |Li      Li      Li     |  
 Li    | Li      Li            |  
 |    Li      Li      Li       |  
 |     |                       |  
 |     |                       |  
 |     |                       |  
 |     |                       |  
 |     |                       |  
 |     |                       |  
 |     .-----------------------.  
 |    /                       /   
 |   /                       /    
 |  /                       /     
 | /                       /      
 |/                       /       
 *-----------------------*        

Positions:
   0 Li     1.617037    1.617037   10.000000    ( 0.0000,  0.0000,  0.0000)
   1 Li     4.851111    1.617037   10.000000    ( 0.0000,  0.0000,  0.0000)
   2 Li     8.085185    1.617037   10.000000    ( 0.0000,  0.0000,  0.0000)
   3 Li     1.617037    4.851111   10.000000    ( 0.0000,  0.0000,  0.0000)
   4 Li     4.851111    4.851111   10.000000    ( 0.0000,  0.0000,  0.0000)
   5 Li     8.085185    4.851111   10.000000    ( 0.0000,  0.0000,  0.0000)
   6 Li     1.617037    8.085185   10.000000    ( 0.0000,  0.0000,  0.0000)
   7 Li     4.851111    8.085185   10.000000    ( 0.0000,  0.0000,  0.0000)
   8 Li     8.085185    8.085185   10.000000    ( 0.0000,  0.0000,  0.0000)
   9 Li     0.000000    0.000000   11.617037    ( 0.0000,  0.0000,  0.0000)
  10 Li     3.234074    0.000000   11.617037    ( 0.0000,  0.0000,  0.0000)
  11 Li     6.468148    0.000000   11.617037    ( 0.0000,  0.0000,  0.0000)
  12 Li     0.000000    3.234074   11.617037    ( 0.0000,  0.0000,  0.0000)
  13 Li     3.234074    3.234074   11.617037    ( 0.0000,  0.0000,  0.0000)
  14 Li     6.468148    3.234074   11.617037    ( 0.0000,  0.0000,  0.0000)
  15 Li     0.000000    6.468148   11.617037    ( 0.0000,  0.0000,  0.0000)
  16 Li     3.234074    6.468148   11.617037    ( 0.0000,  0.0000,  0.0000)
  17 Li     6.468148    6.468148   11.617037    ( 0.0000,  0.0000,  0.0000)
  18 Li     1.616480    1.617039   13.474818    ( 0.0000,  0.0000,  0.0000)
  19 Li     4.851669    1.617039   13.474819    ( 0.0000,  0.0000,  0.0000)
  20 Li     8.085184    1.617035   13.469916    ( 0.0000,  0.0000,  0.0000)
  21 Li     1.617018    4.851092   13.473818    ( 0.0000,  0.0000,  0.0000)
  22 Li     4.851132    4.851092   13.473818    ( 0.0000,  0.0000,  0.0000)
  23 Li     8.085184    4.850555   13.474808    ( 0.0000,  0.0000,  0.0000)
  24 Li     1.617019    8.085204   13.473818    ( 0.0000,  0.0000,  0.0000)
  25 Li     4.851130    8.085204   13.473820    ( 0.0000,  0.0000,  0.0000)
  26 Li     8.085184    8.085743   13.474828    ( 0.0000,  0.0000,  0.0000)
  27 Li     0.002469   -0.002480   15.441394    ( 0.0000,  0.0000,  0.0000)
  28 Li     3.234074    0.001160   15.444283    ( 0.0000,  0.0000,  0.0000)
  29 Li     6.465679   -0.002480   15.441394    ( 0.0000,  0.0000,  0.0000)
  30 Li     0.002490    3.236552   15.441392    ( 0.0000,  0.0000,  0.0000)
  31 Li     3.234076    3.232916   15.444317    ( 0.0000,  0.0000,  0.0000)
  32 Li     6.465656    3.236554   15.441390    ( 0.0000,  0.0000,  0.0000)
  33 Li    -0.001160    6.468160   15.444300    ( 0.0000,  0.0000,  0.0000)
  34 Li     3.234076    6.468145   15.443739    ( 0.0000,  0.0000,  0.0000)
  35 Li     6.469306    6.468158   15.444299    ( 0.0000,  0.0000,  0.0000)
  36 B      8.085691    1.617537   21.260761    ( 0.0000,  0.0000,  0.0000)
  37 H      9.118784    2.210603   21.501107    ( 0.0000,  0.0000,  0.0000)
  38 H      7.054672    2.214426   21.501556    ( 0.0000,  0.0000,  0.0000)
  39 H      8.084478    0.425013   21.500614    ( 0.0000,  0.0000,  0.0000)
  40 N      8.085139    1.616983   18.449359    ( 0.0000,  0.0000,  0.0000)
  41 N      8.085243    1.617184   19.564625    ( 0.0000,  0.0000,  0.0000)

Unit cell:
           periodic     x           y           z      points  spacing
  1. axis:    yes    9.702222    0.000000    0.000000    60     0.1617
  2. axis:    yes    0.000000    9.702222    0.000000    60     0.1617
  3. axis:    no     0.000000    0.000000   24.851111   156     0.1593

  Lengths:   9.702222   9.702222  24.851111
  Angles:   90.000000  90.000000  90.000000

Effective grid spacing dv^(1/3) = 0.1609

     iter     time        total  log10-change:
                         energy  eigst   dens
iter:   1 05:37:32  -255.428413  -1.03
iter:   2 05:38:20  -255.393080  -1.33  -1.71
iter:   3 05:39:07  -255.386820  -2.31  -1.99
iter:   4 05:39:54  -255.379710c -1.86  -2.34
Writing to output.gpw (mode='')

iter:   5 05:40:43  -255.380925c -2.76  -2.45
iter:   6 05:41:30  -255.381028c -2.40  -2.65
iter:   7 05:42:17  -255.378968c -2.80  -2.48
iter:   8 05:43:05  -255.378489c -2.95  -2.67
iter:   9 05:43:52  -255.378566c -3.49  -2.97
Writing to output.gpw (mode='')

iter:  10 05:44:41  -255.378492c -3.53  -3.13
iter:  11 05:45:28  -255.378564c -4.15  -3.32
iter:  12 05:46:15  -255.378590c -4.50  -3.37
iter:  13 05:47:03  -255.378589c -3.84  -3.43
iter:  14 05:47:50  -255.378566c -4.05  -3.40
Writing to output.gpw (mode='')

iter:  15 05:48:38  -255.378583c -4.58  -3.34
iter:  16 05:49:26  -255.378564c -4.70  -3.68
iter:  17 05:50:13  -255.378574c -5.08  -3.94
iter:  18 05:51:01  -255.378574c -5.01  -3.99
iter:  19 05:51:48  -255.378578c -5.12  -4.06c
Writing to output.gpw (mode='')

iter:  20 05:52:36  -255.378577c -5.60  -4.07c
iter:  21 05:53:24  -255.378574c -5.45  -4.18c
iter:  22 05:54:11  -255.378575c -5.95  -4.50c
iter:  23 05:54:58  -255.378575c -6.01  -4.54c
iter:  24 05:55:46  -255.378575c -5.82  -4.64c
Writing to output.gpw (mode='')

iter:  25 05:56:34  -255.378577c -6.11  -4.73c
iter:  26 05:57:21  -255.378577c -6.34  -4.91c
iter:  27 05:58:09  -255.378577c -6.45  -4.98c
iter:  28 05:58:56  -255.378577c -6.60  -5.07c
iter:  29 05:59:43  -255.378577c -6.61  -5.15c
Writing to output.gpw (mode='')

iter:  30 06:00:32  -255.378577c -6.69  -5.29c
iter:  31 06:01:19  -255.378578c -6.51  -5.32c
iter:  32 06:02:06  -255.378577c -6.70  -5.36c
iter:  33 06:02:54  -255.378578c -6.87  -5.44c
iter:  34 06:03:41  -255.378578c -7.05  -5.58c
Writing to output.gpw (mode='')

iter:  35 06:04:29  -255.378578c -6.99  -5.64c
iter:  36 06:05:17  -255.378578c -6.95  -5.65c
iter:  37 06:06:04  -255.378578c -6.92  -5.67c
iter:  38 06:06:51  -255.378578c -7.31  -5.67c
iter:  39 06:07:39  -255.378578c -7.49c -5.72c

Converged after 39 iterations.

Dipole moment: (-1.477244, -4.268354, -0.387524) |e|*Ang

Energy contributions relative to reference atoms: (reference = -10970.764591)

Kinetic:       +108.170897
Potential:     -102.285351
External:        +0.000000
XC:            -261.493485
Entropy (-ST):   -0.155969
Local:           +0.307346
--------------------------
Free energy:   -255.456563
Extrapolated:  -255.378578

Dipole-layer corrected work functions: 3.395257, 4.140211 eV

Showing only first 2 kpts
 Kpt  Band  Eigenvalues  Occupancy
  0    24     -4.01836    1.98678
  0    25     -3.93135    1.92694
  0    26     -3.61332    0.08718
  0    27     -3.51473    0.01261

  1    24     -3.79270    1.24464
  1    25     -3.76260    0.94875
  1    26     -3.73321    0.66788
  1    27     -3.71428    0.51113


Fermi level: -3.76773

No gap
Writing to output.gpw (mode='')


Forces in eV/Ang:
  0 Li    0.00553    0.00002   -0.27440
  1 Li   -0.00554    0.00002   -0.27440
  2 Li    0.00000   -0.00001   -0.27469
  3 Li   -0.00375   -0.00378   -0.27358
  4 Li    0.00375   -0.00378   -0.27358
  5 Li   -0.00000    0.00554   -0.27443
  6 Li   -0.00379    0.00375   -0.27355
  7 Li    0.00379    0.00375   -0.27354
  8 Li   -0.00000   -0.00553   -0.27438
  9 Li    0.00200   -0.00202    0.26053
 10 Li   -0.00000    0.00210    0.26386
 11 Li   -0.00200   -0.00201    0.26053
 12 Li    0.00198    0.00197    0.26050
 13 Li   -0.00000   -0.00208    0.26387
 14 Li   -0.00198    0.00197    0.26050
 15 Li   -0.00209    0.00004    0.26386
 16 Li    0.00000   -0.00000    0.26874
 17 Li    0.00209    0.00004    0.26386
 18 Li   -0.00345    0.00001    0.03220
 19 Li    0.00345    0.00001    0.03219
 20 Li    0.00000   -0.00002   -0.00086
 21 Li    0.00061    0.00062    0.02603
 22 Li   -0.00061    0.00062    0.02603
 23 Li    0.00000   -0.00343    0.03210
 24 Li    0.00063   -0.00062    0.02604
 25 Li   -0.00063   -0.00061    0.02604
 26 Li    0.00000    0.00346    0.03229
 27 Li    0.01576   -0.01586   -0.02534
 28 Li    0.00000    0.00832   -0.00880
 29 Li   -0.01576   -0.01586   -0.02534
 30 Li    0.01596    0.01584   -0.02538
 31 Li   -0.00000   -0.00833   -0.00846
 32 Li   -0.01596    0.01585   -0.02538
 33 Li   -0.00832    0.00012   -0.00863
 34 Li   -0.00000   -0.00000   -0.01347
 35 Li    0.00832    0.00012   -0.00863
 36 B     0.00012   -0.02270   -0.58015
 37 H    -0.25818   -0.15068   -0.09399
 38 H     0.25871   -0.15643   -0.09347
 39 H    -0.00228    0.32190   -0.09688
 40 N     0.00005   -0.00033    0.87752
 41 N     0.00070    0.00132   -0.08952

System changes: positions 

Initializing position-dependent things.

Density initialized from wave functions
       .-----------------------.  
      /|                       |  
     / |                       |  
    /  |                       |  
   /   |                       |  
  /    |                       |  
 *     |                       |  
 |     |                       |  
 |     |                       |  
 |     |            H    H     |  
 |     |             HB        |  
 |     |                       |  
 |     Li             NLi      |  
 |     |              N        |  
 |     |     Li      Li      Li|  
 |     |  Li      Li      Li   |  
 | Li  |   Li      Li          |  
 |     |Li      Li      Li     |  
 |     | Li                    |  
 |   LLi     LLi     LLi       |  
 |     |  Li      Li      Li   |  
 | Li  |   Li      Li          |  
 |     |Li      Li      Li     |  
 Li    | Li      Li            |  
 |    Li      Li      Li       |  
 |     |                       |  
 |     |                       |  
 |     |                       |  
 |     |                       |  
 |     |                       |  
 |     |                       |  
 |     .-----------------------.  
 |    /                       /   
 |   /                       /    
 |  /                       /     
 | /                       /      
 |/                       /       
 *-----------------------*        

Positions:
   0 Li     1.617037    1.617037   10.000000    ( 0.0000,  0.0000,  0.0000)
   1 Li     4.851111    1.617037   10.000000    ( 0.0000,  0.0000,  0.0000)
   2 Li     8.085185    1.617037   10.000000    ( 0.0000,  0.0000,  0.0000)
   3 Li     1.617037    4.851111   10.000000    ( 0.0000,  0.0000,  0.0000)
   4 Li     4.851111    4.851111   10.000000    ( 0.0000,  0.0000,  0.0000)
   5 Li     8.085185    4.851111   10.000000    ( 0.0000,  0.0000,  0.0000)
   6 Li     1.617037    8.085185   10.000000    ( 0.0000,  0.0000,  0.0000)
   7 Li     4.851111    8.085185   10.000000    ( 0.0000,  0.0000,  0.0000)
   8 Li     8.085185    8.085185   10.000000    ( 0.0000,  0.0000,  0.0000)
   9 Li     0.000000    0.000000   11.617037    ( 0.0000,  0.0000,  0.0000)
  10 Li     3.234074    0.000000   11.617037    ( 0.0000,  0.0000,  0.0000)
  11 Li     6.468148    0.000000   11.617037    ( 0.0000,  0.0000,  0.0000)
  12 Li     0.000000    3.234074   11.617037    ( 0.0000,  0.0000,  0.0000)
  13 Li     3.234074    3.234074   11.617037    ( 0.0000,  0.0000,  0.0000)
  14 Li     6.468148    3.234074   11.617037    ( 0.0000,  0.0000,  0.0000)
  15 Li     0.000000    6.468148   11.617037    ( 0.0000,  0.0000,  0.0000)
  16 Li     3.234074    6.468148   11.617037    ( 0.0000,  0.0000,  0.0000)
  17 Li     6.468148    6.468148   11.617037    ( 0.0000,  0.0000,  0.0000)
  18 Li     1.616327    1.617039   13.476232    ( 0.0000,  0.0000,  0.0000)
  19 Li     4.851822    1.617040   13.476233    ( 0.0000,  0.0000,  0.0000)
  20 Li     8.085184    1.617035   13.469936    ( 0.0000,  0.0000,  0.0000)
  21 Li     1.617026    4.851101   13.474956    ( 0.0000,  0.0000,  0.0000)
  22 Li     4.851123    4.851100   13.474957    ( 0.0000,  0.0000,  0.0000)
  23 Li     8.085184    4.850403   13.476219    ( 0.0000,  0.0000,  0.0000)
  24 Li     1.617029    8.085195   13.474958    ( 0.0000,  0.0000,  0.0000)
  25 Li     4.851121    8.085195   13.474959    ( 0.0000,  0.0000,  0.0000)
  26 Li     8.085184    8.085897   13.476245    ( 0.0000,  0.0000,  0.0000)
  27 Li     0.003160   -0.003174   15.440183    ( 0.0000,  0.0000,  0.0000)
  28 Li     3.234074    0.001501   15.443855    ( 0.0000,  0.0000,  0.0000)
  29 Li     6.464989   -0.003174   15.440184    ( 0.0000,  0.0000,  0.0000)
  30 Li     0.003187    3.237245   15.440180    ( 0.0000,  0.0000,  0.0000)
  31 Li     3.234076    3.232576   15.443900    ( 0.0000,  0.0000,  0.0000)
  32 Li     6.464959    3.237247   15.440179    ( 0.0000,  0.0000,  0.0000)
  33 Li    -0.001500    6.468164   15.443877    ( 0.0000,  0.0000,  0.0000)
  34 Li     3.234076    6.468145   15.443138    ( 0.0000,  0.0000,  0.0000)
  35 Li     6.469646    6.468162   15.443877    ( 0.0000,  0.0000,  0.0000)
  36 B      8.085783    1.617300   21.220762    ( 0.0000,  0.0000,  0.0000)
  37 H      9.114052    2.207926   21.508008    ( 0.0000,  0.0000,  0.0000)
  38 H      7.059469    2.211508   21.508543    ( 0.0000,  0.0000,  0.0000)
  39 H      8.084309    0.430502   21.507381    ( 0.0000,  0.0000,  0.0000)
  40 N      8.085162    1.616977   18.459659    ( 0.0000,  0.0000,  0.0000)
  41 N      8.085293    1.617232   19.573033    ( 0.0000,  0.0000,  0.0000)

Unit cell:
           periodic     x           y           z      points  spacing
  1. axis:    yes    9.702222    0.000000    0.000000    60     0.1617
  2. axis:    yes    0.000000    9.702222    0.000000    60     0.1617
  3. axis:    no     0.000000    0.000000   24.851111   156     0.1593

  Lengths:   9.702222   9.702222  24.851111
  Angles:   90.000000  90.000000  90.000000

Effective grid spacing dv^(1/3) = 0.1609

     iter     time        total  log10-change:
                         energy  eigst   dens
iter:   1 06:08:47  -255.480107  -0.93
iter:   2 06:09:34  -255.426163  -1.14  -1.63
iter:   3 06:10:22  -255.416879  -2.13  -1.90
iter:   4 06:11:09  -255.407297c -1.65  -2.23
Writing to output.gpw (mode='')

iter:   5 06:11:57  -255.408564c -2.61  -2.38
iter:   6 06:12:45  -255.409192c -2.25  -2.58
iter:   7 06:13:32  -255.406539c -2.69  -2.44
iter:   8 06:14:19  -255.405995c -2.78  -2.62
iter:   9 06:15:07  -255.406076c -3.57  -2.82
Writing to output.gpw (mode='')

iter:  10 06:15:55  -255.405962c -3.25  -3.03
iter:  11 06:16:43  -255.406038c -4.06  -3.23
iter:  12 06:17:30  -255.406070c -4.41  -3.29
iter:  13 06:18:18  -255.406087c -3.79  -3.33
[...]
iter:   2 11:00:26  -255.475369  -2.56  -2.19
iter:   3 11:02:45  -255.474820c -3.72  -2.51
iter:   4 11:05:09  -255.473902c -2.91  -2.95
Writing to output.gpw (mode='')

iter:   5 11:07:38  -255.474189c -3.62  -2.93
iter:   6 11:10:08  -255.474143c -3.89  -3.11
iter:   7 11:12:32  -255.473971c -3.97  -3.24
iter:   8 11:14:54  -255.473947c -4.53  -3.48
iter:   9 11:17:24  -255.473949c -4.60  -3.56
Writing to output.gpw (mode='')

iter:  10 11:19:52  -255.473948c -5.31  -3.74
iter:  11 11:22:11  -255.473967c -5.20  -3.83
iter:  12 11:24:33  -255.473964c -5.75  -3.95
iter:  13 11:26:55  -255.473959c -5.56  -4.04c
iter:  14 11:29:10  -255.473955c -5.71  -4.17c
Writing to output.gpw (mode='')

iter:  15 11:31:45  -255.473950c -5.63  -4.25c
iter:  16 11:34:14  -255.473955c -6.10  -4.24c
iter:  17 11:36:36  -255.473956c -6.18  -4.54c
iter:  18 11:38:54  -255.473954c -6.78  -4.60c
iter:  19 11:41:18  -255.473953c -6.58  -4.71c
Writing to output.gpw (mode='')

iter:  20 11:43:45  -255.473953c -6.60  -4.97c
iter:  21 11:46:13  -255.473953c -7.27  -5.05c
iter:  22 11:48:33  -255.473953c -7.46c -5.11c

Converged after 22 iterations.

Dipole moment: (-1.621817, -4.097049, -0.356356) |e|*Ang

Energy contributions relative to reference atoms: (reference = -10970.764591)

Kinetic:       +111.878501
Potential:     -104.942181
External:        +0.000000
XC:            -262.643078
Entropy (-ST):   -0.155779
Local:           +0.310695
--------------------------
Free energy:   -255.551843
Extrapolated:  -255.473953

Dipole-layer corrected work functions: 3.393785, 4.078823 eV

Showing only first 2 kpts
 Kpt  Band  Eigenvalues  Occupancy
  0    24     -3.98554    1.98641
  0    25     -3.90049    1.92774
  0    26     -3.57990    0.08393
  0    27     -3.48107    0.01206

  1    24     -3.75911    1.22416
  1    25     -3.73119    0.94894
  1    26     -3.70267    0.67579
  1    27     -3.68518    0.52907


Fermi level: -3.73630

No gap
Writing to output.gpw (mode='')


Forces in eV/Ang:
  0 Li    0.00508    0.00003   -0.27505
  1 Li   -0.00508    0.00003   -0.27505
  2 Li    0.00000   -0.00002   -0.27544
  3 Li   -0.00354   -0.00358   -0.27420
  4 Li    0.00354   -0.00358   -0.27420
  5 Li   -0.00000    0.00509   -0.27508
  6 Li   -0.00359    0.00354   -0.27416
  7 Li    0.00359    0.00354   -0.27416
  8 Li   -0.00000   -0.00507   -0.27502
  9 Li    0.00335   -0.00338    0.26656
 10 Li   -0.00000    0.00265    0.27080
 11 Li   -0.00335   -0.00337    0.26656
 12 Li    0.00333    0.00331    0.26652
 13 Li   -0.00000   -0.00262    0.27079
 14 Li   -0.00333    0.00330    0.26652
 15 Li   -0.00264    0.00006    0.27079
 16 Li    0.00000   -0.00001    0.27423
 17 Li    0.00263    0.00006    0.27079
 18 Li   -0.00085    0.00001    0.01391
 19 Li    0.00085    0.00001    0.01391
 20 Li    0.00000   -0.00001    0.00141
 21 Li    0.00161    0.00161    0.01193
 22 Li   -0.00161    0.00161    0.01193
 23 Li    0.00000   -0.00083    0.01385
 24 Li    0.00161   -0.00161    0.01191
 25 Li   -0.00161   -0.00160    0.01191
 26 Li    0.00000    0.00087    0.01398
 27 Li    0.00765   -0.00773   -0.01208
 28 Li   -0.00000    0.00465   -0.00264
 29 Li   -0.00765   -0.00773   -0.01208
 30 Li    0.00781    0.00773   -0.01214
 31 Li   -0.00000   -0.00465   -0.00236
 32 Li   -0.00780    0.00773   -0.01214
 33 Li   -0.00465    0.00010   -0.00250
 34 Li   -0.00000   -0.00001   -0.00515
 35 Li    0.00465    0.00011   -0.00250
 36 B    -0.00062   -0.00110   -0.04385
 37 H     0.01065    0.01585   -0.00208
 38 H    -0.00865    0.01590   -0.00276
 39 H    -0.00068   -0.01030    0.00584
 40 N    -0.00072   -0.00089    0.11977
 41 N     0.00155    0.00166   -0.12499

System changes: positions 

Initializing position-dependent things.

Density initialized from wave functions
       .-----------------------.  
      /|                       |  
     / |                       |  
    /  |                       |  
   /   |                       |  
  /    |                       |  
 *     |                       |  
 |     |                       |  
 |     |                       |  
 |     |            H    H     |  
 |     |             HB        |  
 |     |                       |  
 |     Li             NLi      |  
 |     |              N        |  
 |     |     Li      Li      Li|  
 |     |  Li      Li      Li   |  
 | Li  |   Li      Li          |  
 |     |Li      Li      Li     |  
 |     | Li                    |  
 |   LLi     LLi     LLi       |  
 |     |  Li      Li      Li   |  
 | Li  |   Li      Li          |  
 |     |Li      Li      Li     |  
 Li    | Li      Li            |  
 |    Li      Li      Li       |  
 |     |                       |  
 |     |                       |  
 |     |                       |  
 |     |                       |  
 |     |                       |  
 |     |                       |  
 |     .-----------------------.  
 |    /                       /   
 |   /                       /    
 |  /                       /     
 | /                       /      
 |/                       /       
 *-----------------------*        

Positions:
   0 Li     1.617037    1.617037   10.000000    ( 0.0000,  0.0000,  0.0000)
   1 Li     4.851111    1.617037   10.000000    ( 0.0000,  0.0000,  0.0000)
   2 Li     8.085185    1.617037   10.000000    ( 0.0000,  0.0000,  0.0000)
   3 Li     1.617037    4.851111   10.000000    ( 0.0000,  0.0000,  0.0000)
   4 Li     4.851111    4.851111   10.000000    ( 0.0000,  0.0000,  0.0000)
   5 Li     8.085185    4.851111   10.000000    ( 0.0000,  0.0000,  0.0000)
   6 Li     1.617037    8.085185   10.000000    ( 0.0000,  0.0000,  0.0000)
   7 Li     4.851111    8.085185   10.000000    ( 0.0000,  0.0000,  0.0000)
   8 Li     8.085185    8.085185   10.000000    ( 0.0000,  0.0000,  0.0000)
   9 Li     0.000000    0.000000   11.617037    ( 0.0000,  0.0000,  0.0000)
  10 Li     3.234074    0.000000   11.617037    ( 0.0000,  0.0000,  0.0000)
  11 Li     6.468148    0.000000   11.617037    ( 0.0000,  0.0000,  0.0000)
  12 Li     0.000000    3.234074   11.617037    ( 0.0000,  0.0000,  0.0000)
  13 Li     3.234074    3.234074   11.617037    ( 0.0000,  0.0000,  0.0000)
  14 Li     6.468148    3.234074   11.617037    ( 0.0000,  0.0000,  0.0000)
  15 Li     0.000000    6.468148   11.617037    ( 0.0000,  0.0000,  0.0000)
  16 Li     3.234074    6.468148   11.617037    ( 0.0000,  0.0000,  0.0000)
  17 Li     6.468148    6.468148   11.617037    ( 0.0000,  0.0000,  0.0000)
  18 Li     1.615642    1.617044   13.483680    ( 0.0000,  0.0000,  0.0000)
  19 Li     4.852505    1.617043   13.483680    ( 0.0000,  0.0000,  0.0000)
  20 Li     8.085185    1.617030   13.470043    ( 0.0000,  0.0000,  0.0000)
  21 Li     1.617397    4.851475   13.481099    ( 0.0000,  0.0000,  0.0000)
  22 Li     4.850752    4.851474   13.481099    ( 0.0000,  0.0000,  0.0000)
  23 Li     8.085184    4.849724   13.483640    ( 0.0000,  0.0000,  0.0000)
  24 Li     1.617403    8.084823   13.481101    ( 0.0000,  0.0000,  0.0000)
  25 Li     4.850746    8.084825   13.481102    ( 0.0000,  0.0000,  0.0000)
  26 Li     8.085184    8.086586   13.483719    ( 0.0000,  0.0000,  0.0000)
  27 Li     0.006919   -0.006964   15.434179    ( 0.0000,  0.0000,  0.0000)
  28 Li     3.234074    0.003600   15.441998    ( 0.0000,  0.0000,  0.0000)
  29 Li     6.461231   -0.006965   15.434180    ( 0.0000,  0.0000,  0.0000)
  30 Li     0.007007    3.241031   15.434157    ( 0.0000,  0.0000,  0.0000)
  31 Li     3.234076    3.230474   15.442146    ( 0.0000,  0.0000,  0.0000)
  32 Li     6.461141    3.241034   15.434157    ( 0.0000,  0.0000,  0.0000)
  33 Li    -0.003600    6.468202   15.442072    ( 0.0000,  0.0000,  0.0000)
  34 Li     3.234076    6.468143   15.440096    ( 0.0000,  0.0000,  0.0000)
  35 Li     6.471747    6.468200   15.442072    ( 0.0000,  0.0000,  0.0000)
  36 B      8.086001    1.616954   21.181376    ( 0.0000,  0.0000,  0.0000)
  37 H      9.099896    2.200015   21.473731    ( 0.0000,  0.0000,  0.0000)
  38 H      7.073986    2.203097   21.474172    ( 0.0000,  0.0000,  0.0000)
  39 H      8.084107    0.447452   21.473656    ( 0.0000,  0.0000,  0.0000)
  40 N      8.085149    1.617063   18.528879    ( 0.0000,  0.0000,  0.0000)
  41 N      8.085303    1.617012   19.640045    ( 0.0000,  0.0000,  0.0000)

Unit cell:
           periodic     x           y           z      points  spacing
  1. axis:    yes    9.702222    0.000000    0.000000    60     0.1617
  2. axis:    yes    0.000000    9.702222    0.000000    60     0.1617
  3. axis:    no     0.000000    0.000000   24.851111   156     0.1593

  Lengths:   9.702222   9.702222  24.851111
  Angles:   90.000000  90.000000  90.000000

Effective grid spacing dv^(1/3) = 0.1609

     iter     time        total  log10-change:
                         energy  eigst   dens
iter:   1 11:51:33  -255.476547  -2.75
iter:   2 11:54:06  -255.474580  -2.90  -2.41
iter:   3 11:56:32  -255.474422c -4.23  -2.73
iter:   4 11:58:59  -255.474115c -3.47  -3.22
Writing to output.gpw (mode='')

iter:   5 12:01:31  -255.474208c -4.14  -3.26
iter:   6 12:03:57  -255.474219c -4.43  -3.36
iter:   7 12:06:21  -255.474149c -4.82  -3.47
iter:   8 12:08:41  -255.474149c -4.93  -3.85
iter:   9 12:11:04  -255.474155c -5.23  -3.79
Writing to output.gpw (mode='')

iter:  10 12:13:25  -255.474154c -5.92  -3.98
iter:  11 12:15:53  -255.474156c -5.71  -4.11c
iter:  12 12:18:20  -255.474157c -6.00  -4.27c
iter:  13 12:20:50  -255.474155c -6.08  -4.37c
iter:  14 12:23:14  -255.474154c -6.18  -4.48c
Writing to output.gpw (mode='')

iter:  15 12:25:37  -255.474154c -6.57  -4.52c
iter:  16 12:28:00  -255.474155c -6.60  -4.53c
iter:  17 12:30:25  -255.474154c -6.84  -4.69c
iter:  18 12:32:50  -255.474153c -6.69  -4.77c
iter:  19 12:35:14  -255.474153c -7.32  -4.96c
Writing to output.gpw (mode='')

iter:  20 12:37:41  -255.474153c -7.18  -4.93c
iter:  21 12:40:12  -255.474153c -6.72  -4.95c
iter:  22 12:42:44  -255.474153c -7.64c -4.86c

Converged after 22 iterations.

Dipole moment: (-1.622202, -4.096901, -0.354552) |e|*Ang

Energy contributions relative to reference atoms: (reference = -10970.764591)

Kinetic:       +112.006396
Potential:     -105.046506
External:        +0.000000
XC:            -262.667264
Entropy (-ST):   -0.155731
Local:           +0.311087
--------------------------
Free energy:   -255.552019
Extrapolated:  -255.474153

Dipole-layer corrected work functions: 3.393820, 4.075391 eV

Showing only first 2 kpts
 Kpt  Band  Eigenvalues  Occupancy
  0    24     -3.98377    1.98639
  0    25     -3.89883    1.92778
  0    26     -3.57800    0.08360
  0    27     -3.47924    0.01203

  1    24     -3.75733    1.22338
  1    25     -3.72949    0.94890
  1    26     -3.70105    0.67650
  1    27     -3.68359    0.52990


Fermi level: -3.73461

No gap
Writing to output.gpw (mode='')


Forces in eV/Ang:
  0 Li    0.00506    0.00003   -0.27517
  1 Li   -0.00506    0.00003   -0.27517
  2 Li    0.00000   -0.00002   -0.27554
  3 Li   -0.00353   -0.00358   -0.27435
  4 Li    0.00353   -0.00358   -0.27435
  5 Li   -0.00000    0.00507   -0.27520
  6 Li   -0.00358    0.00354   -0.27431
  7 Li    0.00358    0.00353   -0.27432
  8 Li   -0.00000   -0.00505   -0.27515
  9 Li    0.00340   -0.00343    0.26691
 10 Li   -0.00000    0.00270    0.27118
 11 Li   -0.00340   -0.00343    0.26691
 12 Li    0.00339    0.00336    0.26687
 13 Li   -0.00000   -0.00267    0.27116
 14 Li   -0.00339    0.00336    0.26687
 15 Li   -0.00269    0.00006    0.27117
 16 Li    0.00001   -0.00001    0.27446
 17 Li    0.00268    0.00006    0.27117
 18 Li   -0.00072    0.00001    0.01304
 19 Li    0.00072    0.00001    0.01304
 20 Li    0.00000   -0.00001    0.00140
 21 Li    0.00162    0.00162    0.01125
 22 Li   -0.00162    0.00162    0.01126
 23 Li    0.00000   -0.00071    0.01298
 24 Li    0.00162   -0.00162    0.01124
 25 Li   -0.00162   -0.00161    0.01124
 26 Li    0.00000    0.00074    0.01311
 27 Li    0.00738   -0.00745   -0.01177
 28 Li   -0.00000    0.00448   -0.00241
 29 Li   -0.00738   -0.00746   -0.01177
 30 Li    0.00753    0.00746   -0.01183
 31 Li   -0.00000   -0.00448   -0.00213
 32 Li   -0.00753    0.00746   -0.01183
 33 Li   -0.00448    0.00010   -0.00227
 34 Li   -0.00000   -0.00001   -0.00476
 35 Li    0.00448    0.00010   -0.00227
 36 B     0.00022    0.00156   -0.00474
 37 H    -0.00558    0.00613   -0.00720
 38 H     0.00671    0.00683   -0.00767
 39 H    -0.00072    0.00652    0.00114
 40 N    -0.00052   -0.00055   -0.00888
 41 N     0.00114    0.00087   -0.02498

Timing:                                      incl.     excl.
-------------------------------------------------------------------
Density initialized from wave functions:    14.536    14.536   0.0% |
 Symmetrize density:                         0.000     0.000   0.0% |
Forces:                                     85.609    85.609   0.1% |
Hamiltonian:                               887.142     0.003   0.0% |
 Atomic:                                     1.815     0.016   0.0% |
  XC Correction:                             1.799     1.799   0.0% |
 Calculate atomic Hamiltonians:              6.306     6.306   0.0% |
 Communicate:                                3.123     3.123   0.0% |
 Hartree integrate/restrict:                 2.090     2.090   0.0% |
 Initialize Hamiltonian:                     0.000     0.000   0.0% |
 Poisson:                                   46.943    20.528   0.0% |
  Communicate from 1D:                       3.447     3.447   0.0% |
  Communicate from 2D:                       4.973     4.973   0.0% |
  Communicate to 1D:                         1.424     1.424   0.0% |
  Communicate to 2D:                         5.278     5.278   0.0% |
  FFT 1D:                                    5.414     5.414   0.0% |
  FFT 2D:                                    5.879     5.879   0.0% |
 XC 3D grid:                               826.454   114.240   0.2% |
  VdW-DF integral:                         712.214     2.474   0.0% |
   Convolution:                             67.040    67.040   0.1% |
   FFT:                                     13.069    13.069   0.0% |
   gather:                                 494.526   494.526   0.7% |
   hmm1:                                    11.491    11.491   0.0% |
   hmm2:                                    14.934    14.934   0.0% |
   iFFT:                                    13.149    13.149   0.0% |
   potential:                               82.155     1.285   0.0% |
    collect:                                 6.761     6.761   0.0% |
    p1:                                     34.769    34.769   0.0% |
    p2:                                     23.915    23.915   0.0% |
    sum:                                    15.425    15.425   0.0% |
   splines:                                 13.376    13.376   0.0% |
 vbar:                                       0.408     0.408   0.0% |
LCAO initialization:                        11.857     0.580   0.0% |
 LCAO eigensolver:                           3.989     0.001   0.0% |
  Calculate projections:                     0.000     0.000   0.0% |
  DenseAtomicCorrection:                     0.000     0.000   0.0% |
  Distribute overlap matrix:                 3.784     3.784   0.0% |
  Orbital Layouts:                           0.145     0.145   0.0% |
  Potential matrix:                          0.054     0.054   0.0% |
  Sum over cells:                            0.005     0.005   0.0% |
 LCAO to grid:                               5.491     5.491   0.0% |
 Set positions (LCAO WFS):                   1.798     1.556   0.0% |
  Basic WFS set positions:                   0.003     0.003   0.0% |
  Basis functions set positions:             0.001     0.001   0.0% |
  P tci:                                     0.000     0.000   0.0% |
  ST tci:                                    0.149     0.149   0.0% |
  mktci:                                     0.088     0.088   0.0% |
Redistribute:                                0.012     0.012   0.0% |
SCF-cycle:                               69153.246   797.344   1.1% |
 Davidson:                               20912.961  8717.605  12.4% |----|
  Apply hamiltonian:                      1334.768  1334.768   1.9% ||
  Subspace diag:                          2931.938     0.198   0.0% |
   calc_h_matrix:                         1804.770   496.794   0.7% |
    Apply hamiltonian:                    1307.975  1307.975   1.9% ||
   diagonalize:                             92.251    92.251   0.1% |
   rotate_psi:                            1034.719  1034.719   1.5% ||
  calc. matrices:                         6030.137  3594.300   5.1% |-|
   Apply hamiltonian:                     2435.837  2435.837   3.5% ||
  diagonalize:                               8.635     8.635   0.0% |
  rotate_psi:                             1889.878  1889.878   2.7% ||
 Density:                                  464.446     0.044   0.0% |
  Atomic density matrices:                  96.323    96.323   0.1% |
  Mix:                                     175.840   175.840   0.2% |
  Multipole moments:                         1.824     1.824   0.0% |
  Pseudo density:                          190.416   190.383   0.3% |
   Symmetrize density:                       0.033     0.033   0.0% |
 Hamiltonian:                            46945.722     0.191   0.0% |
  Atomic:                                   90.906     1.141   0.0% |
   XC Correction:                           89.765    89.765   0.1% |
  Calculate atomic Hamiltonians:           284.569   284.569   0.4% |
  Communicate:                             220.411   220.411   0.3% |
  Hartree integrate/restrict:              101.861   101.861   0.1% |
  Poisson:                                2303.643  1033.641   1.5% ||
   Communicate from 1D:                    169.900   169.900   0.2% |
   Communicate from 2D:                    268.108   268.108   0.4% |
   Communicate to 1D:                       69.884    69.884   0.1% |
   Communicate to 2D:                      256.314   256.314   0.4% |
   FFT 1D:                                 244.077   244.077   0.3% |
   FFT 2D:                                 261.719   261.719   0.4% |
  XC 3D grid:                            43920.529  5588.130   7.9% |--|
   VdW-DF integral:                      38332.400   119.911   0.2% |
    Convolution:                          3347.299  3347.299   4.8% |-|
    FFT:                                   634.355   634.355   0.9% |
    gather:                              28110.086 28110.086  39.9% |---------------|
    hmm1:                                  591.157   591.157   0.8% |
    hmm2:                                  786.282   786.282   1.1% |
    iFFT:                                  670.131   670.131   1.0% |
    potential:                            4073.171    58.148   0.1% |
     collect:                              337.382   337.382   0.5% |
     p1:                                  1712.097  1712.097   2.4% ||
     p2:                                  1167.556  1167.556   1.7% ||
     sum:                                  797.987   797.987   1.1% |
    splines:                                 0.008     0.008   0.0% |
  vbar:                                     23.612    23.612   0.0% |
 Orthonormalize:                            32.773     0.005   0.0% |
  calc_s_matrix:                             4.599     4.599   0.0% |
  inverse-cholesky:                          0.775     0.775   0.0% |
  projections:                              15.736    15.736   0.0% |
  rotate_psi_s:                             11.658    11.658   0.0% |
Set symmetry:                                0.003     0.003   0.0% |
Other:                                     260.423   260.423   0.4% |
-------------------------------------------------------------------
Total:                                             70412.828 100.0%

Memory usage: 1.48 GiB
Date: Sat Feb 25 12:42:53 2023
