
  ___ ___ ___ _ _ _  
 |   |   |_  | | | | 
 | | | | | . | | | | 
 |__ |  _|___|_____|  22.8.0
 |___|_|             

User:   vazumah@r488.ib.bridges2.psc.edu
Date:   Fri Mar 10 12:22:51 2023
Arch:   x86_64
Pid:    103729
CWD:    /jet/home/vazumah/Calcs/LiMEAS/proton_donors/ethanediol_z/bridge/8.085_1.617/N2_z
Python: 3.11.0
gpaw:   /jet/home/vazumah/.conda/envs/GPAW_mpich/lib/python3.11/site-packages/gpaw
_gpaw:  /jet/home/vazumah/.conda/envs/GPAW_mpich/lib/python3.11/site-packages/
        _gpaw.cpython-311-x86_64-linux-gnu.so
ase:    /jet/home/vazumah/.conda/envs/GPAW_mpich/lib/python3.11/site-packages/ase (version 3.22.1)
numpy:  /jet/home/vazumah/.conda/envs/GPAW_mpich/lib/python3.11/site-packages/numpy (version 1.24.2)
scipy:  /jet/home/vazumah/.conda/envs/GPAW_mpich/lib/python3.11/site-packages/scipy (version 1.10.1)
libxc:  5.2.3
units:  Angstrom and eV
cores: 128
OpenMP: True
OMP_NUM_THREADS: 1

Input parameters:
  h: 0.16
  kpts: {size: [4, 4, 1]}
  occupations: {name: fermi-dirac,
                width: 0.05}
  poissonsolver: {dipolelayer: xy}
  xc: BEEF-vdW

System changes: positions, numbers, cell, pbc, initial_charges, initial_magmoms 

Initialize ...

species:
  Li:
    name: Lithium
    id: 830b4218f175192f93f959cfc0aad614
    Z: 3.0
    valence: 1
    core: 2
    charge: 0.0
    file: /jet/home/vazumah/datasets/gpaw-setups-0.9.20000/Li.PBE.gz
    compensation charges: {type: gauss,
                           rc: 0.33,
                           lmax: 2}
    cutoffs: {filter: 1.91,
              core: 2.55}
    valence states:
      #              energy  rcut
      - 2s(1.00)    -2.874   1.058
      - 2p(0.00)    -1.090   1.058
      -  s          24.337   1.058
  
    # Using partial waves for Li as LCAO basis

  O:
    name: Oxygen
    id: 32ecd46bf208036f09c70b0ec9a88b78
    Z: 8.0
    valence: 6
    core: 2
    charge: 0.0
    file: /jet/home/vazumah/datasets/gpaw-setups-0.9.20000/O.PBE.gz
    compensation charges: {type: gauss,
                           rc: 0.21,
                           lmax: 2}
    cutoffs: {filter: 1.17,
              core: 0.83}
    valence states:
      #              energy  rcut
      - 2s(2.00)   -23.961   0.688
      - 2p(4.00)    -9.029   0.598
      -  s           3.251   0.688
      -  p          18.182   0.598
      -  d           0.000   0.619
  
    # Using partial waves for O as LCAO basis

  C:
    name: Carbon
    id: 4aa54d4b901d75f77cc0ea3eec22967b
    Z: 6.0
    valence: 4
    core: 2
    charge: 0.0
    file: /jet/home/vazumah/datasets/gpaw-setups-0.9.20000/C.PBE.gz
    compensation charges: {type: gauss,
                           rc: 0.20,
                           lmax: 2}
    cutoffs: {filter: 1.14,
              core: 1.14}
    valence states:
      #              energy  rcut
      - 2s(2.00)   -13.751   0.635
      - 2p(2.00)    -5.284   0.635
      -  s          13.461   0.635
      -  p          21.927   0.635
      -  d           0.000   0.635
  
    # Using partial waves for C as LCAO basis

  H:
    name: Hydrogen
    id: d65de229564ff8ea4db303e23b6d1ecf
    Z: 1.0
    valence: 1
    core: 0
    charge: 0.0
    file: /jet/home/vazumah/datasets/gpaw-setups-0.9.20000/H.PBE.gz
    compensation charges: {type: gauss,
                           rc: 0.15,
                           lmax: 2}
    cutoffs: {filter: 0.85,
              core: 0.53}
    valence states:
      #              energy  rcut
      - 1s(1.00)    -6.494   0.476
      -  s          20.717   0.476
      -  p           0.000   0.476
  
    # Using partial waves for H as LCAO basis

  N:
    name: Nitrogen
    id: f7500608b86eaa90eef8b1d9a670dc53
    Z: 7.0
    valence: 5
    core: 2
    charge: 0.0
    file: /jet/home/vazumah/datasets/gpaw-setups-0.9.20000/N.PBE.gz
    compensation charges: {type: gauss,
                           rc: 0.18,
                           lmax: 2}
    cutoffs: {filter: 1.11,
              core: 0.96}
    valence states:
      #              energy  rcut
      - 2s(2.00)   -18.583   0.603
      - 2p(3.00)    -7.089   0.529
      -  s           8.629   0.603
      -  p          20.123   0.529
      -  d           0.000   0.577
  
    # Using partial waves for N as LCAO basis

Reference energy: -16475.706344  # eV

Spin-paired calculation

Convergence criteria:
 Maximum [total energy] change in last 3 cyles: 0.0005 eV / electron
 Maximum integral of absolute [dens]ity change: 0.0001 electrons / valence electron
 Maximum integral of absolute [eigenst]ate change: 4e-08 eV^2 / valence electron
 Maximum number of scf [iter]ations: 333
 (Square brackets indicate name in SCF output, whereas a 'c' in
 the SCF output indicates the quantity has converged.)

Symmetries present (total): 1

  ( 1  0  0)
  ( 0  1  0)
  ( 0  0  1)

16 k-points: 4 x 4 x 1 Monkhorst-Pack grid
8 k-points in the irreducible part of the Brillouin zone
       k-points in crystal coordinates                weights
   0:     0.12500000   -0.37500000    0.00000000          2/16
   1:     0.12500000   -0.12500000    0.00000000          2/16
   2:     0.12500000    0.12500000    0.00000000          2/16
   3:     0.12500000    0.37500000    0.00000000          2/16
   4:     0.37500000   -0.37500000    0.00000000          2/16
   5:     0.37500000   -0.12500000    0.00000000          2/16
   6:     0.37500000    0.12500000    0.00000000          2/16
   7:     0.37500000    0.37500000    0.00000000          2/16

Wave functions: Uniform real-space grid
  Kinetic energy operator: 6*3+1=19 point O(h^6) finite-difference Laplacian
  ScaLapack parameters: grid=1x1, blocksize=None
  Wavefunction extrapolation:
    Improved wavefunction reuse through dual PAW basis 

Occupation numbers: Fermi-Dirac:
  width: 0.0500  # eV
 

Eigensolver
   Davidson(niter=2) 

Densities:
  Coarse grid: 60*60*168 grid
  Fine grid: 120*120*336 grid
  Total Charge: 0.000000 

Density mixing:
  Method: separate
  Backend: pulay
  Linear mixing parameter: 0.05
  old densities: 5
  Damping of long wavelength oscillations: 50 

Hamiltonian:
  XC and Coulomb potentials evaluated on a 120*120*336 grid
  Using the BEEF-vdW Exchange-Correlation functional
  Interpolation: tri-quintic (5. degree polynomial)
  Poisson solver: FastPoissonSolver using
    Stencil: 6*3+1=19 point O(h^6) finite-difference Laplacian
    FFT axes: [0, 1]
    FST axes: [2]

Dipole correction along z-axis 

XC parameters: BEEF-vdW with 2 nearest neighbor stencil

Memory estimate:
  Process memory now: 128.51 MiB
  Calculator: 86.74 MiB
    Density: 22.99 MiB
      Arrays: 7.40 MiB
      Localized functions: 12.78 MiB
      Mixer: 2.82 MiB
    Hamiltonian: 5.85 MiB
      Arrays: 4.84 MiB
      XC: 0.00 MiB
      Poisson: 0.00 MiB
      vbar: 1.01 MiB
    Wavefunctions: 57.90 MiB
      Arrays psit_nG: 27.03 MiB
      Eigensolver: 30.19 MiB
      Projections: 0.01 MiB
      Projectors: 0.66 MiB

Total number of cores used: 128
Parallelization over k-points: 8
Domain decomposition: 2 x 2 x 4

Number of atoms: 48
Number of atomic orbitals: 174
Number of bands in calculation: 48
Number of valence electrons: 72
Bands to converge: occupied

... initialized

Initializing position-dependent things.

Density initialized from atomic densities
Creating initial wave functions:
  48 bands from LCAO basis set

       .-----------------------.  
      /|                       |  
     / |                       |  
    /  |                       |  
   /   |                       |  
  /    |                       |  
 *     |                       |  
 |     |                       |  
 |     |                       |  
 |     |               H       |  
 |     |             O C  H    |  
 |     |             H         |  
 |     |           H  CH       |  
 |     |                       |  
 |     |              O H      |  
 |     |              N        |  
 |   Li|     Li      Li        |  
 |     |  Li      Li  N   Li   |  
 | Li  |   Li      Li          |  
 |     |Li      Li      Li     |  
 Li    | Li      Li            |  
 |   LLi     LLi     LLi       |  
 |     |  Li      Li      Li   |  
 | Li  |   Li      Li          |  
 |     |Li      Li      Li     |  
 Li    | Li      Li            |  
 |    Li      Li      Li       |  
 |     |                       |  
 |     |                       |  
 |     |                       |  
 |     |                       |  
 |     |                       |  
 |     |                       |  
 |     .-----------------------.  
 |    /                       /   
 |   /                       /    
 |  /                       /     
 | /                       /      
 |/                       /       
 *-----------------------*        

Positions:
   0 Li     1.617037    1.617037   10.000000    ( 0.0000,  0.0000,  0.0000)
   1 Li     4.851111    1.617037   10.000000    ( 0.0000,  0.0000,  0.0000)
   2 Li     8.085185    1.617037   10.000000    ( 0.0000,  0.0000,  0.0000)
   3 Li     1.617037    4.851111   10.000000    ( 0.0000,  0.0000,  0.0000)
   4 Li     4.851111    4.851111   10.000000    ( 0.0000,  0.0000,  0.0000)
   5 Li     8.085185    4.851111   10.000000    ( 0.0000,  0.0000,  0.0000)
   6 Li     1.617037    8.085185   10.000000    ( 0.0000,  0.0000,  0.0000)
   7 Li     4.851111    8.085185   10.000000    ( 0.0000,  0.0000,  0.0000)
   8 Li     8.085185    8.085185   10.000000    ( 0.0000,  0.0000,  0.0000)
   9 Li     0.000000    0.000000   11.617037    ( 0.0000,  0.0000,  0.0000)
  10 Li     3.234074    0.000000   11.617037    ( 0.0000,  0.0000,  0.0000)
  11 Li     6.468148    0.000000   11.617037    ( 0.0000,  0.0000,  0.0000)
  12 Li     0.000000    3.234074   11.617037    ( 0.0000,  0.0000,  0.0000)
  13 Li     3.234074    3.234074   11.617037    ( 0.0000,  0.0000,  0.0000)
  14 Li     6.468148    3.234074   11.617037    ( 0.0000,  0.0000,  0.0000)
  15 Li     0.000000    6.468148   11.617037    ( 0.0000,  0.0000,  0.0000)
  16 Li     3.234074    6.468148   11.617037    ( 0.0000,  0.0000,  0.0000)
  17 Li     6.468148    6.468148   11.617037    ( 0.0000,  0.0000,  0.0000)
  18 Li     1.617038    1.617038   13.469728    ( 0.0000,  0.0000,  0.0000)
  19 Li     4.851111    1.617038   13.469729    ( 0.0000,  0.0000,  0.0000)
  20 Li     8.085184    1.617038   13.469728    ( 0.0000,  0.0000,  0.0000)
  21 Li     1.617038    4.851111   13.469729    ( 0.0000,  0.0000,  0.0000)
  22 Li     4.851111    4.851111   13.469730    ( 0.0000,  0.0000,  0.0000)
  23 Li     8.085184    4.851111   13.469729    ( 0.0000,  0.0000,  0.0000)
  24 Li     1.617038    8.085184   13.469728    ( 0.0000,  0.0000,  0.0000)
  25 Li     4.851111    8.085184   13.469729    ( 0.0000,  0.0000,  0.0000)
  26 Li     8.085184    8.085184   13.469728    ( 0.0000,  0.0000,  0.0000)
  27 Li    -0.000000   -0.000000   15.445939    ( 0.0000,  0.0000,  0.0000)
  28 Li     3.234074    0.000000   15.445939    ( 0.0000,  0.0000,  0.0000)
  29 Li     6.468148    0.000000   15.445939    ( 0.0000,  0.0000,  0.0000)
  30 Li     0.000000    3.234074   15.445939    ( 0.0000,  0.0000,  0.0000)
  31 Li     3.234076    3.234076   15.445938    ( 0.0000,  0.0000,  0.0000)
  32 Li     6.468146    3.234076   15.445938    ( 0.0000,  0.0000,  0.0000)
  33 Li     0.000000    6.468148   15.445939    ( 0.0000,  0.0000,  0.0000)
  34 Li     3.234076    6.468146   15.445938    ( 0.0000,  0.0000,  0.0000)
  35 Li     6.468146    6.468146   15.445938    ( 0.0000,  0.0000,  0.0000)
  36 O      8.085185    1.617037   19.645939    ( 0.0000,  0.0000,  0.0000)
  37 O      7.852496    1.661030   22.544137    ( 0.0000,  0.0000,  0.0000)
  38 C      7.672808    2.788249   20.374500    ( 0.0000,  0.0000,  0.0000)
  39 C      8.241959    2.801939   21.783686    ( 0.0000,  0.0000,  0.0000)
  40 H      7.965641    3.702639   19.846375    ( 0.0000,  0.0000,  0.0000)
  41 H      6.583241    2.740951   20.407249    ( 0.0000,  0.0000,  0.0000)
  42 H      7.865478    3.676205   22.320404    ( 0.0000,  0.0000,  0.0000)
  43 H      9.341020    2.877440   21.733956    ( 0.0000,  0.0000,  0.0000)
  44 H      9.032506    1.691552   19.476515    ( 0.0000,  0.0000,  0.0000)
  45 H      7.948935    0.893910   21.964672    ( 0.0000,  0.0000,  0.0000)
  46 N      8.085000    1.617000   17.195939    ( 0.0000,  0.0000,  0.0000)
  47 N      8.085000    1.617000   18.292561    ( 0.0000,  0.0000,  0.0000)

Unit cell:
           periodic     x           y           z      points  spacing
  1. axis:    yes    9.702222    0.000000    0.000000    60     0.1617
  2. axis:    yes    0.000000    9.702222    0.000000    60     0.1617
  3. axis:    no     0.000000    0.000000   26.601111   168     0.1583

  Lengths:   9.702222   9.702222  26.601111
  Angles:   90.000000  90.000000  90.000000

Effective grid spacing dv^(1/3) = 0.1606

     iter     time        total  log10-change:
                         energy  eigst   dens
iter:   1 12:23:06  -767.801213
iter:   2 12:23:14    92.520009  +2.64  +0.04
iter:   3 12:23:21   299.459806  +3.41  -0.09
iter:   4 12:23:29  -189.782496  +3.54  -0.15
Writing to output.gpw (mode='')

iter:   5 12:23:36  -279.051660  +3.03  -0.15
iter:   6 12:23:44  -301.479901  +2.62  -0.38
iter:   7 12:23:51  -337.332983  +2.27  -0.52
iter:   8 12:23:58  -385.963153  +2.12  -0.50
iter:   9 12:24:06  -508.979537  +2.47  -0.38
Writing to output.gpw (mode='')

iter:  10 12:24:13  -356.483473  +1.84  -0.27
iter:  11 12:24:21  -322.811212  +2.07  -0.50
iter:  12 12:24:28  -323.961265  +1.47  -0.68
iter:  13 12:24:36  -323.862620  +1.28  -0.69
iter:  14 12:24:48  -320.511812  +0.60  -0.71
Writing to output.gpw (mode='')

iter:  15 12:24:55  -334.320108  +1.39  -0.80
iter:  16 12:25:03  -324.525490  +0.59  -0.50
iter:  17 12:25:10  -326.053199  +1.98  -0.62
iter:  18 12:25:19  -321.359567  +1.12  -0.76
iter:  19 12:25:27  -319.651721  +0.56  -0.82
Writing to output.gpw (mode='')

iter:  20 12:25:34  -317.947089  +0.08  -0.84
iter:  21 12:25:41  -316.836715  +0.55  -0.93
iter:  22 12:25:49  -316.997492  -0.31  -1.22
iter:  23 12:25:56  -316.529525  +0.39  -1.13
iter:  24 12:26:04  -316.930116  -0.05  -1.35
Writing to output.gpw (mode='')

iter:  25 12:26:11  -317.484119  +0.48  -1.15
iter:  26 12:26:19  -316.450325  -0.29  -1.09
iter:  27 12:26:26  -316.348287  -0.25  -1.46
iter:  28 12:26:33  -316.380451  -0.48  -1.69
iter:  29 12:26:41  -316.414648  -0.93  -1.79
Writing to output.gpw (mode='')

iter:  30 12:26:48  -316.404778c -1.34  -1.84
iter:  31 12:26:56  -316.410598c -1.44  -1.89
iter:  32 12:27:03  -316.393850c -1.27  -1.88
iter:  33 12:27:11  -316.389095c -1.35  -2.01
iter:  34 12:27:18  -316.392628c -1.66  -2.33
Writing to output.gpw (mode='')

iter:  35 12:27:25  -316.395054c -1.76  -2.36
iter:  36 12:27:33  -316.397751c -1.69  -2.37
iter:  37 12:27:40  -316.399706c -1.90  -2.37
iter:  38 12:27:48  -316.402569c -2.08  -2.51
iter:  39 12:27:55  -316.403874c -2.16  -2.51
Writing to output.gpw (mode='')

iter:  40 12:28:03  -316.405741c -2.11  -2.52
iter:  41 12:28:10  -316.406306c -2.13  -2.49
iter:  42 12:28:17  -316.410444c -2.01  -2.47
iter:  43 12:28:25  -316.408566c -2.25  -2.31
iter:  44 12:28:33  -316.410092c -2.36  -2.44
Writing to output.gpw (mode='')

iter:  45 12:28:40  -316.408444c -2.31  -2.39
iter:  46 12:28:47  -316.409036c -2.51  -2.63
iter:  47 12:28:55  -316.409641c -2.59  -2.61
iter:  48 12:29:03  -316.410016c -2.76  -2.71
iter:  49 12:29:10  -316.410142c -3.07  -2.75
Writing to output.gpw (mode='')

iter:  50 12:29:17  -316.410304c -3.04  -2.75
iter:  51 12:29:25  -316.410246c -3.14  -2.70
iter:  52 12:29:32  -316.410434c -3.09  -2.77
iter:  53 12:29:47  -316.410458c -2.99  -2.74
iter:  54 12:29:58  -316.410400c -3.02  -2.76
Writing to output.gpw (mode='')

iter:  55 12:30:07  -316.410700c -3.18  -2.93
iter:  56 12:30:14  -316.410723c -3.34  -3.00
iter:  57 12:30:21  -316.410735c -3.26  -3.08
iter:  58 12:30:29  -316.410740c -3.20  -3.12
iter:  59 12:30:36  -316.410787c -3.26  -3.10
Writing to output.gpw (mode='')

iter:  60 12:30:44  -316.410816c -3.54  -3.15
iter:  61 12:30:51  -316.410992c -3.26  -3.22
iter:  62 12:30:58  -316.410912c -3.69  -3.32
iter:  63 12:31:06  -316.410893c -3.89  -3.55
iter:  64 12:31:13  -316.410944c -3.86  -3.60
Writing to output.gpw (mode='')

iter:  65 12:31:21  -316.410940c -4.08  -3.72
iter:  66 12:31:28  -316.410949c -4.05  -3.73
iter:  67 12:31:36  -316.410957c -4.16  -3.78
iter:  68 12:31:43  -316.410983c -3.98  -3.80
iter:  69 12:31:50  -316.410983c -4.23  -3.79
Writing to output.gpw (mode='')

iter:  70 12:31:58  -316.410978c -4.09  -3.86
iter:  71 12:32:05  -316.410979c -4.46  -3.85
iter:  72 12:32:13  -316.410972c -4.21  -3.88
iter:  73 12:32:20  -316.410970c -4.35  -3.87
iter:  74 12:32:28  -316.410987c -4.66  -3.82
Writing to output.gpw (mode='')

iter:  75 12:32:35  -316.410975c -4.86  -3.91
iter:  76 12:32:43  -316.410980c -4.52  -3.86
iter:  77 12:32:50  -316.410988c -4.72  -3.80
iter:  78 12:32:57  -316.410984c -4.76  -3.89
iter:  79 12:33:05  -316.410986c -5.02  -3.96
Writing to output.gpw (mode='')

iter:  80 12:33:12  -316.410992c -4.85  -3.95
iter:  81 12:33:20  -316.410988c -4.97  -3.91
iter:  82 12:33:27  -316.410985c -4.84  -3.98
iter:  83 12:33:35  -316.410982c -5.00  -4.06c
iter:  84 12:33:42  -316.410980c -5.08  -4.14c
Writing to output.gpw (mode='')

iter:  85 12:33:50  -316.410978c -5.18  -4.26c
iter:  86 12:33:57  -316.410980c -5.35  -4.41c
iter:  87 12:34:04  -316.410982c -5.39  -4.47c
iter:  88 12:34:12  -316.410985c -5.30  -4.48c
iter:  89 12:34:19  -316.410984c -5.61  -4.55c
Writing to output.gpw (mode='')

iter:  90 12:34:27  -316.410983c -5.42  -4.71c
iter:  91 12:34:34  -316.410983c -5.76  -4.88c
iter:  92 12:34:48  -316.410983c -5.64  -4.90c
iter:  93 12:34:55  -316.410983c -5.68  -4.95c
iter:  94 12:35:03  -316.410983c -5.96  -4.95c
Writing to output.gpw (mode='')

iter:  95 12:35:10  -316.410983c -5.91  -4.97c
iter:  96 12:35:18  -316.410983c -6.01  -4.97c
iter:  97 12:35:25  -316.410983c -6.08  -4.95c
iter:  98 12:35:33  -316.410983c -6.01  -5.07c
iter:  99 12:35:40  -316.410983c -6.24  -5.07c
Writing to output.gpw (mode='')

iter: 100 12:35:47  -316.410983c -6.15  -5.16c
iter: 101 12:35:55  -316.410983c -6.11  -5.33c
iter: 102 12:36:03  -316.410983c -6.32  -5.30c
iter: 103 12:36:10  -316.410983c -6.45  -5.37c
iter: 104 12:36:17  -316.410983c -6.34  -5.40c
Writing to output.gpw (mode='')

iter: 105 12:36:25  -316.410983c -6.56  -5.74c
iter: 106 12:36:32  -316.410983c -6.62  -5.73c
iter: 107 12:36:40  -316.410983c -6.64  -5.71c
iter: 108 12:36:47  -316.410983c -6.59  -5.64c
iter: 109 12:36:55  -316.410983c -6.56  -5.70c
Writing to output.gpw (mode='')

iter: 110 12:37:02  -316.410983c -6.69  -5.87c
iter: 111 12:37:09  -316.410983c -6.79  -5.90c
iter: 112 12:37:17  -316.410983c -6.82  -6.05c
iter: 113 12:37:24  -316.410983c -6.86  -6.08c
iter: 114 12:37:32  -316.410983c -6.97  -6.11c
Writing to output.gpw (mode='')

iter: 115 12:37:39  -316.410983c -6.94  -6.12c
iter: 116 12:37:47  -316.410983c -7.06  -6.13c
iter: 117 12:37:54  -316.410983c -7.14  -6.16c
iter: 118 12:38:01  -316.410983c -7.07  -6.19c
iter: 119 12:38:09  -316.410983c -7.16  -6.23c
Writing to output.gpw (mode='')

iter: 120 12:38:16  -316.410983c -7.22  -6.35c
iter: 121 12:38:24  -316.410983c -7.39  -6.33c
iter: 122 12:38:31  -316.410983c -7.34  -6.40c
iter: 123 12:38:39  -316.410983c -7.28  -6.44c
iter: 124 12:38:46  -316.410983c -7.34  -6.45c
Writing to output.gpw (mode='')

iter: 125 12:38:53  -316.410983c -7.49c -6.45c

Converged after 125 iterations.

Dipole moment: (1.215988, -3.781634, 0.107218) |e|*Ang

Energy contributions relative to reference atoms: (reference = -16475.706344)

Kinetic:       +193.507857
Potential:     -175.849598
External:        +0.000000
XC:            -335.036213
Entropy (-ST):   -0.169792
Local:           +1.051868
--------------------------
Free energy:   -316.495879
Extrapolated:  -316.410983

Dipole-layer corrected work functions: 3.388780, 3.182670 eV

Showing only first 2 kpts
 Kpt  Band  Eigenvalues  Occupancy
  0    34     -3.47522    1.95580
  0    35     -3.39171    1.78560
  0    36     -3.14923    0.12246
  0    37     -3.10106    0.04857

  1    34     -3.36967    1.68553
  1    35     -3.28737    1.01648
  1    36     -3.27083    0.85212
  1    37     -3.19199    0.26597


Fermi level: -3.28573

No gap

Forces in eV/Ang:
  0 Li    0.02669    0.00062   -0.27072
  1 Li   -0.02768    0.00055   -0.27291
  2 Li    0.00207   -0.00277   -0.28181
  3 Li    0.00271   -0.00243   -0.27572
  4 Li   -0.00011    0.00103   -0.27779
  5 Li   -0.00097    0.02797   -0.27205
  6 Li   -0.00134    0.00191   -0.27894
  7 Li    0.00283   -0.00254   -0.27622
  8 Li   -0.00109   -0.02619   -0.27089
  9 Li    0.00658   -0.00675    0.28403
 10 Li   -0.00676    0.00901    0.25624
 11 Li   -0.00008   -0.00042    0.29052
 12 Li    0.00056    0.00120    0.29240
 13 Li   -0.00414   -0.00355    0.25000
 14 Li    0.00324   -0.00330    0.29905
 15 Li   -0.00992    0.00608    0.25670
 16 Li    0.00432   -0.00415    0.25357
 17 Li    0.00330    0.00412    0.24929
 18 Li   -0.00708    0.00261    0.04960
 19 Li   -0.00457    0.00281    0.02658
 20 Li    0.00475   -0.00489   -0.13942
 21 Li   -0.00964   -0.00288    0.04096
 22 Li    0.00979   -0.01036    0.04568
 23 Li   -0.00418    0.00263    0.03135
 24 Li   -0.00004   -0.00089    0.03312
 25 Li    0.00357    0.01054    0.04232
 26 Li   -0.00322    0.00662    0.04661
 27 Li    0.04021   -0.04216    0.01831
 28 Li   -0.00713    0.01912   -0.01191
 29 Li   -0.02297   -0.01279    0.02735
 30 Li    0.02539    0.03557    0.01579
 31 Li   -0.01019   -0.01501   -0.01365
 32 Li    0.00422   -0.00611    0.05914
 33 Li   -0.01868    0.00063   -0.01243
 34 Li    0.00535   -0.00479   -0.02164
 35 Li    0.01469    0.00300   -0.01663
 36 O    -1.55061    0.13841   13.94284
 37 O    -0.05447    0.25414    0.09105
 38 C    -1.77727    2.71592    3.21111
 39 C     0.12166   -0.10550   -0.00641
 40 H     0.27742   -0.26568   -0.38687
 41 H     0.07285   -0.02133   -0.00278
 42 H    -0.03897    0.03442    0.11756
 43 H    -0.13547    0.06331   -0.01103
 44 H     1.96597   -0.42407    1.28688
 45 H     0.03974   -0.23649    0.01128
 46 N    -2.91848    1.70616   -9.23395
 47 N     3.99956   -3.86007   -9.19752

System changes: positions 

Initializing position-dependent things.

Density initialized from wave functions
       .-----------------------.  
      /|                       |  
     / |                       |  
    /  |                       |  
   /   |                       |  
  /    |                       |  
 *     |                       |  
 |     |                       |  
 |     |                       |  
 |     |               H       |  
 |     |             O C  H    |  
 |     |             H         |  
 |     |           H  CH       |  
 |     |                       |  
 |     Li             OLH      |  
 |     |              N        |  
 |     |     Li      Li      Li|  
 |     |  Li      Li  N   Li   |  
 | Li  |   Li      Li          |  
 |     |Li      Li      Li     |  
 |     | Li                    |  
 |   LLi     LLi     LLi       |  
 |     |  Li      Li      Li   |  
 | Li  |   Li      Li          |  
 |     |Li      Li      Li     |  
 Li    | Li      Li            |  
 |    Li      Li      Li       |  
 |     |                       |  
 |     |                       |  
 |     |                       |  
 |     |                       |  
 |     |                       |  
 |     |                       |  
 |     .-----------------------.  
 |    /                       /   
 |   /                       /    
 |  /                       /     
 | /                       /      
 |/                       /       
 *-----------------------*        

Positions:
   0 Li     1.617037    1.617037   10.000000    ( 0.0000,  0.0000,  0.0000)
   1 Li     4.851111    1.617037   10.000000    ( 0.0000,  0.0000,  0.0000)
   2 Li     8.085185    1.617037   10.000000    ( 0.0000,  0.0000,  0.0000)
   3 Li     1.617037    4.851111   10.000000    ( 0.0000,  0.0000,  0.0000)
   4 Li     4.851111    4.851111   10.000000    ( 0.0000,  0.0000,  0.0000)
   5 Li     8.085185    4.851111   10.000000    ( 0.0000,  0.0000,  0.0000)
   6 Li     1.617037    8.085185   10.000000    ( 0.0000,  0.0000,  0.0000)
   7 Li     4.851111    8.085185   10.000000    ( 0.0000,  0.0000,  0.0000)
   8 Li     8.085185    8.085185   10.000000    ( 0.0000,  0.0000,  0.0000)
   9 Li     0.000000    0.000000   11.617037    ( 0.0000,  0.0000,  0.0000)
  10 Li     3.234074    0.000000   11.617037    ( 0.0000,  0.0000,  0.0000)
  11 Li     6.468148    0.000000   11.617037    ( 0.0000,  0.0000,  0.0000)
  12 Li     0.000000    3.234074   11.617037    ( 0.0000,  0.0000,  0.0000)
  13 Li     3.234074    3.234074   11.617037    ( 0.0000,  0.0000,  0.0000)
  14 Li     6.468148    3.234074   11.617037    ( 0.0000,  0.0000,  0.0000)
  15 Li     0.000000    6.468148   11.617037    ( 0.0000,  0.0000,  0.0000)
  16 Li     3.234074    6.468148   11.617037    ( 0.0000,  0.0000,  0.0000)
  17 Li     6.468148    6.468148   11.617037    ( 0.0000,  0.0000,  0.0000)
  18 Li     1.617018    1.617046   13.469869    ( 0.0000,  0.0000,  0.0000)
  19 Li     4.851098    1.617046   13.469805    ( 0.0000,  0.0000,  0.0000)
  20 Li     8.085197    1.617024   13.469330    ( 0.0000,  0.0000,  0.0000)
  21 Li     1.617011    4.851103   13.469846    ( 0.0000,  0.0000,  0.0000)
  22 Li     4.851139    4.851081   13.469860    ( 0.0000,  0.0000,  0.0000)
  23 Li     8.085172    4.851118   13.469819    ( 0.0000,  0.0000,  0.0000)
  24 Li     1.617038    8.085181   13.469822    ( 0.0000,  0.0000,  0.0000)
  25 Li     4.851121    8.085214   13.469850    ( 0.0000,  0.0000,  0.0000)
  26 Li     8.085175    8.085203   13.469861    ( 0.0000,  0.0000,  0.0000)
  27 Li     0.000115   -0.000120   15.445992    ( 0.0000,  0.0000,  0.0000)
  28 Li     3.234053    0.000055   15.445905    ( 0.0000,  0.0000,  0.0000)
  29 Li     6.468083   -0.000036   15.446017    ( 0.0000,  0.0000,  0.0000)
  30 Li     0.000072    3.234175   15.445984    ( 0.0000,  0.0000,  0.0000)
  31 Li     3.234047    3.234034   15.445899    ( 0.0000,  0.0000,  0.0000)
  32 Li     6.468158    3.234059   15.446107    ( 0.0000,  0.0000,  0.0000)
  33 Li    -0.000053    6.468150   15.445903    ( 0.0000,  0.0000,  0.0000)
  34 Li     3.234092    6.468132   15.445876    ( 0.0000,  0.0000,  0.0000)
  35 Li     6.468187    6.468154   15.445891    ( 0.0000,  0.0000,  0.0000)
  36 O      8.080764    1.617432   19.685692    ( 0.0000,  0.0000,  0.0000)
  37 O      7.852341    1.661755   22.544397    ( 0.0000,  0.0000,  0.0000)
  38 C      7.667741    2.795992   20.383656    ( 0.0000,  0.0000,  0.0000)
  39 C      8.242306    2.801638   21.783668    ( 0.0000,  0.0000,  0.0000)
  40 H      7.966432    3.701882   19.845271    ( 0.0000,  0.0000,  0.0000)
  41 H      6.583449    2.740890   20.407241    ( 0.0000,  0.0000,  0.0000)
  42 H      7.865367    3.676303   22.320739    ( 0.0000,  0.0000,  0.0000)
  43 H      9.340633    2.877621   21.733924    ( 0.0000,  0.0000,  0.0000)
  44 H      9.038112    1.690343   19.480184    ( 0.0000,  0.0000,  0.0000)
  45 H      7.949048    0.893236   21.964704    ( 0.0000,  0.0000,  0.0000)
  46 N      8.076679    1.621865   17.169612    ( 0.0000,  0.0000,  0.0000)
  47 N      8.096403    1.605994   18.266338    ( 0.0000,  0.0000,  0.0000)

Unit cell:
           periodic     x           y           z      points  spacing
  1. axis:    yes    9.702222    0.000000    0.000000    60     0.1617
  2. axis:    yes    0.000000    9.702222    0.000000    60     0.1617
  3. axis:    no     0.000000    0.000000   26.601111   168     0.1583

  Lengths:   9.702222   9.702222  26.601111
  Angles:   90.000000  90.000000  90.000000

Effective grid spacing dv^(1/3) = 0.1606

     iter     time        total  log10-change:
                         energy  eigst   dens
iter:   1 12:39:03  -317.899078  -0.33
iter:   2 12:39:10  -317.871937  -0.81  -1.81
iter:   3 12:39:18  -317.822079  -0.91  -1.67
iter:   4 12:39:25  -317.765382  -1.21  -1.87
Writing to output.gpw (mode='')

iter:   5 12:39:33  -317.751456  -1.40  -2.00
iter:   6 12:39:47  -317.764508c -1.23  -2.12
iter:   7 12:39:55  -317.748444c -2.09  -1.95
iter:   8 12:40:02  -317.738654c -2.00  -2.09
iter:   9 12:40:10  -317.741166c -1.84  -2.38
Writing to output.gpw (mode='')

iter:  10 12:40:17  -317.739575c -2.47  -2.54
iter:  11 12:40:25  -317.738153c -2.39  -2.62
iter:  12 12:40:33  -317.738319c -3.09  -2.88
iter:  13 12:40:40  -317.738353c -3.39  -2.97
iter:  14 12:40:48  -317.738365c -3.20  -3.06
Writing to output.gpw (mode='')

iter:  15 12:40:55  -317.738402c -3.64  -3.15
iter:  16 12:41:03  -317.738417c -3.84  -3.19
iter:  17 12:41:10  -317.738421c -4.05  -3.46
iter:  18 12:41:20  -317.738427c -4.01  -3.57
iter:  19 12:41:27  -317.738434c -4.15  -3.63
Writing to output.gpw (mode='')

iter:  20 12:41:35  -317.738440c -4.52  -3.58
iter:  21 12:41:42  -317.738437c -4.82  -3.89
iter:  22 12:41:50  -317.738439c -5.00  -3.98
iter:  23 12:41:57  -317.738438c -5.10  -4.01c
iter:  24 12:42:05  -317.738441c -5.03  -4.10c
Writing to output.gpw (mode='')

iter:  25 12:42:12  -317.738442c -5.31  -4.17c
iter:  26 12:42:20  -317.738444c -5.39  -4.23c
iter:  27 12:42:27  -317.738445c -5.57  -4.50c
iter:  28 12:42:35  -317.738445c -5.49  -4.56c
iter:  29 12:42:42  -317.738446c -5.63  -4.60c
Writing to output.gpw (mode='')

iter:  30 12:42:50  -317.738446c -5.82  -4.63c
iter:  31 12:42:57  -317.738446c -5.91  -4.63c
iter:  32 12:43:05  -317.738447c -6.03  -4.60c
iter:  33 12:43:12  -317.738447c -6.07  -4.95c
iter:  34 12:43:20  -317.738447c -6.18  -5.01c
Writing to output.gpw (mode='')

iter:  35 12:43:27  -317.738447c -6.22  -5.02c
iter:  36 12:43:35  -317.738447c -6.31  -5.04c
iter:  37 12:43:42  -317.738447c -6.21  -5.17c
iter:  38 12:43:50  -317.738447c -6.41  -5.25c
iter:  39 12:43:57  -317.738447c -6.52  -5.24c
Writing to output.gpw (mode='')

iter:  40 12:44:05  -317.738447c -6.53  -5.35c
iter:  41 12:44:12  -317.738447c -6.65  -5.43c
iter:  42 12:44:20  -317.738447c -6.67  -5.51c
iter:  43 12:44:27  -317.738447c -6.90  -5.63c
iter:  44 12:44:35  -317.738447c -6.92  -5.77c
Writing to output.gpw (mode='')

iter:  45 12:44:47  -317.738447c -7.00  -5.76c
iter:  46 12:44:55  -317.738447c -7.03  -5.70c
iter:  47 12:45:02  -317.738447c -7.05  -5.62c
iter:  48 12:45:10  -317.738447c -7.09  -5.60c
iter:  49 12:45:17  -317.738447c -7.16  -5.63c
Writing to output.gpw (mode='')

iter:  50 12:45:25  -317.738447c -7.26  -5.68c
iter:  51 12:45:32  -317.738447c -7.26  -5.81c
iter:  52 12:45:40  -317.738447c -7.24  -5.83c
iter:  53 12:45:47  -317.738447c -7.26  -5.88c
iter:  54 12:45:55  -317.738447c -7.41c -5.87c

Converged after 54 iterations.

Dipole moment: (1.020252, -3.687508, 0.074593) |e|*Ang

Energy contributions relative to reference atoms: (reference = -16475.706344)

Kinetic:       +194.817903
Potential:     -177.976239
External:        +0.000000
XC:            -335.551605
Entropy (-ST):   -0.151783
Local:           +1.047386
--------------------------
Free energy:   -317.814338
Extrapolated:  -317.738447

Dipole-layer corrected work functions: 3.391272, 3.247878 eV

Showing only first 2 kpts
 Kpt  Band  Eigenvalues  Occupancy
  0    34     -3.55976    1.98373
  0    35     -3.44974    1.86215
  0    36     -3.15562    0.07259
  0    37     -3.10041    0.02466

  1    34     -3.38796    1.59403
  1    35     -3.32235    1.02779
  1    36     -3.30232    0.82916
  1    37     -3.21492    0.21953


Fermi level: -3.31957

No gap
Writing to output.gpw (mode='')


Forces in eV/Ang:
  0 Li    0.02856    0.00034   -0.27040
  1 Li   -0.02931    0.00016   -0.27307
  2 Li    0.00240   -0.00214   -0.27887
  3 Li    0.00002   -0.00250   -0.27690
  4 Li    0.00075   -0.00005   -0.27709
  5 Li   -0.00058    0.02925   -0.27197
  6 Li   -0.00209    0.00262   -0.27857
  7 Li    0.00247   -0.00019   -0.27704
  8 Li   -0.00079   -0.02819   -0.27063
  9 Li    0.00535   -0.00536    0.28247
 10 Li   -0.00652    0.00977    0.25110
 11 Li   -0.00002    0.00099    0.29083
 12 Li   -0.00004    0.00144    0.28993
 13 Li   -0.00544   -0.00510    0.24640
 14 Li    0.00396   -0.00417    0.29851
 15 Li   -0.01121    0.00475    0.25230
 16 Li    0.00556   -0.00451    0.26183
 17 Li    0.00519    0.00422    0.24514
 18 Li   -0.00906    0.00217    0.05406
 19 Li   -0.00554    0.00225    0.03046
 20 Li    0.00680   -0.00570   -0.14993
 21 Li   -0.01160   -0.00556    0.04355
 22 Li    0.01424   -0.01465    0.04956
 23 Li   -0.00382    0.00176    0.03762
 24 Li   -0.00377    0.00257    0.03754
 25 Li    0.00747    0.01319    0.04488
 26 Li   -0.00317    0.00814    0.04940
 27 Li    0.06225   -0.06222   -0.01868
 28 Li   -0.00574    0.02297   -0.01705
 29 Li   -0.03872   -0.02851    0.00119
 30 Li    0.04661    0.05314   -0.01984
 31 Li   -0.00752   -0.01945   -0.01850
 32 Li   -0.01033    0.00683    0.02796
 33 Li   -0.02232   -0.00052   -0.01677
 34 Li    0.00296   -0.00350   -0.01922
 35 Li    0.01956    0.00056   -0.02006
 36 O    -1.14881    0.88375   16.05992
 37 O    -0.03846    0.19388    0.03037
 38 C    -0.98211    1.44064    2.54132
 39 C    -0.04108    0.19848    0.29543
 40 H     0.25268   -0.14156   -0.36526
 41 H    -0.12985    0.03013    0.07833
 42 H     0.02573    0.01908    0.17052
 43 H    -0.09670    0.04575   -0.04892
 44 H     0.45783   -0.34724    1.29518
 45 H     0.02928   -0.13618    0.00465
 46 N    -3.17674    1.74023   -7.24291
 47 N     4.82311   -3.93589  -12.84255

System changes: positions 

Initializing position-dependent things.

Density initialized from wave functions
       .-----------------------.  
      /|                       |  
     / |                       |  
    /  |                       |  
   /   |                       |  
  /    |                       |  
 *     |                       |  
 |     |                       |  
 |     |                       |  
 |     |               H       |  
 |     |             O C  H    |  
 |     |             H         |  
 |     |           H  CH       |  
 |     |                       |  
 |     Li             O H      |  
 |     |              N        |  
 |     |     Li      Li      Li|  
 |     |  Li      Li  N   Li   |  
 | Li  |   Li      Li          |  
 |     |Li      Li      Li     |  
 |     | Li      Li            |  
 |   LLi     LLi     LLi       |  
 |     |  Li      Li      Li   |  
 | Li  |   Li      Li          |  
 |     |Li      Li      Li     |  
 Li    | Li      Li            |  
 |    Li      Li      Li       |  
 |     |                       |  
 |     |                       |  
 |     |                       |  
 |     |                       |  
 |     |                       |  
 |     |                       |  
 |     .-----------------------.  
 |    /                       /   
 |   /                       /    
 |  /                       /     
 | /                       /      
 |/                       /       
 *-----------------------*        

Positions:
   0 Li     1.617037    1.617037   10.000000    ( 0.0000,  0.0000,  0.0000)
   1 Li     4.851111    1.617037   10.000000    ( 0.0000,  0.0000,  0.0000)
   2 Li     8.085185    1.617037   10.000000    ( 0.0000,  0.0000,  0.0000)
   3 Li     1.617037    4.851111   10.000000    ( 0.0000,  0.0000,  0.0000)
   4 Li     4.851111    4.851111   10.000000    ( 0.0000,  0.0000,  0.0000)
   5 Li     8.085185    4.851111   10.000000    ( 0.0000,  0.0000,  0.0000)
   6 Li     1.617037    8.085185   10.000000    ( 0.0000,  0.0000,  0.0000)
   7 Li     4.851111    8.085185   10.000000    ( 0.0000,  0.0000,  0.0000)
   8 Li     8.085185    8.085185   10.000000    ( 0.0000,  0.0000,  0.0000)
   9 Li     0.000000    0.000000   11.617037    ( 0.0000,  0.0000,  0.0000)
  10 Li     3.234074    0.000000   11.617037    ( 0.0000,  0.0000,  0.0000)
  11 Li     6.468148    0.000000   11.617037    ( 0.0000,  0.0000,  0.0000)
  12 Li     0.000000    3.234074   11.617037    ( 0.0000,  0.0000,  0.0000)
  13 Li     3.234074    3.234074   11.617037    ( 0.0000,  0.0000,  0.0000)
  14 Li     6.468148    3.234074   11.617037    ( 0.0000,  0.0000,  0.0000)
  15 Li     0.000000    6.468148   11.617037    ( 0.0000,  0.0000,  0.0000)
  16 Li     3.234074    6.468148   11.617037    ( 0.0000,  0.0000,  0.0000)
  17 Li     6.468148    6.468148   11.617037    ( 0.0000,  0.0000,  0.0000)
  18 Li     1.617006    1.617056   13.470003    ( 0.0000,  0.0000,  0.0000)
  19 Li     4.851088    1.617058   13.469869    ( 0.0000,  0.0000,  0.0000)
  20 Li     8.085202    1.617013   13.468945    ( 0.0000,  0.0000,  0.0000)
  21 Li     1.616990    4.851107   13.469962    ( 0.0000,  0.0000,  0.0000)
  22 Li     4.851148    4.851070   13.469985    ( 0.0000,  0.0000,  0.0000)
  23 Li     8.085157    4.851131   13.469886    ( 0.0000,  0.0000,  0.0000)
  24 Li     1.617056    8.085161   13.469904    ( 0.0000,  0.0000,  0.0000)
  25 Li     4.851113    8.085234   13.469970    ( 0.0000,  0.0000,  0.0000)
  26 Li     8.085164    8.085216   13.469993    ( 0.0000,  0.0000,  0.0000)
  27 Li     0.000131   -0.000153   15.446233    ( 0.0000,  0.0000,  0.0000)
  28 Li     3.234024    0.000095   15.445893    ( 0.0000,  0.0000,  0.0000)
  29 Li     6.468089    0.000002   15.446233    ( 0.0000,  0.0000,  0.0000)
  30 Li     0.000047    3.234199   15.446211    ( 0.0000,  0.0000,  0.0000)
  31 Li     3.234002    3.234009   15.445880    ( 0.0000,  0.0000,  0.0000)
  32 Li     6.468243    3.233976   15.446447    ( 0.0000,  0.0000,  0.0000)
  33 Li    -0.000094    6.468158   15.445886    ( 0.0000,  0.0000,  0.0000)
  34 Li     3.234120    6.468110   15.445796    ( 0.0000,  0.0000,  0.0000)
  35 Li     6.468209    6.468176   15.445855    ( 0.0000,  0.0000,  0.0000)
  36 O      8.073901    1.614161   19.718921    ( 0.0000,  0.0000,  0.0000)
  37 O      7.852090    1.662852   22.544984    ( 0.0000,  0.0000,  0.0000)
  38 C      7.658211    2.810854   20.397061    ( 0.0000,  0.0000,  0.0000)
  39 C      8.243497    2.799796   21.782147    ( 0.0000,  0.0000,  0.0000)
  40 H      7.967426    3.700431   19.843950    ( 0.0000,  0.0000,  0.0000)
  41 H      6.584685    2.740567   20.406830    ( 0.0000,  0.0000,  0.0000)
  42 H      7.864923    3.676487   22.320845    ( 0.0000,  0.0000,  0.0000)
  43 H      9.340016    2.877907   21.734078    ( 0.0000,  0.0000,  0.0000)
  44 H      9.051777    1.688630   19.484181    ( 0.0000,  0.0000,  0.0000)
  45 H      7.949225    0.891995   21.964772    ( 0.0000,  0.0000,  0.0000)
  46 N      8.068805    1.627049   17.130739    ( 0.0000,  0.0000,  0.0000)
  47 N      8.104860    1.594259   18.255595    ( 0.0000,  0.0000,  0.0000)

Unit cell:
           periodic     x           y           z      points  spacing
  1. axis:    yes    9.702222    0.000000    0.000000    60     0.1617
  2. axis:    yes    0.000000    9.702222    0.000000    60     0.1617
  3. axis:    no     0.000000    0.000000   26.601111   168     0.1583

  Lengths:   9.702222   9.702222  26.601111
  Angles:   90.000000  90.000000  90.000000

Effective grid spacing dv^(1/3) = 0.1606

     iter     time        total  log10-change:
                         energy  eigst   dens
iter:   1 12:46:04  -319.938359  -0.34
iter:   2 12:46:11  -320.709482  +0.02  -1.10
iter:   3 12:46:19  -318.784919  -0.35  -0.98
iter:   4 12:46:26  -318.783041  -0.85  -1.79
Writing to output.gpw (mode='')

iter:   5 12:46:34  -318.784461c -0.80  -1.95
iter:   6 12:46:41  -318.783249c -0.86  -2.03
iter:   7 12:46:49  -318.785809c -1.62  -2.25
iter:   8 12:46:56  -318.787189c -1.72  -2.29
iter:   9 12:47:04  -318.787271c -1.63  -2.31
Writing to output.gpw (mode='')

iter:  10 12:47:11  -318.786694c -2.14  -2.59
iter:  11 12:47:19  -318.787020c -2.34  -2.62
iter:  12 12:47:26  -318.787945c -2.39  -2.75
iter:  13 12:47:33  -318.788166c -2.63  -2.75
iter:  14 12:47:41  -318.788359c -2.84  -2.93
Writing to output.gpw (mode='')

iter:  15 12:47:48  -318.788441c -3.35  -2.98
iter:  16 12:47:56  -318.788541c -3.17  -3.03
iter:  17 12:48:03  -318.788585c -3.21  -3.14
iter:  18 12:48:11  -318.788651c -3.60  -3.18
iter:  19 12:48:18  -318.788696c -3.89  -3.26
Writing to output.gpw (mode='')

iter:  20 12:48:26  -318.788716c -3.91  -3.35
iter:  21 12:48:33  -318.788737c -4.13  -3.56
iter:  22 12:48:41  -318.788737c -4.12  -3.60
iter:  23 12:48:48  -318.788759c -4.37  -3.66
iter:  24 12:48:56  -318.788757c -4.73  -3.78
Writing to output.gpw (mode='')

iter:  25 12:49:03  -318.788760c -4.69  -3.82
iter:  26 12:49:11  -318.788759c -4.75  -3.84
iter:  27 12:49:18  -318.788761c -4.92  -3.90
iter:  28 12:49:25  -318.788763c -5.05  -3.99
iter:  29 12:49:33  -318.788763c -5.10  -4.03c
Writing to output.gpw (mode='')

iter:  30 12:49:46  -318.788768c -5.28  -4.02c
iter:  31 12:49:54  -318.788768c -5.56  -4.16c
iter:  32 12:50:01  -318.788768c -5.43  -4.21c
iter:  33 12:50:09  -318.788770c -5.53  -4.51c
iter:  34 12:50:16  -318.788771c -5.69  -4.80c
Writing to output.gpw (mode='')

iter:  35 12:50:24  -318.788772c -5.62  -4.81c
iter:  36 12:50:31  -318.788772c -5.71  -4.84c
iter:  37 12:50:38  -318.788772c -5.81  -4.83c
iter:  38 12:50:46  -318.788772c -6.06  -4.60c
iter:  39 12:50:53  -318.788772c -6.17  -4.58c
Writing to output.gpw (mode='')

iter:  40 12:51:01  -318.788773c -6.14  -4.58c
iter:  41 12:51:08  -318.788772c -6.21  -4.60c
iter:  42 12:51:16  -318.788775c -6.30  -4.65c
iter:  43 12:51:23  -318.788773c -6.36  -4.81c
iter:  44 12:51:31  -318.788772c -6.39  -4.63c
Writing to output.gpw (mode='')

iter:  45 12:51:38  -318.788773c -6.65  -4.50c
iter:  46 12:51:46  -318.788773c -6.66  -4.71c
iter:  47 12:51:53  -318.788774c -6.64  -4.74c
iter:  48 12:52:01  -318.788772c -6.69  -4.79c
iter:  49 12:52:08  -318.788775c -6.79  -4.60c
Writing to output.gpw (mode='')

iter:  50 12:52:15  -318.788775c -6.74  -4.87c
iter:  51 12:52:23  -318.788775c -6.83  -4.98c
iter:  52 12:52:30  -318.788774c -7.11  -5.29c
iter:  53 12:52:38  -318.788775c -7.16  -5.28c
iter:  54 12:52:45  -318.788775c -7.05  -5.32c
Writing to output.gpw (mode='')

iter:  55 12:52:53  -318.788774c -7.23  -5.39c
iter:  56 12:53:00  -318.788775c -7.30  -5.55c
iter:  57 12:53:08  -318.788775c -7.35  -5.67c
iter:  58 12:53:15  -318.788775c -7.36  -5.81c
iter:  59 12:53:23  -318.788775c -7.45c -5.84c

Converged after 59 iterations.

Dipole moment: (0.877164, -3.566927, 0.061203) |e|*Ang

Energy contributions relative to reference atoms: (reference = -16475.706344)

Kinetic:       +188.902256
Potential:     -173.858516
External:        +0.000000
XC:            -334.810247
Entropy (-ST):   -0.150603
Local:           +1.053034
--------------------------
Free energy:   -318.864076
Extrapolated:  -318.788775

Dipole-layer corrected work functions: 3.389139, 3.271487 eV

Showing only first 2 kpts
 Kpt  Band  Eigenvalues  Occupancy
  0    34     -3.57483    1.98507
  0    35     -3.46105    1.86362
  0    36     -3.16520    0.07099
  0    37     -3.10749    0.02294

  1    34     -3.39863    1.59355
  1    35     -3.33536    1.05042
  1    36     -3.31252    0.82394
  1    37     -3.22100    0.20198


Fermi level: -3.33031

No gap
Writing to output.gpw (mode='')


Forces in eV/Ang:
  0 Li    0.02854    0.00041   -0.27020
  1 Li   -0.02892   -0.00012   -0.27357
  2 Li    0.00246   -0.00197   -0.27855
  3 Li   -0.00078   -0.00195   -0.27705
  4 Li    0.00071   -0.00018   -0.27620
  5 Li   -0.00031    0.02871   -0.27218
  6 Li   -0.00219    0.00266   -0.27804
  7 Li    0.00174    0.00056   -0.27704
  8 Li   -0.00086   -0.02809   -0.27039
  9 Li    0.00504   -0.00496    0.28259
 10 Li   -0.00679    0.00979    0.24985
 11 Li    0.00021    0.00220    0.29214
 12 Li   -0.00109    0.00117    0.29043
 13 Li   -0.00666   -0.00499    0.24530
 14 Li    0.00492   -0.00518    0.30055
 15 Li   -0.01148    0.00468    0.25154
 16 Li    0.00673   -0.00536    0.26350
 17 Li    0.00537    0.00507    0.24395
 18 Li   -0.00954    0.00179    0.05313
 19 Li   -0.00819    0.00269    0.02785
 20 Li    0.00830   -0.00686   -0.15005
 21 Li   -0.01226   -0.00674    0.04423
 22 Li    0.01679   -0.01700    0.05204
 23 Li   -0.00433    0.00338    0.03653
 24 Li   -0.00478    0.00377    0.03939
 25 Li    0.00890    0.01402    0.04543
 26 Li   -0.00292    0.00867    0.04791
 27 Li    0.05291   -0.05291   -0.00663
 28 Li   -0.00489    0.02218   -0.02029
 29 Li   -0.02733   -0.01727    0.01543
 30 Li    0.03737    0.04350   -0.00983
 31 Li   -0.00618   -0.01874   -0.02167
 32 Li    0.01064   -0.01430    0.04731
 33 Li   -0.02129   -0.00150   -0.01969
 34 Li    0.00171   -0.00289   -0.01873
 35 Li    0.01900   -0.00099   -0.02289
 36 O    -0.43306    1.30508   14.92126
 37 O    -0.01466    0.05924   -0.06744
 38 C    -0.30707    0.56105    1.88505
 39 C    -0.21524    0.52997    0.64850
 40 H     0.21689   -0.00491   -0.33469
 41 H    -0.48865    0.11827    0.16995
 42 H     0.11363   -0.04369    0.19116
 43 H    -0.04532    0.02818   -0.09218
 44 H    -0.77951   -0.35482    1.37737
 45 H     0.00826   -0.02764    0.06037
 46 N    -3.04403    1.70354   -3.46410
 47 N     4.85693   -3.87641  -15.34751

System changes: positions 

Initializing position-dependent things.

Density initialized from wave functions
       .-----------------------.  
      /|                       |  
     / |                       |  
    /  |                       |  
   /   |                       |  
  /    |                       |  
 *     |                       |  
 |     |                       |  
 |     |                       |  
 |     |               H       |  
 |     |             O C  H    |  
 |     |             H         |  
 |     |           H  CH       |  
 |     |                       |  
 |     |              O H      |  
 |     |              N        |  
 |     |     Li      Li      Li|  
 |     |  Li      Li  N   Li   |  
 |     |   Li      Li      Li  |  
 |     |Li      Li      Li     |  
 |     | Li      Li      Li    |  
 |   LLi     LLi     LLi       |  
 |     |  Li      Li      Li   |  
 | Li  |   Li      Li          |  
 |     |Li      Li      Li     |  
 Li    | Li      Li            |  
 |    Li      Li      Li       |  
 |     |                       |  
 |     |                       |  
 |     |                       |  
 |     |                       |  
 |     |                       |  
 |     |                       |  
 |     .-----------------------.  
 |    /                       /   
 |   /                       /    
 |  /                       /     
 | /                       /      
 |/                       /       
 *-----------------------*        

Positions:
   0 Li     1.617037    1.617037   10.000000    ( 0.0000,  0.0000,  0.0000)
   1 Li     4.851111    1.617037   10.000000    ( 0.0000,  0.0000,  0.0000)
   2 Li     8.085185    1.617037   10.000000    ( 0.0000,  0.0000,  0.0000)
   3 Li     1.617037    4.851111   10.000000    ( 0.0000,  0.0000,  0.0000)
   4 Li     4.851111    4.851111   10.000000    ( 0.0000,  0.0000,  0.0000)
   5 Li     8.085185    4.851111   10.000000    ( 0.0000,  0.0000,  0.0000)
   6 Li     1.617037    8.085185   10.000000    ( 0.0000,  0.0000,  0.0000)
   7 Li     4.851111    8.085185   10.000000    ( 0.0000,  0.0000,  0.0000)
   8 Li     8.085185    8.085185   10.000000    ( 0.0000,  0.0000,  0.0000)
   9 Li     0.000000    0.000000   11.617037    ( 0.0000,  0.0000,  0.0000)
  10 Li     3.234074    0.000000   11.617037    ( 0.0000,  0.0000,  0.0000)
  11 Li     6.468148    0.000000   11.617037    ( 0.0000,  0.0000,  0.0000)
  12 Li     0.000000    3.234074   11.617037    ( 0.0000,  0.0000,  0.0000)
  13 Li     3.234074    3.234074   11.617037    ( 0.0000,  0.0000,  0.0000)
  14 Li     6.468148    3.234074   11.617037    ( 0.0000,  0.0000,  0.0000)
  15 Li     0.000000    6.468148   11.617037    ( 0.0000,  0.0000,  0.0000)
  16 Li     3.234074    6.468148   11.617037    ( 0.0000,  0.0000,  0.0000)
  17 Li     6.468148    6.468148   11.617037    ( 0.0000,  0.0000,  0.0000)
  18 Li     1.616990    1.617071   13.470192    ( 0.0000,  0.0000,  0.0000)
  19 Li     4.851037    1.617089   13.469915    ( 0.0000,  0.0000,  0.0000)
  20 Li     8.085220    1.616980   13.468338    ( 0.0000,  0.0000,  0.0000)
  21 Li     1.616957    4.851114   13.470158    ( 0.0000,  0.0000,  0.0000)
  22 Li     4.851173    4.851043   13.470215    ( 0.0000,  0.0000,  0.0000)
  23 Li     8.085120    4.851184   13.469945    ( 0.0000,  0.0000,  0.0000)
  24 Li     1.617097    8.085122   13.470047    ( 0.0000,  0.0000,  0.0000)
  25 Li     4.851095    8.085264   13.470172    ( 0.0000,  0.0000,  0.0000)
  26 Li     8.085150    8.085237   13.470183    ( 0.0000,  0.0000,  0.0000)
  27 Li    -0.000131    0.000068   15.447089    ( 0.0000,  0.0000,  0.0000)
  28 Li     3.233977    0.000129   15.445856    ( 0.0000,  0.0000,  0.0000)
  29 Li     6.468382    0.000348   15.447006    ( 0.0000,  0.0000,  0.0000)
  30 Li    -0.000283    3.233975   15.447000    ( 0.0000,  0.0000,  0.0000)
  31 Li     3.233926    3.234005   15.445830    ( 0.0000,  0.0000,  0.0000)
  32 Li     6.468816    3.233414   15.447552    ( 0.0000,  0.0000,  0.0000)
  33 Li    -0.000125    6.468163   15.445839    ( 0.0000,  0.0000,  0.0000)
  34 Li     3.234167    6.468074   15.445648    ( 0.0000,  0.0000,  0.0000)
  35 Li     6.468207    6.468206   15.445773    ( 0.0000,  0.0000,  0.0000)
  36 O      8.070378    1.610062   19.745334    ( 0.0000,  0.0000,  0.0000)
  37 O      7.851916    1.663073   22.544890    ( 0.0000,  0.0000,  0.0000)
  38 C      7.646776    2.831620   20.414746    ( 0.0000,  0.0000,  0.0000)
  39 C      8.243945    2.799724   21.782988    ( 0.0000,  0.0000,  0.0000)
  40 H      7.968772    3.699198   19.841969    ( 0.0000,  0.0000,  0.0000)
  41 H      6.582599    2.741035   20.406999    ( 0.0000,  0.0000,  0.0000)
  42 H      7.865087    3.675933   22.321001    ( 0.0000,  0.0000,  0.0000)
  43 H      9.339478    2.878250   21.733924    ( 0.0000,  0.0000,  0.0000)
  44 H      9.066414    1.685003   19.492408    ( 0.0000,  0.0000,  0.0000)
  45 H      7.949276    0.890850   21.965804    ( 0.0000,  0.0000,  0.0000)
  46 N      8.058794    1.635331   17.108379    ( 0.0000,  0.0000,  0.0000)
  47 N      8.114741    1.575134   18.221881    ( 0.0000,  0.0000,  0.0000)

Unit cell:
           periodic     x           y           z      points  spacing
  1. axis:    yes    9.702222    0.000000    0.000000    60     0.1617
  2. axis:    yes    0.000000    9.702222    0.000000    60     0.1617
  3. axis:    no     0.000000    0.000000   26.601111   168     0.1583

  Lengths:   9.702222   9.702222  26.601111
  Angles:   90.000000  90.000000  90.000000

Effective grid spacing dv^(1/3) = 0.1606

     iter     time        total  log10-change:
                         energy  eigst   dens
iter:   1 12:53:32  -320.032622  -0.72
iter:   2 12:53:40  -319.977038  -0.98  -1.67
iter:   3 12:53:47  -319.953178  -1.45  -1.78
iter:   4 12:53:55  -319.926954  -1.14  -2.07
Writing to output.gpw (mode='')

iter:   5 12:54:02  -319.928786c -1.96  -2.20
iter:   6 12:54:10  -319.928303c -2.12  -2.32
iter:   7 12:54:17  -319.921298c -1.90  -2.28
iter:   8 12:54:25  -319.921257c -2.26  -2.61
iter:   9 12:54:32  -319.921753c -2.62  -2.51
Writing to output.gpw (mode='')

iter:  10 12:54:45  -319.919983c -2.63  -2.50
iter:  11 12:54:53  -319.920156c -2.57  -2.83
iter:  12 12:55:01  -319.920036c -3.30  -2.84
iter:  13 12:55:08  -319.919986c -3.21  -2.92
iter:  14 12:55:16  -319.919847c -3.88  -3.12
Writing to output.gpw (mode='')

iter:  15 12:55:23  -319.919845c -4.09  -3.20
iter:  16 12:55:31  -319.919859c -3.78  -3.25
iter:  17 12:55:38  -319.919838c -3.97  -3.31
iter:  18 12:55:46  -319.919839c -4.32  -3.54
iter:  19 12:55:53  -319.919842c -4.58  -3.66
Writing to output.gpw (mode='')

iter:  20 12:56:01  -319.919853c -4.64  -3.79
iter:  21 12:56:08  -319.919858c -4.95  -3.85
iter:  22 12:56:16  -319.919858c -5.09  -3.92
iter:  23 12:56:23  -319.919859c -5.19  -4.04c
iter:  24 12:56:31  -319.919859c -5.40  -4.12c
Writing to output.gpw (mode='')

iter:  25 12:56:38  -319.919862c -5.63  -4.19c
iter:  26 12:56:46  -319.919862c -5.71  -4.32c
iter:  27 12:56:54  -319.919862c -5.73  -4.46c
iter:  28 12:57:01  -319.919863c -5.77  -4.61c
iter:  29 12:57:12  -319.919863c -5.89  -4.67c
Writing to output.gpw (mode='')

iter:  30 12:57:19  -319.919863c -6.12  -4.69c
iter:  31 12:57:27  -319.919864c -6.12  -4.81c
iter:  32 12:57:34  -319.919864c -6.20  -4.89c
iter:  33 12:57:42  -319.919865c -6.35  -4.97c
iter:  34 12:57:49  -319.919865c -6.57  -5.04c
Writing to output.gpw (mode='')

iter:  35 12:57:57  -319.919865c -6.61  -5.10c
iter:  36 12:58:04  -319.919865c -6.75  -5.17c
iter:  37 12:58:12  -319.919865c -6.81  -5.20c
iter:  38 12:58:19  -319.919865c -6.95  -5.23c
iter:  39 12:58:27  -319.919865c -7.13  -5.70c
Writing to output.gpw (mode='')

iter:  40 12:58:34  -319.919865c -7.16  -5.64c
iter:  41 12:58:42  -319.919865c -7.14  -5.58c
iter:  42 12:58:49  -319.919865c -7.27  -5.48c
iter:  43 12:58:57  -319.919865c -7.30  -5.54c
iter:  44 12:59:04  -319.919865c -7.39  -5.52c
Writing to output.gpw (mode='')

iter:  45 12:59:12  -319.919865c -7.47c -5.48c

Converged after 45 iterations.

Dipole moment: (0.854466, -3.544002, 0.054433) |e|*Ang

Energy contributions relative to reference atoms: (reference = -16475.706344)

Kinetic:       +187.792556
Potential:     -173.766262
External:        +0.000000
XC:            -334.927901
Entropy (-ST):   -0.148260
Local:           +1.055872
--------------------------
Free energy:   -319.993995
Extrapolated:  -319.919865

Dipole-layer corrected work functions: 3.385805, 3.281166 eV

Showing only first 2 kpts
 Kpt  Band  Eigenvalues  Occupancy
  0    34     -3.58114    1.98598
  0    35     -3.46942    1.87625
  0    36     -3.16563    0.06733
  0    37     -3.09908    0.01824

  1    34     -3.39692    1.56102
  1    35     -3.34120    1.07696
  1    36     -3.31682    0.83490
  1    37     -3.22340    0.19919


Fermi level: -3.33349

No gap

Forces in eV/Ang:
  0 Li    0.02860    0.00035   -0.26993
  1 Li   -0.02855   -0.00050   -0.27319
  2 Li    0.00197   -0.00159   -0.27744
  3 Li   -0.00235   -0.00183   -0.27671
  4 Li    0.00159   -0.00097   -0.27501
  5 Li   -0.00005    0.02855   -0.27241
  6 Li   -0.00280    0.00315   -0.27712
  7 Li    0.00178    0.00205   -0.27668
  8 Li   -0.00091   -0.02846   -0.27021
  9 Li    0.00444   -0.00416    0.28213
 10 Li   -0.00574    0.01001    0.24902
 11 Li   -0.00026    0.00217    0.29080
 12 Li   -0.00199    0.00082    0.29005
 13 Li   -0.00646   -0.00545    0.24530
 14 Li    0.00491   -0.00478    0.29948
 15 Li   -0.01083    0.00434    0.25022
 16 Li    0.00653   -0.00580    0.26758
 17 Li    0.00590    0.00554    0.24352
 18 Li   -0.01171    0.00132    0.05478
 19 Li   -0.00510    0.00291    0.03331
 20 Li    0.00874   -0.00817   -0.15925
 21 Li   -0.01247   -0.00857    0.04475
 22 Li    0.01813   -0.01778    0.05293
 23 Li   -0.00406    0.00236    0.04011
 24 Li   -0.00611    0.00570    0.04163
 25 Li    0.00996    0.01344    0.04522
 26 Li   -0.00209    0.01104    0.04981
 27 Li    0.06726   -0.06539   -0.03006
 28 Li   -0.00319    0.02524   -0.01917
 29 Li   -0.04538   -0.03723   -0.01038
 30 Li    0.05164    0.05562   -0.03254
 31 Li   -0.00404   -0.02210   -0.01988
 32 Li    0.00115   -0.00313    0.02607
 33 Li   -0.02366   -0.00328   -0.01917
 34 Li    0.00020   -0.00206   -0.01737
 35 Li    0.02221   -0.00318   -0.02204
 36 O     0.33231    1.86119   13.50169
 37 O    -0.01144    0.01896   -0.09758
 38 C     0.45493   -0.50786    1.06045
 39 C    -0.31980    0.76735    0.94264
 40 H     0.15513    0.16482   -0.26595
 41 H    -0.77692    0.18612    0.24491
 42 H     0.16844   -0.02787    0.30257
 43 H    -0.02480    0.02137   -0.12467
 44 H    -1.78440   -0.29552    1.54746
 45 H     0.00413    0.03480    0.04794
 46 N    -2.70820    1.88747   -3.40797
 47 N     4.40430   -4.07269  -13.78698

System changes: positions 

Initializing position-dependent things.

Density initialized from wave functions
       .-----------------------.  
      /|                       |  
     / |                       |  
    /  |                       |  
   /   |                       |  
  /    |                       |  
 *     |                       |  
 |     |                       |  
 |     |                       |  
 |     |               H       |  
 |     |             O C  H    |  
 |     |             H         |  
 |     |           H  CH       |  
 |     |              O        |  
 |     |                H      |  
 |     |              N        |  
 |     |     Li      Li      Li|  
 |     |  Li      Li  N   Li   |  
 |     |   Li      Li      Li  |  
 |     |Li      Li      Li     |  
 |     | Li      Li      Li    |  
 |   LLi     LLi     LLi       |  
 |     |  Li      Li      Li   |  
 | Li  |   Li      Li          |  
 |     |Li      Li      Li     |  
 Li    | Li      Li            |  
 |    Li      Li      Li       |  
 |     |                       |  
 |     |                       |  
 |     |                       |  
 |     |                       |  
 |     |                       |  
 |     |                       |  
 |     .-----------------------.  
 |    /                       /   
 |   /                       /    
 |  /                       /     
 | /                       /      
 |/                       /       
 *-----------------------*        

Positions:
   0 Li     1.617037    1.617037   10.000000    ( 0.0000,  0.0000,  0.0000)
   1 Li     4.851111    1.617037   10.000000    ( 0.0000,  0.0000,  0.0000)
   2 Li     8.085185    1.617037   10.000000    ( 0.0000,  0.0000,  0.0000)
   3 Li     1.617037    4.851111   10.000000    ( 0.0000,  0.0000,  0.0000)
   4 Li     4.851111    4.851111   10.000000    ( 0.0000,  0.0000,  0.0000)
   5 Li     8.085185    4.851111   10.000000    ( 0.0000,  0.0000,  0.0000)
   6 Li     1.617037    8.085185   10.000000    ( 0.0000,  0.0000,  0.0000)
   7 Li     4.851111    8.085185   10.000000    ( 0.0000,  0.0000,  0.0000)
   8 Li     8.085185    8.085185   10.000000    ( 0.0000,  0.0000,  0.0000)
   9 Li     0.000000    0.000000   11.617037    ( 0.0000,  0.0000,  0.0000)
  10 Li     3.234074    0.000000   11.617037    ( 0.0000,  0.0000,  0.0000)
  11 Li     6.468148    0.000000   11.617037    ( 0.0000,  0.0000,  0.0000)
  12 Li     0.000000    3.234074   11.617037    ( 0.0000,  0.0000,  0.0000)
  13 Li     3.234074    3.234074   11.617037    ( 0.0000,  0.0000,  0.0000)
  14 Li     6.468148    3.234074   11.617037    ( 0.0000,  0.0000,  0.0000)
  15 Li     0.000000    6.468148   11.617037    ( 0.0000,  0.0000,  0.0000)
  16 Li     3.234074    6.468148   11.617037    ( 0.0000,  0.0000,  0.0000)
  17 Li     6.468148    6.468148   11.617037    ( 0.0000,  0.0000,  0.0000)
  18 Li     1.616943    1.617085   13.470461    ( 0.0000,  0.0000,  0.0000)
  19 Li     4.851007    1.617130   13.470043    ( 0.0000,  0.0000,  0.0000)
  20 Li     8.085249    1.616924   13.467447    ( 0.0000,  0.0000,  0.0000)
  21 Li     1.616910    4.851099   13.470417    ( 0.0000,  0.0000,  0.0000)
  22 Li     4.851224    4.850995   13.470521    ( 0.0000,  0.0000,  0.0000)
  23 Li     8.085078    4.851237   13.470071    ( 0.0000,  0.0000,  0.0000)
  24 Li     1.617131    8.085097   13.470259    ( 0.0000,  0.0000,  0.0000)
  25 Li     4.851088    8.085299   13.470431    ( 0.0000,  0.0000,  0.0000)
  26 Li     8.085140    8.085292   13.470453    ( 0.0000,  0.0000,  0.0000)
  27 Li    -0.000262    0.000170   15.447849    ( 0.0000,  0.0000,  0.0000)
  28 Li     3.233936    0.000213   15.445816    ( 0.0000,  0.0000,  0.0000)
  29 Li     6.468518    0.000531   15.447649    ( 0.0000,  0.0000,  0.0000)
  30 Li    -0.000502    3.233862   15.447688    ( 0.0000,  0.0000,  0.0000)
  31 Li     3.233855    3.233956   15.445783    ( 0.0000,  0.0000,  0.0000)
  32 Li     6.469393    3.232868   15.448654    ( 0.0000,  0.0000,  0.0000)
  33 Li    -0.000197    6.468150   15.445781    ( 0.0000,  0.0000,  0.0000)
  34 Li     3.234208    6.468038   15.445477    ( 0.0000,  0.0000,  0.0000)
  35 Li     6.468247    6.468218   15.445674    ( 0.0000,  0.0000,  0.0000)
  36 O      8.074029    1.611587   19.768145    ( 0.0000,  0.0000,  0.0000)
  37 O      7.851726    1.662987   22.544467    ( 0.0000,  0.0000,  0.0000)
  38 C      7.640971    2.845452   20.428004    ( 0.0000,  0.0000,  0.0000)
  39 C      8.243332    2.802301   21.787323    ( 0.0000,  0.0000,  0.0000)
  40 H      7.969815    3.699515   19.840195    ( 0.0000,  0.0000,  0.0000)
  41 H      6.576905    2.742348   20.408051    ( 0.0000,  0.0000,  0.0000)
  42 H      7.865890    3.675454   22.322480    ( 0.0000,  0.0000,  0.0000)
  43 H      9.339014    2.878608   21.733365    ( 0.0000,  0.0000,  0.0000)
  44 H      9.073220    1.681161   19.504674    ( 0.0000,  0.0000,  0.0000)
  45 H      7.949306    0.890097   21.966904    ( 0.0000,  0.0000,  0.0000)
  46 N      8.049152    1.648009   17.078885    ( 0.0000,  0.0000,  0.0000)
  47 N      8.123610    1.548407   18.193474    ( 0.0000,  0.0000,  0.0000)

Unit cell:
           periodic     x           y           z      points  spacing
  1. axis:    yes    9.702222    0.000000    0.000000    60     0.1617
  2. axis:    yes    0.000000    9.702222    0.000000    60     0.1617
  3. axis:    no     0.000000    0.000000   26.601111   168     0.1583

  Lengths:   9.702222   9.702222  26.601111
  Angles:   90.000000  90.000000  90.000000

Effective grid spacing dv^(1/3) = 0.1606

     iter     time        total  log10-change:
                         energy  eigst   dens
iter:   1 12:59:21  -320.908628  -0.84
iter:   2 12:59:28  -320.898326  -1.33  -1.89
iter:   3 12:59:43  -320.893709c -1.85  -2.04
iter:   4 12:59:55  -320.888406c -1.56  -2.32
Writing to output.gpw (mode='')

iter:   5 13:00:05  -320.888845c -1.98  -2.44
iter:   6 13:00:13  -320.888560c -2.38  -2.52
iter:   7 13:00:20  -320.888999c -2.51  -2.77
iter:   8 13:00:28  -320.889003c -2.67  -2.87
iter:   9 13:00:35  -320.889017c -3.17  -2.92
Writing to output.gpw (mode='')

iter:  10 13:00:43  -320.888957c -3.29  -2.99
iter:  11 13:00:50  -320.889024c -3.40  -3.12
iter:  12 13:00:58  -320.888983c -3.86  -3.13
iter:  13 13:01:05  -320.888991c -4.17  -3.36
iter:  14 13:01:13  -320.888999c -4.21  -3.41
Writing to output.gpw (mode='')

iter:  15 13:01:20  -320.889013c -4.26  -3.52
iter:  16 13:01:28  -320.889016c -4.35  -3.62
iter:  17 13:01:35  -320.889022c -4.82  -3.68
iter:  18 13:01:43  -320.889019c -4.84  -3.76
iter:  19 13:01:50  -320.889023c -5.08  -3.95
Writing to output.gpw (mode='')

iter:  20 13:01:58  -320.889023c -5.27  -4.08c
iter:  21 13:02:05  -320.889023c -5.28  -4.22c
iter:  22 13:02:13  -320.889022c -5.59  -4.34c
iter:  23 13:02:20  -320.889022c -5.80  -4.43c
iter:  24 13:02:28  -320.889022c -5.85  -4.50c
Writing to output.gpw (mode='')

iter:  25 13:02:35  -320.889022c -5.91  -4.57c
iter:  26 13:02:43  -320.889022c -5.99  -4.66c
iter:  27 13:02:50  -320.889023c -6.28  -4.74c
iter:  28 13:02:58  -320.889023c -6.45  -4.80c
iter:  29 13:03:05  -320.889023c -6.47  -4.93c
Writing to output.gpw (mode='')

iter:  30 13:03:13  -320.889023c -6.56  -5.00c
iter:  31 13:03:20  -320.889023c -6.80  -5.05c
iter:  32 13:03:28  -320.889024c -6.74  -5.09c
iter:  33 13:03:35  -320.889024c -6.95  -5.18c
iter:  34 13:03:43  -320.889024c -7.10  -5.28c
Writing to output.gpw (mode='')

iter:  35 13:03:50  -320.889023c -7.05  -5.32c
iter:  36 13:03:58  -320.889023c -7.32  -5.56c
iter:  37 13:04:05  -320.889023c -7.25  -5.60c
iter:  38 13:04:13  -320.889023c -7.59c -5.66c

Converged after 38 iterations.

Dipole moment: (0.817023, -3.498092, 0.051244) |e|*Ang

Energy contributions relative to reference atoms: (reference = -16475.706344)

Kinetic:       +184.607816
Potential:     -171.779919
External:        +0.000000
XC:            -334.705585
Entropy (-ST):   -0.147824
Local:           +1.062576
--------------------------
Free energy:   -320.962936
Extrapolated:  -320.889023

Dipole-layer corrected work functions: 3.383681, 3.285172 eV

Showing only first 2 kpts
 Kpt  Band  Eigenvalues  Occupancy
  0    34     -3.58308    1.98625
  0    35     -3.47195    1.87989
  0    36     -3.16684    0.06767
  0    37     -3.09623    0.01692

  1    34     -3.39823    1.56358
  1    35     -3.34445    1.09991
  1    36     -3.31777    0.83498
  1    37     -3.22241    0.19236


Fermi level: -3.33443

No gap
Writing to output.gpw (mode='')


Forces in eV/Ang:
  0 Li    0.02840    0.00044   -0.26954
  1 Li   -0.02797   -0.00087   -0.27295
  2 Li    0.00165   -0.00148   -0.27704
  3 Li   -0.00310   -0.00121   -0.27663
  4 Li    0.00180   -0.00094   -0.27414
  5 Li    0.00022    0.02820   -0.27298
  6 Li   -0.00290    0.00332   -0.27667
  7 Li    0.00130    0.00274   -0.27670
  8 Li   -0.00111   -0.02865   -0.26991
  9 Li    0.00453   -0.00402    0.28189
 10 Li   -0.00515    0.01052    0.24900
 11 Li   -0.00079    0.00208    0.29028
 12 Li   -0.00316    0.00051    0.29110
 13 Li   -0.00669   -0.00567    0.24521
 14 Li    0.00534   -0.00457    0.30037
 15 Li   -0.01011    0.00476    0.24944
 16 Li    0.00664   -0.00698    0.26915
 17 Li    0.00590    0.00680    0.24311
 18 Li   -0.01307    0.00109    0.05478
 19 Li   -0.00353    0.00365    0.03546
 20 Li    0.00910   -0.01034   -0.16147
 21 Li   -0.01265   -0.01017    0.04477
 22 Li    0.01963   -0.01885    0.05384
 23 Li   -0.00423    0.00424    0.03907
 24 Li   -0.00667    0.00684    0.04315
 25 Li    0.01035    0.01254    0.04425
 26 Li   -0.00134    0.01245    0.04969
 27 Li    0.07019   -0.06681   -0.03542
 28 Li   -0.00206    0.02597   -0.01867
 29 Li   -0.05325   -0.04563   -0.01859
 30 Li    0.05194    0.05552   -0.03573
 31 Li   -0.00242   -0.02293   -0.01914
 32 Li    0.00955   -0.00984    0.02901
 33 Li   -0.02378   -0.00478   -0.01935
 34 Li   -0.00079   -0.00129   -0.01662
 35 Li    0.02273   -0.00515   -0.02234
 36 O     0.69894    2.20087   11.64552
 37 O    -0.02521    0.01730   -0.06693
 38 C     0.78383   -1.00769    0.50609
 39 C    -0.30761    0.80347    1.01627
 40 H     0.09241    0.23375   -0.16400
 41 H    -0.74228    0.21976    0.27373
 42 H     0.16278    0.06388    0.44001
 43 H    -0.03395    0.02739   -0.11890
 44 H    -2.11527   -0.19818    1.58248
 45 H     0.01103    0.07056    0.02163
 46 N    -2.28297    2.00427   -2.22845
 47 N     3.68589   -4.43365  -12.85603

System changes: positions 

Initializing position-dependent things.

Density initialized from wave functions
       .-----------------------.  
      /|                       |  
     / |                       |  
    /  |                       |  
   /   |                       |  
  /    |                       |  
 *     |                       |  
 |     |                       |  
 |     |                       |  
 |     |               H       |  
 |     |             O C  H    |  
 |     |             H         |  
 |     |           H  CH       |  
 |     |              O        |  
 |     |                H      |  
 |     |                       |  
 |     |     Li      LN      Li|  
 |     |  Li      Li  N   Li   |  
 |     |   Li      Li      Li  |  
 |     |Li      Li      Li     |  
 |     | Li      Li      Li    |  
 |   LLi     LLi     LLi       |  
 |     |  Li      Li      Li   |  
 | Li  |   Li      Li          |  
 |     |Li      Li      Li     |  
 Li    | Li      Li            |  
 |    Li      Li      Li       |  
 |     |                       |  
 |     |                       |  
 |     |                       |  
 |     |                       |  
 |     |                       |  
 |     |                       |  
 |     .-----------------------.  
 |    /                       /   
 |   /                       /    
 |  /                       /     
 | /                       /      
 |/                       /       
 *-----------------------*        

Positions:
   0 Li     1.617037    1.617037   10.000000    ( 0.0000,  0.0000,  0.0000)
   1 Li     4.851111    1.617037   10.000000    ( 0.0000,  0.0000,  0.0000)
   2 Li     8.085185    1.617037   10.000000    ( 0.0000,  0.0000,  0.0000)
   3 Li     1.617037    4.851111   10.000000    ( 0.0000,  0.0000,  0.0000)
   4 Li     4.851111    4.851111   10.000000    ( 0.0000,  0.0000,  0.0000)
   5 Li     8.085185    4.851111   10.000000    ( 0.0000,  0.0000,  0.0000)
   6 Li     1.617037    8.085185   10.000000    ( 0.0000,  0.0000,  0.0000)
   7 Li     4.851111    8.085185   10.000000    ( 0.0000,  0.0000,  0.0000)
   8 Li     8.085185    8.085185   10.000000    ( 0.0000,  0.0000,  0.0000)
   9 Li     0.000000    0.000000   11.617037    ( 0.0000,  0.0000,  0.0000)
  10 Li     3.234074    0.000000   11.617037    ( 0.0000,  0.0000,  0.0000)
  11 Li     6.468148    0.000000   11.617037    ( 0.0000,  0.0000,  0.0000)
  12 Li     0.000000    3.234074   11.617037    ( 0.0000,  0.0000,  0.0000)
  13 Li     3.234074    3.234074   11.617037    ( 0.0000,  0.0000,  0.0000)
  14 Li     6.468148    3.234074   11.617037    ( 0.0000,  0.0000,  0.0000)
  15 Li     0.000000    6.468148   11.617037    ( 0.0000,  0.0000,  0.0000)
  16 Li     3.234074    6.468148   11.617037    ( 0.0000,  0.0000,  0.0000)
  17 Li     6.468148    6.468148   11.617037    ( 0.0000,  0.0000,  0.0000)
  18 Li     1.616883    1.617097   13.470742    ( 0.0000,  0.0000,  0.0000)
  19 Li     4.850990    1.617176   13.470200    ( 0.0000,  0.0000,  0.0000)
  20 Li     8.085283    1.616848   13.466516    ( 0.0000,  0.0000,  0.0000)
  21 Li     1.616858    4.851068   13.470683    ( 0.0000,  0.0000,  0.0000)
  22 Li     4.851293    4.850932   13.470842    ( 0.0000,  0.0000,  0.0000)
  23 Li     8.085035    4.851306   13.470198    ( 0.0000,  0.0000,  0.0000)
  24 Li     1.617155    8.085086   13.470491    ( 0.0000,  0.0000,  0.0000)
  25 Li     4.851089    8.085331   13.470687    ( 0.0000,  0.0000,  0.0000)
  26 Li     8.085135    8.085360   13.470731    ( 0.0000,  0.0000,  0.0000)
  27 Li    -0.000317    0.000212   15.448491    ( 0.0000,  0.0000,  0.0000)
  28 Li     3.233905    0.000310   15.445775    ( 0.0000,  0.0000,  0.0000)
  29 Li     6.468543    0.000604   15.448169    ( 0.0000,  0.0000,  0.0000)
  30 Li    -0.000676    3.233788   15.448286    ( 0.0000,  0.0000,  0.0000)
  31 Li     3.233799    3.233892   15.445734    ( 0.0000,  0.0000,  0.0000)
  32 Li     6.469999    3.232304   15.449721    ( 0.0000,  0.0000,  0.0000)
  33 Li    -0.000278    6.468125   15.445716    ( 0.0000,  0.0000,  0.0000)
  34 Li     3.234239    6.468009   15.445313    ( 0.0000,  0.0000,  0.0000)
  35 Li     6.468300    6.468212   15.445568    ( 0.0000,  0.0000,  0.0000)
  36 O      8.079080    1.616293   19.782925    ( 0.0000,  0.0000,  0.0000)
  37 O      7.851358    1.663166   22.544530    ( 0.0000,  0.0000,  0.0000)
  38 C      7.637151    2.855586   20.437377    ( 0.0000,  0.0000,  0.0000)
  39 C      8.243113    2.804675   21.791687    ( 0.0000,  0.0000,  0.0000)
  40 H      7.970372    3.700149   19.839306    ( 0.0000,  0.0000,  0.0000)
  41 H      6.572570    2.743785   20.409224    ( 0.0000,  0.0000,  0.0000)
  42 H      7.866456    3.676034   22.325272    ( 0.0000,  0.0000,  0.0000)
  43 H      9.338366    2.879050   21.732950    ( 0.0000,  0.0000,  0.0000)
  44 H      9.078226    1.678388   19.516891    ( 0.0000,  0.0000,  0.0000)
  45 H      7.949446    0.889549   21.967605    ( 0.0000,  0.0000,  0.0000)
  46 N      8.042172    1.661853   17.056804    ( 0.0000,  0.0000,  0.0000)
  47 N      8.127947    1.517598   18.168333    ( 0.0000,  0.0000,  0.0000)

Unit cell:
           periodic     x           y           z      points  spacing
  1. axis:    yes    9.702222    0.000000    0.000000    60     0.1617
  2. axis:    yes    0.000000    9.702222    0.000000    60     0.1617
  3. axis:    no     0.000000    0.000000   26.601111   168     0.1583

  Lengths:   9.702222   9.702222  26.601111
  Angles:   90.000000  90.000000  90.000000

Effective grid spacing dv^(1/3) = 0.1606

     iter     time        total  log10-change:
                         energy  eigst   dens
iter:   1 13:04:22  -321.652799  -0.98
iter:   2 13:04:30  -321.634593  -1.42  -1.88
iter:   3 13:04:44  -321.627884c -2.01  -2.03
iter:   4 13:04:53  -321.625464c -1.49  -2.37
Writing to output.gpw (mode='')

iter:   5 13:05:00  -321.624190c -2.39  -2.41
iter:   6 13:05:08  -321.624433c -2.33  -2.57
iter:   7 13:05:15  -321.624429c -2.35  -2.62
iter:   8 13:05:23  -321.624101c -2.81  -2.89
iter:   9 13:05:30  -321.624083c -3.28  -2.79
Writing to output.gpw (mode='')

iter:  10 13:05:38  -321.623993c -3.36  -2.99
iter:  11 13:05:45  -321.623996c -3.65  -3.11
iter:  12 13:05:53  -321.623958c -3.87  -3.20
iter:  13 13:06:01  -321.623933c -4.43  -3.39
iter:  14 13:06:08  -321.623936c -4.48  -3.51
Writing to output.gpw (mode='')

iter:  15 13:06:16  -321.623937c -4.39  -3.58
iter:  16 13:06:23  -321.623951c -4.58  -3.71
iter:  17 13:06:31  -321.623951c -4.96  -3.79
iter:  18 13:06:38  -321.623953c -5.24  -3.89
iter:  19 13:06:46  -321.623955c -5.22  -3.97
Writing to output.gpw (mode='')

iter:  20 13:06:53  -321.623956c -5.39  -4.11c
iter:  21 13:07:01  -321.623956c -5.73  -4.09c
iter:  22 13:07:08  -321.623956c -5.59  -4.23c
iter:  23 13:07:16  -321.623956c -5.77  -4.41c
iter:  24 13:07:24  -321.623955c -5.82  -4.47c
Writing to output.gpw (mode='')

iter:  25 13:07:31  -321.623956c -6.17  -4.51c
iter:  26 13:07:39  -321.623956c -6.27  -4.56c
iter:  27 13:07:46  -321.623956c -6.50  -4.70c
iter:  28 13:07:54  -321.623956c -6.56  -4.78c
iter:  29 13:08:01  -321.623956c -6.60  -4.93c
Writing to output.gpw (mode='')

iter:  30 13:08:09  -321.623956c -6.64  -5.02c
iter:  31 13:08:16  -321.623956c -6.80  -5.16c
iter:  32 13:08:24  -321.623956c -6.93  -5.20c
iter:  33 13:08:31  -321.623956c -6.99  -5.26c
iter:  34 13:08:39  -321.623957c -7.19  -5.33c
Writing to output.gpw (mode='')

iter:  35 13:08:46  -321.623957c -7.20  -5.46c
iter:  36 13:08:54  -321.623957c -7.23  -5.53c
iter:  37 13:09:01  -321.623957c -7.27  -5.62c
iter:  38 13:09:09  -321.623957c -7.55c -5.70c

Converged after 38 iterations.

Dipole moment: (0.804821, -3.473488, 0.053811) |e|*Ang

Energy contributions relative to reference atoms: (reference = -16475.706344)

Kinetic:       +182.063014
Potential:     -170.162369
External:        +0.000000
XC:            -334.518129
Entropy (-ST):   -0.147603
Local:           +1.067329
--------------------------
Free energy:   -321.697758
Extrapolated:  -321.623957

Dipole-layer corrected work functions: 3.382383, 3.278939 eV

Showing only first 2 kpts
 Kpt  Band  Eigenvalues  Occupancy
  0    34     -3.57986    1.98640
  0    35     -3.46982    1.88352
  0    36     -3.16364    0.06842
  0    37     -3.09001    0.01612

  1    34     -3.39497    1.56699
  1    35     -3.34234    1.11627
  1    36     -3.31383    0.83323
  1    37     -3.21730    0.18775


Fermi level: -3.33066

No gap
Writing to output.gpw (mode='')


Forces in eV/Ang:
  0 Li    0.02810    0.00053   -0.26924
  1 Li   -0.02743   -0.00117   -0.27251
  2 Li    0.00138   -0.00140   -0.27675
  3 Li   -0.00359   -0.00068   -0.27659
  4 Li    0.00196   -0.00073   -0.27359
  5 Li    0.00039    0.02789   -0.27360
  6 Li   -0.00282    0.00349   -0.27643
  7 Li    0.00087    0.00315   -0.27680
  8 Li   -0.00134   -0.02887   -0.26964
  9 Li    0.00476   -0.00404    0.28180
 10 Li   -0.00453    0.01119    0.24923
 11 Li   -0.00139    0.00162    0.28967
 12 Li   -0.00417    0.00033    0.29229
 13 Li   -0.00665   -0.00605    0.24526
 14 Li    0.00564   -0.00404    0.30102
 15 Li   -0.00925    0.00529    0.24869
 16 Li    0.00649   -0.00808    0.27030
 17 Li    0.00576    0.00794    0.24278
 18 Li   -0.01413    0.00099    0.05465
 19 Li   -0.00138    0.00432    0.03779
 20 Li    0.00876   -0.01245   -0.16229
 21 Li   -0.01280   -0.01155    0.04465
 22 Li    0.02063   -0.01963    0.05425
 23 Li   -0.00427    0.00666    0.03700
 24 Li   -0.00705    0.00767    0.04419
 25 Li    0.01044    0.01158    0.04318
 26 Li   -0.00066    0.01324    0.04913
 27 Li    0.07270   -0.06760   -0.03980
 28 Li   -0.00140    0.02632   -0.01796
 29 Li   -0.06076   -0.05300   -0.02544
 30 Li    0.05042    0.05415   -0.03634
 31 Li   -0.00128   -0.02341   -0.01821
 32 Li    0.01757   -0.01593    0.03284
 33 Li   -0.02358   -0.00597   -0.01943
 34 Li   -0.00134   -0.00055   -0.01598
 35 Li    0.02269   -0.00673   -0.02266
 36 O     0.92362    2.38019    9.98585
 37 O    -0.03189   -0.00807   -0.05871
 38 C     0.97547   -1.26229    0.14234
 39 C    -0.32241    0.83084    1.03948
 40 H     0.04523    0.29024   -0.08324
 41 H    -0.68725    0.23590    0.28606
 42 H     0.16348    0.11398    0.52476
 43 H    -0.02786    0.03376   -0.10676
 44 H    -2.20978   -0.10273    1.55334
 45 H     0.01429    0.11282    0.02211
 46 N    -1.91691    2.15366   -1.58559
 47 N     2.99571   -4.67498  -11.75011

System changes: positions 

Initializing position-dependent things.

Density initialized from wave functions
       .-----------------------.  
      /|                       |  
     / |                       |  
    /  |                       |  
   /   |                       |  
  /    |                       |  
 *     |                       |  
 |     |                       |  
 |     |                       |  
 |     |               H       |  
 |     |             O C  H    |  
 |     |             H         |  
 |     |           H  CH       |  
 |     |              O        |  
 |     |                 H     |  
 |     |                       |  
 |     |     Li      LN      Li|  
 |     |  Li      Li  N   Li   |  
 |     |   Li      Li      Li  |  
 |     |Li      Li      Li     |  
 |     | Li      Li      Li    |  
 |   LLi     LLi     LLi       |  
 |     |  Li      Li      Li   |  
 | Li  |   Li      Li          |  
 |     |Li      Li      Li     |  
 Li    | Li      Li            |  
 |    Li      Li      Li       |  
 |     |                       |  
 |     |                       |  
 |     |                       |  
 |     |                       |  
 |     |                       |  
 |     |                       |  
 |     .-----------------------.  
 |    /                       /   
 |   /                       /    
 |  /                       /     
 | /                       /      
 |/                       /       
 *-----------------------*        

Positions:
   0 Li     1.617037    1.617037   10.000000    ( 0.0000,  0.0000,  0.0000)
   1 Li     4.851111    1.617037   10.000000    ( 0.0000,  0.0000,  0.0000)
   2 Li     8.085185    1.617037   10.000000    ( 0.0000,  0.0000,  0.0000)
   3 Li     1.617037    4.851111   10.000000    ( 0.0000,  0.0000,  0.0000)
   4 Li     4.851111    4.851111   10.000000    ( 0.0000,  0.0000,  0.0000)
   5 Li     8.085185    4.851111   10.000000    ( 0.0000,  0.0000,  0.0000)
   6 Li     1.617037    8.085185   10.000000    ( 0.0000,  0.0000,  0.0000)
   7 Li     4.851111    8.085185   10.000000    ( 0.0000,  0.0000,  0.0000)
   8 Li     8.085185    8.085185   10.000000    ( 0.0000,  0.0000,  0.0000)
   9 Li     0.000000    0.000000   11.617037    ( 0.0000,  0.0000,  0.0000)
  10 Li     3.234074    0.000000   11.617037    ( 0.0000,  0.0000,  0.0000)
  11 Li     6.468148    0.000000   11.617037    ( 0.0000,  0.0000,  0.0000)
  12 Li     0.000000    3.234074   11.617037    ( 0.0000,  0.0000,  0.0000)
  13 Li     3.234074    3.234074   11.617037    ( 0.0000,  0.0000,  0.0000)
  14 Li     6.468148    3.234074   11.617037    ( 0.0000,  0.0000,  0.0000)
  15 Li     0.000000    6.468148   11.617037    ( 0.0000,  0.0000,  0.0000)
  16 Li     3.234074    6.468148   11.617037    ( 0.0000,  0.0000,  0.0000)
  17 Li     6.468148    6.468148   11.617037    ( 0.0000,  0.0000,  0.0000)
[...]
iter:  33 21:36:04  -328.096890c -7.39  -5.26c
iter:  34 21:36:11  -328.096889c -7.64c -5.28c

Converged after 34 iterations.

Dipole moment: (1.846242, -2.186380, -0.170003) |e|*Ang

Energy contributions relative to reference atoms: (reference = -16475.706344)

Kinetic:       +157.385675
Potential:     -150.403145
External:        +0.000000
XC:            -336.134813
Entropy (-ST):   -0.163518
Local:           +1.137154
--------------------------
Free energy:   -328.178648
Extrapolated:  -328.096889

Dipole-layer corrected work functions: 3.392957, 3.719761 eV

Showing only first 2 kpts
 Kpt  Band  Eigenvalues  Occupancy
  0    34     -3.77672    1.97591
  0    35     -3.59090    1.33227
  0    36     -3.52854    0.72880
  0    37     -3.35111    0.03244

  1    34     -3.79579    1.98349
  1    35     -3.70818    1.90839
  1    36     -3.50511    0.52815
  1    37     -3.31753    0.01671


Fermi level: -3.55636

No gap
Writing to output.gpw (mode='')


Forces in eV/Ang:
  0 Li   -0.00643    0.00964   -0.29367
  1 Li    0.00703   -0.01067   -0.29416
  2 Li   -0.00062   -0.00073   -0.25568
  3 Li    0.00788    0.00786   -0.29320
  4 Li   -0.01283    0.01411   -0.28422
  5 Li    0.00948   -0.00626   -0.29374
  6 Li    0.01397   -0.01282   -0.28451
  7 Li   -0.00600   -0.00652   -0.29397
  8 Li   -0.01064    0.00705   -0.29351
  9 Li   -0.04368    0.03309    0.28963
 10 Li   -0.00463    0.00997    0.29685
 11 Li    0.03021    0.03140    0.33880
 12 Li   -0.03554   -0.03515    0.36018
 13 Li    0.01755   -0.02017    0.30580
 14 Li    0.03142   -0.04169    0.29131
 15 Li   -0.02112    0.01656    0.30630
 16 Li    0.00560    0.00534    0.30783
 17 Li    0.00838   -0.00473    0.29543
 18 Li   -0.01050    0.01134    0.00284
 19 Li    0.00444    0.00297   -0.00539
 20 Li    0.00060    0.00141   -0.02771
 21 Li   -0.00400    0.00075    0.00049
 22 Li   -0.00064    0.00161   -0.00597
 23 Li    0.01403   -0.01373    0.00326
 24 Li    0.00522   -0.00488   -0.00097
 25 Li   -0.00390   -0.00554   -0.00440
 26 Li    0.00201    0.00392   -0.00812
 27 Li    0.01454   -0.02275    0.00656
 28 Li   -0.00382    0.00459   -0.01798
 29 Li   -0.00344   -0.00297   -0.00880
 30 Li    0.01540    0.01796    0.01616
 31 Li   -0.00420   -0.00785   -0.01567
 32 Li    0.00955    0.00419    0.00913
 33 Li   -0.00235   -0.00953   -0.01412
 34 Li   -0.00101   -0.00182   -0.01212
 35 Li   -0.00023    0.00014   -0.01963
 36 O     0.00172   -0.01003   -0.01422
 37 O     0.00677   -0.00966   -0.00495
 38 C    -0.01804    0.04121    0.04683
 39 C     0.01111   -0.00778    0.00343
 40 H    -0.00999   -0.01468   -0.05078
 41 H     0.00398    0.02550    0.01267
 42 H    -0.02442    0.00762   -0.03957
 43 H     0.00080   -0.00446   -0.01453
 44 H     0.01255    0.01966    0.02152
 45 H     0.00605   -0.02545   -0.00377
 46 N     0.01542    0.00709   -0.02957
 47 N    -0.01096   -0.02694    0.01086

System changes: positions 

Initializing position-dependent things.

Density initialized from wave functions
       .-----------------------.  
      /|                       |  
     / |                       |  
    /  |                       |  
   /   |                       |  
  /    |                       |  
 *     |                       |  
 |     |                       |  
 |     |                       |  
 |     |              H        |  
 |     |             O C  H    |  
 |     |              H        |  
 |     |            H C H      |  
 |     |               O       |  
 |     |       Li      Li H    |  
 |     |                       |  
 |   Li|     Li      Li        |  
 |     |  Li      Li      Li   |  
 | Li  |   Li      Li  N       |  
 |     |Li      Li   N  LLi    |  
 |     |                       |  
 |   LLi     LLi     LLi       |  
 |     |  Li      Li      Li   |  
 | Li  |   Li      Li          |  
 |     |Li      Li      Li     |  
 Li    | Li      Li            |  
 |    Li      Li      Li       |  
 |     |                       |  
 |     |                       |  
 |     |                       |  
 |     |                       |  
 |     |                       |  
 |     |                       |  
 |     .-----------------------.  
 |    /                       /   
 |   /                       /    
 |  /                       /     
 | /                       /      
 |/                       /       
 *-----------------------*        

Positions:
   0 Li     1.617037    1.617037   10.000000    ( 0.0000,  0.0000,  0.0000)
   1 Li     4.851111    1.617037   10.000000    ( 0.0000,  0.0000,  0.0000)
   2 Li     8.085185    1.617037   10.000000    ( 0.0000,  0.0000,  0.0000)
   3 Li     1.617037    4.851111   10.000000    ( 0.0000,  0.0000,  0.0000)
   4 Li     4.851111    4.851111   10.000000    ( 0.0000,  0.0000,  0.0000)
   5 Li     8.085185    4.851111   10.000000    ( 0.0000,  0.0000,  0.0000)
   6 Li     1.617037    8.085185   10.000000    ( 0.0000,  0.0000,  0.0000)
   7 Li     4.851111    8.085185   10.000000    ( 0.0000,  0.0000,  0.0000)
   8 Li     8.085185    8.085185   10.000000    ( 0.0000,  0.0000,  0.0000)
   9 Li     0.000000    0.000000   11.617037    ( 0.0000,  0.0000,  0.0000)
  10 Li     3.234074    0.000000   11.617037    ( 0.0000,  0.0000,  0.0000)
  11 Li     6.468148    0.000000   11.617037    ( 0.0000,  0.0000,  0.0000)
  12 Li     0.000000    3.234074   11.617037    ( 0.0000,  0.0000,  0.0000)
  13 Li     3.234074    3.234074   11.617037    ( 0.0000,  0.0000,  0.0000)
  14 Li     6.468148    3.234074   11.617037    ( 0.0000,  0.0000,  0.0000)
  15 Li     0.000000    6.468148   11.617037    ( 0.0000,  0.0000,  0.0000)
  16 Li     3.234074    6.468148   11.617037    ( 0.0000,  0.0000,  0.0000)
  17 Li     6.468148    6.468148   11.617037    ( 0.0000,  0.0000,  0.0000)
  18 Li     1.621493    1.641698   13.523840    ( 0.0000,  0.0000,  0.0000)
  19 Li     4.859235    1.564842   13.541893    ( 0.0000,  0.0000,  0.0000)
  20 Li     8.077740    1.610356   13.610433    ( 0.0000,  0.0000,  0.0000)
  21 Li     1.659317    4.890387   13.507187    ( 0.0000,  0.0000,  0.0000)
  22 Li     4.918329    4.784008   13.526757    ( 0.0000,  0.0000,  0.0000)
  23 Li     8.107632    4.857907   13.523864    ( 0.0000,  0.0000,  0.0000)
  24 Li     1.546909    8.155268   13.521322    ( 0.0000,  0.0000,  0.0000)
  25 Li     4.816785    8.051311   13.521589    ( 0.0000,  0.0000,  0.0000)
  26 Li     8.029773    8.093405   13.542644    ( 0.0000,  0.0000,  0.0000)
  27 Li    -0.256692    0.240522   15.643189    ( 0.0000,  0.0000,  0.0000)
  28 Li     3.078882   -0.056071   15.501251    ( 0.0000,  0.0000,  0.0000)
  29 Li     6.332130   -0.132302   15.572936    ( 0.0000,  0.0000,  0.0000)
  30 Li     0.115583    3.341751   15.488247    ( 0.0000,  0.0000,  0.0000)
  31 Li     3.377142    3.294626   15.490329    ( 0.0000,  0.0000,  0.0000)
  32 Li     6.711571    2.979324   15.648237    ( 0.0000,  0.0000,  0.0000)
  33 Li     0.054342    6.614797   15.485182    ( 0.0000,  0.0000,  0.0000)
  34 Li     3.236023    6.474426   15.486731    ( 0.0000,  0.0000,  0.0000)
  35 Li     6.411979    6.310064   15.506971    ( 0.0000,  0.0000,  0.0000)
  36 O      8.474202    1.909097   19.612389    ( 0.0000,  0.0000,  0.0000)
  37 O      7.799153    1.685029   22.454444    ( 0.0000,  0.0000,  0.0000)
  38 C      7.851149    2.967885   20.364874    ( 0.0000,  0.0000,  0.0000)
  39 C      8.211938    2.905424   21.843448    ( 0.0000,  0.0000,  0.0000)
  40 H      8.118755    3.952837   19.960898    ( 0.0000,  0.0000,  0.0000)
  41 H      6.777334    2.814462   20.236815    ( 0.0000,  0.0000,  0.0000)
  42 H      7.705247    3.707016   22.387236    ( 0.0000,  0.0000,  0.0000)
  43 H      9.296148    3.055133   21.964778    ( 0.0000,  0.0000,  0.0000)
  44 H      9.393658    2.151413   19.444967    ( 0.0000,  0.0000,  0.0000)
  45 H      8.132691    0.968068   21.899488    ( 0.0000,  0.0000,  0.0000)
  46 N      8.524409    2.044943   15.635619    ( 0.0000,  0.0000,  0.0000)
  47 N      7.630861    1.163671   15.638752    ( 0.0000,  0.0000,  0.0000)

Unit cell:
           periodic     x           y           z      points  spacing
  1. axis:    yes    9.702222    0.000000    0.000000    60     0.1617
  2. axis:    yes    0.000000    9.702222    0.000000    60     0.1617
  3. axis:    no     0.000000    0.000000   26.601111   168     0.1583

  Lengths:   9.702222   9.702222  26.601111
  Angles:   90.000000  90.000000  90.000000

Effective grid spacing dv^(1/3) = 0.1606

     iter     time        total  log10-change:
                         energy  eigst   dens
iter:   1 21:36:20  -328.101971  -2.45
iter:   2 21:36:28  -328.098577  -2.81  -2.27
iter:   3 21:36:35  -328.097139c -3.90  -2.46
iter:   4 21:36:43  -328.097219c -3.57  -2.89
Writing to output.gpw (mode='')

iter:   5 21:36:50  -328.097183c -4.25  -3.35
iter:   6 21:36:58  -328.097157c -4.23  -3.35
iter:   7 21:37:05  -328.097310c -3.61  -3.48
iter:   8 21:37:13  -328.097184c -4.87  -3.52
iter:   9 21:37:20  -328.097228c -4.63  -3.82
Writing to output.gpw (mode='')

iter:  10 21:37:28  -328.097197c -5.13  -3.82
iter:  11 21:37:36  -328.097193c -5.44  -4.02c
iter:  12 21:37:43  -328.097183c -5.78  -4.08c
iter:  13 21:37:51  -328.097191c -5.89  -4.14c
iter:  14 21:37:58  -328.097198c -5.94  -4.27c
Writing to output.gpw (mode='')

iter:  15 21:38:06  -328.097194c -6.32  -4.36c
iter:  16 21:38:13  -328.097190c -6.50  -4.38c
iter:  17 21:38:21  -328.097188c -6.57  -4.45c
iter:  18 21:38:28  -328.097186c -6.95  -4.69c
iter:  19 21:38:36  -328.097185c -6.90  -4.75c
Writing to output.gpw (mode='')

iter:  20 21:38:43  -328.097185c -7.01  -4.84c
iter:  21 21:38:51  -328.097186c -7.29  -4.90c
iter:  22 21:38:58  -328.097185c -7.54c -4.96c

Converged after 22 iterations.

Dipole moment: (1.829417, -2.202925, -0.168883) |e|*Ang

Energy contributions relative to reference atoms: (reference = -16475.706344)

Kinetic:       +157.388602
Potential:     -150.404431
External:        +0.000000
XC:            -336.136557
Entropy (-ST):   -0.163441
Local:           +1.136921
--------------------------
Free energy:   -328.178906
Extrapolated:  -328.097185

Dipole-layer corrected work functions: 3.393008, 3.717659 eV

Showing only first 2 kpts
 Kpt  Band  Eigenvalues  Occupancy
  0    34     -3.77624    1.97617
  0    35     -3.58977    1.33136
  0    36     -3.52744    0.72812
  0    37     -3.34999    0.03238

  1    34     -3.79484    1.98351
  1    35     -3.70699    1.90810
  1    36     -3.50389    0.52660
  1    37     -3.31613    0.01659


Fermi level: -3.55533

No gap
Writing to output.gpw (mode='')


Forces in eV/Ang:
  0 Li   -0.00648    0.00967   -0.29360
  1 Li    0.00700   -0.01072   -0.29407
  2 Li   -0.00062   -0.00072   -0.25547
  3 Li    0.00789    0.00783   -0.29317
  4 Li   -0.01286    0.01417   -0.28428
  5 Li    0.00954   -0.00630   -0.29367
  6 Li    0.01398   -0.01287   -0.28454
  7 Li   -0.00600   -0.00649   -0.29380
  8 Li   -0.01073    0.00698   -0.29340
  9 Li   -0.04339    0.03298    0.28920
 10 Li   -0.00445    0.00945    0.29595
 11 Li    0.03031    0.03141    0.33789
 12 Li   -0.03526   -0.03452    0.35961
 13 Li    0.01726   -0.01989    0.30521
 14 Li    0.03093   -0.04133    0.29086
 15 Li   -0.02065    0.01639    0.30584
 16 Li    0.00561    0.00532    0.30756
 17 Li    0.00776   -0.00494    0.29462
 18 Li   -0.01026    0.01212    0.00339
 19 Li    0.00471    0.00354   -0.00467
 20 Li    0.00102    0.00110   -0.02847
 21 Li   -0.00354    0.00157    0.00005
 22 Li   -0.00015    0.00237   -0.00614
 23 Li    0.01561   -0.01400    0.00364
 24 Li    0.00561   -0.00530   -0.00100
 25 Li   -0.00467   -0.00593   -0.00403
 26 Li    0.00183    0.00466   -0.00713
 27 Li    0.01652   -0.02534    0.00944
 28 Li   -0.00496    0.00465   -0.01812
 29 Li   -0.00640   -0.00611   -0.01032
 30 Li    0.00670    0.01037    0.01613
 31 Li   -0.00284   -0.00795   -0.01553
 32 Li    0.00989    0.00447    0.01206
 33 Li   -0.00214   -0.00921   -0.01393
 34 Li   -0.00168   -0.00228   -0.01326
 35 Li   -0.00028   -0.00035   -0.01968
 36 O    -0.00277   -0.00178   -0.00442
 37 O     0.01146   -0.01167   -0.00783
 38 C    -0.00859    0.02764    0.02605
 39 C     0.00621   -0.00667   -0.00138
 40 H    -0.01158   -0.01659   -0.04407
 41 H     0.00694    0.02462    0.01553
 42 H    -0.02199    0.00675   -0.03483
 43 H     0.00020   -0.00259   -0.01298
 44 H     0.00707    0.01816    0.02162
 45 H     0.00601   -0.02370   -0.00415
 46 N     0.01515    0.01063   -0.02763
 47 N    -0.01327   -0.02660    0.01182

Timing:                                      incl.     excl.
-------------------------------------------------------------------
Density initialized from wave functions:     6.136     6.133   0.0% |
 Symmetrize density:                         0.003     0.003   0.0% |
Forces:                                     51.889    51.889   0.2% |
Hamiltonian:                               695.421     0.016   0.0% |
 Atomic:                                     0.026     0.025   0.0% |
  XC Correction:                             0.000     0.000   0.0% |
 Calculate atomic Hamiltonians:              0.043     0.043   0.0% |
 Communicate:                                7.640     7.640   0.0% |
 Hartree integrate/restrict:                 2.705     2.705   0.0% |
 Initialize Hamiltonian:                     0.000     0.000   0.0% |
 Poisson:                                   33.611    12.399   0.0% |
  Communicate from 1D:                       3.337     3.337   0.0% |
  Communicate from 2D:                       3.307     3.307   0.0% |
  Communicate to 1D:                         1.883     1.883   0.0% |
  Communicate to 2D:                         4.184     4.184   0.0% |
  FFT 1D:                                    4.337     4.337   0.0% |
  FFT 2D:                                    4.164     4.164   0.0% |
 XC 3D grid:                               650.803   100.465   0.3% |
  VdW-DF integral:                         550.338     4.515   0.0% |
   Convolution:                             50.846    50.846   0.2% |
   FFT:                                     21.546    21.546   0.1% |
   gather:                                 190.859   190.859   0.6% |
   hmm1:                                    18.257    18.257   0.1% |
   hmm2:                                    24.226    24.226   0.1% |
   iFFT:                                    22.393    22.393   0.1% |
   potential:                              214.045     5.813   0.0% |
    collect:                                33.603    33.603   0.1% |
    p1:                                     99.456    99.456   0.3% |
    p2:                                     37.012    37.012   0.1% |
    sum:                                    38.161    38.161   0.1% |
   splines:                                  3.649     3.649   0.0% |
 vbar:                                       0.577     0.577   0.0% |
LCAO initialization:                         1.096     0.183   0.0% |
 LCAO eigensolver:                           0.188     0.000   0.0% |
  Calculate projections:                     0.000     0.000   0.0% |
  DenseAtomicCorrection:                     0.000     0.000   0.0% |
  Distribute overlap matrix:                 0.172     0.172   0.0% |
  Orbital Layouts:                           0.014     0.014   0.0% |
  Potential matrix:                          0.001     0.001   0.0% |
  Sum over cells:                            0.001     0.001   0.0% |
 LCAO to grid:                               0.633     0.633   0.0% |
 Set positions (LCAO WFS):                   0.092     0.051   0.0% |
  Basic WFS set positions:                   0.001     0.001   0.0% |
  Basis functions set positions:             0.000     0.000   0.0% |
  P tci:                                     0.000     0.000   0.0% |
  ST tci:                                    0.011     0.011   0.0% |
  mktci:                                     0.029     0.029   0.0% |
Redistribute:                                0.075     0.075   0.0% |
SCF-cycle:                               32475.628   514.484   1.5% ||
 Davidson:                                8800.633  2644.174   7.9% |--|
  Apply hamiltonian:                       548.545   548.545   1.6% ||
  Subspace diag:                          1640.352     0.518   0.0% |
   calc_h_matrix:                          813.777   250.870   0.8% |
    Apply hamiltonian:                     562.907   562.907   1.7% ||
   diagonalize:                             84.691    84.691   0.3% |
   rotate_psi:                             741.366   741.366   2.2% ||
  calc. matrices:                         2739.949  1413.634   4.2% |-|
   Apply hamiltonian:                     1326.314  1326.314   4.0% |-|
  diagonalize:                              26.182    26.182   0.1% |
  rotate_psi:                             1201.431  1201.431   3.6% ||
 Density:                                  157.514     0.109   0.0% |
  Atomic density matrices:                  18.082    18.082   0.1% |
  Mix:                                      67.197    67.197   0.2% |
  Multipole moments:                         6.556     6.556   0.0% |
  Pseudo density:                           65.570    65.478   0.2% |
   Symmetrize density:                       0.091     0.091   0.0% |
 Hamiltonian:                            22979.155     0.512   0.0% |
  Atomic:                                    0.963     0.953   0.0% |
   XC Correction:                            0.010     0.010   0.0% |
  Calculate atomic Hamiltonians:             1.441     1.441   0.0% |
  Communicate:                             326.071   326.071   1.0% |
  Hartree integrate/restrict:               90.013    90.013   0.3% |
  Poisson:                                1104.332   409.667   1.2% |
   Communicate from 1D:                    109.834   109.834   0.3% |
   Communicate from 2D:                    109.556   109.556   0.3% |
   Communicate to 1D:                       62.982    62.982   0.2% |
   Communicate to 2D:                      133.602   133.602   0.4% |
   FFT 1D:                                 141.530   141.530   0.4% |
   FFT 2D:                                 137.161   137.161   0.4% |
  XC 3D grid:                            21437.275  3329.141  10.0% |---|
   VdW-DF integral:                      18108.134   148.479   0.4% |
    Convolution:                          1672.719  1672.719   5.0% |-|
    FFT:                                   710.928   710.928   2.1% ||
    gather:                               6252.471  6252.471  18.7% |------|
    hmm1:                                  594.514   594.514   1.8% ||
    hmm2:                                  777.157   777.157   2.3% ||
    iFFT:                                  735.497   735.497   2.2% ||
    potential:                            7216.330   191.046   0.6% |
     collect:                             1112.927  1112.927   3.3% ||
     p1:                                  3260.782  3260.782   9.8% |---|
     p2:                                  1200.045  1200.045   3.6% ||
     sum:                                 1451.530  1451.530   4.4% |-|
    splines:                                 0.040     0.040   0.0% |
  vbar:                                     18.548    18.548   0.1% |
 Orthonormalize:                            23.842     0.017   0.0% |
  calc_s_matrix:                             3.467     3.467   0.0% |
  inverse-cholesky:                          6.890     6.890   0.0% |
  projections:                               0.003     0.003   0.0% |
  rotate_psi_s:                             13.466    13.466   0.0% |
Set symmetry:                                0.003     0.003   0.0% |
Other:                                     137.758   137.758   0.4% |
-------------------------------------------------------------------
Total:                                             33368.007 100.0%

Memory usage: 1.14 GiB
Date: Fri Mar 10 21:38:59 2023
