
  ___ ___ ___ _ _ _  
 |   |   |_  | | | | 
 | | | | | . | | | | 
 |__ |  _|___|_____|  22.8.0
 |___|_|             

User:   vazumah@f011
Date:   Tue Feb 28 01:21:35 2023
Arch:   x86_64
Pid:    44303
CWD:    /home/vazumah/Research_Projects/LiMEAS/LiNRR_proton_donors/on_pure_surface/Li_BCC100/adsorbates/CH3CH2OH_y/ontop/9.702_9.702
Python: 3.10.6
gpaw:   /home/vazumah/anaconda3/envs/NAME/lib/python3.10/site-packages/gpaw
_gpaw:  /home/vazumah/anaconda3/envs/NAME/lib/python3.10/site-packages/
        _gpaw.cpython-310-x86_64-linux-gnu.so
ase:    /home/vazumah/anaconda3/envs/NAME/lib/python3.10/site-packages/ase (version 3.22.1)
numpy:  /home/vazumah/anaconda3/envs/NAME/lib/python3.10/site-packages/numpy (version 1.23.3)
scipy:  /home/vazumah/anaconda3/envs/NAME/lib/python3.10/site-packages/scipy (version 1.9.1)
libxc:  5.2.3
units:  Angstrom and eV
cores: 32
OpenMP: True
OMP_NUM_THREADS: 1

Input parameters:
  h: 0.16
  kpts: {size: [4, 4, 1]}
  occupations: {name: fermi-dirac,
                width: 0.05}
  poissonsolver: {dipolelayer: xy}
  xc: BEEF-vdW

System changes: positions, numbers, cell, pbc, initial_charges, initial_magmoms 

Initialize ...

species:
  Li:
    name: Lithium
    id: 830b4218f175192f93f959cfc0aad614
    Z: 3.0
    valence: 1
    core: 2
    charge: 0.0
    file: /home/vazumah/anaconda3/envs/NAME/share/gpaw/Li.PBE.gz
    compensation charges: {type: gauss,
                           rc: 0.33,
                           lmax: 2}
    cutoffs: {filter: 1.91,
              core: 2.55}
    valence states:
      #              energy  rcut
      - 2s(1.00)    -2.874   1.058
      - 2p(0.00)    -1.090   1.058
      -  s          24.337   1.058
  
    # Using partial waves for Li as LCAO basis

  O:
    name: Oxygen
    id: 32ecd46bf208036f09c70b0ec9a88b78
    Z: 8.0
    valence: 6
    core: 2
    charge: 0.0
    file: /home/vazumah/anaconda3/envs/NAME/share/gpaw/O.PBE.gz
    compensation charges: {type: gauss,
                           rc: 0.21,
                           lmax: 2}
    cutoffs: {filter: 1.17,
              core: 0.83}
    valence states:
      #              energy  rcut
      - 2s(2.00)   -23.961   0.688
      - 2p(4.00)    -9.029   0.598
      -  s           3.251   0.688
      -  p          18.182   0.598
      -  d           0.000   0.619
  
    # Using partial waves for O as LCAO basis

  C:
    name: Carbon
    id: 4aa54d4b901d75f77cc0ea3eec22967b
    Z: 6.0
    valence: 4
    core: 2
    charge: 0.0
    file: /home/vazumah/anaconda3/envs/NAME/share/gpaw/C.PBE.gz
    compensation charges: {type: gauss,
                           rc: 0.20,
                           lmax: 2}
    cutoffs: {filter: 1.14,
              core: 1.14}
    valence states:
      #              energy  rcut
      - 2s(2.00)   -13.751   0.635
      - 2p(2.00)    -5.284   0.635
      -  s          13.461   0.635
      -  p          21.927   0.635
      -  d           0.000   0.635
  
    # Using partial waves for C as LCAO basis

  H:
    name: Hydrogen
    id: d65de229564ff8ea4db303e23b6d1ecf
    Z: 1.0
    valence: 1
    core: 0
    charge: 0.0
    file: /home/vazumah/anaconda3/envs/NAME/share/gpaw/H.PBE.gz
    compensation charges: {type: gauss,
                           rc: 0.15,
                           lmax: 2}
    cutoffs: {filter: 0.85,
              core: 0.53}
    valence states:
      #              energy  rcut
      - 1s(1.00)    -6.494   0.476
      -  s          20.717   0.476
      -  p           0.000   0.476
  
    # Using partial waves for H as LCAO basis

Reference energy: -11471.411034  # eV

Spin-paired calculation

Convergence criteria:
 Maximum [total energy] change in last 3 cyles: 0.0005 eV / electron
 Maximum integral of absolute [dens]ity change: 0.0001 electrons / valence electron
 Maximum integral of absolute [eigenst]ate change: 4e-08 eV^2 / valence electron
 Maximum number of scf [iter]ations: 333
 (Square brackets indicate name in SCF output, whereas a 'c' in
 the SCF output indicates the quantity has converged.)

Symmetries present (total): 1

  ( 1  0  0)
  ( 0  1  0)
  ( 0  0  1)

16 k-points: 4 x 4 x 1 Monkhorst-Pack grid
8 k-points in the irreducible part of the Brillouin zone
       k-points in crystal coordinates                weights
   0:     0.12500000   -0.37500000    0.00000000          2/16
   1:     0.12500000   -0.12500000    0.00000000          2/16
   2:     0.12500000    0.12500000    0.00000000          2/16
   3:     0.12500000    0.37500000    0.00000000          2/16
   4:     0.37500000   -0.37500000    0.00000000          2/16
   5:     0.37500000   -0.12500000    0.00000000          2/16
   6:     0.37500000    0.12500000    0.00000000          2/16
   7:     0.37500000    0.37500000    0.00000000          2/16

Wave functions: Uniform real-space grid
  Kinetic energy operator: 6*3+1=19 point O(h^6) finite-difference Laplacian
  ScaLapack parameters: grid=1x1, blocksize=None
  Wavefunction extrapolation:
    Improved wavefunction reuse through dual PAW basis 

Occupation numbers: Fermi-Dirac:
  width: 0.0500  # eV
 

Eigensolver
   Davidson(niter=2) 

Densities:
  Coarse grid: 60*60*156 grid
  Fine grid: 120*120*312 grid
  Total Charge: 0.000000 

Density mixing:
  Method: separate
  Backend: pulay
  Linear mixing parameter: 0.05
  old densities: 5
  Damping of long wavelength oscillations: 50 

Hamiltonian:
  XC and Coulomb potentials evaluated on a 120*120*312 grid
  Using the BEEF-vdW Exchange-Correlation functional
  Interpolation: tri-quintic (5. degree polynomial)
  Poisson solver: FastPoissonSolver using
    Stencil: 6*3+1=19 point O(h^6) finite-difference Laplacian
    FFT axes: [0, 1]
    FST axes: [2]

Dipole correction along z-axis 

XC parameters: BEEF-vdW with 2 nearest neighbor stencil

Memory estimate:
  Process memory now: 212.32 MiB
  Calculator: 281.63 MiB
    Density: 87.85 MiB
      Arrays: 27.47 MiB
      Localized functions: 49.94 MiB
      Mixer: 10.44 MiB
    Hamiltonian: 21.91 MiB
      Arrays: 17.96 MiB
      XC: 0.00 MiB
      Poisson: 0.00 MiB
      vbar: 3.94 MiB
    Wavefunctions: 171.87 MiB
      Arrays psit_nG: 79.32 MiB
      Eigensolver: 89.98 MiB
      Projections: 0.04 MiB
      Projectors: 2.54 MiB

Total number of cores used: 32
Parallelization over k-points: 8
Domain decomposition: 1 x 1 x 4

Number of atoms: 45
Number of atomic orbitals: 162
Number of bands in calculation: 38
Number of valence electrons: 56
Bands to converge: occupied

... initialized

Initializing position-dependent things.

Density initialized from atomic densities
Creating initial wave functions:
  38 bands from LCAO basis set

       .-----------------------.  
      /|                       |  
     / |                       |  
    /  |                       |  
   /   |                       |  
  /    |                       |  
 *     |                       |  
 |     |                       |  
 |     |                       |  
 |     |                       |  
 |     |                       |  
 |     |                 H     |  
 |   H |                   C   |  
 |  C  |                H      |  
 O   Hi|     Li      Li  H     |  
 |     |  Li      Li      Li   |  
 | Li  |   Li      Li          |  
 |     |Li      Li      Li     |  
 Li    | Li      Li            |  
 |   LLi     LLi     LLi       |  
 |     |  Li      Li      Li   |  
 | Li  |   Li      Li          |  
 |     |Li      Li      Li     |  
 Li    | Li      Li            |  
 |    Li      Li      Li       |  
 |     |                       |  
 |     |                       |  
 |     |                       |  
 |     |                       |  
 |     |                       |  
 |     |                       |  
 |     .-----------------------.  
 |    /                       /   
 |   /                       /    
 |  /                       /     
 | /                       /      
 |/                       /       
 *-----------------------*        

Positions:
   0 Li     1.617037    1.617037   10.000000    ( 0.0000,  0.0000,  0.0000)
   1 Li     4.851111    1.617037   10.000000    ( 0.0000,  0.0000,  0.0000)
   2 Li     8.085185    1.617037   10.000000    ( 0.0000,  0.0000,  0.0000)
   3 Li     1.617037    4.851111   10.000000    ( 0.0000,  0.0000,  0.0000)
   4 Li     4.851111    4.851111   10.000000    ( 0.0000,  0.0000,  0.0000)
   5 Li     8.085185    4.851111   10.000000    ( 0.0000,  0.0000,  0.0000)
   6 Li     1.617037    8.085185   10.000000    ( 0.0000,  0.0000,  0.0000)
   7 Li     4.851111    8.085185   10.000000    ( 0.0000,  0.0000,  0.0000)
   8 Li     8.085185    8.085185   10.000000    ( 0.0000,  0.0000,  0.0000)
   9 Li     0.000000    0.000000   11.617037    ( 0.0000,  0.0000,  0.0000)
  10 Li     3.234074    0.000000   11.617037    ( 0.0000,  0.0000,  0.0000)
  11 Li     6.468148    0.000000   11.617037    ( 0.0000,  0.0000,  0.0000)
  12 Li     0.000000    3.234074   11.617037    ( 0.0000,  0.0000,  0.0000)
  13 Li     3.234074    3.234074   11.617037    ( 0.0000,  0.0000,  0.0000)
  14 Li     6.468148    3.234074   11.617037    ( 0.0000,  0.0000,  0.0000)
  15 Li     0.000000    6.468148   11.617037    ( 0.0000,  0.0000,  0.0000)
  16 Li     3.234074    6.468148   11.617037    ( 0.0000,  0.0000,  0.0000)
  17 Li     6.468148    6.468148   11.617037    ( 0.0000,  0.0000,  0.0000)
  18 Li     1.617038    1.617038   13.469728    ( 0.0000,  0.0000,  0.0000)
  19 Li     4.851111    1.617038   13.469729    ( 0.0000,  0.0000,  0.0000)
  20 Li     8.085184    1.617038   13.469728    ( 0.0000,  0.0000,  0.0000)
  21 Li     1.617038    4.851111   13.469729    ( 0.0000,  0.0000,  0.0000)
  22 Li     4.851111    4.851111   13.469730    ( 0.0000,  0.0000,  0.0000)
  23 Li     8.085184    4.851111   13.469729    ( 0.0000,  0.0000,  0.0000)
  24 Li     1.617038    8.085184   13.469728    ( 0.0000,  0.0000,  0.0000)
  25 Li     4.851111    8.085184   13.469729    ( 0.0000,  0.0000,  0.0000)
  26 Li     8.085184    8.085184   13.469728    ( 0.0000,  0.0000,  0.0000)
  27 Li    -0.000000   -0.000000   15.445939    ( 0.0000,  0.0000,  0.0000)
  28 Li     3.234074    0.000000   15.445939    ( 0.0000,  0.0000,  0.0000)
  29 Li     6.468148    0.000000   15.445939    ( 0.0000,  0.0000,  0.0000)
  30 Li     0.000000    3.234074   15.445939    ( 0.0000,  0.0000,  0.0000)
  31 Li     3.234076    3.234076   15.445938    ( 0.0000,  0.0000,  0.0000)
  32 Li     6.468146    3.234076   15.445938    ( 0.0000,  0.0000,  0.0000)
  33 Li     0.000000    6.468148   15.445939    ( 0.0000,  0.0000,  0.0000)
  34 Li     3.234076    6.468146   15.445938    ( 0.0000,  0.0000,  0.0000)
  35 Li     6.468146    6.468146   15.445938    ( 0.0000,  0.0000,  0.0000)
  36 O      9.702222    9.702222   18.445939    ( 0.0000,  0.0000,  0.0000)
  37 C     10.518979   10.884630   18.450238    ( 0.0000,  0.0000,  0.0000)
  38 C      9.699361   12.168844   18.435704    ( 0.0000,  0.0000,  0.0000)
  39 H     11.202515   10.876006   19.310398    ( 0.0000,  0.0000,  0.0000)
  40 H     11.128705   10.809241   17.547442    ( 0.0000,  0.0000,  0.0000)
  41 H     10.353307   13.045771   18.420269    ( 0.0000,  0.0000,  0.0000)
  42 H      9.050338   12.203555   17.558886    ( 0.0000,  0.0000,  0.0000)
  43 H      9.070873   12.239032   19.328265    ( 0.0000,  0.0000,  0.0000)
  44 H      9.119245    9.741389   19.214164    ( 0.0000,  0.0000,  0.0000)

Unit cell:
           periodic     x           y           z      points  spacing
  1. axis:    yes    9.702222    0.000000    0.000000    60     0.1617
  2. axis:    yes    0.000000    9.702222    0.000000    60     0.1617
  3. axis:    no     0.000000    0.000000   24.851111   156     0.1593

  Lengths:   9.702222   9.702222  24.851111
  Angles:   90.000000  90.000000  90.000000

Effective grid spacing dv^(1/3) = 0.1609

     iter     time        total  log10-change:
                         energy  eigst   dens
iter:   1 01:22:30  -403.360337
iter:   2 01:23:04  -159.768112  +2.44  -0.09
iter:   3 01:23:52  -156.017244  +3.29  -0.23
iter:   4 01:24:49  -168.749293  +2.71  -0.20
Writing to output.gpw (mode='')

iter:   5 01:25:49  -242.042429  +2.84  -0.40
iter:   6 01:26:42  -247.299727  +2.43  -0.43
iter:   7 01:27:34  -305.960737  +2.83  -0.58
iter:   8 01:28:26  -307.173247  +2.30  -0.41
iter:   9 01:29:17  -281.377199  +2.06  -0.43
Writing to output.gpw (mode='')

iter:  10 01:30:03  -292.776857  +1.93  -0.55
iter:  11 01:30:40  -365.135905  +2.42  -0.49
iter:  12 01:31:57  -327.789349  +1.48  -0.30
iter:  13 01:33:20  -279.229357  +1.35  -0.35
iter:  14 01:35:31  -278.548436  +1.40  -0.71
Writing to output.gpw (mode='')

iter:  15 01:37:46  -278.101011  +0.92  -0.76
iter:  16 01:40:39  -274.271970  +0.46  -0.75
iter:  17 01:42:45  -274.295042  +0.96  -0.95
iter:  18 01:45:17  -273.436086  +0.22  -0.93
iter:  19 01:47:35  -279.207237  +1.25  -1.03
Writing to output.gpw (mode='')

iter:  20 01:50:57  -276.274124  +0.40  -0.67
iter:  21 01:53:07  -273.108184  +0.80  -0.78
iter:  22 01:56:50  -272.454096  +0.83  -1.02
iter:  23 02:00:27  -272.568340  -0.37  -1.36
iter:  24 02:03:18  -272.555079  -0.14  -1.45
Writing to output.gpw (mode='')

iter:  25 02:06:57  -272.480825  +0.08  -1.42
iter:  26 02:10:49  -272.475679  -0.69  -1.67
iter:  27 02:14:21  -272.479416c -1.15  -1.73
iter:  28 02:18:14  -272.494223c -0.56  -1.77
iter:  29 02:23:15  -272.484788c -1.31  -1.85
Writing to output.gpw (mode='')

iter:  30 02:28:11  -272.475139c -1.54  -1.93
iter:  31 02:32:06  -272.477494c -1.73  -2.02
iter:  32 02:35:50  -272.473398c -1.64  -2.08
iter:  33 02:38:42  -272.474077c -1.90  -2.28
iter:  34 02:42:49  -272.474612c -2.10  -2.47
Writing to output.gpw (mode='')

iter:  35 02:46:59  -272.475171c -2.30  -2.49
iter:  36 02:51:05  -272.475786c -2.33  -2.50
iter:  37 02:55:43  -272.476661c -2.29  -2.61
iter:  38 03:01:46  -272.476976c -2.54  -2.67
iter:  39 03:06:52  -272.477098c -2.43  -2.68
Writing to output.gpw (mode='')

iter:  40 03:10:04  -272.477340c -2.66  -2.95
iter:  41 03:13:15  -272.477552c -2.89  -3.03
iter:  42 03:16:04  -272.477706c -2.99  -3.08
iter:  43 03:19:05  -272.477870c -2.97  -3.24
iter:  44 03:22:20  -272.477989c -3.11  -3.37
Writing to output.gpw (mode='')

iter:  45 03:25:19  -272.478095c -3.11  -3.41
iter:  46 03:29:02  -272.478214c -3.20  -3.47
iter:  47 03:33:56  -272.478295c -3.41  -3.65
iter:  48 03:38:45  -272.478361c -3.45  -3.70
iter:  49 03:43:03  -272.478425c -3.34  -3.71
Writing to output.gpw (mode='')

iter:  50 03:46:58  -272.478482c -3.47  -3.76
iter:  51 03:51:38  -272.478527c -3.57  -3.81
iter:  52 03:56:57  -272.478570c -3.54  -3.80
iter:  53 04:01:16  -272.478606c -3.73  -3.75
iter:  54 04:04:39  -272.478634c -3.86  -3.86
Writing to output.gpw (mode='')

iter:  55 04:08:14  -272.478668c -3.55  -3.86
iter:  56 04:13:25  -272.478692c -3.79  -3.90
iter:  57 04:18:01  -272.478719c -3.57  -4.01c
iter:  58 04:20:45  -272.478738c -3.98  -4.05c
iter:  59 04:24:32  -272.478753c -4.04  -4.14c
Writing to output.gpw (mode='')

iter:  60 04:28:24  -272.478765c -4.08  -4.17c
iter:  61 04:33:37  -272.478776c -4.19  -4.15c
iter:  62 04:40:06  -272.478788c -4.19  -4.07c
iter:  63 04:45:29  -272.478795c -4.36  -4.05c
iter:  64 04:50:21  -272.478802c -4.50  -4.07c
Writing to output.gpw (mode='')

iter:  65 04:55:45  -272.478808c -4.40  -3.96
iter:  66 05:03:04  -272.478811c -4.60  -3.99
iter:  67 05:08:09  -272.478815c -4.57  -4.10c
iter:  68 05:13:52  -272.478818c -4.64  -4.15c
iter:  69 05:18:54  -272.478821c -4.62  -4.27c
Writing to output.gpw (mode='')

iter:  70 05:23:08  -272.478825c -4.79  -4.35c
iter:  71 05:28:26  -272.478828c -4.99  -4.51c
iter:  72 05:32:06  -272.478830c -4.89  -4.56c
iter:  73 05:35:57  -272.478832c -4.63  -4.65c
iter:  74 05:40:07  -272.478833c -4.72  -4.72c
Writing to output.gpw (mode='')

iter:  75 05:43:25  -272.478834c -4.90  -4.75c
iter:  76 05:47:00  -272.478835c -5.20  -4.82c
iter:  77 05:50:52  -272.478836c -5.27  -4.99c
iter:  78 05:55:33  -272.478837c -5.25  -4.99c
iter:  79 05:58:18  -272.478837c -5.24  -4.89c
Writing to output.gpw (mode='')

iter:  80 06:00:59  -272.478837c -5.36  -4.98c
iter:  81 06:04:51  -272.478837c -5.38  -5.02c
iter:  82 06:08:07  -272.478838c -5.59  -5.01c
iter:  83 06:13:50  -272.478838c -5.49  -4.98c
iter:  84 06:20:45  -272.478838c -5.44  -4.90c
Writing to output.gpw (mode='')

iter:  85 06:24:39  -272.478838c -5.66  -4.94c
iter:  86 06:27:42  -272.478838c -5.76  -4.82c
iter:  87 06:30:59  -272.478838c -5.78  -4.92c
iter:  88 06:33:59  -272.478838c -5.67  -4.86c
iter:  89 06:38:15  -272.478839c -5.93  -4.97c
Writing to output.gpw (mode='')

iter:  90 06:41:42  -272.478839c -5.87  -4.96c
iter:  91 06:45:42  -272.478839c -6.03  -4.94c
iter:  92 06:49:38  -272.478839c -6.11  -4.86c
iter:  93 06:52:25  -272.478839c -6.11  -4.99c
iter:  94 06:56:05  -272.478839c -6.10  -5.01c
Writing to output.gpw (mode='')

iter:  95 07:01:31  -272.478839c -6.05  -5.06c
iter:  96 07:05:18  -272.478839c -6.07  -5.11c
iter:  97 07:08:24  -272.478839c -6.27  -5.36c
iter:  98 07:11:17  -272.478839c -6.35  -5.40c
iter:  99 07:16:15  -272.478839c -6.24  -5.45c
Writing to output.gpw (mode='')

iter: 100 07:18:21  -272.478839c -6.19  -5.61c
iter: 101 07:20:34  -272.478839c -6.35  -5.59c
iter: 102 07:22:46  -272.478839c -6.51  -5.56c
iter: 103 07:25:00  -272.478839c -6.53  -5.43c
iter: 104 07:28:06  -272.478839c -6.58  -5.43c
Writing to output.gpw (mode='')

iter: 105 07:31:43  -272.478839c -6.64  -5.51c
iter: 106 07:33:47  -272.478838c -6.74  -5.55c
iter: 107 07:35:45  -272.478838c -6.73  -5.53c
iter: 108 07:38:59  -272.478838c -6.87  -5.59c
iter: 109 07:41:11  -272.478838c -6.76  -5.58c
Writing to output.gpw (mode='')

iter: 110 07:43:29  -272.478838c -6.80  -5.63c
iter: 111 07:47:40  -272.478838c -6.99  -5.89c
iter: 112 07:51:05  -272.478838c -6.98  -5.94c
iter: 113 07:53:57  -272.478838c -6.92  -6.02c
iter: 114 07:55:26  -272.478838c -6.79  -6.18c
Writing to output.gpw (mode='')

iter: 115 07:59:18  -272.478838c -6.94  -6.22c
iter: 116 08:01:34  -272.478838c -7.13  -6.21c
iter: 117 08:05:04  -272.478838c -7.19  -6.22c
iter: 118 08:07:44  -272.478838c -7.26  -6.22c
iter: 119 08:11:00  -272.478838c -7.30  -6.17c
Writing to output.gpw (mode='')

iter: 120 08:15:36  -272.478838c -7.28  -6.37c
iter: 121 08:18:48  -272.478838c -7.33  -6.43c
iter: 122 08:22:07  -272.478838c -7.32  -6.35c
iter: 123 08:25:43  -272.478838c -7.44c -6.28c

Converged after 123 iterations.

Dipole moment: (-9.106986, -10.137165, 0.347037) |e|*Ang

Energy contributions relative to reference atoms: (reference = -11471.411034)

Kinetic:       +127.641241
Potential:     -119.518577
External:        +0.000000
XC:            -280.771747
Entropy (-ST):   -0.152263
Local:           +0.246377
--------------------------
Free energy:   -272.554970
Extrapolated:  -272.478838

Dipole-layer corrected work functions: 3.391337, 2.724213 eV

Showing only first 2 kpts
 Kpt  Band  Eigenvalues  Occupancy
  0    26     -3.31063    1.98735
  0    27     -3.22949    1.93752
  0    28     -2.89197    0.07005
  0    29     -2.80438    0.01251

  1    26     -3.07834    1.20276
  1    27     -3.05025    0.92485
  1    28     -3.02032    0.64205
  1    29     -3.00993    0.55499


Fermi level: -3.05778

No gap
Writing to output.gpw (mode='')


Forces in eV/Ang:
  0 Li    0.00373    0.00107   -0.26925
  1 Li   -0.00025   -0.00145   -0.27339
  2 Li   -0.00361    0.00110   -0.26980
  3 Li   -0.00170    0.00152   -0.27137
  4 Li   -0.00011   -0.00123   -0.27610
  5 Li    0.00202    0.00142   -0.27157
  6 Li    0.00101   -0.00248   -0.27226
  7 Li   -0.00015    0.00273   -0.27546
  8 Li   -0.00068   -0.00279   -0.27274
  9 Li   -0.00031   -0.00219    0.26717
 10 Li    0.00459    0.00173    0.25431
 11 Li   -0.00394   -0.00008    0.25609
 12 Li    0.00002    0.00314    0.25918
 13 Li    0.00211   -0.00114    0.25641
 14 Li   -0.00180   -0.00020    0.25863
 15 Li    0.00073   -0.00078    0.25389
 16 Li   -0.00271   -0.00090    0.26152
 17 Li    0.00189    0.00055    0.26036
 18 Li   -0.00352   -0.00094    0.04077
 19 Li    0.00020   -0.00106    0.04606
 20 Li    0.00405    0.00065    0.03365
 21 Li   -0.00357   -0.00487    0.05181
 22 Li    0.00035    0.00203    0.02866
 23 Li    0.00306   -0.00181    0.04945
 24 Li    0.00029    0.00529    0.03150
 25 Li    0.00007   -0.00098    0.03931
 26 Li   -0.00050    0.00145    0.02457
 27 Li   -0.05326   -0.08316    0.07695
 28 Li    0.04738   -0.01313   -0.07553
 29 Li   -0.02186    0.00232   -0.03464
 30 Li    0.01106    0.07832   -0.14865
 31 Li    0.03113    0.01567   -0.06580
 32 Li   -0.02637    0.00635   -0.04892
 33 Li    0.00345   -0.00625   -0.02420
 34 Li   -0.00194   -0.00549   -0.02081
 35 Li   -0.00162   -0.00825   -0.02558
 36 O     0.00723   -0.02238   -0.17087
 37 C    -0.02343    0.11575    0.25072
 38 C     0.22070   -0.03068    0.18906
 39 H    -0.02031   -0.01608   -0.01121
 40 H     0.07365    0.02893   -0.05690
 41 H     0.01995   -0.01326   -0.01033
 42 H    -0.16772   -0.03301   -0.02189
 43 H    -0.05097    0.02299   -0.02822
 44 H    -0.04731   -0.04663   -0.01984

System changes: positions 

Initializing position-dependent things.

Density initialized from wave functions
       .-----------------------.  
      /|                       |  
     / |                       |  
    /  |                       |  
   /   |                       |  
  /    |                       |  
 *     |                       |  
 |     |                       |  
 |     O                       |  
 |     |                       |  
 |     |                       |  
 |     |                 H     |  
 | C H |       Li              Li 
 |  C  |                H      |  
 |   Hi|     Li      Li  H     |  
 |     |  Li      Li      Li   |  
 | Li  |   Li      Li          |  
 |     |Li      Li      Li     |  
 |     |         Li            |  
 |   LLi     LLi     LLi       |  
 |     |  Li      Li      Li   |  
 | Li  |   Li      Li          |  
 |     |Li      Li      Li     |  
 Li    | Li      Li            |  
 |    Li      Li      Li       |  
 |     |                       |  
 |     |                       |  
 |     |                       |  
 |     |                       |  
 |     |                       |  
 |     |                       |  
 |     .-----------------------.  
 |    /                       /   
 |   /                       /    
 |  /                       /     
 | /                       /      
 |/                       /       
 *-----------------------*        

Positions:
   0 Li     1.617037    1.617037   10.000000    ( 0.0000,  0.0000,  0.0000)
   1 Li     4.851111    1.617037   10.000000    ( 0.0000,  0.0000,  0.0000)
   2 Li     8.085185    1.617037   10.000000    ( 0.0000,  0.0000,  0.0000)
   3 Li     1.617037    4.851111   10.000000    ( 0.0000,  0.0000,  0.0000)
   4 Li     4.851111    4.851111   10.000000    ( 0.0000,  0.0000,  0.0000)
   5 Li     8.085185    4.851111   10.000000    ( 0.0000,  0.0000,  0.0000)
   6 Li     1.617037    8.085185   10.000000    ( 0.0000,  0.0000,  0.0000)
   7 Li     4.851111    8.085185   10.000000    ( 0.0000,  0.0000,  0.0000)
   8 Li     8.085185    8.085185   10.000000    ( 0.0000,  0.0000,  0.0000)
   9 Li     0.000000    0.000000   11.617037    ( 0.0000,  0.0000,  0.0000)
  10 Li     3.234074    0.000000   11.617037    ( 0.0000,  0.0000,  0.0000)
  11 Li     6.468148    0.000000   11.617037    ( 0.0000,  0.0000,  0.0000)
  12 Li     0.000000    3.234074   11.617037    ( 0.0000,  0.0000,  0.0000)
  13 Li     3.234074    3.234074   11.617037    ( 0.0000,  0.0000,  0.0000)
  14 Li     6.468148    3.234074   11.617037    ( 0.0000,  0.0000,  0.0000)
  15 Li     0.000000    6.468148   11.617037    ( 0.0000,  0.0000,  0.0000)
  16 Li     3.234074    6.468148   11.617037    ( 0.0000,  0.0000,  0.0000)
  17 Li     6.468148    6.468148   11.617037    ( 0.0000,  0.0000,  0.0000)
  18 Li     1.616988    1.617025   13.470310    ( 0.0000,  0.0000,  0.0000)
  19 Li     4.851114    1.617023   13.470388    ( 0.0000,  0.0000,  0.0000)
  20 Li     8.085242    1.617047   13.470209    ( 0.0000,  0.0000,  0.0000)
  21 Li     1.616987    4.851041   13.470470    ( 0.0000,  0.0000,  0.0000)
  22 Li     4.851116    4.851140   13.470140    ( 0.0000,  0.0000,  0.0000)
  23 Li     8.085227    4.851085   13.470436    ( 0.0000,  0.0000,  0.0000)
  24 Li     1.617042    8.085260   13.470178    ( 0.0000,  0.0000,  0.0000)
  25 Li     4.851112    8.085170   13.470291    ( 0.0000,  0.0000,  0.0000)
  26 Li     8.085177    8.085205   13.470079    ( 0.0000,  0.0000,  0.0000)
  27 Li    -0.000761   -0.001188   15.447039    ( 0.0000,  0.0000,  0.0000)
  28 Li     3.234751   -0.000188   15.444860    ( 0.0000,  0.0000,  0.0000)
  29 Li     6.467836    0.000033   15.445444    ( 0.0000,  0.0000,  0.0000)
  30 Li     0.000158    3.235193   15.443815    ( 0.0000,  0.0000,  0.0000)
  31 Li     3.234521    3.234300   15.444998    ( 0.0000,  0.0000,  0.0000)
  32 Li     6.467769    3.234167   15.445239    ( 0.0000,  0.0000,  0.0000)
  33 Li     0.000049    6.468059   15.445593    ( 0.0000,  0.0000,  0.0000)
  34 Li     3.234049    6.468067   15.445641    ( 0.0000,  0.0000,  0.0000)
  35 Li     6.468122    6.468028   15.445573    ( 0.0000,  0.0000,  0.0000)
  36 O      9.702325    9.701902   18.443498    ( 0.0000,  0.0000,  0.0000)
  37 C     10.518645   10.886283   18.453819    ( 0.0000,  0.0000,  0.0000)
  38 C      9.702514   12.168406   18.438405    ( 0.0000,  0.0000,  0.0000)
  39 H     11.202224   10.875777   19.310238    ( 0.0000,  0.0000,  0.0000)
  40 H     11.129757   10.809654   17.546629    ( 0.0000,  0.0000,  0.0000)
  41 H     10.353592   13.045581   18.420122    ( 0.0000,  0.0000,  0.0000)
  42 H      9.047942   12.203084   17.558573    ( 0.0000,  0.0000,  0.0000)
  43 H      9.070145   12.239360   19.327862    ( 0.0000,  0.0000,  0.0000)
  44 H      9.118569    9.740723   19.213881    ( 0.0000,  0.0000,  0.0000)

Unit cell:
           periodic     x           y           z      points  spacing
  1. axis:    yes    9.702222    0.000000    0.000000    60     0.1617
  2. axis:    yes    0.000000    9.702222    0.000000    60     0.1617
  3. axis:    no     0.000000    0.000000   24.851111   156     0.1593

  Lengths:   9.702222   9.702222  24.851111
  Angles:   90.000000  90.000000  90.000000

Effective grid spacing dv^(1/3) = 0.1609

     iter     time        total  log10-change:
                         energy  eigst   dens
iter:   1 08:28:55  -272.482612  -2.56
iter:   2 08:30:51  -272.482558  -3.32  -2.82
iter:   3 08:32:49  -272.482415c -3.81  -2.82
iter:   4 08:35:27  -272.482124c -2.88  -2.93
Writing to output.gpw (mode='')

iter:   5 08:38:13  -272.482001c -4.19  -2.95
iter:   6 08:40:34  -272.481935c -3.73  -3.20
iter:   7 08:42:41  -272.482010c -3.59  -3.34
iter:   8 08:44:57  -272.481946c -4.37  -3.24
iter:   9 08:47:33  -272.481919c -4.12  -3.43
Writing to output.gpw (mode='')

iter:  10 08:50:16  -272.481927c -5.25  -3.62
iter:  11 08:53:14  -272.481921c -5.04  -3.71
iter:  12 08:56:18  -272.481930c -5.07  -3.81
iter:  13 08:58:41  -272.481931c -5.82  -3.92
iter:  14 09:01:02  -272.481934c -5.58  -3.95
Writing to output.gpw (mode='')

iter:  15 09:04:03  -272.481929c -5.71  -4.03c
iter:  16 09:08:55  -272.481929c -6.44  -4.22c
iter:  17 09:11:30  -272.481928c -6.64  -4.29c
iter:  18 09:14:25  -272.481929c -6.34  -4.31c
iter:  19 09:18:01  -272.481929c -6.95  -4.47c
Writing to output.gpw (mode='')

iter:  20 09:21:02  -272.481929c -7.41c -4.41c

Converged after 20 iterations.

Dipole moment: (-9.357489, -10.075106, 0.347670) |e|*Ang

Energy contributions relative to reference atoms: (reference = -11471.411034)

Kinetic:       +127.447185
Potential:     -119.384204
External:        +0.000000
XC:            -280.715180
Entropy (-ST):   -0.152259
Local:           +0.246399
--------------------------
Free energy:   -272.558059
Extrapolated:  -272.481929

Dipole-layer corrected work functions: 3.391269, 2.722929 eV

Showing only first 2 kpts
 Kpt  Band  Eigenvalues  Occupancy
  0    26     -3.30989    1.98734
  0    27     -3.22884    1.93755
  0    28     -2.89121    0.06993
  0    29     -2.80362    0.01249

  1    26     -3.07764    1.20253
  1    27     -3.04940    0.92319
  1    28     -3.01995    0.64467
  1    29     -3.00932    0.55555


Fermi level: -3.05710

No gap

Forces in eV/Ang:
  0 Li    0.00379    0.00107   -0.26941
  1 Li   -0.00026   -0.00143   -0.27359
  2 Li   -0.00367    0.00110   -0.26996
  3 Li   -0.00161    0.00159   -0.27158
  4 Li   -0.00011   -0.00113   -0.27620
  5 Li    0.00194    0.00149   -0.27176
  6 Li    0.00107   -0.00255   -0.27238
  7 Li   -0.00015    0.00261   -0.27559
  8 Li   -0.00074   -0.00286   -0.27290
  9 Li   -0.00027   -0.00204    0.26791
 10 Li    0.00463    0.00174    0.25497
 11 Li   -0.00399   -0.00006    0.25657
 12 Li    0.00002    0.00317    0.26022
 13 Li    0.00197   -0.00121    0.25717
 14 Li   -0.00166   -0.00014    0.25931
 15 Li    0.00078   -0.00095    0.25437
 16 Li   -0.00271   -0.00084    0.26184
 17 Li    0.00182    0.00046    0.26063
 18 Li   -0.00380   -0.00156    0.03925
 19 Li    0.00040   -0.00105    0.04450
 20 Li    0.00411    0.00025    0.03238
 21 Li   -0.00322   -0.00441    0.04992
 22 Li    0.00042    0.00216    0.02756
 23 Li    0.00268   -0.00151    0.04749
 24 Li   -0.00000    0.00542    0.03069
 25 Li    0.00017   -0.00114    0.03803
 26 Li   -0.00040    0.00153    0.02415
 27 Li   -0.05234   -0.08126    0.07920
 28 Li    0.04605   -0.01261   -0.07358
 29 Li   -0.02171    0.00217   -0.03429
 30 Li    0.01038    0.07586   -0.14412
 31 Li    0.03063    0.01530   -0.06449
 32 Li   -0.02577    0.00616   -0.04806
 33 Li    0.00337   -0.00624   -0.02389
 34 Li   -0.00204   -0.00557   -0.02029
 35 Li   -0.00143   -0.00788   -0.02508
 36 O    -0.04617    0.02997   -0.04827
 37 C     0.05825    0.01754    0.01054
 38 C     0.00591   -0.00181    0.03633
 39 H     0.02233   -0.02787    0.06242
 40 H     0.01243    0.05233    0.05571
 41 H     0.05001    0.01715   -0.00141
 42 H    -0.05107   -0.04178    0.10032
 43 H    -0.04165    0.03001   -0.00558
 44 H     0.00427   -0.06663   -0.10266

System changes: positions 

Initializing position-dependent things.

Density initialized from wave functions
       .-----------------------.  
      /|                       |  
     / |                       |  
    /  |                       |  
   /   |                       |  
  /    |                       |  
 *     |                       |  
 |     |                       |  
 |     |                       |  
 |     |                       |  
 |     |                       |  
 |     |                 H     |  
 | C H |       Li              Li 
 |  C  |                H      |  
 |   Hi|     Li      Li  O     |  
 |     |  Li      Li      Li   |  
 | Li  |   Li      Li          |  
 |     |Li      Li      Li     |  
 |     |         Li            |  
 |   LLi     LLi     LLi       |  
 |     |  Li      Li      Li   |  
 | Li  |   Li      Li          |  
 |     |Li      Li      Li     |  
 Li    | Li      Li            |  
 |    Li      Li      Li       |  
 |     |                       |  
 |     |                       |  
 |     |                       |  
 |     |                       |  
 |     |                       |  
 |     |                       |  
 |     .-----------------------.  
 |    /                       /   
 |   /                       /    
 |  /                       /     
 | /                       /      
 |/                       /       
 *-----------------------*        

Positions:
   0 Li     1.617037    1.617037   10.000000    ( 0.0000,  0.0000,  0.0000)
   1 Li     4.851111    1.617037   10.000000    ( 0.0000,  0.0000,  0.0000)
   2 Li     8.085185    1.617037   10.000000    ( 0.0000,  0.0000,  0.0000)
   3 Li     1.617037    4.851111   10.000000    ( 0.0000,  0.0000,  0.0000)
   4 Li     4.851111    4.851111   10.000000    ( 0.0000,  0.0000,  0.0000)
   5 Li     8.085185    4.851111   10.000000    ( 0.0000,  0.0000,  0.0000)
   6 Li     1.617037    8.085185   10.000000    ( 0.0000,  0.0000,  0.0000)
   7 Li     4.851111    8.085185   10.000000    ( 0.0000,  0.0000,  0.0000)
   8 Li     8.085185    8.085185   10.000000    ( 0.0000,  0.0000,  0.0000)
   9 Li     0.000000    0.000000   11.617037    ( 0.0000,  0.0000,  0.0000)
  10 Li     3.234074    0.000000   11.617037    ( 0.0000,  0.0000,  0.0000)
  11 Li     6.468148    0.000000   11.617037    ( 0.0000,  0.0000,  0.0000)
  12 Li     0.000000    3.234074   11.617037    ( 0.0000,  0.0000,  0.0000)
  13 Li     3.234074    3.234074   11.617037    ( 0.0000,  0.0000,  0.0000)
  14 Li     6.468148    3.234074   11.617037    ( 0.0000,  0.0000,  0.0000)
  15 Li     0.000000    6.468148   11.617037    ( 0.0000,  0.0000,  0.0000)
  16 Li     3.234074    6.468148   11.617037    ( 0.0000,  0.0000,  0.0000)
  17 Li     6.468148    6.468148   11.617037    ( 0.0000,  0.0000,  0.0000)
  18 Li     1.616871    1.616981   13.471563    ( 0.0000,  0.0000,  0.0000)
  19 Li     4.851124    1.616990   13.471806    ( 0.0000,  0.0000,  0.0000)
  20 Li     8.085371    1.617059   13.471242    ( 0.0000,  0.0000,  0.0000)
  21 Li     1.616883    4.850898   13.472062    ( 0.0000,  0.0000,  0.0000)
  22 Li     4.851128    4.851207   13.471020    ( 0.0000,  0.0000,  0.0000)
  23 Li     8.085315    4.851035   13.471953    ( 0.0000,  0.0000,  0.0000)
  24 Li     1.617045    8.085429   13.471154    ( 0.0000,  0.0000,  0.0000)
  25 Li     4.851116    8.085135   13.471503    ( 0.0000,  0.0000,  0.0000)
  26 Li     8.085163    8.085252   13.470845    ( 0.0000,  0.0000,  0.0000)
  27 Li    -0.002421   -0.003770   15.449515    ( 0.0000,  0.0000,  0.0000)
  28 Li     3.236216   -0.000590   15.442520    ( 0.0000,  0.0000,  0.0000)
  29 Li     6.467150    0.000103   15.444359    ( 0.0000,  0.0000,  0.0000)
  30 Li     0.000492    3.237609   15.439225    ( 0.0000,  0.0000,  0.0000)
  31 Li     3.235492    3.234786   15.442951    ( 0.0000,  0.0000,  0.0000)
  32 Li     6.466950    3.234363   15.443715    ( 0.0000,  0.0000,  0.0000)
  33 Li     0.000156    6.467862   15.444837    ( 0.0000,  0.0000,  0.0000)
  34 Li     3.233985    6.467892   15.444996    ( 0.0000,  0.0000,  0.0000)
  35 Li     6.468075    6.467775   15.444777    ( 0.0000,  0.0000,  0.0000)
  36 O      9.701388    9.702339   18.440784    ( 0.0000,  0.0000,  0.0000)
  37 C     10.519688   10.887791   18.456487    ( 0.0000,  0.0000,  0.0000)
  38 C      9.704788   12.168068   18.441036    ( 0.0000,  0.0000,  0.0000)
  39 H     11.202514   10.875012   19.311491    ( 0.0000,  0.0000,  0.0000)
  40 H     11.130744   10.811077   17.547291    ( 0.0000,  0.0000,  0.0000)
  41 H     10.354878   13.045827   18.419991    ( 0.0000,  0.0000,  0.0000)
  42 H      9.045197   12.201851   17.560549    ( 0.0000,  0.0000,  0.0000)
  43 H      9.068741   12.240239   19.327466    ( 0.0000,  0.0000,  0.0000)
  44 H      9.118203    9.738816   19.211448    ( 0.0000,  0.0000,  0.0000)

Unit cell:
           periodic     x           y           z      points  spacing
  1. axis:    yes    9.702222    0.000000    0.000000    60     0.1617
  2. axis:    yes    0.000000    9.702222    0.000000    60     0.1617
  3. axis:    no     0.000000    0.000000   24.851111   156     0.1593

  Lengths:   9.702222   9.702222  24.851111
  Angles:   90.000000  90.000000  90.000000

Effective grid spacing dv^(1/3) = 0.1609

     iter     time        total  log10-change:
                         energy  eigst   dens
iter:   1 09:23:45  -272.487379  -2.44
iter:   2 09:27:38  -272.485963  -3.06  -2.36
iter:   3 09:31:48  -272.485744c -3.72  -2.69
iter:   4 09:34:41  -272.485433c -3.33  -2.84
Writing to output.gpw (mode='')

iter:   5 09:38:02  -272.485387c -4.24  -3.07
iter:   6 09:41:46  -272.485327c -3.62  -3.22
iter:   7 09:45:22  -272.485346c -3.73  -3.34
iter:   8 09:48:42  -272.485313c -4.32  -3.39
iter:   9 09:51:28  -272.485314c -4.73  -3.60
Writing to output.gpw (mode='')

iter:  10 09:57:03  -272.485321c -4.82  -3.67
iter:  11 10:02:15  -272.485320c -5.08  -3.88
iter:  12 10:06:51  -272.485323c -5.57  -3.98
iter:  13 10:11:40  -272.485320c -6.03  -4.02c
iter:  14 10:15:09  -272.485318c -5.59  -4.12c
Writing to output.gpw (mode='')

iter:  15 10:18:59  -272.485318c -6.29  -4.28c
iter:  16 10:23:18  -272.485318c -6.62  -4.36c
iter:  17 10:26:16  -272.485319c -6.02  -4.41c
iter:  18 10:29:21  -272.485319c -6.57  -4.44c
iter:  19 10:32:46  -272.485319c -6.79  -4.49c
Writing to output.gpw (mode='')

iter:  20 10:35:30  -272.485318c -6.94  -4.55c
iter:  21 10:38:34  -272.485317c -6.80  -4.81c
iter:  22 10:40:49  -272.485317c -7.46c -4.97c

Converged after 22 iterations.

Dipole moment: (-9.435118, -10.030632, 0.347718) |e|*Ang

Energy contributions relative to reference atoms: (reference = -11471.411034)

Kinetic:       +127.378178
Potential:     -119.338877
External:        +0.000000
XC:            -280.694514
Entropy (-ST):   -0.152239
Local:           +0.246016
--------------------------
Free energy:   -272.561437
Extrapolated:  -272.485317

Dipole-layer corrected work functions: 3.391047, 2.722613 eV

Showing only first 2 kpts
 Kpt  Band  Eigenvalues  Occupancy
  0    26     -3.30948    1.98730
  0    27     -3.22865    1.93764
  0    28     -2.89062    0.06951
  0    29     -2.80319    0.01245

  1    26     -3.07719    1.20088
  1    27     -3.04876    0.91948
  1    28     -3.02028    0.64997
  1    29     -3.00921    0.55679


Fermi level: -3.05683

No gap
Writing to output.gpw (mode='')


Forces in eV/Ang:
  0 Li    0.00380    0.00115   -0.26951
  1 Li   -0.00024   -0.00135   -0.27364
  2 Li   -0.00370    0.00108   -0.27002
  3 Li   -0.00169    0.00148   -0.27171
  4 Li   -0.00015   -0.00139   -0.27614
  5 Li    0.00210    0.00144   -0.27185
  6 Li    0.00089   -0.00253   -0.27227
  7 Li   -0.00010    0.00279   -0.27553
  8 Li   -0.00062   -0.00279   -0.27272
  9 Li   -0.00032   -0.00212    0.26832
 10 Li    0.00498    0.00182    0.25605
 11 Li   -0.00422   -0.00003    0.25752
 12 Li    0.00011    0.00355    0.26131
 13 Li    0.00186   -0.00133    0.25859
 14 Li   -0.00165   -0.00015    0.26053
 15 Li    0.00084   -0.00123    0.25544
 16 Li   -0.00289   -0.00079    0.26317
 17 Li    0.00194    0.00043    0.26173
 18 Li   -0.00411   -0.00279    0.03712
 19 Li    0.00063   -0.00101    0.04035
 20 Li    0.00411   -0.00058    0.03017
 21 Li   -0.00223   -0.00315    0.04530
 22 Li    0.00046    0.00272    0.02476
 23 Li    0.00174   -0.00051    0.04318
 24 Li   -0.00038    0.00533    0.02883
 25 Li    0.00047   -0.00177    0.03482
 26 Li   -0.00054    0.00129    0.02237
 27 Li   -0.05080   -0.07803    0.08228
 28 Li    0.04394   -0.01214   -0.07030
 29 Li   -0.02151    0.00182   -0.03247
 30 Li    0.00919    0.07167   -0.13592
 31 Li    0.02965    0.01479   -0.06159
 32 Li   -0.02455    0.00607   -0.04552
 33 Li    0.00315   -0.00637   -0.02248
 34 Li   -0.00190   -0.00548   -0.01900
 35 Li   -0.00131   -0.00739   -0.02358
 36 O    -0.01225    0.06334   -0.03892
 37 C     0.05106   -0.04863   -0.09538
 38 C    -0.11041    0.03570   -0.06023
 39 H     0.04219   -0.03632    0.09839
 40 H    -0.00502    0.06142    0.09814
 41 H     0.04654    0.01952    0.00487
 42 H     0.03164   -0.04459    0.16266
 43 H    -0.02340    0.03051    0.02124
 44 H    -0.00278   -0.06913   -0.09469

System changes: positions 

Initializing position-dependent things.

Density initialized from wave functions
       .-----------------------.  
      /|                       |  
     / |                       |  
    /  |                       |  
   /   |                       |  
  /    |                       |  
 *     |                       |  
 |     |                       |  
 |     |                       |  
 |     |                       |  
 |     |                       |  
 |     |                 H     |  
 | C H |       Li              Li 
 |  C  |                H      |  
 |   Hi|     Li      Li  O     |  
 |     |  Li      Li      Li   |  
 | Li  |   Li      Li          |  
 |     |Li      Li      Li     |  
 |     |         Li            |  
 |   LLi     LLi     LLi       |  
 |     |  Li      Li      Li   |  
 | Li  |   Li      Li          |  
 |     |Li      Li      Li     |  
 Li    | Li      Li            |  
 |    Li      Li      Li       |  
 |     |                       |  
 |     |                       |  
 |     |                       |  
 |     |                       |  
 |     |                       |  
 |     |                       |  
 |     .-----------------------.  
 |    /                       /   
 |   /                       /    
 |  /                       /     
 | /                       /      
 |/                       /       
 *-----------------------*        

Positions:
   0 Li     1.617037    1.617037   10.000000    ( 0.0000,  0.0000,  0.0000)
   1 Li     4.851111    1.617037   10.000000    ( 0.0000,  0.0000,  0.0000)
   2 Li     8.085185    1.617037   10.000000    ( 0.0000,  0.0000,  0.0000)
   3 Li     1.617037    4.851111   10.000000    ( 0.0000,  0.0000,  0.0000)
   4 Li     4.851111    4.851111   10.000000    ( 0.0000,  0.0000,  0.0000)
   5 Li     8.085185    4.851111   10.000000    ( 0.0000,  0.0000,  0.0000)
   6 Li     1.617037    8.085185   10.000000    ( 0.0000,  0.0000,  0.0000)
   7 Li     4.851111    8.085185   10.000000    ( 0.0000,  0.0000,  0.0000)
   8 Li     8.085185    8.085185   10.000000    ( 0.0000,  0.0000,  0.0000)
   9 Li     0.000000    0.000000   11.617037    ( 0.0000,  0.0000,  0.0000)
  10 Li     3.234074    0.000000   11.617037    ( 0.0000,  0.0000,  0.0000)
  11 Li     6.468148    0.000000   11.617037    ( 0.0000,  0.0000,  0.0000)
  12 Li     0.000000    3.234074   11.617037    ( 0.0000,  0.0000,  0.0000)
  13 Li     3.234074    3.234074   11.617037    ( 0.0000,  0.0000,  0.0000)
  14 Li     6.468148    3.234074   11.617037    ( 0.0000,  0.0000,  0.0000)
  15 Li     0.000000    6.468148   11.617037    ( 0.0000,  0.0000,  0.0000)
  16 Li     3.234074    6.468148   11.617037    ( 0.0000,  0.0000,  0.0000)
  17 Li     6.468148    6.468148   11.617037    ( 0.0000,  0.0000,  0.0000)
  18 Li     1.616332    1.616731   13.477077    ( 0.0000,  0.0000,  0.0000)
  19 Li     4.851182    1.616843   13.477966    ( 0.0000,  0.0000,  0.0000)
  20 Li     8.085949    1.617073   13.475770    ( 0.0000,  0.0000,  0.0000)
  21 Li     1.616460    4.850314   13.478979    ( 0.0000,  0.0000,  0.0000)
  22 Li     4.851186    4.851533   13.474829    ( 0.0000,  0.0000,  0.0000)
  23 Li     8.085666    4.850856   13.478546    ( 0.0000,  0.0000,  0.0000)
  24 Li     1.617040    8.086185   13.475437    ( 0.0000,  0.0000,  0.0000)
  25 Li     4.851150    8.084951   13.476780    ( 0.0000,  0.0000,  0.0000)
  26 Li     8.085095    8.085453   13.474189    ( 0.0000,  0.0000,  0.0000)
  27 Li    -0.009783   -0.015183   15.460744    ( 0.0000,  0.0000,  0.0000)
  28 Li     3.242683   -0.002374   15.432192    ( 0.0000,  0.0000,  0.0000)
  29 Li     6.464086    0.000400   15.439587    ( 0.0000,  0.0000,  0.0000)
  30 Li     0.001934    3.248239   15.419049    ( 0.0000,  0.0000,  0.0000)
  31 Li     3.239796    3.236941   15.433920    ( 0.0000,  0.0000,  0.0000)
  32 Li     6.463341    3.235238   15.437009    ( 0.0000,  0.0000,  0.0000)
  33 Li     0.000625    6.466974   15.441516    ( 0.0000,  0.0000,  0.0000)
  34 Li     3.233709    6.467114   15.442167    ( 0.0000,  0.0000,  0.0000)
  35 Li     6.467870    6.466668   15.441284    ( 0.0000,  0.0000,  0.0000)
  36 O      9.699119    9.705664   18.428471    ( 0.0000,  0.0000,  0.0000)
  37 C     10.523599   10.891797   18.464450    ( 0.0000,  0.0000,  0.0000)
  38 C      9.710356   12.168247   18.448854    ( 0.0000,  0.0000,  0.0000)
  39 H     11.204571   10.871233   19.318495    ( 0.0000,  0.0000,  0.0000)
  40 H     11.134618   10.817779   17.551771    ( 0.0000,  0.0000,  0.0000)
  41 H     10.360313   13.046889   18.419666    ( 0.0000,  0.0000,  0.0000)
  42 H      9.036369   12.196237   17.571840    ( 0.0000,  0.0000,  0.0000)
  43 H      9.063299   12.244162   19.326892    ( 0.0000,  0.0000,  0.0000)
  44 H      9.115957    9.730252   19.201357    ( 0.0000,  0.0000,  0.0000)

Unit cell:
           periodic     x           y           z      points  spacing
  1. axis:    yes    9.702222    0.000000    0.000000    60     0.1617
  2. axis:    yes    0.000000    9.702222    0.000000    60     0.1617
  3. axis:    no     0.000000    0.000000   24.851111   156     0.1593

  Lengths:   9.702222   9.702222  24.851111
  Angles:   90.000000  90.000000  90.000000

Effective grid spacing dv^(1/3) = 0.1609

     iter     time        total  log10-change:
                         energy  eigst   dens
iter:   1 10:44:14  -272.532773  -1.26
iter:   2 10:48:10  -272.505886  -1.86  -1.72
iter:   3 10:51:21  -272.500909  -2.56  -2.08
iter:   4 10:54:13  -272.496586c -2.34  -2.27
Writing to output.gpw (mode='')

iter:   5 10:59:08  -272.496489c -3.21  -2.52
iter:   6 11:02:39  -272.495643c -2.57  -2.60
iter:   7 11:06:31  -272.495692c -2.52  -2.79
iter:   8 11:10:31  -272.495539c -3.26  -2.87
iter:   9 11:15:00  -272.495522c -3.52  -3.02
Writing to output.gpw (mode='')

iter:  10 11:18:49  -272.495556c -3.35  -3.09
iter:  11 11:22:22  -272.495517c -4.03  -3.26
iter:  12 11:25:57  -272.495528c -4.42  -3.44
iter:  13 11:29:13  -272.495522c -4.74  -3.50
iter:  14 11:32:53  -272.495515c -4.40  -3.58
Writing to output.gpw (mode='')

iter:  15 11:35:18  -272.495510c -5.08  -3.66
iter:  16 11:38:54  -272.495513c -5.11  -3.81
iter:  17 11:41:29  -272.495514c -5.26  -3.85
iter:  18 11:47:20  -272.495516c -5.38  -3.90
iter:  19 11:52:12  -272.495513c -5.45  -3.94
Writing to output.gpw (mode='')

iter:  20 11:57:10  -272.495512c -5.87  -4.01c
iter:  21 12:02:23  -272.495510c -5.83  -4.14c
iter:  22 12:06:37  -272.495509c -6.07  -4.26c
iter:  23 12:12:39  -272.495507c -5.97  -4.39c
iter:  24 12:19:05  -272.495508c -6.27  -4.61c
Writing to output.gpw (mode='')

iter:  25 12:25:37  -272.495508c -6.82  -4.65c
iter:  26 12:31:26  -272.495509c -6.93  -4.69c
iter:  27 12:38:17  -272.495509c -6.79  -4.75c
iter:  28 12:44:56  -272.495509c -7.03  -4.80c
iter:  29 12:51:29  -272.495509c -7.01  -4.95c
Writing to output.gpw (mode='')

iter:  30 12:57:25  -272.495509c -7.26  -5.00c
iter:  31 13:03:31  -272.495509c -7.26  -5.05c
iter:  32 13:10:25  -272.495509c -7.41c -5.16c

Converged after 32 iterations.

Dipole moment: (-9.590313, -9.943408, 0.347429) |e|*Ang

Energy contributions relative to reference atoms: (reference = -11471.411034)

Kinetic:       +127.163053
Potential:     -119.190790
External:        +0.000000
XC:            -280.637293
Entropy (-ST):   -0.152123
Local:           +0.245583
--------------------------
Free energy:   -272.571571
Extrapolated:  -272.495509

Dipole-layer corrected work functions: 3.390680, 2.722803 eV

Showing only first 2 kpts
 Kpt  Band  Eigenvalues  Occupancy
  0    26     -3.30882    1.98716
  0    27     -3.22890    1.93806
  0    28     -2.88910    0.06761
  0    29     -2.80244    0.01229

  1    26     -3.07641    1.19419
  1    27     -3.04701    0.90296
  1    28     -3.02268    0.67202
  1    29     -3.00971    0.56152


Fermi level: -3.05674

No gap
Writing to output.gpw (mode='')


Forces in eV/Ang:
  0 Li    0.00402    0.00132   -0.27043
  1 Li   -0.00022   -0.00107   -0.27468
  2 Li   -0.00398    0.00106   -0.27077
  3 Li   -0.00152    0.00151   -0.27290
  4 Li   -0.00025   -0.00165   -0.27641
  5 Li    0.00214    0.00155   -0.27281
  6 Li    0.00073   -0.00275   -0.27254
  7 Li   -0.00003    0.00279   -0.27603
  8 Li   -0.00057   -0.00287   -0.27290
  9 Li   -0.00029   -0.00195    0.27158
 10 Li    0.00613    0.00197    0.26122
 11 Li   -0.00519    0.00012    0.26198
 12 Li    0.00031    0.00476    0.26769
 13 Li    0.00117   -0.00173    0.26513
 14 Li   -0.00125   -0.00001    0.26637
 15 Li    0.00109   -0.00260    0.26034
 16 Li   -0.00340   -0.00053    0.26804
 17 Li    0.00214    0.00012    0.26580
 18 Li   -0.00594   -0.00817    0.02707
 19 Li    0.00182   -0.00074    0.02320
 20 Li    0.00443   -0.00437    0.02077
 21 Li    0.00197    0.00218    0.02549
 22 Li    0.00085    0.00493    0.01294
 23 Li   -0.00236    0.00348    0.02450
 24 Li   -0.00248    0.00534    0.02133
 25 Li    0.00176   -0.00432    0.02116
 26 Li   -0.00058    0.00090    0.01604
 27 Li   -0.04460   -0.06549    0.09234
 28 Li    0.03519   -0.01004   -0.05663
 29 Li   -0.02037    0.00043   -0.02604
 30 Li    0.00497    0.05477   -0.10369
 31 Li    0.02548    0.01254   -0.04947
 32 Li   -0.01979    0.00521   -0.03600
 33 Li    0.00222   -0.00655   -0.01738
 34 Li   -0.00183   -0.00508   -0.01348
 35 Li   -0.00025   -0.00488   -0.01737
 36 O     0.00996    0.13711    0.07907
 37 C     0.01111   -0.18600   -0.30484
 38 C    -0.33925    0.12588   -0.20291
 39 H     0.04579   -0.05698    0.12515
 40 H    -0.01660    0.08190    0.17359
 41 H    -0.00025    0.01048    0.01842
 42 H     0.21225   -0.03704    0.22267
 43 H     0.05120    0.03190    0.09573
 44 H     0.04096   -0.07015   -0.14767

System changes: positions 

Initializing position-dependent things.

Density initialized from wave functions
       .-----------------------.  
      /|                       |  
     / |                       |  
    /  |                       |  
   /   |                       |  
  /    |                       |  
 *     |                       |  
 |     |                       |  
 |     |                       |  
 |     |                       |  
 |     |                       |  
 |     |                 H     |  
 | C H |       Li              Li 
 |  C  |                H      |  
 |   Hi|     Li      Li  O     |  
 |     |  Li      Li      Li   |  
 | Li  |   Li      Li          |  
 |     |Li      Li      Li     |  
 |     |         Li            |  
 |   LLi     LLi     LLi       |  
 |     |  Li      Li      Li   |  
 | Li  |   Li      Li          |  
 |     |Li      Li      Li     |  
 Li    | Li      Li            |  
 |    Li      Li      Li       |  
 |     |                       |  
 |     |                       |  
 |     |                       |  
 |     |                       |  
 |     |                       |  
 |     |                       |  
 |     .-----------------------.  
 |    /                       /   
 |   /                       /    
 |  /                       /     
 | /                       /      
 |/                       /       
 *-----------------------*        

Positions:
   0 Li     1.617037    1.617037   10.000000    ( 0.0000,  0.0000,  0.0000)
   1 Li     4.851111    1.617037   10.000000    ( 0.0000,  0.0000,  0.0000)
   2 Li     8.085185    1.617037   10.000000    ( 0.0000,  0.0000,  0.0000)
   3 Li     1.617037    4.851111   10.000000    ( 0.0000,  0.0000,  0.0000)
   4 Li     4.851111    4.851111   10.000000    ( 0.0000,  0.0000,  0.0000)
   5 Li     8.085185    4.851111   10.000000    ( 0.0000,  0.0000,  0.0000)
   6 Li     1.617037    8.085185   10.000000    ( 0.0000,  0.0000,  0.0000)
   7 Li     4.851111    8.085185   10.000000    ( 0.0000,  0.0000,  0.0000)
   8 Li     8.085185    8.085185   10.000000    ( 0.0000,  0.0000,  0.0000)
   9 Li     0.000000    0.000000   11.617037    ( 0.0000,  0.0000,  0.0000)
  10 Li     3.234074    0.000000   11.617037    ( 0.0000,  0.0000,  0.0000)
  11 Li     6.468148    0.000000   11.617037    ( 0.0000,  0.0000,  0.0000)
  12 Li     0.000000    3.234074   11.617037    ( 0.0000,  0.0000,  0.0000)
  13 Li     3.234074    3.234074   11.617037    ( 0.0000,  0.0000,  0.0000)
  14 Li     6.468148    3.234074   11.617037    ( 0.0000,  0.0000,  0.0000)
  15 Li     0.000000    6.468148   11.617037    ( 0.0000,  0.0000,  0.0000)
  16 Li     3.234074    6.468148   11.617037    ( 0.0000,  0.0000,  0.0000)
  17 Li     6.468148    6.468148   11.617037    ( 0.0000,  0.0000,  0.0000)
  18 Li     1.615662    1.616319   13.483303    ( 0.0000,  0.0000,  0.0000)
  19 Li     4.851276    1.616677   13.484790    ( 0.0000,  0.0000,  0.0000)
  20 Li     8.086633    1.617006   13.480858    ( 0.0000,  0.0000,  0.0000)
  21 Li     1.616058    4.849749   13.486630    ( 0.0000,  0.0000,  0.0000)
  22 Li     4.851262    4.851963   13.479023    ( 0.0000,  0.0000,  0.0000)
  23 Li     8.085986    4.850734   13.485843    ( 0.0000,  0.0000,  0.0000)
  24 Li     1.616987    8.087068   13.480282    ( 0.0000,  0.0000,  0.0000)
  25 Li     4.851218    8.084679   13.482650    ( 0.0000,  0.0000,  0.0000)
  26 Li     8.085015    8.085680   13.477961    ( 0.0000,  0.0000,  0.0000)
  27 Li    -0.018257   -0.028256   15.474087    ( 0.0000,  0.0000,  0.0000)
  28 Li     3.250053   -0.004414   15.420415    ( 0.0000,  0.0000,  0.0000)
  29 Li     6.460528    0.000716   15.434147    ( 0.0000,  0.0000,  0.0000)
  30 Li     0.003528    3.260301   15.396157    ( 0.0000,  0.0000,  0.0000)
  31 Li     3.244736    3.239410   15.423626    ( 0.0000,  0.0000,  0.0000)
  32 Li     6.459223    3.236242   15.429375    ( 0.0000,  0.0000,  0.0000)
  33 Li     0.001153    6.465931   15.437745    ( 0.0000,  0.0000,  0.0000)
  34 Li     3.233387    6.466213   15.438982    ( 0.0000,  0.0000,  0.0000)
  35 Li     6.467653    6.465429   15.437336    ( 0.0000,  0.0000,  0.0000)
  36 O      9.696923    9.710918   18.416454    ( 0.0000,  0.0000,  0.0000)
  37 C     10.527000   10.893972   18.470263    ( 0.0000,  0.0000,  0.0000)
  38 C      9.712894   12.170261   18.455758    ( 0.0000,  0.0000,  0.0000)
  39 H     11.206780   10.866417   19.326830    ( 0.0000,  0.0000,  0.0000)
  40 H     11.139193   10.825966   17.558154    ( 0.0000,  0.0000,  0.0000)
  41 H     10.365470   13.047799   18.419538    ( 0.0000,  0.0000,  0.0000)
  42 H      9.029416   12.189904   17.585639    ( 0.0000,  0.0000,  0.0000)
  43 H      9.058568   12.248757   19.327746    ( 0.0000,  0.0000,  0.0000)
  44 H      9.114271    9.720296   19.188488    ( 0.0000,  0.0000,  0.0000)

Unit cell:
           periodic     x           y           z      points  spacing
  1. axis:    yes    9.702222    0.000000    0.000000    60     0.1617
  2. axis:    yes    0.000000    9.702222    0.000000    60     0.1617
  3. axis:    no     0.000000    0.000000   24.851111   156     0.1593

  Lengths:   9.702222   9.702222  24.851111
  Angles:   90.000000  90.000000  90.000000

Effective grid spacing dv^(1/3) = 0.1609

     iter     time        total  log10-change:
                         energy  eigst   dens
iter:   1 13:16:36  -272.561190  -1.19
iter:   2 13:23:23  -272.516898  -1.78  -1.64
iter:   3 13:30:05  -272.509673  -2.57  -2.02
iter:   4 13:37:03  -272.505906c -2.45  -2.27
Writing to output.gpw (mode='')

iter:   5 13:43:47  -272.505743c -3.09  -2.52
iter:   6 13:49:35  -272.505088c -2.54  -2.59
iter:   7 13:55:54  -272.505148c -2.66  -2.83
iter:   8 14:01:52  -272.505069c -3.25  -2.93
iter:   9 14:06:55  -272.505044c -3.46  -3.00
Writing to output.gpw (mode='')

iter:  10 14:13:58  -272.505081c -3.32  -3.10
iter:  11 14:20:45  -272.505039c -4.04  -3.26
iter:  12 14:26:07  -272.505049c -4.42  -3.48
iter:  13 14:30:12  -272.505045c -4.73  -3.55
iter:  14 14:35:01  -272.505038c -4.52  -3.64
Writing to output.gpw (mode='')

iter:  15 14:39:52  -272.505034c -5.07  -3.73
iter:  16 14:42:54  -272.505035c -5.12  -3.84
iter:  17 14:45:39  -272.505038c -5.13  -3.88
iter:  18 14:48:29  -272.505040c -5.35  -3.94
iter:  19 14:51:05  -272.505038c -5.45  -3.97
Writing to output.gpw (mode='')

iter:  20 14:54:05  -272.505038c -5.76  -4.05c
iter:  21 14:57:17  -272.505034c -5.86  -4.12c
iter:  22 15:00:10  -272.505034c -6.25  -4.32c
iter:  23 15:02:56  -272.505032c -6.01  -4.38c
iter:  24 15:05:41  -272.505032c -6.35  -4.57c
Writing to output.gpw (mode='')

iter:  25 15:08:20  -272.505032c -6.44  -4.65c
iter:  26 15:11:00  -272.505033c -6.71  -4.69c
iter:  27 15:13:47  -272.505033c -6.78  -4.78c
iter:  28 15:16:25  -272.505034c -6.92  -4.91c
iter:  29 15:18:38  -272.505034c -6.98  -5.11c
Writing to output.gpw (mode='')

iter:  30 15:22:21  -272.505034c -7.02  -5.27c
iter:  31 15:25:25  -272.505034c -7.27  -5.29c
iter:  32 15:28:43  -272.505034c -7.24  -5.37c
iter:  33 15:31:51  -272.505034c -7.48c -5.57c

Converged after 33 iterations.

Dipole moment: (-9.504828, -9.941199, 0.346451) |e|*Ang

Energy contributions relative to reference atoms: (reference = -11471.411034)

Kinetic:       +127.218810
Potential:     -119.229893
External:        +0.000000
XC:            -280.663603
Entropy (-ST):   -0.151966
Local:           +0.245635
--------------------------
Free energy:   -272.581017
Extrapolated:  -272.505034

Dipole-layer corrected work functions: 3.390253, 2.724255 eV

Showing only first 2 kpts
 Kpt  Band  Eigenvalues  Occupancy
  0    26     -3.30871    1.98700
  0    27     -3.22977    1.93848
  0    28     -2.88796    0.06548
  0    29     -2.80228    0.01212

  1    26     -3.07620    1.18720
  1    27     -3.04575    0.88547
  1    28     -3.02575    0.69496
  1    29     -3.01076    0.56587


Fermi level: -3.05725

No gap
Writing to output.gpw (mode='')


Forces in eV/Ang:
  0 Li    0.00426    0.00151   -0.27141
  1 Li   -0.00017   -0.00072   -0.27582
  2 Li   -0.00429    0.00102   -0.27156
  3 Li   -0.00133    0.00154   -0.27422
  4 Li   -0.00039   -0.00200   -0.27666
  5 Li    0.00220    0.00165   -0.27388
  6 Li    0.00050   -0.00298   -0.27280
  7 Li    0.00003    0.00280   -0.27657
  8 Li   -0.00046   -0.00292   -0.27301
  9 Li   -0.00022   -0.00181    0.27502
 10 Li    0.00738    0.00211    0.26702
 11 Li   -0.00629    0.00025    0.26687
 12 Li    0.00053    0.00604    0.27485
 13 Li    0.00035   -0.00221    0.27237
 14 Li   -0.00075    0.00008    0.27285
 15 Li    0.00135   -0.00409    0.26573
 16 Li   -0.00400   -0.00018    0.27340
 17 Li    0.00242   -0.00009    0.27022
 18 Li   -0.00795   -0.01415    0.01603
 19 Li    0.00314   -0.00042    0.00383
 20 Li    0.00489   -0.00877    0.01079
 21 Li    0.00702    0.00847    0.00292
 22 Li    0.00139    0.00756   -0.00042
 23 Li   -0.00730    0.00819    0.00337
 24 Li   -0.00497    0.00540    0.01320
 25 Li    0.00323   -0.00737    0.00568
 26 Li   -0.00046    0.00066    0.00925
 27 Li   -0.03733   -0.05165    0.10173
 28 Li    0.02525   -0.00778   -0.04113
 29 Li   -0.01878   -0.00106   -0.01893
 30 Li    0.00092    0.03608   -0.06904
 31 Li    0.02044    0.00991   -0.03569
 32 Li   -0.01432    0.00412   -0.02539
 33 Li    0.00117   -0.00670   -0.01179
 34 Li   -0.00179   -0.00444   -0.00727
 35 Li    0.00099   -0.00201   -0.01034
 36 O     0.08322    0.12878    0.03061
 37 C    -0.05042   -0.18515   -0.30820
 38 C    -0.37638    0.12150   -0.21811
 39 H     0.00469   -0.07431    0.09823
 40 H     0.00138    0.08266    0.17691
 41 H    -0.05517    0.00638    0.02646
 42 H     0.28511   -0.00908    0.16847
 43 H     0.10853    0.03513    0.16475
 44 H     0.01189   -0.04817   -0.09343

System changes: positions 

Initializing position-dependent things.

Density initialized from wave functions
       .-----------------------.  
      /|                       |  
     / |                       |  
    /  |                       |  
   /   |                       |  
  /    |                       |  
 *     |                       |  
 |     |                       |  
 |     |                       |  
 |     |                       |  
 |     |                       |  
 |     |                 H     |  
 | C H |       Li              Li 
 |  C  |                H      |  
 |   Hi|     Li      Li  O     |  
 |     |  Li      Li      Li   |  
 | Li  |   Li      Li          |  
 |     |Li      Li      Li     |  
 |     |         Li            |  
 |   LLi     LLi     LLi       |  
 |     |  Li      Li      Li   |  
 | Li  |   Li      Li          |  
 |     |Li      Li      Li     |  
 Li    | Li      Li            |  
 |    Li      Li      Li       |  
 |     |                       |  
 |     |                       |  
 |     |                       |  
 |     |                       |  
 |     |                       |  
 |     |                       |  
 |     .-----------------------.  
 |    /                       /   
 |   /                       /    
 |  /                       /     
 | /                       /      
 |/                       /       
 *-----------------------*        

Positions:
   0 Li     1.617037    1.617037   10.000000    ( 0.0000,  0.0000,  0.0000)
   1 Li     4.851111    1.617037   10.000000    ( 0.0000,  0.0000,  0.0000)
   2 Li     8.085185    1.617037   10.000000    ( 0.0000,  0.0000,  0.0000)
   3 Li     1.617037    4.851111   10.000000    ( 0.0000,  0.0000,  0.0000)
   4 Li     4.851111    4.851111   10.000000    ( 0.0000,  0.0000,  0.0000)
   5 Li     8.085185    4.851111   10.000000    ( 0.0000,  0.0000,  0.0000)
   6 Li     1.617037    8.085185   10.000000    ( 0.0000,  0.0000,  0.0000)
   7 Li     4.851111    8.085185   10.000000    ( 0.0000,  0.0000,  0.0000)
   8 Li     8.085185    8.085185   10.000000    ( 0.0000,  0.0000,  0.0000)
   9 Li     0.000000    0.000000   11.617037    ( 0.0000,  0.0000,  0.0000)
  10 Li     3.234074    0.000000   11.617037    ( 0.0000,  0.0000,  0.0000)
  11 Li     6.468148    0.000000   11.617037    ( 0.0000,  0.0000,  0.0000)
  12 Li     0.000000    3.234074   11.617037    ( 0.0000,  0.0000,  0.0000)
  13 Li     3.234074    3.234074   11.617037    ( 0.0000,  0.0000,  0.0000)
  14 Li     6.468148    3.234074   11.617037    ( 0.0000,  0.0000,  0.0000)
  15 Li     0.000000    6.468148   11.617037    ( 0.0000,  0.0000,  0.0000)
  16 Li     3.234074    6.468148   11.617037    ( 0.0000,  0.0000,  0.0000)
  17 Li     6.468148    6.468148   11.617037    ( 0.0000,  0.0000,  0.0000)
  18 Li     1.614572    1.615451   13.492169    ( 0.0000,  0.0000,  0.0000)
  19 Li     4.851473    1.616442   13.494212    ( 0.0000,  0.0000,  0.0000)
  20 Li     8.087676    1.616723   13.488061    ( 0.0000,  0.0000,  0.0000)
  21 Li     1.615662    4.849162   13.497160    ( 0.0000,  0.0000,  0.0000)
  22 Li     4.851398    4.852715   13.484753    ( 0.0000,  0.0000,  0.0000)
  23 Li     8.086262    4.850747   13.495899    ( 0.0000,  0.0000,  0.0000)
  24 Li     1.616805    8.088395   13.487201    ( 0.0000,  0.0000,  0.0000)
  25 Li     4.851382    8.084147   13.490803    ( 0.0000,  0.0000,  0.0000)
  26 Li     8.084899    8.086009   13.483331    ( 0.0000,  0.0000,  0.0000)
  27 Li    -0.030660   -0.047272   15.494502    ( 0.0000,  0.0000,  0.0000)
  28 Li     3.260687   -0.007376   15.403407    ( 0.0000,  0.0000,  0.0000)
  29 Li     6.455259    0.001128   15.426290    ( 0.0000,  0.0000,  0.0000)
  30 Li     0.005743    3.277597   15.363307    ( 0.0000,  0.0000,  0.0000)
  31 Li     3.251935    3.243003   15.408770    ( 0.0000,  0.0000,  0.0000)
  32 Li     6.453279    3.237702   15.418375    ( 0.0000,  0.0000,  0.0000)
  33 Li     0.001900    6.464362   15.432325    ( 0.0000,  0.0000,  0.0000)
  34 Li     3.232905    6.464887   15.434466    ( 0.0000,  0.0000,  0.0000)
  35 Li     6.467381    6.463691   15.431711    ( 0.0000,  0.0000,  0.0000)
  36 O      9.695989    9.719444   18.398593    ( 0.0000,  0.0000,  0.0000)
  37 C     10.529859   10.895574   18.476148    ( 0.0000,  0.0000,  0.0000)
  38 C      9.712657   12.174202   18.463872    ( 0.0000,  0.0000,  0.0000)
  39 H     11.208872   10.858404   19.338843    ( 0.0000,  0.0000,  0.0000)
  40 H     11.146407   10.838533   17.568844    ( 0.0000,  0.0000,  0.0000)
  41 H     10.370974   13.048972   18.419764    ( 0.0000,  0.0000,  0.0000)
  42 H      9.023473   12.181368   17.605414    ( 0.0000,  0.0000,  0.0000)
  43 H      9.054153   12.255774   19.332064    ( 0.0000,  0.0000,  0.0000)
  44 H      9.111497    9.706016   19.170053    ( 0.0000,  0.0000,  0.0000)

Unit cell:
           periodic     x           y           z      points  spacing
  1. axis:    yes    9.702222    0.000000    0.000000    60     0.1617
  2. axis:    yes    0.000000    9.702222    0.000000    60     0.1617
  3. axis:    no     0.000000    0.000000   24.851111   156     0.1593

  Lengths:   9.702222   9.702222  24.851111
  Angles:   90.000000  90.000000  90.000000

Effective grid spacing dv^(1/3) = 0.1609

     iter     time        total  log10-change:
                         energy  eigst   dens
iter:   1 15:35:37  -272.622051  -0.90
iter:   2 15:39:25  -272.536236  -1.50  -1.50
iter:   3 15:42:39  -272.523354  -2.27  -1.90
iter:   4 15:45:50  -272.516374c -2.18  -2.13
Writing to output.gpw (mode='')

iter:   5 15:48:14  -272.516112c -2.81  -2.39
iter:   6 15:51:30  -272.514967c -2.27  -2.46
iter:   7 15:54:55  -272.515124c -2.35  -2.70
iter:   8 16:00:18  -272.514961c -3.03  -2.79
iter:   9 16:04:45  -272.514954c -3.17  -2.91
Writing to output.gpw (mode='')

iter:  10 16:10:00  -272.515044c -2.99  -2.97
iter:  11 16:14:13  -272.514928c -3.76  -3.08
iter:  12 16:19:03  -272.514941c -4.29  -3.34
iter:  13 16:24:17  -272.514939c -4.45  -3.44
iter:  14 16:28:27  -272.514932c -4.27  -3.52
Writing to output.gpw (mode='')

iter:  15 16:31:53  -272.514922c -4.73  -3.63
iter:  16 16:35:55  -272.514924c -4.86  -3.74
iter:  17 16:40:34  -272.514927c -4.98  -3.80
iter:  18 16:45:36  -272.514928c -5.23  -3.84
iter:  19 16:51:29  -272.514921c -5.25  -3.89
Writing to output.gpw (mode='')

iter:  20 16:55:42  -272.514921c -5.76  -4.12c
iter:  21 17:00:28  -272.514920c -5.54  -4.19c
iter:  22 17:05:50  -272.514919c -5.80  -4.36c
iter:  23 17:13:40  -272.514919c -6.02  -4.47c
iter:  24 17:22:24  -272.514920c -6.29  -4.49c
Writing to output.gpw (mode='')

iter:  25 17:28:57  -272.514922c -6.28  -4.60c
iter:  26 17:36:19  -272.514922c -6.53  -4.90c
iter:  27 17:44:53  -272.514922c -6.56  -4.96c
iter:  28 17:53:05  -272.514922c -6.51  -4.99c
iter:  29 18:00:44  -272.514922c -6.66  -5.10c
Writing to output.gpw (mode='')

iter:  30 18:07:04  -272.514922c -6.80  -5.21c
iter:  31 18:14:21  -272.514922c -6.90  -5.28c
iter:  32 18:20:17  -272.514922c -6.88  -5.28c
iter:  33 18:25:54  -272.514922c -6.85  -5.29c
iter:  34 18:33:42  -272.514922c -7.14  -5.35c
Writing to output.gpw (mode='')

iter:  35 18:40:22  -272.514922c -7.25  -5.41c
iter:  36 18:47:32  -272.514921c -7.43c -5.59c

Converged after 36 iterations.

Dipole moment: (-9.280788, -9.972833, 0.345003) |e|*Ang

Energy contributions relative to reference atoms: (reference = -11471.411034)

Kinetic:       +127.409961
Potential:     -119.359438
External:        +0.000000
XC:            -280.734830
Entropy (-ST):   -0.151702
Local:           +0.245237
--------------------------
Free energy:   -272.590772
Extrapolated:  -272.514921

Dipole-layer corrected work functions: 3.389664, 2.726450 eV

Showing only first 2 kpts
 Kpt  Band  Eigenvalues  Occupancy
  0    26     -3.30872    1.98679
  0    27     -3.23099    1.93898
  0    28     -2.88644    0.06260
  0    29     -2.80229    0.01194

  1    26     -3.07609    1.17844
  1    27     -3.04456    0.86582
  1    28     -3.02947    0.72170
  1    29     -3.01208    0.57014


Fermi level: -3.05806

No gap
Writing to output.gpw (mode='')


Forces in eV/Ang:
  0 Li    0.00460    0.00179   -0.27287
  1 Li   -0.00008   -0.00024   -0.27751
  2 Li   -0.00474    0.00094   -0.27269
  3 Li   -0.00106    0.00160   -0.27619
  4 Li   -0.00062   -0.00256   -0.27694
  5 Li    0.00229    0.00179   -0.27546
  6 Li    0.00012   -0.00333   -0.27317
  7 Li    0.00012    0.00282   -0.27738
  8 Li   -0.00027   -0.00297   -0.27312
  9 Li   -0.00015   -0.00171    0.27948
 10 Li    0.00911    0.00221    0.27519
 11 Li   -0.00788    0.00032    0.27360
 12 Li    0.00082    0.00781    0.28492
 13 Li   -0.00088   -0.00293    0.28253
 14 Li   -0.00000    0.00013    0.28192
 15 Li    0.00165   -0.00617    0.27317
 16 Li   -0.00482    0.00046    0.28076
 17 Li    0.00287   -0.00017    0.27621
 18 Li   -0.01058   -0.02244    0.00042
 19 Li    0.00505    0.00011   -0.02398
 20 Li    0.00553   -0.01518   -0.00269
 21 Li    0.01495    0.01805   -0.02983
 22 Li    0.00227    0.01157   -0.01938
 23 Li   -0.01499    0.01537   -0.02709
 24 Li   -0.00872    0.00546    0.00204
 25 Li    0.00542   -0.01200   -0.01652
 26 Li   -0.00006    0.00057    0.00015
 27 Li   -0.02677   -0.03232    0.11390
 28 Li    0.01071   -0.00469   -0.01812
 29 Li   -0.01608   -0.00326   -0.00871
 30 Li   -0.00364    0.01098   -0.02298
 31 Li    0.01267    0.00606   -0.01547
 32 Li   -0.00617    0.00251   -0.01006
 33 Li   -0.00038   -0.00696   -0.00398
 34 Li   -0.00163   -0.00342    0.00155
 35 Li    0.00275    0.00215   -0.00022
 36 O     0.06106    0.04132    0.04526
 37 C    -0.08147   -0.06738   -0.16764
 38 C    -0.22707    0.05120   -0.10033
 39 H    -0.10254   -0.08051    0.00217
 40 H     0.03191    0.07032    0.13096
 41 H    -0.13344   -0.00442    0.02991
 42 H     0.25235    0.04170   -0.01970
 43 H     0.16573    0.03649    0.22616
 44 H     0.05445   -0.00663   -0.11071

System changes: positions 

Initializing position-dependent things.

Density initialized from wave functions
       .-----------------------.  
      /|                       |  
     / |                       |  
    /  |                       |  
   /   |                       |  
  /    |                       |  
 *     |                       |  
 |     |                      H|  
 |     |                       |  
 |     |                       |  
 |     |                       |  
 |     |                 H     |  
 | C H |       Li              Li 
 |  C  |                 H     |  
 |   Hi|     Li      Li  O     |  
 |     |  Li      Li      Li   |  
 | Li  |   Li      Li          |  
 |     |Li      Li      Li     |  
 |     |         Li            |  
 |   LLi     LLi     LLi       |  
 |     |  Li      Li      Li   |  
 | Li  |   Li      Li          |  
 |     |Li      Li      Li     |  
 Li    | Li      Li            |  
 |    Li      Li      Li       |  
 |     |                       |  
 |     |                       |  
 |     |                       |  
 |     |                       |  
 |     |                       |  
 |     |                       |  
 |     .-----------------------.  
 |    /                       /   
 |   /                       /    
 |  /                       /     
 | /                       /      
 |/                       /       
 *-----------------------*        

Positions:
   0 Li     1.617037    1.617037   10.000000    ( 0.0000,  0.0000,  0.0000)
   1 Li     4.851111    1.617037   10.000000    ( 0.0000,  0.0000,  0.0000)
   2 Li     8.085185    1.617037   10.000000    ( 0.0000,  0.0000,  0.0000)
   3 Li     1.617037    4.851111   10.000000    ( 0.0000,  0.0000,  0.0000)
   4 Li     4.851111    4.851111   10.000000    ( 0.0000,  0.0000,  0.0000)
   5 Li     8.085185    4.851111   10.000000    ( 0.0000,  0.0000,  0.0000)
   6 Li     1.617037    8.085185   10.000000    ( 0.0000,  0.0000,  0.0000)
   7 Li     4.851111    8.085185   10.000000    ( 0.0000,  0.0000,  0.0000)
   8 Li     8.085185    8.085185   10.000000    ( 0.0000,  0.0000,  0.0000)
   9 Li     0.000000    0.000000   11.617037    ( 0.0000,  0.0000,  0.0000)
  10 Li     3.234074    0.000000   11.617037    ( 0.0000,  0.0000,  0.0000)
  11 Li     6.468148    0.000000   11.617037    ( 0.0000,  0.0000,  0.0000)
  12 Li     0.000000    3.234074   11.617037    ( 0.0000,  0.0000,  0.0000)
  13 Li     3.234074    3.234074   11.617037    ( 0.0000,  0.0000,  0.0000)
  14 Li     6.468148    3.234074   11.617037    ( 0.0000,  0.0000,  0.0000)
  15 Li     0.000000    6.468148   11.617037    ( 0.0000,  0.0000,  0.0000)
  16 Li     3.234074    6.468148   11.617037    ( 0.0000,  0.0000,  0.0000)
  17 Li     6.468148    6.468148   11.617037    ( 0.0000,  0.0000,  0.0000)
  18 Li     1.613919    1.614683   13.495955    ( 0.0000,  0.0000,  0.0000)
  19 Li     4.851646    1.616344   13.497800    ( 0.0000,  0.0000,  0.0000)
  20 Li     8.088219    1.616331   13.491085    ( 0.0000,  0.0000,  0.0000)
  21 Li     1.615762    4.849234   13.501113    ( 0.0000,  0.0000,  0.0000)
  22 Li     4.851497    4.853242   13.486849    ( 0.0000,  0.0000,  0.0000)
  23 Li     8.086112    4.851026   13.499701    ( 0.0000,  0.0000,  0.0000)
  24 Li     1.616572    8.089058   13.490188    ( 0.0000,  0.0000,  0.0000)
  25 Li     4.851548    8.083706   13.493982    ( 0.0000,  0.0000,  0.0000)
  26 Li     8.084850    8.086161   13.485624    ( 0.0000,  0.0000,  0.0000)
  27 Li    -0.036420   -0.055953   15.505214    ( 0.0000,  0.0000,  0.0000)
  28 Li     3.265409   -0.008723   15.395838    ( 0.0000,  0.0000,  0.0000)
  29 Li     6.452730    0.001245   15.422786    ( 0.0000,  0.0000,  0.0000)
  30 Li     0.006627    3.285168   15.348886    ( 0.0000,  0.0000,  0.0000)
  31 Li     3.255226    3.244642   15.402165    ( 0.0000,  0.0000,  0.0000)
  32 Li     6.450636    3.238368   15.413508    ( 0.0000,  0.0000,  0.0000)
  33 Li     0.002212    6.463570   15.429944    ( 0.0000,  0.0000,  0.0000)
  34 Li     3.232670    6.464262   15.432570    ( 0.0000,  0.0000,  0.0000)
  35 Li     6.467315    6.462990   15.429311    ( 0.0000,  0.0000,  0.0000)
  36 O      9.696387    9.723360   18.391670    ( 0.0000,  0.0000,  0.0000)
  37 C     10.529536   10.895861   18.477049    ( 0.0000,  0.0000,  0.0000)
  38 C      9.709983   12.176401   18.466691    ( 0.0000,  0.0000,  0.0000)
  39 H     11.207577   10.853647   19.343478    ( 0.0000,  0.0000,  0.0000)
  40 H     11.150312   10.845015   17.575155    ( 0.0000,  0.0000,  0.0000)
  41 H     10.370821   13.049293   18.420331    ( 0.0000,  0.0000,  0.0000)
  42 H      9.024536   12.178566   17.612571    ( 0.0000,  0.0000,  0.0000)
  43 H      9.055132   12.259392   19.337740    ( 0.0000,  0.0000,  0.0000)
  44 H      9.111397    9.699915   19.160173    ( 0.0000,  0.0000,  0.0000)

Unit cell:
           periodic     x           y           z      points  spacing
  1. axis:    yes    9.702222    0.000000    0.000000    60     0.1617
  2. axis:    yes    0.000000    9.702222    0.000000    60     0.1617
  3. axis:    no     0.000000    0.000000   24.851111   156     0.1593

  Lengths:   9.702222   9.702222  24.851111
  Angles:   90.000000  90.000000  90.000000

Effective grid spacing dv^(1/3) = 0.1609

     iter     time        total  log10-change:
                         energy  eigst   dens
iter:   1 18:53:37  -272.543076  -1.59
iter:   2 18:59:31  -272.524410  -2.19  -1.84
iter:   3 19:05:12  -272.521681c -3.02  -2.23
iter:   4 19:11:05  -272.520799c -2.92  -2.53
Writing to output.gpw (mode='')

iter:   5 19:17:13  -272.520701c -3.50  -2.77
iter:   6 19:23:35  -272.520608c -2.97  -2.85
iter:   7 19:29:31  -272.520648c -3.26  -3.09
iter:   8 19:35:29  -272.520560c -3.83  -3.14
iter:   9 19:41:35  -272.520565c -4.14  -3.34
Writing to output.gpw (mode='')

iter:  10 19:47:34  -272.520594c -4.07  -3.40
iter:  11 19:53:15  -272.520575c -4.57  -3.51
iter:  12 19:58:15  -272.520581c -5.02  -3.76
iter:  13 20:01:45  -272.520579c -5.42  -3.84
iter:  14 20:04:21  -272.520574c -5.05  -3.93
Writing to output.gpw (mode='')

iter:  15 20:06:32  -272.520573c -5.49  -4.05c
iter:  16 20:09:24  -272.520573c -5.68  -4.15c
iter:  17 20:11:53  -272.520575c -5.67  -4.19c
iter:  18 20:15:35  -272.520577c -5.78  -4.31c
iter:  19 20:19:31  -272.520576c -5.92  -4.32c
Writing to output.gpw (mode='')

iter:  20 20:22:55  -272.520577c -6.29  -4.38c
iter:  21 20:26:09  -272.520576c -6.38  -4.43c
iter:  22 20:28:57  -272.520575c -6.64  -4.56c
iter:  23 20:32:34  -272.520574c -6.37  -4.68c
iter:  24 20:35:30  -272.520574c -6.87  -4.91c
Writing to output.gpw (mode='')

iter:  25 20:38:55  -272.520574c -7.11  -5.03c
iter:  26 20:42:35  -272.520574c -7.18  -5.07c
iter:  27 20:45:06  -272.520574c -7.26  -5.08c
iter:  28 20:48:16  -272.520574c -7.31  -5.13c
iter:  29 20:52:00  -272.520575c -7.43c -5.27c

Converged after 29 iterations.

Dipole moment: (-9.049969, -9.982560, 0.344326) |e|*Ang

Energy contributions relative to reference atoms: (reference = -11471.411034)

Kinetic:       +127.788274
Potential:     -119.629580
External:        +0.000000
XC:            -280.848236
Entropy (-ST):   -0.151576
Local:           +0.244755
--------------------------
Free energy:   -272.596362
Extrapolated:  -272.520575

Dipole-layer corrected work functions: 3.389473, 2.727560 eV

Showing only first 2 kpts
 Kpt  Band  Eigenvalues  Occupancy
  0    26     -3.30892    1.98672
  0    27     -3.23160    1.93915
  0    28     -2.88592    0.06142
  0    29     -2.80253    0.01188

  1    26     -3.07621    1.17514
  1    27     -3.04449    0.86062
  1    28     -3.03080    0.72972
  1    29     -3.01259    0.57052


Fermi level: -3.05852

No gap
Writing to output.gpw (mode='')


Forces in eV/Ang:
  0 Li    0.00474    0.00192   -0.27349
  1 Li   -0.00003   -0.00003   -0.27831
  2 Li   -0.00493    0.00089   -0.27315
  3 Li   -0.00093    0.00165   -0.27710
  4 Li   -0.00073   -0.00281   -0.27698
  5 Li    0.00232    0.00185   -0.27620
  6 Li   -0.00005   -0.00348   -0.27331
  7 Li    0.00016    0.00282   -0.27779
  8 Li   -0.00019   -0.00298   -0.27314
  9 Li   -0.00015   -0.00180    0.28092
 10 Li    0.00982    0.00213    0.27858
 11 Li   -0.00852    0.00025    0.27625
 12 Li    0.00095    0.00853    0.28917
 13 Li   -0.00152   -0.00336    0.28678
 14 Li    0.00042    0.00006    0.28565
 15 Li    0.00173   -0.00695    0.27612
 16 Li   -0.00518    0.00098    0.28356
 17 Li    0.00312    0.00001    0.27831
 18 Li   -0.01169   -0.02572   -0.00586
 19 Li    0.00577    0.00037   -0.03569
 20 Li    0.00591   -0.01796   -0.00773
 21 Li    0.01833    0.02203   -0.04353
 22 Li    0.00270    0.01323   -0.02723
 23 Li   -0.01828    0.01835   -0.03980
 24 Li   -0.01048    0.00552   -0.00235
 25 Li    0.00625   -0.01395   -0.02589
 26 Li    0.00038    0.00080   -0.00326
 27 Li   -0.02241   -0.02439    0.11827
 28 Li    0.00439   -0.00343   -0.00817
 29 Li   -0.01472   -0.00414   -0.00437
 30 Li   -0.00503    0.00141   -0.00601
 31 Li    0.00886    0.00431   -0.00685
 32 Li   -0.00233    0.00175   -0.00351
 33 Li   -0.00106   -0.00729   -0.00086
 34 Li   -0.00151   -0.00283    0.00522
 35 Li    0.00351    0.00398    0.00414
 36 O     0.09085   -0.04864   -0.06669
 37 C    -0.07675    0.03002   -0.02004
 38 C    -0.06088   -0.01409    0.02879
 39 H    -0.15116   -0.06793   -0.04376
 40 H     0.05281    0.05930    0.06779
 41 H    -0.14686    0.00176    0.02477
 42 H     0.14615    0.06028   -0.13889
 43 H     0.16767    0.03007    0.20973
 44 H     0.01464    0.00987   -0.04412

System changes: positions 

Initializing position-dependent things.

Density initialized from wave functions
       .-----------------------.  
      /|                       |  
     / |                       |  
    /  |                       |  
   /   |                       |  
  /    |                       |  
 *     |                       |  
 |     |                      H|  
 |     |                       |  
 |     |                       |  
 |     |                       |  
 |     |                 H     |  
 | C H |       Li              Li 
 |  C  |                 H     |  
 |   Hi|     Li      Li  O     |  
 |     |  Li      Li      Li   |  
 | Li  |   Li      Li          |  
 |     |Li      Li      Li     |  
 |     |         Li            |  
 |   LLi     LLi     LLi       |  
 |     |  Li      Li      Li   |  
 | Li  |   Li      Li          |  
 |     |Li      Li      Li     |  
 Li    | Li      Li            |  
 |    Li      Li      Li       |  
 |     |                       |  
 |     |                       |  
 |     |                       |  
 |     |                       |  
 |     |                       |  
 |     |                       |  
 |     .-----------------------.  
 |    /                       /   
 |   /                       /    
 |  /                       /     
 | /                       /      
[...]
iter:  14 20:21:49  -272.920910c -4.88  -3.60
Writing to output.gpw (mode='')

iter:  15 20:25:04  -272.920914c -4.84  -3.80
iter:  16 20:27:13  -272.920914c -5.23  -3.76
iter:  17 20:30:38  -272.920908c -5.22  -3.83
iter:  18 20:32:49  -272.920909c -5.43  -4.03c
iter:  19 20:34:48  -272.920906c -5.93  -4.13c
Writing to output.gpw (mode='')

iter:  20 20:36:44  -272.920904c -5.87  -4.22c
iter:  21 20:39:58  -272.920905c -6.02  -4.28c
iter:  22 20:42:45  -272.920905c -6.22  -4.47c
iter:  23 20:44:49  -272.920905c -6.31  -4.54c
iter:  24 20:46:45  -272.920906c -6.48  -4.75c
Writing to output.gpw (mode='')

iter:  25 20:49:43  -272.920906c -6.62  -4.80c
iter:  26 20:51:41  -272.920906c -6.83  -4.86c
iter:  27 20:53:52  -272.920906c -6.88  -4.90c
iter:  28 20:56:59  -272.920906c -6.99  -4.97c
iter:  29 20:59:16  -272.920906c -7.24  -5.15c
Writing to output.gpw (mode='')

iter:  30 21:01:21  -272.920906c -7.19  -5.31c
iter:  31 21:04:17  -272.920906c -7.19  -5.41c
iter:  32 21:05:59  -272.920906c -7.16  -5.52c
iter:  33 21:08:06  -272.920906c -7.38  -5.58c
iter:  34 21:10:04  -272.920906c -7.59c -5.67c

Converged after 34 iterations.

Dipole moment: (-16.422027, -12.418811, 0.393810) |e|*Ang

Energy contributions relative to reference atoms: (reference = -11471.411034)

Kinetic:       +127.848084
Potential:     -119.995131
External:        +0.000000
XC:            -280.949331
Entropy (-ST):   -0.150504
Local:           +0.250724
--------------------------
Free energy:   -272.996158
Extrapolated:  -272.920906

Dipole-layer corrected work functions: 3.376600, 2.619562 eV

Showing only first 2 kpts
 Kpt  Band  Eigenvalues  Occupancy
  0    26     -3.25367    1.98802
  0    27     -3.16374    1.92976
  0    28     -2.83608    0.07538
  0    29     -2.74804    0.01337

  1    26     -3.04362    1.42635
  1    27     -2.98370    0.85720
  1    28     -2.95198    0.56913
  1    29     -2.94417    0.50772


Fermi level: -2.99808

No gap
Writing to output.gpw (mode='')


Forces in eV/Ang:
  0 Li    0.00883    0.00601   -0.27482
  1 Li   -0.00198   -0.00131   -0.27685
  2 Li   -0.00753    0.00052   -0.27203
  3 Li   -0.00135    0.00137   -0.27932
  4 Li   -0.00295   -0.00324   -0.26371
  5 Li    0.00222    0.00594   -0.28056
  6 Li   -0.00165   -0.00509   -0.26744
  7 Li    0.00334    0.00249   -0.28216
  8 Li   -0.00230   -0.00359   -0.26828
  9 Li   -0.00830   -0.01685    0.25629
 10 Li    0.01519   -0.02428    0.27294
 11 Li   -0.00528   -0.02782    0.25692
 12 Li   -0.00415   -0.00737    0.31425
 13 Li   -0.00370   -0.01011    0.27490
 14 Li    0.01230   -0.01323    0.27047
 15 Li   -0.01409   -0.00566    0.26125
 16 Li   -0.01048    0.02609    0.25132
 17 Li    0.03072    0.03472    0.24724
 18 Li   -0.00048    0.01269   -0.00001
 19 Li   -0.00070    0.00029    0.01310
 20 Li    0.02090    0.00769    0.00551
 21 Li   -0.00298   -0.00001   -0.00079
 22 Li    0.00032   -0.01122    0.01858
 23 Li    0.00550    0.00131   -0.00430
 24 Li   -0.00052    0.02390    0.02317
 25 Li   -0.00757    0.00668    0.00569
 26 Li    0.02257    0.02424    0.02181
 27 Li    0.00986    0.03023    0.02715
 28 Li    0.00126   -0.00355   -0.01391
 29 Li    0.00230   -0.01827   -0.03065
 30 Li   -0.00624   -0.00006   -0.00129
 31 Li   -0.02139   -0.00997   -0.02080
 32 Li    0.02148    0.00142   -0.02137
 33 Li   -0.01440    0.01628   -0.02947
 34 Li    0.01418    0.00649   -0.00657
 35 Li   -0.00385    0.00766    0.01582
 36 O     0.04424    0.01447    0.03807
 37 C    -0.03769    0.04360    0.09126
 38 C     0.02896   -0.07542    0.09712
 39 H    -0.06214   -0.01099   -0.07601
 40 H    -0.06494   -0.03997   -0.00785
 41 H     0.01055   -0.09141   -0.09981
 42 H    -0.02696    0.10639    0.03196
 43 H    -0.01518   -0.03282   -0.02522
 44 H     0.04563    0.04344   -0.00488

System changes: positions 

Initializing position-dependent things.

Density initialized from wave functions
       .-----------------------.  
      /|                       |  
     / |                       |  
    /  |                       |  
   /   |                       |  
  /    |                       |  
 *     |                       |  
 |     |                       |  
 |     |                      H|  
 |     |                       |  
 |     |                       |  
 |  H  Li               H      |  
 |   H |       Li         C    |  
 |  C  |                  H    |  
 |   LH|     Li      Li        |  
 |O    |  Li      Li      Li   |  
 | Li  |   Li      Li          |  
 |     |Li      Li      Li     |  
 |     |         Li            |  
 |   LLi     LLi     LLi       |  
 |     |  Li      Li      Li   |  
 | Li  |   Li      Li          |  
 |     |Li      Li      Li     |  
 Li    | Li      Li            |  
 |    Li      Li      Li       |  
 |     |                       |  
 |     |                       |  
 |     |                       |  
 |     |                       |  
 |     |                       |  
 |     |                       |  
 |     .-----------------------.  
 |    /                       /   
 |   /                       /    
 |  /                       /     
 | /                       /      
 |/                       /       
 *-----------------------*        

Positions:
   0 Li     1.617037    1.617037   10.000000    ( 0.0000,  0.0000,  0.0000)
   1 Li     4.851111    1.617037   10.000000    ( 0.0000,  0.0000,  0.0000)
   2 Li     8.085185    1.617037   10.000000    ( 0.0000,  0.0000,  0.0000)
   3 Li     1.617037    4.851111   10.000000    ( 0.0000,  0.0000,  0.0000)
   4 Li     4.851111    4.851111   10.000000    ( 0.0000,  0.0000,  0.0000)
   5 Li     8.085185    4.851111   10.000000    ( 0.0000,  0.0000,  0.0000)
   6 Li     1.617037    8.085185   10.000000    ( 0.0000,  0.0000,  0.0000)
   7 Li     4.851111    8.085185   10.000000    ( 0.0000,  0.0000,  0.0000)
   8 Li     8.085185    8.085185   10.000000    ( 0.0000,  0.0000,  0.0000)
   9 Li     0.000000    0.000000   11.617037    ( 0.0000,  0.0000,  0.0000)
  10 Li     3.234074    0.000000   11.617037    ( 0.0000,  0.0000,  0.0000)
  11 Li     6.468148    0.000000   11.617037    ( 0.0000,  0.0000,  0.0000)
  12 Li     0.000000    3.234074   11.617037    ( 0.0000,  0.0000,  0.0000)
  13 Li     3.234074    3.234074   11.617037    ( 0.0000,  0.0000,  0.0000)
  14 Li     6.468148    3.234074   11.617037    ( 0.0000,  0.0000,  0.0000)
  15 Li     0.000000    6.468148   11.617037    ( 0.0000,  0.0000,  0.0000)
  16 Li     3.234074    6.468148   11.617037    ( 0.0000,  0.0000,  0.0000)
  17 Li     6.468148    6.468148   11.617037    ( 0.0000,  0.0000,  0.0000)
  18 Li     1.615739    1.560169   13.478881    ( 0.0000,  0.0000,  0.0000)
  19 Li     4.865401    1.622847   13.456782    ( 0.0000,  0.0000,  0.0000)
  20 Li     8.077209    1.563525   13.490366    ( 0.0000,  0.0000,  0.0000)
  21 Li     1.643773    4.869519   13.451301    ( 0.0000,  0.0000,  0.0000)
  22 Li     4.862672    4.881572   13.444086    ( 0.0000,  0.0000,  0.0000)
  23 Li     8.054845    4.866139   13.461789    ( 0.0000,  0.0000,  0.0000)
  24 Li     1.591887    8.075748   13.498403    ( 0.0000,  0.0000,  0.0000)
  25 Li     4.867306    8.064968   13.466452    ( 0.0000,  0.0000,  0.0000)
  26 Li     8.105404    8.090694   13.530979    ( 0.0000,  0.0000,  0.0000)
  27 Li     0.045098   -0.040645   15.745270    ( 0.0000,  0.0000,  0.0000)
  28 Li     3.328293   -0.012141   15.362119    ( 0.0000,  0.0000,  0.0000)
  29 Li     6.414513    0.008274   15.435308    ( 0.0000,  0.0000,  0.0000)
  30 Li     0.016322    3.292688   15.229554    ( 0.0000,  0.0000,  0.0000)
  31 Li     3.272879    3.255834   15.359599    ( 0.0000,  0.0000,  0.0000)
  32 Li     6.432771    3.256607   15.407209    ( 0.0000,  0.0000,  0.0000)
  33 Li     0.007198    6.375541   15.444469    ( 0.0000,  0.0000,  0.0000)
  34 Li     3.238140    6.445725   15.424382    ( 0.0000,  0.0000,  0.0000)
  35 Li     6.474724    6.472627   15.434221    ( 0.0000,  0.0000,  0.0000)
  36 O      9.848844    9.965742   17.662753    ( 0.0000,  0.0000,  0.0000)
  37 C     10.568959   10.966219   18.438149    ( 0.0000,  0.0000,  0.0000)
  38 C      9.686069   12.150422   18.804849    ( 0.0000,  0.0000,  0.0000)
  39 H     11.001745   10.495003   19.326683    ( 0.0000,  0.0000,  0.0000)
  40 H     11.389562   11.281674   17.790308    ( 0.0000,  0.0000,  0.0000)
  41 H     10.267923   12.936214   19.298398    ( 0.0000,  0.0000,  0.0000)
  42 H      9.228587   12.565970   17.905676    ( 0.0000,  0.0000,  0.0000)
  43 H      8.882976   11.861256   19.488216    ( 0.0000,  0.0000,  0.0000)
  44 H      9.126670    9.604066   18.196821    ( 0.0000,  0.0000,  0.0000)

Unit cell:
           periodic     x           y           z      points  spacing
  1. axis:    yes    9.702222    0.000000    0.000000    60     0.1617
  2. axis:    yes    0.000000    9.702222    0.000000    60     0.1617
  3. axis:    no     0.000000    0.000000   24.851111   156     0.1593

  Lengths:   9.702222   9.702222  24.851111
  Angles:   90.000000  90.000000  90.000000

Effective grid spacing dv^(1/3) = 0.1609

     iter     time        total  log10-change:
                         energy  eigst   dens
iter:   1 21:13:41  -272.934433  -2.05
iter:   2 21:16:22  -272.924546  -2.65  -1.99
iter:   3 21:18:23  -272.923074c -3.67  -2.38
iter:   4 21:20:20  -272.922936c -4.06  -2.83
Writing to output.gpw (mode='')

iter:   5 21:23:16  -272.922810c -3.69  -2.94
iter:   6 21:25:18  -272.922781c -3.53  -3.14
iter:   7 21:28:17  -272.922776c -4.07  -3.50
iter:   8 21:30:40  -272.922766c -4.43  -3.62
iter:   9 21:32:14  -272.922769c -4.87  -3.65
Writing to output.gpw (mode='')

iter:  10 21:33:45  -272.922777c -4.91  -3.77
iter:  11 21:35:24  -272.922776c -5.16  -4.06c
iter:  12 21:37:17  -272.922777c -5.54  -4.13c
iter:  13 21:39:24  -272.922777c -5.67  -4.22c
iter:  14 21:41:52  -272.922776c -5.89  -4.33c
Writing to output.gpw (mode='')

iter:  15 21:44:07  -272.922776c -5.92  -4.44c
iter:  16 21:45:47  -272.922777c -5.97  -4.60c
iter:  17 21:49:15  -272.922777c -6.36  -4.62c
iter:  18 21:51:40  -272.922776c -6.39  -4.71c
iter:  19 21:54:27  -272.922776c -6.68  -4.84c
Writing to output.gpw (mode='')

iter:  20 21:57:44  -272.922776c -6.59  -4.93c
iter:  21 22:01:25  -272.922776c -6.79  -5.00c
iter:  22 22:03:23  -272.922776c -7.06  -5.11c
iter:  23 22:05:24  -272.922777c -7.07  -5.15c
iter:  24 22:07:13  -272.922777c -7.36  -5.24c
Writing to output.gpw (mode='')

iter:  25 22:09:45  -272.922777c -7.23  -5.33c
iter:  26 22:11:35  -272.922777c -7.44c -5.41c

Converged after 26 iterations.

Dipole moment: (-16.440479, -12.439694, 0.394445) |e|*Ang

Energy contributions relative to reference atoms: (reference = -11471.411034)

Kinetic:       +128.313589
Potential:     -120.337400
External:        +0.000000
XC:            -281.074197
Entropy (-ST):   -0.150513
Local:           +0.250488
--------------------------
Free energy:   -272.998033
Extrapolated:  -272.922777

Dipole-layer corrected work functions: 3.376635, 2.618377 eV

Showing only first 2 kpts
 Kpt  Band  Eigenvalues  Occupancy
  0    26     -3.25287    1.98797
  0    27     -3.16320    1.92981
  0    28     -2.83498    0.07462
  0    29     -2.74724    0.01332

  1    26     -3.04250    1.42184
  1    27     -2.98299    0.85585
  1    28     -2.95225    0.57603
  1    29     -2.94357    0.50751


Fermi level: -2.99751

No gap
Writing to output.gpw (mode='')


Forces in eV/Ang:
  0 Li    0.00876    0.00607   -0.27521
  1 Li   -0.00210   -0.00129   -0.27722
  2 Li   -0.00743    0.00053   -0.27233
  3 Li   -0.00139    0.00113   -0.27977
  4 Li   -0.00294   -0.00327   -0.26380
  5 Li    0.00222    0.00578   -0.28095
  6 Li   -0.00163   -0.00504   -0.26763
  7 Li    0.00324    0.00245   -0.28251
  8 Li   -0.00226   -0.00354   -0.26842
  9 Li   -0.00773   -0.01649    0.25695
 10 Li    0.01525   -0.02379    0.27464
 11 Li   -0.00523   -0.02758    0.25945
 12 Li   -0.00407   -0.00680    0.31505
 13 Li   -0.00333   -0.00954    0.27674
 14 Li    0.01232   -0.01325    0.27270
 15 Li   -0.01375   -0.00524    0.26362
 16 Li   -0.01076    0.02568    0.25411
 17 Li    0.03093    0.03509    0.25039
 18 Li   -0.00190    0.00907   -0.00233
 19 Li    0.00034    0.00047    0.00552
 20 Li    0.02058    0.00594    0.00247
 21 Li   -0.00021    0.00336   -0.00827
 22 Li    0.00045   -0.00912    0.01282
 23 Li    0.00225    0.00398   -0.01050
 24 Li   -0.00116    0.02353    0.01909
 25 Li   -0.00553    0.00402    0.00061
 26 Li    0.02085    0.02283    0.01729
 27 Li    0.00988    0.02782    0.00623
 28 Li   -0.00126   -0.00244   -0.00915
 29 Li    0.00338   -0.01690   -0.02624
 30 Li   -0.00625   -0.00362    0.00702
 31 Li   -0.02068   -0.00994   -0.01506
 32 Li    0.02101    0.00044   -0.01688
 33 Li   -0.01321    0.01630   -0.02477
 34 Li    0.01248    0.00591   -0.00452
 35 Li   -0.00302    0.00767    0.01564
 36 O     0.01071   -0.00044    0.03131
 37 C    -0.03135    0.09967    0.10133
 38 C    -0.01219   -0.05911    0.08024
 39 H    -0.03035   -0.04031   -0.02760
 40 H    -0.02284   -0.02321   -0.03227
 41 H     0.03636   -0.07839   -0.08630
 42 H    -0.02722    0.10241    0.01499
 43 H    -0.01551   -0.05342   -0.01492
 44 H     0.01926    0.02010   -0.00688

System changes: positions 

Initializing position-dependent things.

Density initialized from wave functions
       .-----------------------.  
      /|                       |  
     / |                       |  
    /  |                       |  
   /   |                       |  
  /    |                       |  
 *     |                       |  
 |     |                       |  
 |     |                      H|  
 |     |                       |  
 |     |                       |  
 |  H  Li               H      |  
 |   H |       Li         C    |  
 |  C  |                  H    |  
 |   LH|     Li      Li        |  
 |O    |  Li      Li      Li   |  
 | Li  |   Li      Li          |  
 |     |Li      Li      Li     |  
 |     |         Li            |  
 |   LLi     LLi     LLi       |  
 |     |  Li      Li      Li   |  
 | Li  |   Li      Li          |  
 |     |Li      Li      Li     |  
 Li    | Li      Li            |  
 |    Li      Li      Li       |  
 |     |                       |  
 |     |                       |  
 |     |                       |  
 |     |                       |  
 |     |                       |  
 |     |                       |  
 |     .-----------------------.  
 |    /                       /   
 |   /                       /    
 |  /                       /     
 | /                       /      
 |/                       /       
 *-----------------------*        

Positions:
   0 Li     1.617037    1.617037   10.000000    ( 0.0000,  0.0000,  0.0000)
   1 Li     4.851111    1.617037   10.000000    ( 0.0000,  0.0000,  0.0000)
   2 Li     8.085185    1.617037   10.000000    ( 0.0000,  0.0000,  0.0000)
   3 Li     1.617037    4.851111   10.000000    ( 0.0000,  0.0000,  0.0000)
   4 Li     4.851111    4.851111   10.000000    ( 0.0000,  0.0000,  0.0000)
   5 Li     8.085185    4.851111   10.000000    ( 0.0000,  0.0000,  0.0000)
   6 Li     1.617037    8.085185   10.000000    ( 0.0000,  0.0000,  0.0000)
   7 Li     4.851111    8.085185   10.000000    ( 0.0000,  0.0000,  0.0000)
   8 Li     8.085185    8.085185   10.000000    ( 0.0000,  0.0000,  0.0000)
   9 Li     0.000000    0.000000   11.617037    ( 0.0000,  0.0000,  0.0000)
  10 Li     3.234074    0.000000   11.617037    ( 0.0000,  0.0000,  0.0000)
  11 Li     6.468148    0.000000   11.617037    ( 0.0000,  0.0000,  0.0000)
  12 Li     0.000000    3.234074   11.617037    ( 0.0000,  0.0000,  0.0000)
  13 Li     3.234074    3.234074   11.617037    ( 0.0000,  0.0000,  0.0000)
  14 Li     6.468148    3.234074   11.617037    ( 0.0000,  0.0000,  0.0000)
  15 Li     0.000000    6.468148   11.617037    ( 0.0000,  0.0000,  0.0000)
  16 Li     3.234074    6.468148   11.617037    ( 0.0000,  0.0000,  0.0000)
  17 Li     6.468148    6.468148   11.617037    ( 0.0000,  0.0000,  0.0000)
  18 Li     1.619626    1.565331   13.476663    ( 0.0000,  0.0000,  0.0000)
  19 Li     4.865565    1.623570   13.459693    ( 0.0000,  0.0000,  0.0000)
  20 Li     8.076432    1.565036   13.490149    ( 0.0000,  0.0000,  0.0000)
  21 Li     1.642466    4.869270   13.454505    ( 0.0000,  0.0000,  0.0000)
  22 Li     4.863170    4.879637   13.448037    ( 0.0000,  0.0000,  0.0000)
  23 Li     8.056208    4.866297   13.463302    ( 0.0000,  0.0000,  0.0000)
  24 Li     1.592214    8.075393   13.500436    ( 0.0000,  0.0000,  0.0000)
  25 Li     4.865969    8.065743   13.466586    ( 0.0000,  0.0000,  0.0000)
  26 Li     8.108866    8.093246   13.535713    ( 0.0000,  0.0000,  0.0000)
  27 Li     0.050553   -0.030876   15.748479    ( 0.0000,  0.0000,  0.0000)
  28 Li     3.331775   -0.013658   15.357512    ( 0.0000,  0.0000,  0.0000)
  29 Li     6.417193    0.004717   15.428235    ( 0.0000,  0.0000,  0.0000)
  30 Li     0.015567    3.297346   15.222435    ( 0.0000,  0.0000,  0.0000)
  31 Li     3.269366    3.254585   15.353965    ( 0.0000,  0.0000,  0.0000)
  32 Li     6.436468    3.257772   15.403084    ( 0.0000,  0.0000,  0.0000)
  33 Li     0.004666    6.379319   15.437448    ( 0.0000,  0.0000,  0.0000)
  34 Li     3.241604    6.447078   15.423614    ( 0.0000,  0.0000,  0.0000)
  35 Li     6.473184    6.473396   15.437336    ( 0.0000,  0.0000,  0.0000)
  36 O      9.848364    9.968628   17.658125    ( 0.0000,  0.0000,  0.0000)
  37 C     10.565402   10.964943   18.437987    ( 0.0000,  0.0000,  0.0000)
  38 C      9.685754   12.145920   18.813089    ( 0.0000,  0.0000,  0.0000)
  39 H     10.998145   10.489778   19.320897    ( 0.0000,  0.0000,  0.0000)
  40 H     11.383800   11.280947   17.790716    ( 0.0000,  0.0000,  0.0000)
  41 H     10.267525   12.927768   19.315459    ( 0.0000,  0.0000,  0.0000)
  42 H      9.232061   12.575289   17.916258    ( 0.0000,  0.0000,  0.0000)
  43 H      8.876346   11.854201   19.488922    ( 0.0000,  0.0000,  0.0000)
  44 H      9.127156    9.605986   18.190747    ( 0.0000,  0.0000,  0.0000)

Unit cell:
           periodic     x           y           z      points  spacing
  1. axis:    yes    9.702222    0.000000    0.000000    60     0.1617
  2. axis:    yes    0.000000    9.702222    0.000000    60     0.1617
  3. axis:    no     0.000000    0.000000   24.851111   156     0.1593

  Lengths:   9.702222   9.702222  24.851111
  Angles:   90.000000  90.000000  90.000000

Effective grid spacing dv^(1/3) = 0.1609

     iter     time        total  log10-change:
                         energy  eigst   dens
iter:   1 22:13:56  -272.930245  -1.58
iter:   2 22:16:36  -272.927067  -2.33  -2.14
iter:   3 22:18:26  -272.926561c -2.91  -2.42
iter:   4 22:21:04  -272.926092c -3.40  -2.55
Writing to output.gpw (mode='')

iter:   5 22:24:08  -272.925574c -3.24  -2.65
iter:   6 22:27:28  -272.925415c -2.90  -2.86
iter:   7 22:32:17  -272.925445c -3.18  -3.10
iter:   8 22:36:52  -272.925391c -3.89  -3.12
iter:   9 22:41:15  -272.925404c -3.92  -3.26
Writing to output.gpw (mode='')

iter:  10 22:45:10  -272.925469c -3.52  -3.37
iter:  11 22:50:37  -272.925403c -4.38  -3.19
iter:  12 22:55:06  -272.925397c -4.22  -3.69
iter:  13 23:00:41  -272.925398c -5.25  -3.70
iter:  14 23:05:08  -272.925398c -5.24  -3.83
Writing to output.gpw (mode='')

iter:  15 23:10:32  -272.925398c -4.67  -3.94
iter:  16 23:14:27  -272.925398c -5.51  -3.81
iter:  17 23:18:10  -272.925402c -5.23  -3.98
iter:  18 23:21:27  -272.925400c -6.06  -4.25c
iter:  19 23:25:41  -272.925398c -5.93  -4.35c
Writing to output.gpw (mode='')

iter:  20 23:31:22  -272.925399c -6.03  -4.38c
iter:  21 23:36:58  -272.925400c -6.24  -4.73c
iter:  22 23:41:08  -272.925399c -6.68  -4.72c
iter:  23 23:45:03  -272.925399c -6.61  -4.85c
iter:  24 23:48:38  -272.925400c -6.66  -4.93c
Writing to output.gpw (mode='')

iter:  25 23:52:26  -272.925400c -6.90  -5.09c
