
  ___ ___ ___ _ _ _  
 |   |   |_  | | | | 
 | | | | | . | | | | 
 |__ |  _|___|_____|  22.8.0
 |___|_|             

User:   vazumah@c21.hercules
Date:   Sat Mar  4 04:28:29 2023
Arch:   x86_64
Pid:    4430
CWD:    /home/vazumah/Python_projects/LiNRR/Li_adsorb_studies/proton_donors/N2_with_proton_donor/Li_BCC_100/adsorbates/HF/bridge/8.085_1.617/N2_x
Python: 3.10.8
gpaw:   /home/vazumah/.conda/envs/GPAW/lib/python3.10/site-packages/gpaw
_gpaw:  /home/vazumah/.conda/envs/GPAW/lib/python3.10/site-packages/
        _gpaw.cpython-310-x86_64-linux-gnu.so
ase:    /home/vazumah/.conda/envs/GPAW/lib/python3.10/site-packages/ase (version 3.22.1)
numpy:  /home/vazumah/.conda/envs/GPAW/lib/python3.10/site-packages/numpy (version 1.24.1)
scipy:  /home/vazumah/.conda/envs/GPAW/lib/python3.10/site-packages/scipy (version 1.10.0)
libxc:  5.2.3
units:  Angstrom and eV
cores: 24
OpenMP: True
OMP_NUM_THREADS: 1

Reading from output.gpw
Reading input parameters:
  h: 0.16
  kpts: {size: [4, 4, 1]}
  occupations: {name: fermi-dirac,
                width: 0.05}
  poissonsolver: {dipolelayer: xy}
  xc: BEEF-vdW

Initialize ...

species:
  Li:
    name: Lithium
    id: 830b4218f175192f93f959cfc0aad614
    Z: 3.0
    valence: 1
    core: 2
    charge: 0.0
    file: /home/vazumah/.conda/envs/GPAW/share/gpaw/Li.PBE.gz
    compensation charges: {type: gauss,
                           rc: 0.33,
                           lmax: 2}
    cutoffs: {filter: 1.91,
              core: 2.55}
    valence states:
      #              energy  rcut
      - 2s(1.00)    -2.874   1.058
      - 2p(0.00)    -1.090   1.058
      -  s          24.337   1.058
  
    # Using partial waves for Li as LCAO basis

  F:
    name: Fluorine
    id: 9cd46ba2a61e170ad72278be75b55cc0
    Z: 9.0
    valence: 7
    core: 2
    charge: 0.0
    file: /home/vazumah/.conda/envs/GPAW/share/gpaw/F.PBE.gz
    compensation charges: {type: gauss,
                           rc: 0.20,
                           lmax: 2}
    cutoffs: {filter: 1.14,
              core: 0.74}
    valence states:
      #              energy  rcut
      - 2s(2.00)   -29.898   0.635
      - 2p(5.00)   -11.110   0.635
      -  s          -2.687   0.635
      -  p          16.102   0.635
      -  d           0.000   0.635
  
    # Using partial waves for F as LCAO basis

  H:
    name: Hydrogen
    id: d65de229564ff8ea4db303e23b6d1ecf
    Z: 1.0
    valence: 1
    core: 0
    charge: 0.0
    file: /home/vazumah/.conda/envs/GPAW/share/gpaw/H.PBE.gz
    compensation charges: {type: gauss,
                           rc: 0.15,
                           lmax: 2}
    cutoffs: {filter: 0.85,
              core: 0.53}
    valence states:
      #              energy  rcut
      - 1s(1.00)    -6.494   0.476
      -  s          20.717   0.476
      -  p           0.000   0.476
  
    # Using partial waves for H as LCAO basis

  N:
    name: Nitrogen
    id: f7500608b86eaa90eef8b1d9a670dc53
    Z: 7.0
    valence: 5
    core: 2
    charge: 0.0
    file: /home/vazumah/.conda/envs/GPAW/share/gpaw/N.PBE.gz
    compensation charges: {type: gauss,
                           rc: 0.18,
                           lmax: 2}
    cutoffs: {filter: 1.11,
              core: 0.96}
    valence states:
      #              energy  rcut
      - 2s(2.00)   -18.583   0.603
      - 2p(3.00)    -7.089   0.529
      -  s           8.629   0.603
      -  p          20.123   0.529
      -  d           0.000   0.577
  
    # Using partial waves for N as LCAO basis

Reference energy: -12990.375485  # eV

Spin-paired calculation

Convergence criteria:
 Maximum [total energy] change in last 3 cyles: 0.0005 eV / electron
 Maximum integral of absolute [dens]ity change: 0.0001 electrons / valence electron
 Maximum integral of absolute [eigenst]ate change: 4e-08 eV^2 / valence electron
 Maximum number of scf [iter]ations: 333
 (Square brackets indicate name in SCF output, whereas a 'c' in
 the SCF output indicates the quantity has converged.)

Symmetries present (total): 1

  ( 1  0  0)
  ( 0  1  0)
  ( 0  0  1)

16 k-points: 4 x 4 x 1 Monkhorst-Pack grid
8 k-points in the irreducible part of the Brillouin zone
       k-points in crystal coordinates                weights
   0:     0.12500000   -0.37500000    0.00000000          2/16
   1:     0.12500000   -0.12500000    0.00000000          2/16
   2:     0.12500000    0.12500000    0.00000000          2/16
   3:     0.12500000    0.37500000    0.00000000          2/16
   4:     0.37500000   -0.37500000    0.00000000          2/16
   5:     0.37500000   -0.12500000    0.00000000          2/16
   6:     0.37500000    0.12500000    0.00000000          2/16
   7:     0.37500000    0.37500000    0.00000000          2/16

Wave functions: Uniform real-space grid
  Kinetic energy operator: 6*3+1=19 point O(h^6) finite-difference Laplacian
  ScaLapack parameters: grid=1x1, blocksize=None
  Wavefunction extrapolation:
    Improved wavefunction reuse through dual PAW basis 

Occupation numbers: Fermi-Dirac:
  width: 0.0500  # eV
 

Eigensolver
   Davidson(niter=2) 

Densities:
  Coarse grid: 60*60*168 grid
  Fine grid: 120*120*336 grid
  Total Charge: 0.000000 

Density mixing:
  Method: separate
  Backend: pulay
  Linear mixing parameter: 0.05
  old densities: 5
  Damping of long wavelength oscillations: 50 

Hamiltonian:
  XC and Coulomb potentials evaluated on a 120*120*336 grid
  Using the BEEF-vdW Exchange-Correlation functional
  Interpolation: tri-quintic (5. degree polynomial)
  Poisson solver: FastPoissonSolver using
    Stencil: 6*3+1=19 point O(h^6) finite-difference Laplacian
    FFT axes: [0, 1]
    FST axes: [2]

Dipole correction along z-axis 

XC parameters: BEEF-vdW with 2 nearest neighbor stencil

Memory estimate:
  Process memory now: 228.64 MiB
  Calculator: 394.09 MiB
    Density: 120.69 MiB
      Arrays: 39.61 MiB
      Localized functions: 65.98 MiB
      Mixer: 15.11 MiB
    Hamiltonian: 31.12 MiB
      Arrays: 25.90 MiB
      XC: 0.00 MiB
      Poisson: 0.00 MiB
      vbar: 5.22 MiB
    Wavefunctions: 242.28 MiB
      Arrays psit_nG: 111.79 MiB
      Eigensolver: 127.10 MiB
      Projections: 0.04 MiB
      Projectors: 3.35 MiB

Total number of cores used: 24
Parallelization over k-points: 8
Domain decomposition: 1 x 1 x 3

Number of atoms: 40
Number of atomic orbitals: 157
Number of bands in calculation: 37
Number of valence electrons: 54
Bands to converge: occupied

... initialized

Initializing position-dependent things.

Creating initial wave functions:
  37 bands from LCAO basis set

       .-----------------------.  
      /|                       |  
     / |                       |  
    /  |                       |  
   /   |                       |  
  /    |                       |  
 *     |                       |  
 |     |                       |  
 |     |                       |  
 |     |                       |  
 |     |                       |  
 |     |                       |  
 |     |                       |  
 |     |                       |  
 |     Li      Li              |  
 |     |              F H      |  
 |     |     Li      Li      Li|  
 |     |  Li      LN  N   Li   |  
 | Li  |   Li      Li          |  
 |     |Li      Li      Li     |  
 |     |         Li            |  
 |   LLi     LLi     LLi       |  
 |     |  Li      Li      Li   |  
 | Li  |   Li      Li          |  
 |     |Li      Li      Li     |  
 Li    | Li      Li            |  
 |    Li      Li      Li       |  
 |     |                       |  
 |     |                       |  
 |     |                       |  
 |     |                       |  
 |     |                       |  
 |     |                       |  
 |     .-----------------------.  
 |    /                       /   
 |   /                       /    
 |  /                       /     
 | /                       /      
 |/                       /       
 *-----------------------*        

Positions:
   0 Li     1.617037    1.617037   10.000000    ( 0.0000,  0.0000,  0.0000)
   1 Li     4.851111    1.617037   10.000000    ( 0.0000,  0.0000,  0.0000)
   2 Li     8.085185    1.617037   10.000000    ( 0.0000,  0.0000,  0.0000)
   3 Li     1.617037    4.851111   10.000000    ( 0.0000,  0.0000,  0.0000)
   4 Li     4.851111    4.851111   10.000000    ( 0.0000,  0.0000,  0.0000)
   5 Li     8.085185    4.851111   10.000000    ( 0.0000,  0.0000,  0.0000)
   6 Li     1.617037    8.085185   10.000000    ( 0.0000,  0.0000,  0.0000)
   7 Li     4.851111    8.085185   10.000000    ( 0.0000,  0.0000,  0.0000)
   8 Li     8.085185    8.085185   10.000000    ( 0.0000,  0.0000,  0.0000)
   9 Li     0.000000    0.000000   11.617037    ( 0.0000,  0.0000,  0.0000)
  10 Li     3.234074    0.000000   11.617037    ( 0.0000,  0.0000,  0.0000)
  11 Li     6.468148    0.000000   11.617037    ( 0.0000,  0.0000,  0.0000)
  12 Li     0.000000    3.234074   11.617037    ( 0.0000,  0.0000,  0.0000)
  13 Li     3.234074    3.234074   11.617037    ( 0.0000,  0.0000,  0.0000)
  14 Li     6.468148    3.234074   11.617037    ( 0.0000,  0.0000,  0.0000)
  15 Li     0.000000    6.468148   11.617037    ( 0.0000,  0.0000,  0.0000)
  16 Li     3.234074    6.468148   11.617037    ( 0.0000,  0.0000,  0.0000)
  17 Li     6.468148    6.468148   11.617037    ( 0.0000,  0.0000,  0.0000)
  18 Li     1.617044    1.617038   13.469835    ( 0.0000,  0.0000,  0.0000)
  19 Li     4.851047    1.617038   13.469593    ( 0.0000,  0.0000,  0.0000)
  20 Li     8.085209    1.617038   13.469385    ( 0.0000,  0.0000,  0.0000)
  21 Li     1.617020    4.851113   13.469790    ( 0.0000,  0.0000,  0.0000)
  22 Li     4.851144    4.851070   13.469828    ( 0.0000,  0.0000,  0.0000)
  23 Li     8.085170    4.851081   13.469821    ( 0.0000,  0.0000,  0.0000)
  24 Li     1.617020    8.085182   13.469789    ( 0.0000,  0.0000,  0.0000)
  25 Li     4.851144    8.085225   13.469827    ( 0.0000,  0.0000,  0.0000)
  26 Li     8.085170    8.085214   13.469819    ( 0.0000,  0.0000,  0.0000)
  27 Li     0.000229   -0.000106   15.445816    ( 0.0000,  0.0000,  0.0000)
  28 Li     3.233959   -0.000039   15.445905    ( 0.0000,  0.0000,  0.0000)
  29 Li     6.468041    0.000297   15.446150    ( 0.0000,  0.0000,  0.0000)
  30 Li     0.000229    3.234180   15.445816    ( 0.0000,  0.0000,  0.0000)
  31 Li     3.233962    3.234116   15.445905    ( 0.0000,  0.0000,  0.0000)
  32 Li     6.468039    3.233779   15.446150    ( 0.0000,  0.0000,  0.0000)
  33 Li    -0.000045    6.468148   15.445923    ( 0.0000,  0.0000,  0.0000)
  34 Li     3.234109    6.468146   15.445920    ( 0.0000,  0.0000,  0.0000)
  35 Li     6.468159    6.468146   15.445897    ( 0.0000,  0.0000,  0.0000)
  36 F      8.095703    1.617038   18.484532    ( 0.0000,  0.0000,  0.0000)
  37 H      9.021799    1.617037   18.450495    ( 0.0000,  0.0000,  0.0000)
  38 N      8.093802    1.617000   17.170945    ( 0.0000,  0.0000,  0.0000)
  39 N      6.960408    1.617000   17.177640    ( 0.0000,  0.0000,  0.0000)

Unit cell:
           periodic     x           y           z      points  spacing
  1. axis:    yes    9.702222    0.000000    0.000000    60     0.1617
  2. axis:    yes    0.000000    9.702222    0.000000    60     0.1617
  3. axis:    no     0.000000    0.000000   26.601111   168     0.1583

  Lengths:   9.702222   9.702222  26.601111
  Angles:   90.000000  90.000000  90.000000

Effective grid spacing dv^(1/3) = 0.1606

     iter     time        total  log10-change:
                         energy  eigst   dens
iter:   1 04:29:37  -243.727356  +1.09
iter:   2 04:30:19  -244.287621  +0.42  -1.71
iter:   3 04:31:00  -244.437715  -0.04  -1.86
iter:   4 04:31:41  -244.492609  -0.40  -2.07
Writing to output.gpw (mode='')

iter:   5 04:32:28  -244.521406  -0.65  -2.12
iter:   6 04:33:09  -244.539121  -0.81  -2.37
iter:   7 04:33:50  -244.550611  -1.00  -2.55
iter:   8 04:34:31  -244.558107c -1.28  -2.58
iter:   9 04:35:12  -244.563797c -1.45  -2.74
Writing to output.gpw (mode='')

iter:  10 04:35:54  -244.568369c -1.66  -2.95
iter:  11 04:36:35  -244.570709c -1.75  -3.00
iter:  12 04:37:16  -244.572795c -1.85  -3.04
iter:  13 04:37:58  -244.574316c -1.95  -3.23
iter:  14 04:38:39  -244.575958c -2.05  -3.17
Writing to output.gpw (mode='')

iter:  15 04:39:21  -244.576817c -2.22  -2.95
iter:  16 04:40:03  -244.577639c -2.38  -3.00
iter:  17 04:40:44  -244.578212c -2.30  -2.92
iter:  18 04:41:25  -244.579069c -2.43  -2.90
iter:  19 04:42:05  -244.579412c -2.37  -2.82
Writing to output.gpw (mode='')

iter:  20 04:42:48  -244.579844c -2.26  -2.87
iter:  21 04:43:29  -244.580133c -2.60  -2.89
iter:  22 04:44:10  -244.580813c -2.82  -2.95
iter:  23 04:44:51  -244.582182c -2.57  -2.84
iter:  24 04:45:32  -244.581492c -3.04  -2.65
Writing to output.gpw (mode='')

iter:  25 04:46:14  -244.580810c -3.05  -2.71
iter:  26 04:46:56  -244.581150c -2.64  -2.97
iter:  27 04:47:37  -244.581074c -3.43  -3.11
iter:  28 04:48:18  -244.581198c -3.36  -3.12
iter:  29 04:48:59  -244.581148c -3.70  -3.12
Writing to output.gpw (mode='')

iter:  30 04:49:42  -244.581166c -3.69  -3.11
iter:  31 04:50:22  -244.581178c -3.81  -3.09
iter:  32 04:51:03  -244.581333c -3.85  -3.13
iter:  33 04:51:45  -244.581193c -3.94  -3.41
iter:  34 04:52:26  -244.581231c -3.97  -3.59
Writing to output.gpw (mode='')

iter:  35 04:53:09  -244.581231c -4.22  -3.64
iter:  36 04:53:50  -244.581288c -4.20  -3.66
iter:  37 04:54:31  -244.581265c -4.35  -3.74
iter:  38 04:55:12  -244.581265c -4.58  -3.82
iter:  39 04:55:53  -244.581268c -4.65  -3.81
Writing to output.gpw (mode='')

iter:  40 04:56:35  -244.581284c -4.62  -3.84
iter:  41 04:57:16  -244.581277c -4.52  -3.93
iter:  42 04:57:57  -244.581269c -4.64  -4.09c
iter:  43 04:58:38  -244.581274c -4.89  -4.19c
iter:  44 04:59:20  -244.581291c -4.85  -4.21c
Writing to output.gpw (mode='')

iter:  45 05:00:02  -244.581291c -4.84  -4.36c
iter:  46 05:00:43  -244.581297c -4.97  -4.39c
iter:  47 05:01:24  -244.581299c -5.04  -4.47c
iter:  48 05:02:05  -244.581300c -5.28  -4.57c
iter:  49 05:02:46  -244.581302c -5.22  -4.57c
Writing to output.gpw (mode='')

iter:  50 05:03:28  -244.581309c -5.25  -4.60c
iter:  51 05:04:09  -244.581306c -5.35  -4.67c
iter:  52 05:04:50  -244.581306c -5.26  -4.74c
iter:  53 05:05:31  -244.581304c -5.31  -4.77c
iter:  54 05:06:12  -244.581310c -5.39  -4.83c
Writing to output.gpw (mode='')

iter:  55 05:06:54  -244.581311c -5.67  -5.09c
iter:  56 05:07:35  -244.581312c -5.57  -5.09c
iter:  57 05:08:16  -244.581311c -5.76  -5.08c
iter:  58 05:08:58  -244.581310c -5.71  -5.03c
iter:  59 05:09:39  -244.581310c -5.68  -4.92c
Writing to output.gpw (mode='')

iter:  60 05:10:21  -244.581310c -5.85  -4.86c
iter:  61 05:11:02  -244.581311c -5.80  -4.87c
iter:  62 05:11:43  -244.581310c -5.77  -4.85c
iter:  63 05:12:24  -244.581311c -5.87  -4.79c
iter:  64 05:13:05  -244.581311c -6.00  -4.79c
Writing to output.gpw (mode='')

iter:  65 05:13:47  -244.581311c -5.91  -4.76c
iter:  66 05:14:28  -244.581311c -6.10  -4.73c
iter:  67 05:15:09  -244.581307c -6.07  -4.73c
iter:  68 05:15:50  -244.581308c -6.22  -4.63c
iter:  69 05:16:31  -244.581308c -6.33  -4.64c
Writing to output.gpw (mode='')

iter:  70 05:17:13  -244.581308c -5.92  -4.63c
iter:  71 05:17:54  -244.581307c -6.15  -4.58c
iter:  72 05:18:35  -244.581304c -6.40  -4.56c
iter:  73 05:19:16  -244.581311c -6.31  -4.47c
iter:  74 05:19:57  -244.581316c -6.22  -4.63c
Writing to output.gpw (mode='')

iter:  75 05:20:42  -244.581311c -6.35  -4.71c
iter:  76 05:21:23  -244.581317c -6.25  -4.58c
iter:  77 05:22:04  -244.581324c -6.21  -4.90c
iter:  78 05:22:45  -244.581321c -6.56  -5.06c
iter:  79 05:23:26  -244.581321c -6.54  -5.15c
Writing to output.gpw (mode='')

iter:  80 05:24:08  -244.581321c -6.74  -5.30c
iter:  81 05:24:49  -244.581320c -6.71  -5.31c
iter:  82 05:25:30  -244.581321c -6.70  -5.40c
iter:  83 05:26:11  -244.581321c -6.75  -5.46c
iter:  84 05:26:52  -244.581321c -6.75  -5.54c
Writing to output.gpw (mode='')

iter:  85 05:27:37  -244.581321c -6.92  -5.59c
iter:  86 05:28:18  -244.581321c -6.96  -5.76c
iter:  87 05:28:59  -244.581321c -7.06  -5.83c
iter:  88 05:29:40  -244.581321c -6.90  -5.88c
iter:  89 05:30:21  -244.581321c -6.94  -5.90c
Writing to output.gpw (mode='')

iter:  90 05:31:03  -244.581321c -6.99  -5.89c
iter:  91 05:31:44  -244.581321c -7.11  -5.86c
iter:  92 05:32:25  -244.581321c -7.27  -5.85c
iter:  93 05:33:06  -244.581321c -7.29  -5.82c
iter:  94 05:33:47  -244.581321c -7.00  -5.82c
Writing to output.gpw (mode='')

iter:  95 05:34:29  -244.581321c -7.32  -5.81c
iter:  96 05:35:10  -244.581321c -7.38  -5.76c
iter:  97 05:35:51  -244.581321c -7.42c -5.77c

Converged after 97 iterations.

Dipole moment: (-0.798490, -3.642854, 0.273264) |e|*Ang

Energy contributions relative to reference atoms: (reference = -12990.375485)

Kinetic:       +143.691884
Potential:     -121.852916
External:        +0.000000
XC:            -266.715616
Entropy (-ST):   -0.169140
Local:           +0.379897
--------------------------
Free energy:   -244.665891
Extrapolated:  -244.581321

Dipole-layer corrected work functions: 3.375877, 2.850570 eV

Showing only first 2 kpts
 Kpt  Band  Eigenvalues  Occupancy
  0    25     -3.36323    1.98662
  0    26     -3.23578    1.84130
  0    27     -3.02363    0.28566
  0    28     -2.89160    0.02349

  1    25     -3.14615    1.31784
  1    26     -3.12766    1.14336
  1    27     -3.05480    0.47428
  1    28     -3.03151    0.32650


Fermi level: -3.11322

Gap: 0.040 eV
Transition (v -> c):
  (s=0, k=2, n=26, [0.12, 0.12, 0.00]) -> (s=0, k=7, n=27, [0.38, 0.38, 0.00])
Writing to output.gpw (mode='')


Forces in eV/Ang:
  0 Li    0.00706   -0.00000   -0.26707
  1 Li   -0.01735    0.00000   -0.27444
  2 Li    0.00996    0.00000   -0.28124
  3 Li    0.00010   -0.00369   -0.27209
  4 Li    0.00670    0.01290   -0.27444
  5 Li   -0.00678    0.01919   -0.27354
  6 Li    0.00010    0.00369   -0.27209
  7 Li    0.00670   -0.01290   -0.27444
  8 Li   -0.00678   -0.01919   -0.27354
  9 Li    0.01003    0.00428    0.28732
 10 Li   -0.01040    0.00195    0.25231
 11 Li    0.00082    0.00456    0.31169
 12 Li    0.01003   -0.00428    0.28732
 13 Li   -0.01041   -0.00195    0.25231
 14 Li    0.00082   -0.00455    0.31168
 15 Li   -0.01437   -0.00000    0.24934
 16 Li    0.00644   -0.00000    0.28054
 17 Li    0.00570   -0.00000    0.22644
 18 Li    0.00542   -0.00000    0.06397
 19 Li   -0.04091   -0.00000   -0.08743
 20 Li    0.01566   -0.00000   -0.20585
 21 Li   -0.01189   -0.00016    0.03719
 22 Li    0.02105   -0.02517    0.05619
 23 Li   -0.00829   -0.01355    0.04781
 24 Li   -0.01189    0.00017    0.03720
 25 Li    0.02105    0.02517    0.05619
 26 Li   -0.00829    0.01355    0.04781
 27 Li    0.11463   -0.05053   -0.05133
 28 Li   -0.06621   -0.02391   -0.02025
 29 Li   -0.03753    0.19418    0.17571
 30 Li    0.11463    0.05054   -0.05134
 31 Li   -0.06621    0.02391   -0.02024
 32 Li   -0.03752   -0.19415    0.17568
 33 Li   -0.02252   -0.00000   -0.01309
 34 Li    0.01779    0.00000   -0.01110
 35 Li    0.00484    0.00000   -0.02871
 36 F     5.14132    0.00057   18.94348
 37 H     4.09772    0.00007    2.27059
 38 N     0.53919   -0.00045  -12.61866
 39 N    -9.72683   -0.00044   -8.79065

System changes: positions 

Initializing position-dependent things.

Density initialized from wave functions
       .-----------------------.  
      /|                       |  
     / |                       |  
    /  |                       |  
   /   |                       |  
  /    |                       |  
 *     |                       |  
 |     |                       |  
 |     |                       |  
 |     |                       |  
 |     |                       |  
 |     |                       |  
 |     |                       |  
 |     |                       |  
 |     Li      Li              |  
 |     |              F H      |  
 |     |     Li      Li      Li|  
 |     |  Li      LN  N   Li   |  
 | Li  |   Li      Li          |  
 |     |Li      Li      Li     |  
 |     |         Li            |  
 |   LLi     LLi     LLi       |  
 |     |  Li      Li      Li   |  
 | Li  |   Li      Li          |  
 |     |Li      Li      Li     |  
 Li    | Li      Li            |  
 |    Li      Li      Li       |  
 |     |                       |  
 |     |                       |  
 |     |                       |  
 |     |                       |  
 |     |                       |  
 |     |                       |  
 |     .-----------------------.  
 |    /                       /   
 |   /                       /    
 |  /                       /     
 | /                       /      
 |/                       /       
 *-----------------------*        

Positions:
   0 Li     1.617037    1.617037   10.000000    ( 0.0000,  0.0000,  0.0000)
   1 Li     4.851111    1.617037   10.000000    ( 0.0000,  0.0000,  0.0000)
   2 Li     8.085185    1.617037   10.000000    ( 0.0000,  0.0000,  0.0000)
   3 Li     1.617037    4.851111   10.000000    ( 0.0000,  0.0000,  0.0000)
   4 Li     4.851111    4.851111   10.000000    ( 0.0000,  0.0000,  0.0000)
   5 Li     8.085185    4.851111   10.000000    ( 0.0000,  0.0000,  0.0000)
   6 Li     1.617037    8.085185   10.000000    ( 0.0000,  0.0000,  0.0000)
   7 Li     4.851111    8.085185   10.000000    ( 0.0000,  0.0000,  0.0000)
   8 Li     8.085185    8.085185   10.000000    ( 0.0000,  0.0000,  0.0000)
   9 Li     0.000000    0.000000   11.617037    ( 0.0000,  0.0000,  0.0000)
  10 Li     3.234074    0.000000   11.617037    ( 0.0000,  0.0000,  0.0000)
  11 Li     6.468148    0.000000   11.617037    ( 0.0000,  0.0000,  0.0000)
  12 Li     0.000000    3.234074   11.617037    ( 0.0000,  0.0000,  0.0000)
  13 Li     3.234074    3.234074   11.617037    ( 0.0000,  0.0000,  0.0000)
  14 Li     6.468148    3.234074   11.617037    ( 0.0000,  0.0000,  0.0000)
  15 Li     0.000000    6.468148   11.617037    ( 0.0000,  0.0000,  0.0000)
  16 Li     3.234074    6.468148   11.617037    ( 0.0000,  0.0000,  0.0000)
  17 Li     6.468148    6.468148   11.617037    ( 0.0000,  0.0000,  0.0000)
  18 Li     1.617067    1.617038   13.470020    ( 0.0000,  0.0000,  0.0000)
  19 Li     4.850918    1.617038   13.469317    ( 0.0000,  0.0000,  0.0000)
  20 Li     8.085257    1.617038   13.468784    ( 0.0000,  0.0000,  0.0000)
  21 Li     1.616982    4.851107   13.469901    ( 0.0000,  0.0000,  0.0000)
  22 Li     4.851210    4.850995   13.469983    ( 0.0000,  0.0000,  0.0000)
  23 Li     8.085146    4.851059   13.469933    ( 0.0000,  0.0000,  0.0000)
  24 Li     1.616982    8.085188   13.469900    ( 0.0000,  0.0000,  0.0000)
  25 Li     4.851210    8.085300   13.469982    ( 0.0000,  0.0000,  0.0000)
  26 Li     8.085146    8.085236   13.469931    ( 0.0000,  0.0000,  0.0000)
  27 Li     0.000473   -0.000202   15.445755    ( 0.0000,  0.0000,  0.0000)
  28 Li     3.233776   -0.000110   15.445846    ( 0.0000,  0.0000,  0.0000)
  29 Li     6.468037    0.000926   15.446855    ( 0.0000,  0.0000,  0.0000)
  30 Li     0.000474    3.234276   15.445755    ( 0.0000,  0.0000,  0.0000)
  31 Li     3.233779    3.234187   15.445845    ( 0.0000,  0.0000,  0.0000)
  32 Li     6.468034    3.233151   15.446854    ( 0.0000,  0.0000,  0.0000)
  33 Li    -0.000093    6.468148   15.445870    ( 0.0000,  0.0000,  0.0000)
  34 Li     3.234153    6.468146   15.445887    ( 0.0000,  0.0000,  0.0000)
  35 Li     6.468161    6.468146   15.445797    ( 0.0000,  0.0000,  0.0000)
  36 F      8.106083    1.617039   18.523161    ( 0.0000,  0.0000,  0.0000)
  37 H      9.029329    1.617037   18.455292    ( 0.0000,  0.0000,  0.0000)
  38 N      8.076680    1.616998   17.143526    ( 0.0000,  0.0000,  0.0000)
  39 N      6.959861    1.616998   17.160638    ( 0.0000,  0.0000,  0.0000)

Unit cell:
           periodic     x           y           z      points  spacing
  1. axis:    yes    9.702222    0.000000    0.000000    60     0.1617
  2. axis:    yes    0.000000    9.702222    0.000000    60     0.1617
  3. axis:    no     0.000000    0.000000   26.601111   168     0.1583

  Lengths:   9.702222   9.702222  26.601111
  Angles:   90.000000  90.000000  90.000000

Effective grid spacing dv^(1/3) = 0.1606

     iter     time        total  log10-change:
                         energy  eigst   dens
iter:   1 05:36:46  -245.967182  -0.32
iter:   2 05:37:28  -245.908048  -0.58  -1.58
iter:   3 05:38:09  -245.887941  -0.98  -1.67
iter:   4 05:38:50  -245.864727  -0.96  -1.97
Writing to output.gpw (mode='')

iter:   5 05:39:33  -245.965699  -0.89  -1.83
iter:   6 05:40:13  -245.979190  -0.83  -1.84
iter:   7 05:40:55  -245.878853  -1.35  -1.50
iter:   8 05:41:36  -245.898486  -1.06  -1.71
iter:   9 05:42:16  -245.873879c -1.29  -1.58
Writing to output.gpw (mode='')

iter:  10 05:42:58  -245.883273c -1.76  -2.02
iter:  11 05:43:39  -245.852018  -1.95  -2.00
iter:  12 05:44:20  -245.840511  -2.05  -2.28
iter:  13 05:45:01  -245.841501c -2.76  -2.46
iter:  14 05:45:42  -245.837656c -2.42  -2.48
Writing to output.gpw (mode='')

iter:  15 05:46:25  -245.840316c -3.04  -2.50
iter:  16 05:47:05  -245.839318c -2.92  -2.59
iter:  17 05:47:46  -245.838455c -3.22  -2.77
iter:  18 05:48:27  -245.838076c -3.32  -2.86
iter:  19 05:49:08  -245.838282c -3.61  -2.99
Writing to output.gpw (mode='')

iter:  20 05:49:50  -245.838060c -3.57  -3.01
iter:  21 05:50:31  -245.838355c -3.97  -3.04
iter:  22 05:51:12  -245.838068c -3.54  -3.12
iter:  23 05:51:53  -245.838382c -3.97  -3.19
iter:  24 05:52:34  -245.838254c -4.15  -3.28
Writing to output.gpw (mode='')

iter:  25 05:53:16  -245.838126c -4.13  -3.54
iter:  26 05:53:57  -245.838198c -4.75  -3.62
iter:  27 05:54:38  -245.838168c -4.66  -3.69
iter:  28 05:55:19  -245.838175c -4.62  -3.73
iter:  29 05:56:00  -245.838162c -5.01  -3.82
Writing to output.gpw (mode='')

iter:  30 05:56:44  -245.838185c -4.91  -3.87
iter:  31 05:57:25  -245.838182c -5.31  -4.01c
iter:  32 05:58:06  -245.838172c -4.98  -4.05c
iter:  33 05:58:47  -245.838178c -5.47  -3.90
iter:  34 05:59:28  -245.838177c -5.30  -4.05c
Writing to output.gpw (mode='')

iter:  35 06:00:10  -245.838192c -5.51  -4.13c
iter:  36 06:00:51  -245.838189c -5.62  -3.96
iter:  37 06:01:32  -245.838181c -5.43  -4.18c
iter:  38 06:02:13  -245.838177c -5.89  -4.33c
iter:  39 06:02:54  -245.838185c -5.67  -4.37c
Writing to output.gpw (mode='')

iter:  40 06:03:40  -245.838179c -6.00  -4.55c
iter:  41 06:04:21  -245.838188c -5.85  -4.75c
iter:  42 06:05:02  -245.838184c -6.17  -4.68c
iter:  43 06:05:43  -245.838182c -6.29  -4.91c
iter:  44 06:06:24  -245.838183c -6.38  -4.98c
Writing to output.gpw (mode='')

iter:  45 06:07:06  -245.838183c -6.36  -5.07c
iter:  46 06:07:47  -245.838183c -6.49  -5.17c
iter:  47 06:08:28  -245.838183c -6.62  -5.21c
iter:  48 06:09:09  -245.838182c -6.56  -5.20c
iter:  49 06:09:51  -245.838182c -6.61  -5.11c
Writing to output.gpw (mode='')

iter:  50 06:10:36  -245.838183c -6.76  -5.06c
iter:  51 06:11:17  -245.838183c -6.78  -5.36c
iter:  52 06:11:58  -245.838183c -6.96  -5.48c
iter:  53 06:12:39  -245.838184c -6.90  -5.47c
iter:  54 06:13:20  -245.838184c -7.02  -5.45c
Writing to output.gpw (mode='')

iter:  55 06:14:02  -245.838184c -7.00  -5.48c
iter:  56 06:14:43  -245.838184c -7.13  -5.50c
iter:  57 06:15:24  -245.838184c -7.20  -5.48c
iter:  58 06:16:06  -245.838184c -7.04  -5.47c
iter:  59 06:16:47  -245.838184c -7.30  -5.38c
Writing to output.gpw (mode='')

iter:  60 06:17:29  -245.838185c -7.34  -5.43c
iter:  61 06:18:10  -245.838185c -7.57c -5.69c

Converged after 61 iterations.

Dipole moment: (-0.878729, -3.670036, 0.261026) |e|*Ang

Energy contributions relative to reference atoms: (reference = -12990.375485)

Kinetic:       +142.390663
Potential:     -121.959385
External:        +0.000000
XC:            -266.568149
Entropy (-ST):   -0.165803
Local:           +0.381589
--------------------------
Free energy:   -245.921086
Extrapolated:  -245.838185

Dipole-layer corrected work functions: 3.375917, 2.874136 eV

Showing only first 2 kpts
 Kpt  Band  Eigenvalues  Occupancy
  0    25     -3.37562    1.98677
  0    26     -3.24884    1.84492
  0    27     -3.02356    0.23230
  0    28     -2.90136    0.02256

  1    25     -3.15901    1.32731
  1    26     -3.13937    1.14251
  1    27     -3.06934    0.49438
  1    28     -3.04822    0.35422


Fermi level: -3.12503

Gap: 0.035 eV
Transition (v -> c):
  (s=0, k=2, n=26, [0.12, 0.12, 0.00]) -> (s=0, k=7, n=27, [0.38, 0.38, 0.00])
Writing to output.gpw (mode='')


Forces in eV/Ang:
  0 Li    0.00884   -0.00000   -0.26696
  1 Li   -0.01922    0.00000   -0.27386
  2 Li    0.01055    0.00000   -0.28034
  3 Li    0.00003   -0.00420   -0.27256
  4 Li    0.00680    0.01246   -0.27430
  5 Li   -0.00701    0.02056   -0.27302
  6 Li    0.00003    0.00420   -0.27256
  7 Li    0.00680   -0.01246   -0.27431
  8 Li   -0.00701   -0.02056   -0.27302
  9 Li    0.01054    0.00368    0.28595
 10 Li   -0.01173    0.00212    0.25074
 11 Li    0.00093    0.00490    0.31177
 12 Li    0.01054   -0.00368    0.28595
 13 Li   -0.01173   -0.00212    0.25074
 14 Li    0.00093   -0.00490    0.31177
 15 Li   -0.01525   -0.00000    0.24967
 16 Li    0.00728   -0.00000    0.28039
 17 Li    0.00617   -0.00000    0.22613
 18 Li    0.00318   -0.00000    0.06548
 19 Li   -0.03969   -0.00000   -0.07941
 20 Li    0.01812   -0.00000   -0.20840
 21 Li   -0.01142    0.00123    0.03629
 22 Li    0.02155   -0.02691    0.05865
 23 Li   -0.00886   -0.01589    0.05144
 24 Li   -0.01142   -0.00123    0.03630
 25 Li    0.02155    0.02691    0.05865
 26 Li   -0.00886    0.01589    0.05144
 27 Li    0.12211   -0.05839   -0.06831
 28 Li   -0.06343   -0.01862   -0.02025
 29 Li   -0.04608    0.13446    0.11736
 30 Li    0.12212    0.05840   -0.06832
 31 Li   -0.06342    0.01862   -0.02025
 32 Li   -0.04607   -0.13444    0.11733
 33 Li   -0.02474   -0.00000   -0.01115
 34 Li    0.01804    0.00000   -0.01075
 35 Li    0.00656    0.00000   -0.02764
 36 F     4.79413    0.00054   17.33031
 37 H     3.19585    0.00006    1.88614
 38 N     1.09277   -0.00015  -11.66489
 39 N    -9.13768   -0.00014   -7.62439

System changes: positions 

Initializing position-dependent things.

Density initialized from wave functions
       .-----------------------.  
      /|                       |  
     / |                       |  
    /  |                       |  
   /   |                       |  
  /    |                       |  
 *     |                       |  
 |     |                       |  
 |     |                       |  
 |     |                       |  
 |     |                       |  
 |     |                       |  
 |     |                       |  
 |     |                       |  
 |     Li      Li              |  
 |     |              F H      |  
 |     |     Li      Li      Li|  
 |     |  Li      LN  N   Li   |  
 | Li  |   Li      Li          |  
 |     |Li      Li      Li     |  
 |     |         Li            |  
 |   LLi     LLi     LLi       |  
 |     |  Li      Li      Li   |  
 | Li  |   Li      Li          |  
 |     |Li      Li      Li     |  
 Li    | Li      Li            |  
 |    Li      Li      Li       |  
 |     |                       |  
 |     |                       |  
 |     |                       |  
 |     |                       |  
 |     |                       |  
 |     |                       |  
 |     .-----------------------.  
 |    /                       /   
 |   /                       /    
 |  /                       /     
 | /                       /      
 |/                       /       
 *-----------------------*        

Positions:
   0 Li     1.617037    1.617037   10.000000    ( 0.0000,  0.0000,  0.0000)
   1 Li     4.851111    1.617037   10.000000    ( 0.0000,  0.0000,  0.0000)
   2 Li     8.085185    1.617037   10.000000    ( 0.0000,  0.0000,  0.0000)
   3 Li     1.617037    4.851111   10.000000    ( 0.0000,  0.0000,  0.0000)
   4 Li     4.851111    4.851111   10.000000    ( 0.0000,  0.0000,  0.0000)
   5 Li     8.085185    4.851111   10.000000    ( 0.0000,  0.0000,  0.0000)
   6 Li     1.617037    8.085185   10.000000    ( 0.0000,  0.0000,  0.0000)
   7 Li     4.851111    8.085185   10.000000    ( 0.0000,  0.0000,  0.0000)
   8 Li     8.085185    8.085185   10.000000    ( 0.0000,  0.0000,  0.0000)
   9 Li     0.000000    0.000000   11.617037    ( 0.0000,  0.0000,  0.0000)
  10 Li     3.234074    0.000000   11.617037    ( 0.0000,  0.0000,  0.0000)
  11 Li     6.468148    0.000000   11.617037    ( 0.0000,  0.0000,  0.0000)
  12 Li     0.000000    3.234074   11.617037    ( 0.0000,  0.0000,  0.0000)
  13 Li     3.234074    3.234074   11.617037    ( 0.0000,  0.0000,  0.0000)
  14 Li     6.468148    3.234074   11.617037    ( 0.0000,  0.0000,  0.0000)
  15 Li     0.000000    6.468148   11.617037    ( 0.0000,  0.0000,  0.0000)
  16 Li     3.234074    6.468148   11.617037    ( 0.0000,  0.0000,  0.0000)
  17 Li     6.468148    6.468148   11.617037    ( 0.0000,  0.0000,  0.0000)
  18 Li     1.617065    1.617038   13.470306    ( 0.0000,  0.0000,  0.0000)
  19 Li     4.850753    1.617038   13.469038    ( 0.0000,  0.0000,  0.0000)
  20 Li     8.085358    1.617038   13.467885    ( 0.0000,  0.0000,  0.0000)
  21 Li     1.616936    4.851120   13.470047    ( 0.0000,  0.0000,  0.0000)
  22 Li     4.851310    4.850863   13.470242    ( 0.0000,  0.0000,  0.0000)
  23 Li     8.085103    4.850989   13.470153    ( 0.0000,  0.0000,  0.0000)
  24 Li     1.616935    8.085175   13.470046    ( 0.0000,  0.0000,  0.0000)
  25 Li     4.851310    8.085431   13.470241    ( 0.0000,  0.0000,  0.0000)
  26 Li     8.085104    8.085305   13.470151    ( 0.0000,  0.0000,  0.0000)
  27 Li     0.000956   -0.000464   15.445405    ( 0.0000,  0.0000,  0.0000)
  28 Li     3.233549   -0.000138   15.445760    ( 0.0000,  0.0000,  0.0000)
  29 Li     6.467880    0.000982   15.447000    ( 0.0000,  0.0000,  0.0000)
  30 Li     0.000956    3.234538   15.445404    ( 0.0000,  0.0000,  0.0000)
  31 Li     3.233552    3.234215   15.445760    ( 0.0000,  0.0000,  0.0000)
  32 Li     6.467877    3.233094   15.446999    ( 0.0000,  0.0000,  0.0000)
  33 Li    -0.000197    6.468148   15.445825    ( 0.0000,  0.0000,  0.0000)
  34 Li     3.234222    6.468146   15.445844    ( 0.0000,  0.0000,  0.0000)
  35 Li     6.468192    6.468146   15.445672    ( 0.0000,  0.0000,  0.0000)
  36 F      8.117614    1.617041   18.561464    ( 0.0000,  0.0000,  0.0000)
  37 H      9.029043    1.617037   18.457428    ( 0.0000,  0.0000,  0.0000)
  38 N      8.065570    1.616999   17.114446    ( 0.0000,  0.0000,  0.0000)
  39 N      6.958574    1.616999   17.149677    ( 0.0000,  0.0000,  0.0000)

Unit cell:
           periodic     x           y           z      points  spacing
  1. axis:    yes    9.702222    0.000000    0.000000    60     0.1617
  2. axis:    yes    0.000000    9.702222    0.000000    60     0.1617
  3. axis:    no     0.000000    0.000000   26.601111   168     0.1583

  Lengths:   9.702222   9.702222  26.601111
  Angles:   90.000000  90.000000  90.000000

Effective grid spacing dv^(1/3) = 0.1606

     iter     time        total  log10-change:
                         energy  eigst   dens
iter:   1 06:19:10  -247.020808  -0.42
iter:   2 06:19:51  -246.974499  -0.68  -1.60
iter:   3 06:20:32  -246.963688  -1.15  -1.73
iter:   4 06:21:13  -246.954522c -1.24  -2.05
Writing to output.gpw (mode='')

iter:   5 06:21:57  -247.021193  -1.06  -2.19
iter:   6 06:22:38  -246.991495  -1.28  -1.81
iter:   7 06:23:19  -246.940358  -1.63  -1.95
iter:   8 06:24:00  -247.000727  -0.89  -2.20
iter:   9 06:24:41  -246.965006  -1.21  -1.56
Writing to output.gpw (mode='')

iter:  10 06:25:23  -246.986673  -1.55  -2.06
iter:  11 06:26:03  -246.951611  -2.11  -1.99
iter:  12 06:26:45  -246.935996  -2.12  -2.20
iter:  13 06:27:25  -246.936755c -2.75  -2.37
iter:  14 06:28:06  -246.930528c -2.01  -2.38
Writing to output.gpw (mode='')

iter:  15 06:28:48  -246.938299c -2.48  -2.34
iter:  16 06:29:28  -246.940068c -2.35  -2.38
iter:  17 06:30:09  -246.931334c -2.93  -2.36
iter:  18 06:30:50  -246.929832c -2.78  -2.71
iter:  19 06:31:31  -246.933115c -3.10  -2.86
Writing to output.gpw (mode='')

iter:  20 06:32:13  -246.931845c -3.69  -2.65
iter:  21 06:32:54  -246.930079c -3.24  -2.78
iter:  22 06:33:34  -246.930625c -3.25  -3.11
iter:  23 06:34:15  -246.930582c -3.92  -2.93
iter:  24 06:34:56  -246.929973c -3.59  -2.97
Writing to output.gpw (mode='')

iter:  25 06:35:42  -246.930169c -3.45  -3.21
iter:  26 06:36:23  -246.930166c -4.14  -3.46
iter:  27 06:37:03  -246.930190c -4.25  -3.57
iter:  28 06:37:44  -246.930148c -4.21  -3.72
iter:  29 06:38:25  -246.930168c -4.50  -3.91
Writing to output.gpw (mode='')

iter:  30 06:39:07  -246.930175c -4.51  -3.96
iter:  31 06:39:48  -246.930190c -4.44  -4.07c
iter:  32 06:40:29  -246.930183c -4.62  -4.11c
iter:  33 06:41:10  -246.930186c -4.75  -4.19c
iter:  34 06:41:51  -246.930183c -4.71  -4.19c
Writing to output.gpw (mode='')

iter:  35 06:42:33  -246.930181c -4.80  -4.08c
iter:  36 06:43:14  -246.930185c -5.11  -4.08c
iter:  37 06:43:55  -246.930182c -5.04  -4.10c
iter:  38 06:44:36  -246.930183c -5.12  -4.05c
iter:  39 06:45:18  -246.930185c -5.17  -4.03c
Writing to output.gpw (mode='')

iter:  40 06:46:00  -246.930200c -5.31  -3.98
iter:  41 06:46:41  -246.930209c -5.33  -4.06c
iter:  42 06:47:22  -246.930215c -5.30  -4.13c
iter:  43 06:48:03  -246.930216c -5.56  -4.12c
iter:  44 06:48:44  -246.930224c -5.61  -4.13c
Writing to output.gpw (mode='')

iter:  45 06:49:29  -246.930226c -5.67  -4.28c
iter:  46 06:50:10  -246.930228c -5.45  -4.30c
iter:  47 06:50:51  -246.930231c -5.76  -4.32c
iter:  48 06:51:32  -246.930230c -5.83  -4.50c
iter:  49 06:52:13  -246.930229c -5.92  -4.54c
Writing to output.gpw (mode='')

iter:  50 06:52:56  -246.930232c -5.91  -4.60c
iter:  51 06:53:37  -246.930231c -5.87  -4.65c
iter:  52 06:54:18  -246.930232c -6.09  -4.69c
iter:  53 06:54:59  -246.930235c -6.24  -4.76c
iter:  54 06:55:40  -246.930231c -6.39  -4.96c
Writing to output.gpw (mode='')

iter:  55 06:56:26  -246.930231c -6.25  -4.99c
iter:  56 06:57:07  -246.930232c -6.53  -5.03c
iter:  57 06:57:48  -246.930234c -6.53  -5.10c
iter:  58 06:58:29  -246.930232c -6.46  -5.09c
iter:  59 06:59:11  -246.930234c -6.70  -5.14c
Writing to output.gpw (mode='')

iter:  60 06:59:52  -246.930234c -6.78  -5.22c
iter:  61 07:00:33  -246.930235c -6.76  -5.31c
iter:  62 07:01:15  -246.930234c -7.00  -5.44c
iter:  63 07:01:56  -246.930234c -6.85  -5.58c
iter:  64 07:02:37  -246.930235c -6.89  -5.61c
Writing to output.gpw (mode='')

iter:  65 07:03:24  -246.930235c -6.86  -5.61c
iter:  66 07:04:05  -246.930235c -7.01  -5.66c
iter:  67 07:04:46  -246.930235c -7.10  -5.73c
iter:  68 07:05:28  -246.930236c -7.12  -5.87c
iter:  69 07:06:09  -246.930236c -7.33  -5.97c
Writing to output.gpw (mode='')

iter:  70 07:06:51  -246.930235c -7.40c -6.09c

Converged after 70 iterations.

Dipole moment: (-1.026864, -3.647413, 0.237750) |e|*Ang

Energy contributions relative to reference atoms: (reference = -12990.375485)

Kinetic:       +141.012944
Potential:     -121.737985
External:        +0.000000
XC:            -266.506819
Entropy (-ST):   -0.164112
Local:           +0.383680
--------------------------
Free energy:   -247.012291
Extrapolated:  -246.930235

Dipole-layer corrected work functions: 3.378254, 2.921218 eV

Showing only first 2 kpts
 Kpt  Band  Eigenvalues  Occupancy
  0    25     -3.40041    1.98679
  0    26     -3.27281    1.84279
  0    27     -3.04179    0.20701
  0    28     -2.92236    0.02096

  1    25     -3.18147    1.30707
  1    26     -3.16508    1.15225
  1    27     -3.09828    0.52653
  1    28     -3.07351    0.35759


Fermi level: -3.14974

Gap: 0.032 eV
Transition (v -> c):
  (s=0, k=2, n=26, [0.12, 0.12, 0.00]) -> (s=0, k=7, n=27, [0.38, 0.38, 0.00])

Forces in eV/Ang:
  0 Li    0.01093   -0.00000   -0.26693
  1 Li   -0.02113    0.00000   -0.27353
  2 Li    0.01098    0.00000   -0.27952
  3 Li   -0.00012   -0.00453   -0.27336
  4 Li    0.00623    0.01163   -0.27436
  5 Li   -0.00677    0.02173   -0.27251
  6 Li   -0.00012    0.00453   -0.27336
  7 Li    0.00622   -0.01163   -0.27436
  8 Li   -0.00677   -0.02173   -0.27251
  9 Li    0.01076    0.00318    0.28426
 10 Li   -0.01277    0.00235    0.24859
 11 Li    0.00080    0.00507    0.31196
 12 Li    0.01076   -0.00318    0.28426
 13 Li   -0.01277   -0.00235    0.24859
 14 Li    0.00080   -0.00507    0.31195
 15 Li   -0.01578   -0.00000    0.24964
 16 Li    0.00784   -0.00000    0.27982
 17 Li    0.00704   -0.00000    0.22667
 18 Li    0.00181   -0.00000    0.06563
 19 Li   -0.03769   -0.00000   -0.06985
 20 Li    0.01910   -0.00000   -0.20717
 21 Li   -0.01084    0.00176    0.03630
 22 Li    0.02180   -0.02758    0.05957
 23 Li   -0.00888   -0.01719    0.05350
 24 Li   -0.01084   -0.00176    0.03631
 25 Li    0.02180    0.02758    0.05957
 26 Li   -0.00888    0.01719    0.05350
 27 Li    0.12277   -0.06229   -0.07883
 28 Li   -0.05794   -0.01411   -0.02185
 29 Li   -0.05091    0.08303    0.07552
 30 Li    0.12278    0.06230   -0.07884
 31 Li   -0.05794    0.01410   -0.02185
 32 Li   -0.05090   -0.08301    0.07551
 33 Li   -0.02579   -0.00000   -0.01044
 34 Li    0.01717    0.00000   -0.01079
 35 Li    0.00784    0.00000   -0.02721
 36 F     4.12088    0.00046   15.72220
 37 H     2.92740    0.00005    1.54346
 38 N     1.25592   -0.00040  -10.70784
 39 N    -8.36303    0.00003   -6.53457

System changes: positions 

Initializing position-dependent things.

Density initialized from wave functions
       .-----------------------.  
      /|                       |  
     / |                       |  
    /  |                       |  
   /   |                       |  
  /    |                       |  
 *     |                       |  
 |     |                       |  
 |     |                       |  
 |     |                       |  
 |     |                       |  
 |     |                       |  
 |     |                       |  
 |     |                       |  
 |     Li      Li              |  
 |     |              F H      |  
 |     |     Li      Li      Li|  
 |     |  Li      LN  N   Li   |  
 | Li  |   Li      Li          |  
 |     |Li      Li      Li     |  
 |     |         Li            |  
 |   LLi     LLi     LLi       |  
 |     |  Li      Li      Li   |  
 | Li  |   Li      Li          |  
 |     |Li      Li      Li     |  
 Li    | Li      Li            |  
 |    Li      Li      Li       |  
 |     |                       |  
 |     |                       |  
 |     |                       |  
 |     |                       |  
 |     |                       |  
 |     |                       |  
 |     .-----------------------.  
 |    /                       /   
 |   /                       /    
 |  /                       /     
 | /                       /      
 |/                       /       
 *-----------------------*        

Positions:
   0 Li     1.617037    1.617037   10.000000    ( 0.0000,  0.0000,  0.0000)
   1 Li     4.851111    1.617037   10.000000    ( 0.0000,  0.0000,  0.0000)
   2 Li     8.085185    1.617037   10.000000    ( 0.0000,  0.0000,  0.0000)
   3 Li     1.617037    4.851111   10.000000    ( 0.0000,  0.0000,  0.0000)
   4 Li     4.851111    4.851111   10.000000    ( 0.0000,  0.0000,  0.0000)
   5 Li     8.085185    4.851111   10.000000    ( 0.0000,  0.0000,  0.0000)
   6 Li     1.617037    8.085185   10.000000    ( 0.0000,  0.0000,  0.0000)
   7 Li     4.851111    8.085185   10.000000    ( 0.0000,  0.0000,  0.0000)
   8 Li     8.085185    8.085185   10.000000    ( 0.0000,  0.0000,  0.0000)
   9 Li     0.000000    0.000000   11.617037    ( 0.0000,  0.0000,  0.0000)
  10 Li     3.234074    0.000000   11.617037    ( 0.0000,  0.0000,  0.0000)
  11 Li     6.468148    0.000000   11.617037    ( 0.0000,  0.0000,  0.0000)
  12 Li     0.000000    3.234074   11.617037    ( 0.0000,  0.0000,  0.0000)
  13 Li     3.234074    3.234074   11.617037    ( 0.0000,  0.0000,  0.0000)
  14 Li     6.468148    3.234074   11.617037    ( 0.0000,  0.0000,  0.0000)
  15 Li     0.000000    6.468148   11.617037    ( 0.0000,  0.0000,  0.0000)
  16 Li     3.234074    6.468148   11.617037    ( 0.0000,  0.0000,  0.0000)
  17 Li     6.468148    6.468148   11.617037    ( 0.0000,  0.0000,  0.0000)
  18 Li     1.617050    1.617038   13.470689    ( 0.0000,  0.0000,  0.0000)
  19 Li     4.850559    1.617038   13.468782    ( 0.0000,  0.0000,  0.0000)
  20 Li     8.085499    1.617038   13.466703    ( 0.0000,  0.0000,  0.0000)
  21 Li     1.616881    4.851141   13.470247    ( 0.0000,  0.0000,  0.0000)
  22 Li     4.851445    4.850683   13.470599    ( 0.0000,  0.0000,  0.0000)
  23 Li     8.085048    4.850879   13.470475    ( 0.0000,  0.0000,  0.0000)
  24 Li     1.616880    8.085154   13.470245    ( 0.0000,  0.0000,  0.0000)
  25 Li     4.851445    8.085611   13.470598    ( 0.0000,  0.0000,  0.0000)
  26 Li     8.085049    8.085415   13.470473    ( 0.0000,  0.0000,  0.0000)
  27 Li     0.001617   -0.000864   15.444811    ( 0.0000,  0.0000,  0.0000)
  28 Li     3.233312   -0.000128   15.445621    ( 0.0000,  0.0000,  0.0000)
  29 Li     6.467593    0.000494   15.446727    ( 0.0000,  0.0000,  0.0000)
  30 Li     0.001617    3.234938   15.444810    ( 0.0000,  0.0000,  0.0000)
  31 Li     3.233315    3.234205   15.445621    ( 0.0000,  0.0000,  0.0000)
  32 Li     6.467591    3.233583   15.446726    ( 0.0000,  0.0000,  0.0000)
  33 Li    -0.000351    6.468148   15.445772    ( 0.0000,  0.0000,  0.0000)
  34 Li     3.234304    6.468146   15.445786    ( 0.0000,  0.0000,  0.0000)
  35 Li     6.468250    6.468146   15.445512    ( 0.0000,  0.0000,  0.0000)
  36 F      8.125866    1.617042   18.600603    ( 0.0000,  0.0000,  0.0000)
  37 H      9.029580    1.617037   18.457233    ( 0.0000,  0.0000,  0.0000)
  38 N      8.057066    1.616997   17.082867    ( 0.0000,  0.0000,  0.0000)
  39 N      6.957060    1.617003   17.143963    ( 0.0000,  0.0000,  0.0000)

Unit cell:
           periodic     x           y           z      points  spacing
  1. axis:    yes    9.702222    0.000000    0.000000    60     0.1617
  2. axis:    yes    0.000000    9.702222    0.000000    60     0.1617
  3. axis:    no     0.000000    0.000000   26.601111   168     0.1583

  Lengths:   9.702222   9.702222  26.601111
  Angles:   90.000000  90.000000  90.000000

Effective grid spacing dv^(1/3) = 0.1606

     iter     time        total  log10-change:
                         energy  eigst   dens
iter:   1 07:07:46  -247.958683  -0.48
iter:   2 07:08:27  -247.936691  -0.84  -1.71
iter:   3 07:09:08  -247.931314  -1.26  -1.84
iter:   4 07:09:49  -247.935363c -1.44  -2.14
Writing to output.gpw (mode='')

iter:   5 07:10:31  -247.918143c -1.45  -2.13
iter:   6 07:11:12  -247.921080c -1.74  -1.97
iter:   7 07:11:53  -247.920418c -1.85  -2.22
iter:   8 07:12:34  -247.918538c -1.95  -2.25
iter:   9 07:13:15  -247.926600c -1.86  -2.27
Writing to output.gpw (mode='')

iter:  10 07:13:59  -247.927784c -2.19  -2.10
iter:  11 07:14:40  -247.925109c -2.46  -2.15
iter:  12 07:15:21  -247.914065c -1.90  -2.21
iter:  13 07:16:02  -247.927764c -2.03  -1.98
iter:  14 07:16:43  -247.907718c -1.52  -1.92
Writing to output.gpw (mode='')

iter:  15 07:17:25  -247.905732c -1.72  -2.24
iter:  16 07:18:06  -247.904362c -2.02  -2.36
iter:  17 07:18:48  -247.904210c -2.31  -2.50
iter:  18 07:19:29  -247.903537c -2.64  -2.56
iter:  19 07:20:09  -247.903375c -2.80  -2.61
Writing to output.gpw (mode='')

iter:  20 07:20:51  -247.903177c -3.02  -2.78
iter:  21 07:21:33  -247.903406c -3.57  -2.84
iter:  22 07:22:14  -247.903363c -3.83  -2.99
iter:  23 07:22:55  -247.903664c -3.53  -2.99
iter:  24 07:23:36  -247.903510c -3.89  -3.13
Writing to output.gpw (mode='')

iter:  25 07:24:18  -247.903481c -4.05  -3.19
iter:  26 07:24:59  -247.903544c -3.99  -3.25
iter:  27 07:25:40  -247.903551c -4.38  -3.67
iter:  28 07:26:21  -247.903519c -4.56  -3.73
iter:  29 07:27:02  -247.903561c -4.61  -3.77
Writing to output.gpw (mode='')

iter:  30 07:27:44  -247.903517c -4.73  -3.79
iter:  31 07:28:25  -247.903531c -5.15  -4.00
iter:  32 07:29:06  -247.903527c -5.12  -4.07c
iter:  33 07:29:47  -247.903537c -5.28  -4.21c
iter:  34 07:30:27  -247.903537c -5.23  -4.32c
Writing to output.gpw (mode='')

iter:  35 07:31:09  -247.903534c -5.41  -4.38c
iter:  36 07:31:51  -247.903530c -5.52  -4.47c
iter:  37 07:32:32  -247.903543c -5.62  -4.39c
iter:  38 07:33:12  -247.903537c -5.85  -4.57c
iter:  39 07:33:54  -247.903538c -5.74  -4.69c
Writing to output.gpw (mode='')

iter:  40 07:34:35  -247.903541c -5.63  -4.78c
iter:  41 07:35:16  -247.903541c -5.91  -4.89c
iter:  42 07:35:58  -247.903539c -5.93  -4.92c
iter:  43 07:36:38  -247.903542c -6.00  -4.97c
iter:  44 07:37:19  -247.903541c -6.16  -5.20c
Writing to output.gpw (mode='')

iter:  45 07:38:01  -247.903541c -6.12  -5.20c
iter:  46 07:38:42  -247.903541c -6.21  -5.21c
iter:  47 07:39:24  -247.903541c -6.12  -5.18c
iter:  48 07:40:05  -247.903542c -6.27  -4.98c
iter:  49 07:40:46  -247.903542c -6.47  -4.92c
Writing to output.gpw (mode='')

iter:  50 07:41:28  -247.903541c -6.47  -4.94c
iter:  51 07:42:09  -247.903542c -6.56  -5.03c
iter:  52 07:42:51  -247.903541c -6.69  -4.97c
iter:  53 07:43:32  -247.903540c -6.56  -4.99c
iter:  54 07:44:13  -247.903540c -6.77  -4.99c
Writing to output.gpw (mode='')

iter:  55 07:44:54  -247.903541c -6.97  -4.96c
iter:  56 07:45:35  -247.903541c -6.93  -5.05c
iter:  57 07:46:17  -247.903541c -6.94  -4.99c
iter:  58 07:46:58  -247.903543c -7.15  -5.00c
iter:  59 07:47:39  -247.903543c -6.98  -5.17c
Writing to output.gpw (mode='')

iter:  60 07:48:20  -247.903543c -7.11  -5.29c
iter:  61 07:49:02  -247.903543c -7.19  -5.32c
iter:  62 07:49:43  -247.903544c -7.25  -5.40c
iter:  63 07:50:24  -247.903543c -7.42c -5.55c

Converged after 63 iterations.

Dipole moment: (-1.194242, -3.582066, 0.198927) |e|*Ang

Energy contributions relative to reference atoms: (reference = -12990.375485)

Kinetic:       +139.045399
Potential:     -120.896115
External:        +0.000000
XC:            -266.357072
Entropy (-ST):   -0.162973
Local:           +0.385731
--------------------------
Free energy:   -247.985030
Extrapolated:  -247.903543

Dipole-layer corrected work functions: 3.381527, 2.999121 eV

Showing only first 2 kpts
 Kpt  Band  Eigenvalues  Occupancy
  0    25     -3.44084    1.98675
  0    26     -3.31191    1.83842
  0    27     -3.07745    0.18941
  0    28     -2.95988    0.01973

  1    25     -3.21882    1.27752
  1    26     -3.20680    1.16326
  1    27     -3.14441    0.57063
  1    28     -3.11170    0.34374


Fermi level: -3.19032

Gap: 0.030 eV
Transition (v -> c):
  (s=0, k=2, n=26, [0.12, 0.12, 0.00]) -> (s=0, k=7, n=27, [0.38, 0.38, 0.00])
Writing to output.gpw (mode='')


Forces in eV/Ang:
  0 Li    0.01300   -0.00000   -0.26686
  1 Li   -0.02261   -0.00000   -0.27326
  2 Li    0.01117    0.00000   -0.27873
  3 Li   -0.00039   -0.00458   -0.27429
  4 Li    0.00533    0.01072   -0.27450
  5 Li   -0.00645    0.02269   -0.27214
  6 Li   -0.00039    0.00458   -0.27429
  7 Li    0.00533   -0.01072   -0.27450
  8 Li   -0.00645   -0.02269   -0.27214
  9 Li    0.01077    0.00272    0.28256
 10 Li   -0.01384    0.00254    0.24660
 11 Li    0.00050    0.00527    0.31204
 12 Li    0.01077   -0.00272    0.28256
 13 Li   -0.01384   -0.00254    0.24660
 14 Li    0.00050   -0.00526    0.31203
 15 Li   -0.01601   -0.00000    0.24962
 16 Li    0.00863   -0.00000    0.27865
 17 Li    0.00798   -0.00000    0.22743
 18 Li    0.00081   -0.00000    0.06412
 19 Li   -0.03520   -0.00000   -0.05934
 20 Li    0.01892   -0.00000   -0.20197
 21 Li   -0.00998    0.00191    0.03652
 22 Li    0.02190   -0.02739    0.05956
 23 Li   -0.00853   -0.01788    0.05445
 24 Li   -0.00999   -0.00191    0.03653
 25 Li    0.02190    0.02739    0.05956
 26 Li   -0.00853    0.01788    0.05445
 27 Li    0.11943   -0.06235   -0.08341
 28 Li   -0.05089   -0.00997   -0.02349
 29 Li   -0.05283    0.04116    0.04419
 30 Li    0.11944    0.06236   -0.08342
 31 Li   -0.05089    0.00997   -0.02348
 32 Li   -0.05282   -0.04114    0.04418
 33 Li   -0.02623   -0.00000   -0.01044
 34 Li    0.01580    0.00000   -0.01120
 35 Li    0.00862    0.00000   -0.02725
 36 F     3.52825    0.00039   14.04439
 37 H     2.53041    0.00004    1.24570
 38 N     1.54333   -0.00033   -9.64812
 39 N    -7.65357    0.00016   -5.54772

System changes: positions 

Initializing position-dependent things.

Density initialized from wave functions
       .-----------------------.  
      /|                       |  
     / |                       |  
    /  |                       |  
   /   |                       |  
  /    |                       |  
 *     |                       |  
 |     |                       |  
 |     |                       |  
 |     |                       |  
 |     |                       |  
 |     |                       |  
 |     |                       |  
 |     |                       |  
 |     Li      Li      Li      |  
 |     |              F H      |  
 |     |     Li      Li      Li|  
 |     |  Li      LN  N   Li   |  
 | Li  |   Li      Li          |  
 |     |Li      Li      Li     |  
 |     |                       |  
 |   LLi     LLi     LLi       |  
 |     |  Li      Li      Li   |  
 | Li  |   Li      Li          |  
 |     |Li      Li      Li     |  
 Li    | Li      Li            |  
 |    Li      Li      Li       |  
 |     |                       |  
 |     |                       |  
 |     |                       |  
 |     |                       |  
 |     |                       |  
 |     |                       |  
 |     .-----------------------.  
 |    /                       /   
 |   /                       /    
 |  /                       /     
 | /                       /      
 |/                       /       
 *-----------------------*        

Positions:
   0 Li     1.617037    1.617037   10.000000    ( 0.0000,  0.0000,  0.0000)
   1 Li     4.851111    1.617037   10.000000    ( 0.0000,  0.0000,  0.0000)
   2 Li     8.085185    1.617037   10.000000    ( 0.0000,  0.0000,  0.0000)
   3 Li     1.617037    4.851111   10.000000    ( 0.0000,  0.0000,  0.0000)
   4 Li     4.851111    4.851111   10.000000    ( 0.0000,  0.0000,  0.0000)
   5 Li     8.085185    4.851111   10.000000    ( 0.0000,  0.0000,  0.0000)
   6 Li     1.617037    8.085185   10.000000    ( 0.0000,  0.0000,  0.0000)
   7 Li     4.851111    8.085185   10.000000    ( 0.0000,  0.0000,  0.0000)
   8 Li     8.085185    8.085185   10.000000    ( 0.0000,  0.0000,  0.0000)
   9 Li     0.000000    0.000000   11.617037    ( 0.0000,  0.0000,  0.0000)
  10 Li     3.234074    0.000000   11.617037    ( 0.0000,  0.0000,  0.0000)
  11 Li     6.468148    0.000000   11.617037    ( 0.0000,  0.0000,  0.0000)
  12 Li     0.000000    3.234074   11.617037    ( 0.0000,  0.0000,  0.0000)
  13 Li     3.234074    3.234074   11.617037    ( 0.0000,  0.0000,  0.0000)
  14 Li     6.468148    3.234074   11.617037    ( 0.0000,  0.0000,  0.0000)
  15 Li     0.000000    6.468148   11.617037    ( 0.0000,  0.0000,  0.0000)
  16 Li     3.234074    6.468148   11.617037    ( 0.0000,  0.0000,  0.0000)
  17 Li     6.468148    6.468148   11.617037    ( 0.0000,  0.0000,  0.0000)
  18 Li     1.617025    1.617038   13.471156    ( 0.0000,  0.0000,  0.0000)
  19 Li     4.850338    1.617038   13.468558    ( 0.0000,  0.0000,  0.0000)
  20 Li     8.085667    1.617038   13.465257    ( 0.0000,  0.0000,  0.0000)
  21 Li     1.616820    4.851165   13.470511    ( 0.0000,  0.0000,  0.0000)
  22 Li     4.851618    4.850462   13.471051    ( 0.0000,  0.0000,  0.0000)
  23 Li     8.084984    4.850735   13.470894    ( 0.0000,  0.0000,  0.0000)
  24 Li     1.616820    8.085130   13.470510    ( 0.0000,  0.0000,  0.0000)
  25 Li     4.851618    8.085833   13.471050    ( 0.0000,  0.0000,  0.0000)
  26 Li     8.084984    8.085560   13.470892    ( 0.0000,  0.0000,  0.0000)
  27 Li     0.002414   -0.001354   15.444043    ( 0.0000,  0.0000,  0.0000)
  28 Li     3.233083   -0.000084   15.445421    ( 0.0000,  0.0000,  0.0000)
  29 Li     6.467214   -0.000424   15.446184    ( 0.0000,  0.0000,  0.0000)
  30 Li     0.002415    3.235428   15.444042    ( 0.0000,  0.0000,  0.0000)
  31 Li     3.233086    3.234161   15.445421    ( 0.0000,  0.0000,  0.0000)
  32 Li     6.467211    3.234501   15.446183    ( 0.0000,  0.0000,  0.0000)
  33 Li    -0.000550    6.468148   15.445698    ( 0.0000,  0.0000,  0.0000)
  34 Li     3.234392    6.468146   15.445702    ( 0.0000,  0.0000,  0.0000)
  35 Li     6.468330    6.468146   15.445304    ( 0.0000,  0.0000,  0.0000)
  36 F      8.131925    1.617042   18.640141    ( 0.0000,  0.0000,  0.0000)
  37 H      9.029145    1.617037   18.455268    ( 0.0000,  0.0000,  0.0000)
  38 N      8.052454    1.616994   17.049695    ( 0.0000,  0.0000,  0.0000)
  39 N      6.954924    1.617008   17.142158    ( 0.0000,  0.0000,  0.0000)

Unit cell:
           periodic     x           y           z      points  spacing
  1. axis:    yes    9.702222    0.000000    0.000000    60     0.1617
  2. axis:    yes    0.000000    9.702222    0.000000    60     0.1617
  3. axis:    no     0.000000    0.000000   26.601111   168     0.1583

  Lengths:   9.702222   9.702222  26.601111
  Angles:   90.000000  90.000000  90.000000

Effective grid spacing dv^(1/3) = 0.1606

     iter     time        total  log10-change:
                         energy  eigst   dens
iter:   1 07:51:25  -248.772750  -0.56
iter:   2 07:52:06  -248.774376  -1.09  -1.98
iter:   3 07:52:47  -248.775711c -1.44  -2.13
iter:   4 07:53:28  -248.808729  -1.07  -2.33
Writing to output.gpw (mode='')

iter:   5 07:54:14  -248.766625  -1.69  -2.16
iter:   6 07:54:55  -248.761847  -1.77  -2.40
iter:   7 07:55:36  -248.761471c -1.87  -2.44
iter:   8 07:56:17  -248.759520c -2.04  -2.45
iter:   9 07:56:58  -248.760521c -2.43  -2.54
Writing to output.gpw (mode='')

iter:  10 07:57:41  -248.759588c -2.61  -2.75
iter:  11 07:58:22  -248.760496c -2.32  -2.87
iter:  12 07:59:03  -248.759643c -2.71  -2.88
iter:  13 07:59:44  -248.759768c -3.05  -3.05
iter:  14 08:00:25  -248.759629c -3.23  -3.07
Writing to output.gpw (mode='')

iter:  15 08:01:07  -248.759696c -3.17  -3.15
iter:  16 08:01:48  -248.759607c -3.49  -3.28
iter:  17 08:02:29  -248.759661c -3.83  -3.45
iter:  18 08:03:10  -248.759695c -3.78  -3.53
iter:  19 08:03:52  -248.759746c -3.87  -3.57
Writing to output.gpw (mode='')

iter:  20 08:04:34  -248.759742c -4.04  -3.66
iter:  21 08:05:15  -248.759743c -4.24  -3.67
iter:  22 08:05:56  -248.759736c -4.25  -3.64
iter:  23 08:06:37  -248.759734c -4.29  -3.57
iter:  24 08:07:18  -248.759769c -4.41  -3.55
Writing to output.gpw (mode='')

iter:  25 08:08:04  -248.759787c -4.49  -3.65
iter:  26 08:08:45  -248.759796c -4.54  -3.79
iter:  27 08:09:26  -248.759804c -4.83  -3.90
iter:  28 08:10:07  -248.759831c -4.66  -4.07c
iter:  29 08:10:48  -248.759810c -4.76  -3.96
Writing to output.gpw (mode='')

iter:  30 08:11:30  -248.759832c -4.68  -4.13c
iter:  31 08:12:11  -248.759832c -5.01  -4.10c
iter:  32 08:12:52  -248.759831c -4.88  -4.13c
iter:  33 08:13:33  -248.759837c -5.05  -4.35c
iter:  34 08:14:14  -248.759841c -5.18  -4.28c
Writing to output.gpw (mode='')

iter:  35 08:14:56  -248.759840c -5.22  -4.30c
iter:  36 08:15:37  -248.759845c -5.40  -4.62c
iter:  37 08:16:18  -248.759844c -5.35  -4.62c
iter:  38 08:16:59  -248.759846c -5.56  -4.67c
iter:  39 08:17:41  -248.759844c -5.48  -4.80c
Writing to output.gpw (mode='')

iter:  40 08:18:22  -248.759845c -5.60  -4.86c
iter:  41 08:19:03  -248.759846c -5.58  -4.91c
iter:  42 08:19:45  -248.759847c -5.59  -4.98c
iter:  43 08:20:26  -248.759846c -5.90  -4.94c
iter:  44 08:21:07  -248.759847c -6.03  -4.81c
Writing to output.gpw (mode='')

iter:  45 08:21:49  -248.759849c -6.13  -4.83c
iter:  46 08:22:30  -248.759848c -6.36  -4.95c
iter:  47 08:23:11  -248.759849c -6.07  -4.84c
iter:  48 08:23:53  -248.759850c -6.43  -4.88c
iter:  49 08:24:34  -248.759851c -6.36  -4.95c
Writing to output.gpw (mode='')

iter:  50 08:25:16  -248.759850c -6.29  -4.97c
iter:  51 08:25:57  -248.759848c -6.43  -4.90c
iter:  52 08:26:38  -248.759850c -6.32  -4.96c
iter:  53 08:27:19  -248.759846c -6.56  -5.01c
iter:  54 08:28:00  -248.759852c -6.71  -4.79c
Writing to output.gpw (mode='')

iter:  55 08:28:42  -248.759854c -6.62  -5.07c
iter:  56 08:29:23  -248.759855c -6.52  -5.17c
iter:  57 08:30:04  -248.759856c -6.49  -5.24c
iter:  58 08:30:45  -248.759856c -6.76  -5.30c
iter:  59 08:31:26  -248.759856c -7.11  -5.47c
Writing to output.gpw (mode='')

iter:  60 08:32:08  -248.759856c -7.16  -5.50c
iter:  61 08:32:49  -248.759856c -6.85  -5.53c
iter:  62 08:33:30  -248.759857c -7.04  -5.57c
iter:  63 08:34:11  -248.759856c -7.16  -5.60c
iter:  64 08:34:52  -248.759856c -7.21  -5.65c
Writing to output.gpw (mode='')

iter:  65 08:35:36  -248.759857c -7.46c -5.73c

Converged after 65 iterations.

Dipole moment: (-1.371195, -3.481929, 0.149921) |e|*Ang

Energy contributions relative to reference atoms: (reference = -12990.375485)

Kinetic:       +136.226711
Potential:     -119.221922
External:        +0.000000
XC:            -266.072911
Entropy (-ST):   -0.162511
Local:           +0.389519
--------------------------
Free energy:   -248.841113
Extrapolated:  -248.759857

Dipole-layer corrected work functions: 3.385356, 3.097156 eV

Showing only first 2 kpts
 Kpt  Band  Eigenvalues  Occupancy
  0    25     -3.49131    1.98663
  0    26     -3.35994    1.82961
  0    27     -3.12570    0.18040
  0    28     -3.00846    0.01883

  1    25     -3.26656    1.24780
  1    26     -3.25835    1.16934
  1    27     -3.20087    0.61676
  1    28     -3.15836    0.32008


Fermi level: -3.24126

Gap: 0.029 eV
Transition (v -> c):
  (s=0, k=2, n=26, [0.12, 0.12, 0.00]) -> (s=0, k=7, n=27, [0.38, 0.38, 0.00])

Forces in eV/Ang:
  0 Li    0.01500   -0.00000   -0.26664
  1 Li   -0.02363   -0.00000   -0.27309
  2 Li    0.01104    0.00000   -0.27805
  3 Li   -0.00077   -0.00429   -0.27532
  4 Li    0.00413    0.00983   -0.27474
  5 Li   -0.00608    0.02347   -0.27194
  6 Li   -0.00076    0.00429   -0.27532
  7 Li    0.00412   -0.00983   -0.27474
  8 Li   -0.00608   -0.02347   -0.27194
  9 Li    0.01062    0.00232    0.28127
 10 Li   -0.01487    0.00267    0.24478
 11 Li    0.00006    0.00548    0.31235
 12 Li    0.01062   -0.00232    0.28126
 13 Li   -0.01487   -0.00267    0.24478
 14 Li    0.00006   -0.00548    0.31234
 15 Li   -0.01600   -0.00000    0.24947
 16 Li    0.00968   -0.00000    0.27724
 17 Li    0.00903   -0.00000    0.22816
 18 Li    0.00042   -0.00000    0.06097
 19 Li   -0.03308   -0.00000   -0.04968
 20 Li    0.01813   -0.00000   -0.19385
 21 Li   -0.00900    0.00154    0.03694
 22 Li    0.02207   -0.02647    0.05861
 23 Li   -0.00791   -0.01776    0.05397
 24 Li   -0.00900   -0.00153    0.03695
 25 Li    0.02207    0.02647    0.05861
 26 Li   -0.00791    0.01776    0.05397
 27 Li    0.11100   -0.05755   -0.08118
 28 Li   -0.04302   -0.00646   -0.02479
 29 Li   -0.04887    0.01607    0.02904
 30 Li    0.11101    0.05757   -0.08119
 31 Li   -0.04303    0.00645   -0.02478
 32 Li   -0.04886   -0.01607    0.02903
 33 Li   -0.02589    0.00000   -0.01100
 34 Li    0.01392    0.00000   -0.01179
 35 Li    0.00875    0.00000   -0.02794
 36 F     3.06766    0.00033   12.34837
 37 H     2.07007    0.00004    1.00374
 38 N     1.50415   -0.00030   -8.50818
 39 N    -6.65487    0.00025   -4.68185

System changes: positions 

Initializing position-dependent things.

Density initialized from wave functions
       .-----------------------.  
      /|                       |  
     / |                       |  
    /  |                       |  
   /   |                       |  
  /    |                       |  
 *     |                       |  
 |     |                       |  
 |     |                       |  
 |     |                       |  
 |     |                       |  
 |     |                       |  
 |     |                       |  
 |     |                       |  
 |     Li      Li      Li      |  
 |     |              F H      |  
 |     |     Li      Li      Li|  
 |     |  Li      LN  N   Li   |  
 | Li  |   Li      Li          |  
 |     |Li      Li      Li     |  
 |     |                       |  
 |   LLi     LLi     LLi       |  
 |     |  Li      Li      Li   |  
 | Li  |   Li      Li          |  
 |     |Li      Li      Li     |  
 Li    | Li      Li            |  
 |    Li      Li      Li       |  
 |     |                       |  
 |     |                       |  
 |     |                       |  
 |     |                       |  
 |     |                       |  
 |     |                       |  
 |     .-----------------------.  
 |    /                       /   
 |   /                       /    
 |  /                       /     
 | /                       /      
 |/                       /       
 *-----------------------*        

Positions:
   0 Li     1.617037    1.617037   10.000000    ( 0.0000,  0.0000,  0.0000)
   1 Li     4.851111    1.617037   10.000000    ( 0.0000,  0.0000,  0.0000)
   2 Li     8.085185    1.617037   10.000000    ( 0.0000,  0.0000,  0.0000)
   3 Li     1.617037    4.851111   10.000000    ( 0.0000,  0.0000,  0.0000)
   4 Li     4.851111    4.851111   10.000000    ( 0.0000,  0.0000,  0.0000)
   5 Li     8.085185    4.851111   10.000000    ( 0.0000,  0.0000,  0.0000)
   6 Li     1.617037    8.085185   10.000000    ( 0.0000,  0.0000,  0.0000)
   7 Li     4.851111    8.085185   10.000000    ( 0.0000,  0.0000,  0.0000)
   8 Li     8.085185    8.085185   10.000000    ( 0.0000,  0.0000,  0.0000)
   9 Li     0.000000    0.000000   11.617037    ( 0.0000,  0.0000,  0.0000)
  10 Li     3.234074    0.000000   11.617037    ( 0.0000,  0.0000,  0.0000)
  11 Li     6.468148    0.000000   11.617037    ( 0.0000,  0.0000,  0.0000)
  12 Li     0.000000    3.234074   11.617037    ( 0.0000,  0.0000,  0.0000)
  13 Li     3.234074    3.234074   11.617037    ( 0.0000,  0.0000,  0.0000)
  14 Li     6.468148    3.234074   11.617037    ( 0.0000,  0.0000,  0.0000)
  15 Li     0.000000    6.468148   11.617037    ( 0.0000,  0.0000,  0.0000)
  16 Li     3.234074    6.468148   11.617037    ( 0.0000,  0.0000,  0.0000)
  17 Li     6.468148    6.468148   11.617037    ( 0.0000,  0.0000,  0.0000)
  18 Li     1.616998    1.617038   13.471682    ( 0.0000,  0.0000,  0.0000)
  19 Li     4.850087    1.617038   13.468372    ( 0.0000,  0.0000,  0.0000)
  20 Li     8.085853    1.617038   13.463595    ( 0.0000,  0.0000,  0.0000)
  21 Li     1.616757    4.851186   13.470844    ( 0.0000,  0.0000,  0.0000)
  22 Li     4.851830    4.850210   13.471588    ( 0.0000,  0.0000,  0.0000)
  23 Li     8.084915    4.850563   13.471395    ( 0.0000,  0.0000,  0.0000)
  24 Li     1.616757    8.085109   13.470843    ( 0.0000,  0.0000,  0.0000)
  25 Li     4.851830    8.086085   13.471587    ( 0.0000,  0.0000,  0.0000)
  26 Li     8.084916    8.085731   13.471393    ( 0.0000,  0.0000,  0.0000)
  27 Li     0.003281   -0.001869   15.443184    ( 0.0000,  0.0000,  0.0000)
  28 Li     3.232884   -0.000009   15.445163    ( 0.0000,  0.0000,  0.0000)
  29 Li     6.466812   -0.001589   15.445542    ( 0.0000,  0.0000,  0.0000)
  30 Li     0.003281    3.235943   15.443183    ( 0.0000,  0.0000,  0.0000)
  31 Li     3.232886    3.234086   15.445162    ( 0.0000,  0.0000,  0.0000)
  32 Li     6.466810    3.235665   15.445541    ( 0.0000,  0.0000,  0.0000)
  33 Li    -0.000787    6.468148   15.445597    ( 0.0000,  0.0000,  0.0000)
  34 Li     3.234479    6.468146   15.445590    ( 0.0000,  0.0000,  0.0000)
  35 Li     6.468425    6.468146   15.445037    ( 0.0000,  0.0000,  0.0000)
  36 F      8.137625    1.617043   18.679733    ( 0.0000,  0.0000,  0.0000)
  37 H      9.026742    1.617037   18.452187    ( 0.0000,  0.0000,  0.0000)
  38 N      8.049756    1.616992   17.016345    ( 0.0000,  0.0000,  0.0000)
  39 N      6.953779    1.617015   17.142675    ( 0.0000,  0.0000,  0.0000)

Unit cell:
           periodic     x           y           z      points  spacing
  1. axis:    yes    9.702222    0.000000    0.000000    60     0.1617
  2. axis:    yes    0.000000    9.702222    0.000000    60     0.1617
  3. axis:    no     0.000000    0.000000   26.601111   168     0.1583

  Lengths:   9.702222   9.702222  26.601111
  Angles:   90.000000  90.000000  90.000000

Effective grid spacing dv^(1/3) = 0.1606

     iter     time        total  log10-change:
                         energy  eigst   dens
iter:   1 08:36:32  -249.493442  -0.66
iter:   2 08:37:13  -249.497812  -1.25  -2.14
iter:   3 08:37:54  -249.500218c -1.61  -2.32
iter:   4 08:38:35  -249.514059c -1.38  -2.39
Writing to output.gpw (mode='')

iter:   5 08:39:17  -249.493845c -1.89  -2.27
iter:   6 08:39:59  -249.490803c -1.92  -2.51
iter:   7 08:40:40  -249.490239c -2.16  -2.53
iter:   8 08:41:21  -249.490802c -2.60  -2.64
iter:   9 08:42:02  -249.491688c -2.65  -2.73
Writing to output.gpw (mode='')

iter:  10 08:42:45  -249.491558c -3.15  -2.90
iter:  11 08:43:26  -249.491655c -3.13  -2.98
iter:  12 08:44:08  -249.491533c -3.08  -3.05
iter:  13 08:44:49  -249.491588c -3.37  -3.07
iter:  14 08:45:31  -249.491533c -3.76  -3.29
Writing to output.gpw (mode='')

iter:  15 08:46:17  -249.491481c -3.59  -3.39
iter:  16 08:46:58  -249.491508c -3.91  -3.52
iter:  17 08:47:39  -249.491545c -3.81  -3.53
iter:  18 08:48:21  -249.491582c -4.01  -3.60
iter:  19 08:49:02  -249.491590c -4.05  -3.69
Writing to output.gpw (mode='')

iter:  20 08:49:44  -249.491647c -4.13  -3.74
iter:  21 08:50:25  -249.491634c -4.28  -3.75
iter:  22 08:51:07  -249.491635c -4.28  -3.76
iter:  23 08:51:48  -249.491646c -4.55  -3.87
iter:  24 08:52:29  -249.491662c -4.54  -3.99
Writing to output.gpw (mode='')

iter:  25 08:53:11  -249.491646c -4.80  -4.14c
iter:  26 08:53:53  -249.491659c -4.77  -4.24c
iter:  27 08:54:34  -249.491660c -4.85  -4.28c
iter:  28 08:55:15  -249.491662c -4.86  -4.24c
iter:  29 08:55:57  -249.491661c -4.89  -4.26c
Writing to output.gpw (mode='')

iter:  30 08:56:39  -249.491660c -5.05  -4.17c
iter:  31 08:57:20  -249.491659c -4.93  -4.16c
iter:  32 08:58:02  -249.491681c -5.16  -4.18c
iter:  33 08:58:43  -249.491677c -5.35  -4.11c
iter:  34 08:59:25  -249.491679c -5.20  -4.20c
Writing to output.gpw (mode='')

iter:  35 09:00:07  -249.491678c -5.32  -4.04c
iter:  36 09:00:48  -249.491681c -5.65  -4.29c
iter:  37 09:01:30  -249.491676c -5.56  -4.29c
iter:  38 09:02:11  -249.491707c -5.74  -4.26c
iter:  39 09:02:53  -249.491692c -5.61  -4.34c
Writing to output.gpw (mode='')

iter:  40 09:03:35  -249.491695c -5.65  -4.46c
iter:  41 09:04:17  -249.491697c -5.90  -4.47c
iter:  42 09:04:58  -249.491698c -5.84  -4.52c
iter:  43 09:05:39  -249.491696c -5.75  -4.56c
iter:  44 09:06:21  -249.491699c -6.19  -4.89c
Writing to output.gpw (mode='')

iter:  45 09:07:03  -249.491698c -6.07  -4.97c
iter:  46 09:07:45  -249.491700c -5.95  -5.06c
iter:  47 09:08:26  -249.491700c -6.24  -5.11c
iter:  48 09:09:08  -249.491699c -6.12  -5.13c
iter:  49 09:09:49  -249.491702c -6.47  -5.06c
Writing to output.gpw (mode='')

iter:  50 09:10:31  -249.491701c -6.31  -5.29c
iter:  51 09:11:13  -249.491701c -6.68  -5.31c
iter:  52 09:11:54  -249.491702c -6.52  -5.32c
iter:  53 09:12:35  -249.491702c -6.47  -5.35c
iter:  54 09:13:17  -249.491702c -6.78  -5.30c
Writing to output.gpw (mode='')

iter:  55 09:13:59  -249.491702c -6.94  -5.27c
iter:  56 09:14:41  -249.491702c -6.96  -5.24c
iter:  57 09:15:22  -249.491702c -6.76  -5.23c
iter:  58 09:16:04  -249.491702c -6.84  -5.21c
iter:  59 09:16:45  -249.491702c -6.68  -5.22c
Writing to output.gpw (mode='')

iter:  60 09:17:27  -249.491701c -6.93  -5.14c
iter:  61 09:18:09  -249.491703c -7.05  -5.08c
iter:  62 09:18:50  -249.491702c -7.34  -5.14c
iter:  63 09:19:31  -249.491703c -7.23  -5.15c
iter:  64 09:20:12  -249.491705c -7.25  -5.18c
Writing to output.gpw (mode='')

iter:  65 09:20:54  -249.491705c -7.24  -4.98c
iter:  66 09:21:36  -249.491705c -7.39  -4.96c
iter:  67 09:22:17  -249.491703c -7.36  -4.93c
iter:  68 09:22:59  -249.491702c -7.46c -5.16c

Converged after 68 iterations.

Dipole moment: (-1.539557, -3.371465, 0.098556) |e|*Ang

Energy contributions relative to reference atoms: (reference = -12990.375485)

Kinetic:       +133.264718
Potential:     -117.301319
External:        +0.000000
XC:            -265.769527
Entropy (-ST):   -0.161927
Local:           +0.395389
--------------------------
Free energy:   -249.572666
Extrapolated:  -249.491702

Dipole-layer corrected work functions: 3.388991, 3.199533 eV

Showing only first 2 kpts
 Kpt  Band  Eigenvalues  Occupancy
  0    25     -3.54371    1.98647
  0    26     -3.40945    1.81837
  0    27     -3.17585    0.17126
  0    28     -3.05932    0.01805

  1    25     -3.31809    1.23386
  1    26     -3.31025    1.15856
  1    27     -3.25925    0.66349
  1    28     -3.20625    0.29354


Fermi level: -3.29426

Gap: 0.026 eV
Transition (v -> c):
  (s=0, k=1, n=26, [0.12, -0.12, 0.00]) -> (s=0, k=7, n=27, [0.38, 0.38, 0.00])
Writing to output.gpw (mode='')


Forces in eV/Ang:
  0 Li    0.01685   -0.00000   -0.26623
  1 Li   -0.02429   -0.00000   -0.27294
  2 Li    0.01057    0.00000   -0.27730
  3 Li   -0.00121   -0.00377   -0.27638
  4 Li    0.00281    0.00897   -0.27503
  5 Li   -0.00574    0.02411   -0.27182
  6 Li   -0.00121    0.00377   -0.27638
  7 Li    0.00281   -0.00897   -0.27503
  8 Li   -0.00574   -0.02411   -0.27182
  9 Li    0.01039    0.00195    0.28042
 10 Li   -0.01577    0.00274    0.24319
 11 Li   -0.00050    0.00565    0.31277
 12 Li    0.01039   -0.00195    0.28042
 13 Li   -0.01577   -0.00274    0.24319
 14 Li   -0.00050   -0.00565    0.31276
 15 Li   -0.01588   -0.00000    0.24933
 16 Li    0.01085   -0.00000    0.27601
 17 Li    0.01026   -0.00000    0.22880
 18 Li    0.00057   -0.00000    0.05659
 19 Li   -0.03127   -0.00000   -0.04087
 20 Li    0.01726   -0.00000   -0.18425
 21 Li   -0.00796    0.00071    0.03737
 22 Li    0.02232   -0.02506    0.05703
 23 Li   -0.00716   -0.01731    0.05275
 24 Li   -0.00796   -0.00071    0.03738
 25 Li    0.02232    0.02506    0.05703
 26 Li   -0.00717    0.01731    0.05276
 27 Li    0.09987   -0.04963   -0.07573
 28 Li   -0.03526   -0.00316   -0.02546
 29 Li   -0.04215    0.00325    0.02230
 30 Li    0.09988    0.04965   -0.07574
 31 Li   -0.03526    0.00315   -0.02545
 32 Li   -0.04215   -0.00325    0.02230
 33 Li   -0.02524    0.00000   -0.01158
 34 Li    0.01178    0.00000   -0.01232
 35 Li    0.00863    0.00000   -0.02881
 36 F     2.67294    0.00028   10.66693
 37 H     1.66618    0.00003    0.79973
 38 N     1.28280    0.00001   -7.45590
 39 N    -5.70051    0.00026   -3.92292

System changes: positions 

Initializing position-dependent things.

Density initialized from wave functions
       .-----------------------.  
      /|                       |  
     / |                       |  
    /  |                       |  
   /   |                       |  
  /    |                       |  
 *     |                       |  
 |     |                       |  
 |     |                       |  
 |     |                       |  
 |     |                       |  
 |     |                       |  
 |     |                       |  
 |     |                       |  
 |     Li              Li      |  
 |     |              F H      |  
 |     |     Li      Li      Li|  
 |     |  Li      LN  N   Li   |  
 | Li  |   Li      Li          |  
 |     |Li      Li      Li     |  
 |     | Li                    |  
 |   LLi     LLi     LLi       |  
 |     |  Li      Li      Li   |  
 | Li  |   Li      Li          |  
 |     |Li      Li      Li     |  
 Li    | Li      Li            |  
 |    Li      Li      Li       |  
 |     |                       |  
 |     |                       |  
 |     |                       |  
 |     |                       |  
 |     |                       |  
 |     |                       |  
 |     .-----------------------.  
 |    /                       /   
 |   /                       /    
 |  /                       /     
 | /                       /      
 |/                       /       
 *-----------------------*        

Positions:
   0 Li     1.617037    1.617037   10.000000    ( 0.0000,  0.0000,  0.0000)
   1 Li     4.851111    1.617037   10.000000    ( 0.0000,  0.0000,  0.0000)
   2 Li     8.085185    1.617037   10.000000    ( 0.0000,  0.0000,  0.0000)
   3 Li     1.617037    4.851111   10.000000    ( 0.0000,  0.0000,  0.0000)
   4 Li     4.851111    4.851111   10.000000    ( 0.0000,  0.0000,  0.0000)
   5 Li     8.085185    4.851111   10.000000    ( 0.0000,  0.0000,  0.0000)
   6 Li     1.617037    8.085185   10.000000    ( 0.0000,  0.0000,  0.0000)
   7 Li     4.851111    8.085185   10.000000    ( 0.0000,  0.0000,  0.0000)
   8 Li     8.085185    8.085185   10.000000    ( 0.0000,  0.0000,  0.0000)
   9 Li     0.000000    0.000000   11.617037    ( 0.0000,  0.0000,  0.0000)
  10 Li     3.234074    0.000000   11.617037    ( 0.0000,  0.0000,  0.0000)
  11 Li     6.468148    0.000000   11.617037    ( 0.0000,  0.0000,  0.0000)
  12 Li     0.000000    3.234074   11.617037    ( 0.0000,  0.0000,  0.0000)
  13 Li     3.234074    3.234074   11.617037    ( 0.0000,  0.0000,  0.0000)
  14 Li     6.468148    3.234074   11.617037    ( 0.0000,  0.0000,  0.0000)
  15 Li     0.000000    6.468148   11.617037    ( 0.0000,  0.0000,  0.0000)
  16 Li     3.234074    6.468148   11.617037    ( 0.0000,  0.0000,  0.0000)
  17 Li     6.468148    6.468148   11.617037    ( 0.0000,  0.0000,  0.0000)
  18 Li     1.616974    1.617038   13.472265    ( 0.0000,  0.0000,  0.0000)
  19 Li     4.849797    1.617038   13.468221    ( 0.0000,  0.0000,  0.0000)
  20 Li     8.086062    1.617038   13.461684    ( 0.0000,  0.0000,  0.0000)
  21 Li     1.616692    4.851196   13.471262    ( 0.0000,  0.0000,  0.0000)
  22 Li     4.852093    4.849926   13.472221    ( 0.0000,  0.0000,  0.0000)
  23 Li     8.084842    4.850363   13.471988    ( 0.0000,  0.0000,  0.0000)
  24 Li     1.616692    8.085099   13.471261    ( 0.0000,  0.0000,  0.0000)
  25 Li     4.852093    8.086369   13.472220    ( 0.0000,  0.0000,  0.0000)
  26 Li     8.084843    8.085932   13.471987    ( 0.0000,  0.0000,  0.0000)
  27 Li     0.004200   -0.002374   15.442247    ( 0.0000,  0.0000,  0.0000)
  28 Li     3.232718    0.000103   15.444842    ( 0.0000,  0.0000,  0.0000)
  29 Li     6.466418   -0.002901   15.444870    ( 0.0000,  0.0000,  0.0000)
  30 Li     0.004200    3.236449   15.442246    ( 0.0000,  0.0000,  0.0000)
  31 Li     3.232720    3.233973   15.444841    ( 0.0000,  0.0000,  0.0000)
  32 Li     6.466415    3.236978   15.444870    ( 0.0000,  0.0000,  0.0000)
  33 Li    -0.001068    6.468148   15.445463    ( 0.0000,  0.0000,  0.0000)
  34 Li     3.234560    6.468146   15.445445    ( 0.0000,  0.0000,  0.0000)
  35 Li     6.468536    6.468146   15.444699    ( 0.0000,  0.0000,  0.0000)
  36 F      8.143744    1.617043   18.719262    ( 0.0000,  0.0000,  0.0000)
  37 H      9.022582    1.617037   18.448137    ( 0.0000,  0.0000,  0.0000)
  38 N      8.046992    1.616994   16.981443    ( 0.0000,  0.0000,  0.0000)
  39 N      6.952962    1.617022   17.144859    ( 0.0000,  0.0000,  0.0000)

Unit cell:
           periodic     x           y           z      points  spacing
  1. axis:    yes    9.702222    0.000000    0.000000    60     0.1617
  2. axis:    yes    0.000000    9.702222    0.000000    60     0.1617
  3. axis:    no     0.000000    0.000000   26.601111   168     0.1583

  Lengths:   9.702222   9.702222  26.601111
  Angles:   90.000000  90.000000  90.000000

Effective grid spacing dv^(1/3) = 0.1606

     iter     time        total  log10-change:
                         energy  eigst   dens
[...]
iter:   1 03:24:47  -256.682442  -2.10
iter:   2 03:25:28  -256.680287  -2.66  -2.27
iter:   3 03:26:09  -256.679785c -3.30  -2.52
iter:   4 03:26:50  -256.679485c -3.27  -2.73
Writing to output.gpw (mode='')

iter:   5 03:27:32  -256.679505c -3.92  -3.13
iter:   6 03:28:14  -256.679498c -3.86  -3.08
iter:   7 03:28:55  -256.679528c -3.34  -3.21
iter:   8 03:29:36  -256.679480c -4.28  -3.37
iter:   9 03:30:18  -256.679478c -4.35  -3.59
Writing to output.gpw (mode='')

iter:  10 03:31:00  -256.679480c -4.56  -3.66
iter:  11 03:31:41  -256.679476c -4.94  -3.81
iter:  12 03:32:22  -256.679479c -5.19  -3.88
iter:  13 03:33:04  -256.679486c -5.14  -4.07c
iter:  14 03:33:45  -256.679485c -5.62  -4.12c
Writing to output.gpw (mode='')

iter:  15 03:34:27  -256.679487c -5.70  -4.20c
iter:  16 03:35:08  -256.679483c -5.83  -4.19c
iter:  17 03:35:50  -256.679483c -6.28  -4.42c
iter:  18 03:36:31  -256.679482c -6.24  -4.49c
iter:  19 03:37:13  -256.679482c -6.25  -4.57c
Writing to output.gpw (mode='')

iter:  20 03:37:55  -256.679482c -6.48  -4.59c
iter:  21 03:38:36  -256.679483c -6.72  -4.79c
iter:  22 03:39:18  -256.679483c -6.84  -4.85c
iter:  23 03:39:59  -256.679483c -6.79  -5.01c
iter:  24 03:40:40  -256.679483c -7.06  -5.13c
Writing to output.gpw (mode='')

iter:  25 03:41:22  -256.679483c -7.34  -5.16c
iter:  26 03:42:04  -256.679483c -7.36  -5.25c
iter:  27 03:42:45  -256.679483c -7.31  -5.38c
iter:  28 03:43:27  -256.679483c -7.66c -5.45c

Converged after 28 iterations.

Dipole moment: (-3.391386, -5.043611, 0.023108) |e|*Ang

Energy contributions relative to reference atoms: (reference = -12990.375485)

Kinetic:       +106.440971
Potential:      -94.864122
External:        +0.000000
XC:            -268.645978
Entropy (-ST):   -0.166352
Local:           +0.472822
--------------------------
Free energy:   -256.762659
Extrapolated:  -256.679483

Dipole-layer corrected work functions: 3.413399, 3.368978 eV

Showing only first 2 kpts
 Kpt  Band  Eigenvalues  Occupancy
  0    25     -3.55978    1.93362
  0    26     -3.47813    1.70107
  0    27     -3.35938    0.69221
  0    28     -3.24810    0.10816

  1    25     -3.62277    1.98071
  1    26     -3.47438    1.68150
  1    27     -3.29256    0.24424
  1    28     -3.21502    0.05731


Fermi level: -3.39119

No gap
Writing to output.gpw (mode='')


Forces in eV/Ang:
  0 Li   -0.01130   -0.00630   -0.28381
  1 Li   -0.01584   -0.00038   -0.25535
  2 Li    0.00781    0.00283   -0.29636
  3 Li    0.00321   -0.00575   -0.27673
  4 Li   -0.00575    0.00447   -0.29724
  5 Li    0.01799    0.00002   -0.30152
  6 Li   -0.00130   -0.01479   -0.29305
  7 Li    0.00349   -0.01322   -0.27502
  8 Li    0.00469   -0.00693   -0.27529
  9 Li    0.00462    0.10766    0.27849
 10 Li   -0.02169   -0.00748    0.23105
 11 Li    0.13082    0.05516    0.29123
 12 Li    0.02857   -0.01364    0.31215
 13 Li   -0.01973    0.09102    0.15051
 14 Li    0.06510    0.01739    0.39681
 15 Li   -0.00282    0.04855    0.32315
 16 Li   -0.03052    0.03275    0.37812
 17 Li   -0.03930   -0.08869    0.38077
 18 Li   -0.00724   -0.01780    0.00145
 19 Li    0.02388    0.00160   -0.00255
 20 Li   -0.02699   -0.00454   -0.16890
 21 Li    0.02174   -0.01278   -0.02416
 22 Li    0.01271   -0.00536    0.01474
 23 Li   -0.02250   -0.00464    0.00426
 24 Li    0.01014   -0.00874   -0.00139
 25 Li    0.01718    0.01040    0.04655
 26 Li   -0.02835    0.00437    0.03015
 27 Li   -0.00535   -0.06357   -0.02203
 28 Li   -0.02460   -0.00523    0.01709
 29 Li   -0.06037   -0.05924    0.01387
 30 Li    0.04846    0.04145   -0.00423
 31 Li   -0.02943   -0.00699   -0.01225
 32 Li   -0.04841    0.09604    0.01393
 33 Li    0.00824   -0.01776   -0.02600
 34 Li    0.00113   -0.02063   -0.02134
 35 Li    0.01663    0.01897    0.02540
 36 F     0.14413   -0.17303   -0.12448
 37 H    -0.04770   -0.01194   -0.04153
 38 N    -0.07857   -0.01594    0.11208
 39 N    -0.02863    0.03290    0.05862

System changes: positions 

Initializing position-dependent things.

Density initialized from wave functions
       .-----------------------.  
      /|                       |  
     / |                       |  
    /  |                       |  
   /   |                       |  
  /    |                       |  
 *     |                       |  
 |     |                       |  
 |     |                       |  
 |     |                       |  
 |     |                       |  
 |     |                       |  
 |     |                       |  
 |     |                       |  
 |     |                       |  
 |     |                     Li|  
 |   F | Li  Li      LH  Li    |  
 |     |  Li      LiN     Li   |  
 | Li  |           Li N        |  
 |     |Li     Li  Li   Li     |  
 |     |  Li                   |  
 |   LiLi    LLi     LiLi      |  
 |     |  Li      Li      Li   |  
 | Li  |   Li      Li          |  
 |     |Li      Li      Li     |  
 Li    | Li      Li            |  
 |    Li      Li      Li       |  
 |     |                       |  
 |     |                       |  
 |     |                       |  
 |     |                       |  
 |     |                       |  
 |     |                       |  
 |     .-----------------------.  
 |    /                       /   
 |   /                       /    
 |  /                       /     
 | /                       /      
 |/                       /       
 *-----------------------*        

Positions:
   0 Li     1.617037    1.617037   10.000000    ( 0.0000,  0.0000,  0.0000)
   1 Li     4.851111    1.617037   10.000000    ( 0.0000,  0.0000,  0.0000)
   2 Li     8.085185    1.617037   10.000000    ( 0.0000,  0.0000,  0.0000)
   3 Li     1.617037    4.851111   10.000000    ( 0.0000,  0.0000,  0.0000)
   4 Li     4.851111    4.851111   10.000000    ( 0.0000,  0.0000,  0.0000)
   5 Li     8.085185    4.851111   10.000000    ( 0.0000,  0.0000,  0.0000)
   6 Li     1.617037    8.085185   10.000000    ( 0.0000,  0.0000,  0.0000)
   7 Li     4.851111    8.085185   10.000000    ( 0.0000,  0.0000,  0.0000)
   8 Li     8.085185    8.085185   10.000000    ( 0.0000,  0.0000,  0.0000)
   9 Li     0.000000    0.000000   11.617037    ( 0.0000,  0.0000,  0.0000)
  10 Li     3.234074    0.000000   11.617037    ( 0.0000,  0.0000,  0.0000)
  11 Li     6.468148    0.000000   11.617037    ( 0.0000,  0.0000,  0.0000)
  12 Li     0.000000    3.234074   11.617037    ( 0.0000,  0.0000,  0.0000)
  13 Li     3.234074    3.234074   11.617037    ( 0.0000,  0.0000,  0.0000)
  14 Li     6.468148    3.234074   11.617037    ( 0.0000,  0.0000,  0.0000)
  15 Li     0.000000    6.468148   11.617037    ( 0.0000,  0.0000,  0.0000)
  16 Li     3.234074    6.468148   11.617037    ( 0.0000,  0.0000,  0.0000)
  17 Li     6.468148    6.468148   11.617037    ( 0.0000,  0.0000,  0.0000)
  18 Li     1.861238    1.781590   13.548129    ( 0.0000,  0.0000,  0.0000)
  19 Li     4.863450    1.572639   13.369398    ( 0.0000,  0.0000,  0.0000)
  20 Li     8.451341    1.653497   13.926424    ( 0.0000,  0.0000,  0.0000)
  21 Li     1.509166    5.004896   13.645439    ( 0.0000,  0.0000,  0.0000)
  22 Li     4.638925    4.710168   13.691136    ( 0.0000,  0.0000,  0.0000)
  23 Li     8.094247    4.841214   13.634102    ( 0.0000,  0.0000,  0.0000)
  24 Li     1.616616    8.343581   13.638222    ( 0.0000,  0.0000,  0.0000)
  25 Li     4.886630    8.138624   13.478478    ( 0.0000,  0.0000,  0.0000)
  26 Li     8.097066    8.110278   13.499892    ( 0.0000,  0.0000,  0.0000)
  27 Li     0.410760    1.520996   16.314418    ( 0.0000,  0.0000,  0.0000)
  28 Li     3.626833    0.099487   15.530957    ( 0.0000,  0.0000,  0.0000)
  29 Li     7.064668    0.192509   15.829765    ( 0.0000,  0.0000,  0.0000)
  30 Li    -0.957378    3.524532   16.561689    ( 0.0000,  0.0000,  0.0000)
  31 Li     2.116527    3.874210   16.428111    ( 0.0000,  0.0000,  0.0000)
  32 Li     6.387301    2.764775   15.580915    ( 0.0000,  0.0000,  0.0000)
  33 Li    -0.013453    6.784386   15.616670    ( 0.0000,  0.0000,  0.0000)
  34 Li     3.226330    6.716569   15.493533    ( 0.0000,  0.0000,  0.0000)
  35 Li     6.397648    6.491032   15.434029    ( 0.0000,  0.0000,  0.0000)
  36 F     10.431037    3.121387   17.251590    ( 0.0000,  0.0000,  0.0000)
  37 H      7.902529    1.710281   17.762636    ( 0.0000,  0.0000,  0.0000)
  38 N      8.238933    1.746909   15.727987    ( 0.0000,  0.0000,  0.0000)
  39 N      7.400913    1.888570   16.883733    ( 0.0000,  0.0000,  0.0000)

Unit cell:
           periodic     x           y           z      points  spacing
  1. axis:    yes    9.702222    0.000000    0.000000    60     0.1617
  2. axis:    yes    0.000000    9.702222    0.000000    60     0.1617
  3. axis:    no     0.000000    0.000000   26.601111   168     0.1583

  Lengths:   9.702222   9.702222  26.601111
  Angles:   90.000000  90.000000  90.000000

Effective grid spacing dv^(1/3) = 0.1606

     iter     time        total  log10-change:
                         energy  eigst   dens
iter:   1 03:44:23  -256.689366  -1.45
iter:   2 03:45:04  -256.683238  -2.06  -2.04
iter:   3 03:45:46  -256.681807c -2.62  -2.28
iter:   4 03:46:27  -256.680624c -2.74  -2.45
Writing to output.gpw (mode='')

iter:   5 03:47:09  -256.680791c -3.15  -2.78
iter:   6 03:47:51  -256.680666c -2.96  -2.75
iter:   7 03:48:32  -256.680640c -2.89  -2.97
iter:   8 03:49:13  -256.680618c -3.46  -3.16
iter:   9 03:49:55  -256.680633c -3.56  -3.25
Writing to output.gpw (mode='')

iter:  10 03:50:40  -256.680601c -4.00  -3.35
iter:  11 03:51:21  -256.680609c -4.39  -3.45
iter:  12 03:52:03  -256.680621c -4.58  -3.48
iter:  13 03:52:44  -256.680635c -4.52  -3.68
iter:  14 03:53:26  -256.680623c -5.05  -3.75
Writing to output.gpw (mode='')

iter:  15 03:54:08  -256.680623c -5.14  -3.81
iter:  16 03:54:50  -256.680635c -5.07  -3.85
iter:  17 03:55:31  -256.680633c -5.63  -4.00
iter:  18 03:56:12  -256.680633c -5.36  -4.07c
iter:  19 03:56:54  -256.680635c -5.67  -4.28c
Writing to output.gpw (mode='')

iter:  20 03:57:36  -256.680635c -5.78  -4.34c
iter:  21 03:58:18  -256.680635c -6.12  -4.39c
iter:  22 03:58:59  -256.680632c -6.22  -4.48c
iter:  23 03:59:40  -256.680633c -6.43  -4.71c
iter:  24 04:00:22  -256.680633c -6.49  -4.74c
Writing to output.gpw (mode='')

iter:  25 04:01:04  -256.680632c -6.53  -4.79c
iter:  26 04:01:46  -256.680632c -6.79  -4.97c
iter:  27 04:02:27  -256.680633c -6.68  -5.07c
iter:  28 04:03:09  -256.680633c -6.92  -5.12c
iter:  29 04:03:50  -256.680633c -7.05  -5.17c
Writing to output.gpw (mode='')

iter:  30 04:04:33  -256.680633c -7.19  -5.28c
iter:  31 04:05:14  -256.680633c -7.24  -5.41c
iter:  32 04:05:55  -256.680633c -7.40c -5.50c

Converged after 32 iterations.

Dipole moment: (-3.363672, -5.099768, 0.020615) |e|*Ang

Energy contributions relative to reference atoms: (reference = -12990.375485)

Kinetic:       +106.432763
Potential:      -94.856719
External:        +0.000000
XC:            -268.645386
Entropy (-ST):   -0.166226
Local:           +0.471823
--------------------------
Free energy:   -256.763746
Extrapolated:  -256.680633

Dipole-layer corrected work functions: 3.413930, 3.374301 eV

Showing only first 2 kpts
 Kpt  Band  Eigenvalues  Occupancy
  0    25     -3.56376    1.93497
  0    26     -3.48171    1.70439
  0    27     -3.36250    0.69401
  0    28     -3.25052    0.10712

  1    25     -3.62622    1.98091
  1    26     -3.47777    1.68396
  1    27     -3.29484    0.24147
  1    28     -3.21738    0.05668


Fermi level: -3.39412

No gap
Writing to output.gpw (mode='')


Forces in eV/Ang:
  0 Li   -0.01156   -0.00677   -0.28327
  1 Li   -0.01572   -0.00123   -0.25569
  2 Li    0.00791    0.00267   -0.29572
  3 Li    0.00358   -0.00615   -0.27559
  4 Li   -0.00579    0.00421   -0.29723
  5 Li    0.01814    0.00002   -0.30148
  6 Li   -0.00093   -0.01508   -0.29407
  7 Li    0.00353   -0.01327   -0.27466
  8 Li    0.00487   -0.00648   -0.27576
  9 Li    0.00320    0.10392    0.27609
 10 Li   -0.02450   -0.00573    0.22849
 11 Li    0.13334    0.05379    0.28862
 12 Li    0.02716   -0.01337    0.30949
 13 Li   -0.01778    0.09207    0.14646
 14 Li    0.06366    0.01658    0.39736
 15 Li   -0.00438    0.05170    0.32739
 16 Li   -0.03165    0.03607    0.37773
 17 Li   -0.03960   -0.08699    0.38344
 18 Li   -0.00627   -0.01983    0.00743
 19 Li    0.02145    0.00702    0.00114
 20 Li   -0.01887   -0.00354   -0.16422
 21 Li    0.01708   -0.00767   -0.02348
 22 Li    0.01926   -0.00693    0.01660
 23 Li   -0.02051    0.00102    0.00393
 24 Li    0.00722   -0.01428   -0.00458
 25 Li    0.01911    0.00415    0.05061
 26 Li   -0.02491    0.00219    0.01867
 27 Li    0.00242   -0.06942   -0.01669
 28 Li   -0.01866   -0.00427    0.01702
 29 Li   -0.06564   -0.05885    0.01409
 30 Li    0.04730    0.03244    0.00183
 31 Li   -0.04328   -0.01603    0.00415
 32 Li   -0.04473    0.08748    0.00987
 33 Li    0.01115   -0.02039   -0.02600
 34 Li   -0.00061   -0.02063   -0.02130
 35 Li    0.01318    0.01513    0.02236
 36 F     0.15581   -0.18866   -0.15513
 37 H    -0.02957   -0.00977   -0.02462
 38 N    -0.12876    0.03921    0.11428
 39 N    -0.01846    0.06034   -0.02453

System changes: positions 

Initializing position-dependent things.

Density initialized from wave functions
       .-----------------------.  
      /|                       |  
     / |                       |  
    /  |                       |  
   /   |                       |  
  /    |                       |  
 *     |                       |  
 |     |                       |  
 |     |                       |  
 |     |                       |  
 |     |                       |  
 |     |                       |  
 |     |                       |  
 |     |                       |  
 |     |                       |  
 |     |                     Li|  
 |   F | Li  Li      LH  Li    |  
 |     |  Li      LiN     Li   |  
 | Li  |           Li N        |  
 |     |Li     Li  Li   Li     |  
 |     |  Li                   |  
 |   LiLi    LLi     LiLi      |  
 |     |  Li      Li      Li   |  
 | Li  |   Li      Li          |  
 |     |Li      Li      Li     |  
 Li    | Li      Li            |  
 |    Li      Li      Li       |  
 |     |                       |  
 |     |                       |  
 |     |                       |  
 |     |                       |  
 |     |                       |  
 |     |                       |  
 |     .-----------------------.  
 |    /                       /   
 |   /                       /    
 |  /                       /     
 | /                       /      
 |/                       /       
 *-----------------------*        

Positions:
   0 Li     1.617037    1.617037   10.000000    ( 0.0000,  0.0000,  0.0000)
   1 Li     4.851111    1.617037   10.000000    ( 0.0000,  0.0000,  0.0000)
   2 Li     8.085185    1.617037   10.000000    ( 0.0000,  0.0000,  0.0000)
   3 Li     1.617037    4.851111   10.000000    ( 0.0000,  0.0000,  0.0000)
   4 Li     4.851111    4.851111   10.000000    ( 0.0000,  0.0000,  0.0000)
   5 Li     8.085185    4.851111   10.000000    ( 0.0000,  0.0000,  0.0000)
   6 Li     1.617037    8.085185   10.000000    ( 0.0000,  0.0000,  0.0000)
   7 Li     4.851111    8.085185   10.000000    ( 0.0000,  0.0000,  0.0000)
   8 Li     8.085185    8.085185   10.000000    ( 0.0000,  0.0000,  0.0000)
   9 Li     0.000000    0.000000   11.617037    ( 0.0000,  0.0000,  0.0000)
  10 Li     3.234074    0.000000   11.617037    ( 0.0000,  0.0000,  0.0000)
  11 Li     6.468148    0.000000   11.617037    ( 0.0000,  0.0000,  0.0000)
  12 Li     0.000000    3.234074   11.617037    ( 0.0000,  0.0000,  0.0000)
  13 Li     3.234074    3.234074   11.617037    ( 0.0000,  0.0000,  0.0000)
  14 Li     6.468148    3.234074   11.617037    ( 0.0000,  0.0000,  0.0000)
  15 Li     0.000000    6.468148   11.617037    ( 0.0000,  0.0000,  0.0000)
  16 Li     3.234074    6.468148   11.617037    ( 0.0000,  0.0000,  0.0000)
  17 Li     6.468148    6.468148   11.617037    ( 0.0000,  0.0000,  0.0000)
  18 Li     1.866529    1.798186   13.543612    ( 0.0000,  0.0000,  0.0000)
  19 Li     4.866734    1.566268   13.363928    ( 0.0000,  0.0000,  0.0000)
  20 Li     8.452115    1.639968   13.918986    ( 0.0000,  0.0000,  0.0000)
  21 Li     1.514433    5.013493   13.640715    ( 0.0000,  0.0000,  0.0000)
  22 Li     4.631989    4.713394   13.690521    ( 0.0000,  0.0000,  0.0000)
  23 Li     8.097327    4.835167   13.629606    ( 0.0000,  0.0000,  0.0000)
  24 Li     1.618235    8.356509   13.639278    ( 0.0000,  0.0000,  0.0000)
  25 Li     4.885232    8.147991   13.478366    ( 0.0000,  0.0000,  0.0000)
  26 Li     8.095054    8.109619   13.507900    ( 0.0000,  0.0000,  0.0000)
  27 Li     0.411170    1.518807   16.315829    ( 0.0000,  0.0000,  0.0000)
  28 Li     3.613730    0.112956   15.530166    ( 0.0000,  0.0000,  0.0000)
  29 Li     7.053610    0.197707   15.829632    ( 0.0000,  0.0000,  0.0000)
  30 Li    -0.954412    3.525998   16.546100    ( 0.0000,  0.0000,  0.0000)
  31 Li     2.102656    3.887668   16.417938    ( 0.0000,  0.0000,  0.0000)
  32 Li     6.390494    2.778113   15.565711    ( 0.0000,  0.0000,  0.0000)
  33 Li    -0.011396    6.784851   15.614668    ( 0.0000,  0.0000,  0.0000)
  34 Li     3.230232    6.728680   15.492934    ( 0.0000,  0.0000,  0.0000)
  35 Li     6.400492    6.489664   15.432877    ( 0.0000,  0.0000,  0.0000)
  36 F     10.427643    3.122554   17.253908    ( 0.0000,  0.0000,  0.0000)
  37 H      7.884218    1.721381   17.754147    ( 0.0000,  0.0000,  0.0000)
  38 N      8.245615    1.738600   15.723393    ( 0.0000,  0.0000,  0.0000)
  39 N      7.397750    1.900347   16.867580    ( 0.0000,  0.0000,  0.0000)

Unit cell:
           periodic     x           y           z      points  spacing
  1. axis:    yes    9.702222    0.000000    0.000000    60     0.1617
  2. axis:    yes    0.000000    9.702222    0.000000    60     0.1617
  3. axis:    no     0.000000    0.000000   26.601111   168     0.1583

  Lengths:   9.702222   9.702222  26.601111
  Angles:   90.000000  90.000000  90.000000

Effective grid spacing dv^(1/3) = 0.1606

     iter     time        total  log10-change:
                         energy  eigst   dens
iter:   1 04:06:53  -256.693407  -1.08
iter:   2 04:07:34  -256.683929  -1.75  -1.95
iter:   3 04:08:15  -256.682034c -2.27  -2.19
iter:   4 04:08:57  -256.680635c -2.48  -2.38
Writing to output.gpw (mode='')

iter:   5 04:09:39  -256.680994c -2.83  -2.65
iter:   6 04:10:20  -256.680821c -2.58  -2.62
iter:   7 04:11:02  -256.680794c -2.74  -2.89
iter:   8 04:11:43  -256.680741c -3.29  -2.96
iter:   9 04:12:25  -256.680816c -3.32  -3.10
Writing to output.gpw (mode='')

iter:  10 04:13:07  -256.680741c -3.69  -3.17
iter:  11 04:13:49  -256.680763c -3.80  -3.23
iter:  12 04:14:30  -256.680763c -4.29  -3.43
iter:  13 04:15:11  -256.680772c -4.52  -3.46
iter:  14 04:15:53  -256.680811c -4.34  -3.52
Writing to output.gpw (mode='')

iter:  15 04:16:35  -256.680803c -4.88  -3.76
iter:  16 04:17:16  -256.680799c -4.98  -3.85
iter:  17 04:17:58  -256.680795c -5.04  -4.01c
iter:  18 04:18:39  -256.680798c -5.38  -4.13c
iter:  19 04:19:20  -256.680792c -5.39  -4.25c
Writing to output.gpw (mode='')

iter:  20 04:20:04  -256.680794c -5.72  -4.24c
iter:  21 04:20:45  -256.680798c -5.66  -4.35c
iter:  22 04:21:27  -256.680798c -5.94  -4.54c
iter:  23 04:22:08  -256.680797c -5.93  -4.56c
iter:  24 04:22:50  -256.680797c -6.13  -4.65c
Writing to output.gpw (mode='')

iter:  25 04:23:32  -256.680797c -6.28  -4.78c
iter:  26 04:24:14  -256.680797c -6.52  -4.86c
iter:  27 04:24:55  -256.680798c -6.41  -4.91c
iter:  28 04:25:36  -256.680798c -6.63  -5.01c
iter:  29 04:26:18  -256.680798c -6.81  -5.02c
Writing to output.gpw (mode='')

iter:  30 04:27:00  -256.680798c -6.92  -5.09c
iter:  31 04:27:41  -256.680798c -7.19  -5.24c
iter:  32 04:28:23  -256.680798c -6.91  -5.31c
